Membrane in water
40167
    1TCq1    O1    1   3.304   2.139  11.091  0.1302  0.0649 -0.8088
    1TCq1    C1    2   3.300   2.021  11.150  0.3515  0.2897  0.5768
    1TCq1    O2    3   3.377   1.927  11.143  0.0679 -0.5205  0.2699
    1TCq1    C2    4   3.209   2.031  11.266  0.6212 -0.4309 -0.1226
    1TCq1    C3    5   3.205   2.141  11.348  0.2395 -0.1023  0.1835
    1TCq1    C4    6   3.137   2.132  11.467 -0.4401  0.1054 -0.1007
    1TCq1    C5    7   3.077   2.017  11.499 -0.6347  0.4428  0.1768
    1TCq1    C6    8   3.097   1.907  11.422  0.4759  0.0374  0.1596
    1TCq1    C7    9   3.155   1.915  11.300  0.8344 -0.1498 -0.1096
    1TCq1    C8   10   3.052   1.780  11.480  0.2080 -0.0415  0.4388
    1TCq1    O4   11   3.043   1.782  11.602 -0.0938 -0.1329 -0.0086
    1TCq1    C9   12   3.132   2.244  11.555  0.5203  1.0758  0.1458
    1TCq1    O5   13   3.192   2.347  11.513  0.1065  0.2169 -0.1711
    1TCq1    O6   14   3.082   2.233  11.668  0.7078  0.0510  0.5250
    1TCq1    H1   15   3.223   2.191  11.112  1.1293  1.1021  0.3760
    1TCq1    H2   16   3.251   2.234  11.315 -1.0941  0.8470  0.9866
    1TCq1    H3   17   3.034   2.012  11.598  2.0580 -0.7839  1.2762
    1TCq1    H4   18   3.164   1.829  11.234 -2.4669 -1.3507  1.0134
    2MPD2     C   19   2.966   1.269  11.445  0.2261  0.2847  0.3201
    2MPD2    C1   20   2.931   1.362  11.548  0.6039 -0.2158  0.5165
    2MPD2    C2   21   2.974   1.495  11.532 -0.1473  0.2047  0.0162
    2MPD2    C3   22   3.027   1.543  11.416 -0.0976  0.4078 -0.4870
    2MPD2    C4   23   3.054   1.452  11.320 -0.1172  0.4015 -0.2114
    2MPD2    C5   24   3.026   1.317  11.332  0.5346 -0.2311 -0.0120
    2MPD2     H   25   2.943   1.568  11.606 -0.7514  2.0849 -2.0871
    2MPD2    H1   26   3.104   1.483  11.229 -0.5958 -0.8903 -0.9142
    2MPD2    H2   27   2.943   1.164  11.457  1.0780  0.1575  0.8287
    2MPD2    H3   28   3.060   1.247  11.256  1.8191  0.8264 -0.4319
    2MPD2     N   29   3.051   1.677  11.390 -0.2275 -0.1936  0.8569
    2MPD2    H5   30   3.078   1.708  11.297 -3.4153  0.7918  0.2750
    2MPD2    N1   31   2.865   1.324  11.664 -0.0316  0.6523 -0.2813
    2MPD2    H7   32   2.861   1.400  11.731 -0.0643  0.9731 -0.6438
    3TCq1    O1   33   2.555   2.633  10.684  0.4438 -0.1597  0.6843
    3TCq1    C1   34   2.654   2.716  10.658 -0.1675  0.3271 -0.2384
    3TCq1    O2   35   2.772   2.690  10.657  0.0300 -0.4779  0.0425
    3TCq1    C2   36   2.602   2.850  10.655  0.9706 -0.2756 -0.0170
    3TCq1    C3   37   2.677   2.940  10.712  0.5105  0.8922  0.2734
    3TCq1    C4   38   2.629   3.070  10.715 -0.2573 -0.3066 -0.4578
    3TCq1    C5   39   2.516   3.103  10.645  0.2143 -0.4536 -0.0637
    3TCq1    C6   40   2.441   3.006  10.586  0.2225  0.2382 -0.1826
    3TCq1    C7   41   2.484   2.876  10.590  0.2650 -0.4387  0.3003
    3TCq1    C8   42   2.304   3.029  10.543  0.5858  0.3941 -0.1549
    3TCq1    O4   43   2.245   2.930  10.497 -0.6089 -0.2359 -0.0998
    3TCq1    C9   44   2.702   3.174  10.782 -0.6006  0.3745 -0.4770
    3TCq1    O5   45   2.795   3.139  10.863  0.2424 -0.2240  0.0667
    3TCq1    O6   46   2.687   3.299  10.749 -0.1333 -0.0499 -0.4166
    3TCq1    H1   47   2.466   2.674  10.694  1.2384  1.9085 -0.6990
    3TCq1    H2   48   2.759   2.907  10.775  1.2520  3.0299  0.4081
    3TCq1    H3   49   2.501   3.210  10.629  1.1691 -0.5911 -1.9027
    3TCq1    H4   50   2.433   2.795  10.540  2.1105 -1.2353 -0.2905
    4MPD2     C   51   1.861   3.283  10.534 -0.8038 -0.8030 -0.6403
    4MPD2    C1   52   1.943   3.335  10.629 -0.3307 -0.1031  0.4474
    4MPD2    C2   53   2.068   3.286  10.650 -0.6147 -0.6889 -0.2671
    4MPD2    C3   54   2.123   3.186  10.572  0.0698  0.2393 -0.2759
    4MPD2    C4   55   2.040   3.132  10.475 -0.1820 -0.2321 -0.0920
    4MPD2    C5   56   1.915   3.183  10.461  0.4466  1.2580 -0.4212
    4MPD2     H   57   2.122   3.341  10.727  0.5586 -1.4450 -0.5536
    4MPD2    H1   58   2.061   3.055  10.401 -0.5584  0.8946 -1.3624
    4MPD2    H2   59   1.758   3.310  10.514  0.2264  3.0703 -0.9101
    4MPD2    H3   60   1.856   3.145  10.379  1.4700  2.0614 -1.5373
    4MPD2     N   61   2.260   3.151  10.583 -0.1967 -0.1355 -0.2405
    4MPD2    H5   62   2.315   3.207  10.648 -1.7255  1.1404 -0.0752
    4MPD2    N1   63   1.896   3.439  10.719  0.2266 -0.5480 -0.8480
    4MPD2    H7   64   1.959   3.475  10.791 -1.2511  0.1658  0.0835
    5TCq1    O1   65   2.620   4.688  11.906  0.3794  0.7765  0.6734
    5TCq1    C1   66   2.666   4.583  11.973 -0.6861  0.0376  0.7581
    5TCq1    O2   67   2.677   4.570  12.094  0.2286  0.4458  0.0259
    5TCq1    C2   68   2.657   4.475  11.879  0.3469 -0.0525  0.0009
    5TCq1    C3   69   2.646   4.354  11.939  0.6712 -0.3557 -0.4013
    5TCq1    C4   70   2.669   4.237  11.878 -0.0299 -0.2529  0.3151
    5TCq1    C5   71   2.720   4.241  11.752  0.4319  1.4055  0.4559
    5TCq1    C6   72   2.739   4.360  11.685  0.3614  0.5723 -0.1068
    5TCq1    C7   73   2.704   4.481  11.744 -0.1718 -0.1166  0.4006
    5TCq1    C8   74   2.757   4.361  11.534  0.6248 -0.3460 -0.4536
    5TCq1    O4   75   2.699   4.454  11.478 -0.0063 -0.1327 -0.3369
    5TCq1    C9   76   2.655   4.119  11.956 -0.1421 -0.0468 -0.1608
    5TCq1    O5   77   2.681   4.012  11.901  0.4033  0.2194  0.2779
    5TCq1    O6   78   2.633   4.130  12.079 -0.0540 -0.0744  0.2097
    5TCq1    H1   79   2.607   4.680  11.809 -0.0797 -1.4321  0.9017
    5TCq1    H2   80   2.629   4.347  12.046 -1.4640 -2.4035 -0.8841
    5TCq1    H3   81   2.766   4.148  11.720 -3.1687  0.3542 -1.6954
    5TCq1    H4   82   2.742   4.573  11.701 -0.1926  0.8573  2.4690
    6MPD2     C   83   2.714   4.263  11.256  0.5823  0.0592 -0.3282
    6MPD2    C1   84   2.769   4.187  11.358 -0.1322  0.2729  0.4569
    6MPD2    C2   85   2.793   4.055  11.337 -0.6111  0.7076 -0.0146
    6MPD2    C3   86   2.753   3.999  11.217  0.3619  0.1061 -0.3610
    6MPD2    C4   87   2.719   4.074  11.111  0.0607  0.3897  0.7446
    6MPD2    C5   88   2.685   4.198  11.131  0.1869  0.0035  0.5144
    6MPD2     H   89   2.821   4.006  11.430 -0.3658 -1.4859 -1.2242
    6MPD2    H1   90   2.696   4.027  11.015  0.7689 -1.9502  1.7326
    6MPD2    H2   91   2.683   4.366  11.270 -0.2389  0.0287 -1.9212
    6MPD2    H3   92   2.635   4.250  11.050  0.1970 -2.3875 -1.0058
    6MPD2     N   93   2.767   3.857  11.205 -0.0185  0.0119  0.0809
    6MPD2    H5   94   2.823   3.815  11.279 -1.7087 -0.8146  0.8822
    6MPD2    N1   95   2.792   4.238  11.487 -0.1982  0.1154 -0.3086
    6MPD2    H7   96   2.834   4.172  11.552 -2.4308  0.6023  1.6580
    7TCq1    O1   97   4.031   3.758  12.842  0.5352 -0.0703  1.1433
    7TCq1    C1   98   4.004   3.627  12.882  0.0825  0.0541 -0.9336
    7TCq1    O2   99   3.925   3.599  12.973  0.1838 -0.6036 -0.0212
    7TCq1    C2  100   4.137   3.558  12.880  0.4322  0.5657 -0.7199
    7TCq1    C3  101   4.235   3.588  12.785  0.2105  0.3604  0.1291
    7TCq1    C4  102   4.353   3.523  12.794 -0.0581  0.2645 -0.3439
    7TCq1    C5  103   4.380   3.437  12.892  0.1276 -0.1997 -0.2236
    7TCq1    C6  104   4.286   3.422  12.999 -0.1987  0.3001  0.0597
    7TCq1    C7  105   4.162   3.473  12.988 -0.4604  0.0339  0.4874
    7TCq1    C8  106   4.327   3.353  13.120  0.4069 -0.4924 -0.6269
    7TCq1    O4  107   4.432   3.291  13.116  0.1326  0.4289  0.1060
    7TCq1    C9  108   4.468   3.555  12.704  0.0394 -0.2039 -0.3869
    7TCq1    O5  109   4.570   3.481  12.713  0.9712  0.3783  0.1219
    7TCq1    O6  110   4.458   3.659  12.633 -0.2668  0.2662  0.0057
    7TCq1    H1  111   4.065   3.760  12.750 -1.0156  0.4640  0.5698
    7TCq1    H2  112   4.213   3.653  12.702 -2.0164 -0.7290 -0.1450
    7TCq1    H3  113   4.469   3.377  12.875 -0.1233 -0.5505 -0.2894
    7TCq1    H4  114   4.086   3.456  13.064 -0.7131  2.4693  0.7673
    8MPD2     C  115   4.195   3.096  13.545  0.3246 -0.2197 -0.2588
    8MPD2    C1  116   4.278   3.058  13.444 -0.7379 -0.6528 -0.5948
    8MPD2    C2  117   4.307   3.143  13.334 -0.0800  0.0173 -0.0430
    8MPD2    C3  118   4.230   3.266  13.330 -0.1998 -0.3069  0.9384
    8MPD2    C4  119   4.146   3.303  13.434 -0.1267 -0.8943 -0.2612
    8MPD2    C5  120   4.126   3.215  13.534 -0.5131 -0.3455  0.0313
    8MPD2     H  121   4.373   3.103  13.257 -1.3011  1.8921 -2.0581
    8MPD2    H1  122   4.091   3.397  13.434  2.6816  0.7246  2.9512
    8MPD2    H2  123   4.184   3.039  13.636  2.0235  1.6147  1.0885
    8MPD2    H3  124   4.071   3.255  13.619 -1.6256 -2.1939  0.1885
    8MPD2     N  125   4.238   3.355  13.221 -0.0922 -0.7579 -0.0779
    8MPD2    H5  126   4.174   3.433  13.213 -0.5200 -1.1637 -0.6374
    8MPD2    N1  127   4.333   2.930  13.461 -0.6722 -0.3149  0.0881
    8MPD2    H7  128   4.283   2.860  13.517  1.1764 -1.6961 -0.0002
    9TCq1    O1  129   2.366   1.171  11.002  0.0226  0.0116  0.3271
    9TCq1    C1  130   2.448   1.264  10.950  0.5073  0.5653  0.3364
    9TCq1    O2  131   2.562   1.243  10.910  0.4757 -0.4172 -0.6872
    9TCq1    C2  132   2.388   1.393  10.970  0.0407  0.7193  0.5325
    9TCq1    C3  133   2.253   1.419  10.980  0.5875 -0.1173 -0.1160
    9TCq1    C4  134   2.212   1.540  11.028  0.2900  0.1723 -0.0547
    9TCq1    C5  135   2.301   1.632  11.077  0.4857  0.1758  0.6121
    9TCq1    C6  136   2.432   1.615  11.050  0.4031 -0.2770 -0.6344
    9TCq1    C7  137   2.477   1.495  11.000 -0.1831 -0.3208  0.0575
    9TCq1    C8  138   2.531   1.707  11.095  0.1599 -0.2390  0.1784
    9TCq1    O4  139   2.641   1.697  11.039  1.0161  0.3135 -0.4316
    9TCq1    C9  140   2.072   1.572  11.035 -0.3971  0.8866 -0.0988
    9TCq1    O5  141   2.038   1.689  11.077 -0.0898 -0.0292 -0.1383
    9TCq1    O6  142   1.992   1.480  10.992 -0.4135 -0.1997 -0.0762
    9TCq1    H1  143   2.305   1.220  11.062 -0.3598  0.0778 -0.1223
    9TCq1    H2  144   2.184   1.348  10.936  2.2698  0.1343 -3.1249
    9TCq1    H3  145   2.261   1.727  11.110  0.1076  1.3308 -3.1705
    9TCq1    H4  146   2.581   1.481  10.976 -0.3190 -1.0036 -0.1069
   10MPD2     C  147   2.698   1.924  11.203 -0.2476  0.2185  0.1778
   10MPD2    C1  148   2.572   1.888  11.260  0.6882  0.5223  0.6441
   10MPD2    C2  149   2.528   1.951  11.373 -0.0735 -0.3166 -0.0149
   10MPD2    C3  150   2.598   2.051  11.435  0.0489  0.3478  0.7084
   10MPD2    C4  151   2.717   2.101  11.373  0.1570  0.1210 -0.0980
   10MPD2    C5  152   2.758   2.035  11.266  0.6195  0.0863 -0.7061
   10MPD2     H  153   2.445   1.910  11.429 -0.4965 -1.2088 -1.3157
   10MPD2    H1  154   2.778   2.185  11.404 -1.0246  0.9539 -0.0414
   10MPD2    H2  155   2.739   1.892  11.108  0.2821 -0.8724  0.7718
   10MPD2    H3  156   2.852   2.066  11.222  1.4280 -0.1054  0.8825
   10MPD2     N  157   2.558   2.111  11.559 -0.2833  0.0210 -0.5869
   10MPD2    H5  158   2.629   2.174  11.595 -0.5445 -0.1858  0.2954
   10MPD2    N1  159   2.490   1.786  11.206 -0.2082  0.6938 -0.1105
   10MPD2    H7  160   2.398   1.765  11.244  0.3520 -2.3332 -0.4723
   11TCq1    O1  161   3.837   1.949  14.076  0.2102  0.3396 -0.2009
   11TCq1    C1  162   3.705   1.957  14.078  0.1078 -0.2450  0.1747
   11TCq1    O2  163   3.641   1.887  14.000  0.6250  0.0700 -0.3368
   11TCq1    C2  164   3.679   1.970  14.216  0.1967  0.2344 -0.8155
   11TCq1    C3  165   3.756   2.055  14.296  0.3455 -0.1413 -0.5259
   11TCq1    C4  166   3.722   2.077  14.430 -0.1378 -0.1765  0.4930
   11TCq1    C5  167   3.624   2.009  14.490 -0.5625 -0.5909  0.8033
   11TCq1    C6  168   3.550   1.936  14.404  0.3244 -0.0921 -0.1349
   11TCq1    C7  169   3.572   1.907  14.275  0.0025  0.5462  0.2874
   11TCq1    C8  170   3.444   1.866  14.474 -0.1590  0.2815  0.4429
   11TCq1    O4  171   3.438   1.886  14.595 -0.0370  0.1280 -0.2493
   11TCq1    C9  172   3.810   2.156  14.511  1.0294  0.8177  0.0845
   11TCq1    O5  173   3.769   2.187  14.626 -0.0348 -0.0696 -0.4998
   11TCq1    O6  174   3.927   2.161  14.470  0.0208 -0.6642 -0.0181
   11TCq1    H1  175   3.891   2.002  14.139 -0.1590  0.2513  0.1853
   11TCq1    H2  176   3.843   2.103  14.254  0.0857  1.4665  0.7887
   11TCq1    H3  177   3.601   2.022  14.595  1.8335  0.2360  1.2128
   11TCq1    H4  178   3.514   1.844  14.208  1.8165 -2.1662  1.3010
   12MPD2     C  179   3.206   1.702  14.557 -0.2038 -0.2884 -0.8362
   12MPD2    C1  180   3.236   1.737  14.427  0.2897  0.0617 -0.2831
   12MPD2    C2  181   3.168   1.675  14.318  0.5596 -0.3227 -0.3290
   12MPD2    C3  182   3.059   1.592  14.346 -0.6306  0.0695  0.8085
   12MPD2    C4  183   3.027   1.561  14.475 -0.4247 -0.3101  0.1258
   12MPD2    C5  184   3.103   1.616  14.579 -0.3885  0.0542  0.1986
   12MPD2     H  185   3.205   1.700  14.219  0.8387 -2.1626 -0.6941
   12MPD2    H1  186   2.950   1.489  14.497 -1.5064  0.0373 -2.4182
   12MPD2    H2  187   3.266   1.730  14.643  0.7541  0.2580 -1.6814
   12MPD2    H3  188   3.068   1.602  14.680  1.9417  1.2143  1.1599
   12MPD2     N  189   3.008   1.535  14.228 -0.0524 -0.9329 -0.9515
   12MPD2    H5  190   3.035   1.568  14.136  0.7376  0.5682 -0.1705
   12MPD2    N1  191   3.350   1.811  14.393 -0.1983 -0.1113 -0.2250
   12MPD2    H7  192   3.345   1.840  14.296  0.5881  0.5163 -0.0803
   13TCq1    O1  193   2.818   1.292  10.932  0.4028 -0.5390 -0.1597
   13TCq1    C1  194   2.825   1.362  11.049  0.2110 -0.3098 -0.4821
   13TCq1    O2  195   2.881   1.466  11.058 -0.5746  0.5776  0.2672
   13TCq1    C2  196   2.747   1.291  11.150 -0.3194  0.4844  0.0960
   13TCq1    C3  197   2.724   1.157  11.131 -0.0109  0.4201 -0.1178
   13TCq1    C4  198   2.629   1.103  11.215 -0.6078 -0.2477  0.7276
   13TCq1    C5  199   2.571   1.179  11.313  0.0839  0.2217 -0.0947
   13TCq1    C6  200   2.597   1.310  11.322 -0.1774 -0.6622  0.4059
   13TCq1    C7  201   2.698   1.366  11.245  0.4411  0.7254  0.0328
   13TCq1    C8  202   2.544   1.387  11.435 -0.1860 -0.2631  0.0521
   13TCq1    O4  203   2.545   1.508  11.436 -0.6570  0.8020  0.1390
   13TCq1    C9  204   2.602   0.959  11.207 -0.4644 -0.8132 -0.5530
   13TCq1    O5  205   2.661   0.890  11.116  0.1493  0.4486 -0.0161
   13TCq1    O6  206   2.499   0.920  11.267  0.4313 -0.3976  0.2720
   13TCq1    H1  207   2.734   1.242  10.934  0.8300 -1.1704  2.5995
   13TCq1    H2  208   2.782   1.089  11.070  0.3570 -0.1123  0.8181
   13TCq1    H3  209   2.478   1.138  11.352 -0.1738  1.3050  0.4074
   13TCq1    H4  210   2.726   1.470  11.258  0.3279  0.7891 -0.2437
   14MPD2     C  211   2.415   1.215  11.731  0.1871 -0.0142  0.5084
   14MPD2    C1  212   2.448   1.329  11.657  0.3943 -0.9417 -0.0914
   14MPD2    C2  213   2.395   1.449  11.700  0.3957  0.2131 -0.4848
   14MPD2    C3  214   2.308   1.459  11.807 -0.6941  0.3487  1.2633
   14MPD2    C4  215   2.291   1.352  11.890  0.3730 -0.2462  0.1290
   14MPD2    C5  216   2.342   1.231  11.847 -0.6148 -0.6799  0.2656
   14MPD2     H  217   2.410   1.539  11.641 -0.7166  0.3992 -0.4827
   14MPD2    H1  218   2.217   1.359  11.969 -2.3546 -3.6891 -2.0971
   14MPD2    H2  219   2.434   1.112  11.700 -0.5618 -0.4783  1.5839
   14MPD2    H3  220   2.311   1.140  11.896  0.6121 -1.5897 -0.6515
   14MPD2     N  221   2.228   1.570  11.835  0.0281 -0.3029 -0.2608
   14MPD2    H5  222   2.162   1.555  11.911 -0.3538 -0.7839 -0.6853
   14MPD2    N1  223   2.517   1.303  11.538  0.2116  0.0700 -0.3719
   14MPD2    H7  224   2.533   1.203  11.528 -1.9878 -0.4558  1.3269
   15TCq1    O1  225   3.659   0.869   1.808  0.0577  0.5135 -0.4655
   15TCq1    C1  226   3.669   0.842   1.938  0.7297 -0.0790 -0.3069
   15TCq1    O2  227   3.602   0.750   1.994 -0.3150  0.1201  0.1677
   15TCq1    C2  228   3.812   0.866   1.969 -0.1265  0.1390 -0.6146
   15TCq1    C3  229   3.854   0.839   2.095 -0.1667 -0.4156 -0.5117
   15TCq1    C4  230   3.981   0.800   2.126 -0.5054  0.0080 -0.0784
   15TCq1    C5  231   4.074   0.795   2.026  0.2850 -0.3313  0.2757
   15TCq1    C6  232   4.036   0.831   1.898  0.5826  0.2552  1.2558
   15TCq1    C7  233   3.906   0.865   1.867  0.7051 -0.7815 -1.3643
   15TCq1    C8  234   4.132   0.794   1.792  0.1720 -0.4409  0.0162
   15TCq1    O4  235   4.242   0.749   1.824 -0.4558  0.4618 -0.1939
   15TCq1    C9  236   4.002   0.755   2.261 -0.3765 -0.2662  0.2858
   15TCq1    O5  237   4.117   0.707   2.281  0.0115  0.0645  0.3024
   15TCq1    O6  238   3.894   0.730   2.321  0.5595 -0.1335 -0.0783
   15TCq1    H1  239   3.708   0.950   1.782 -0.1686  0.9417  0.4343
   15TCq1    H2  240   3.776   0.836   2.170 -1.1619  1.5305 -1.4774
   15TCq1    H3  241   4.174   0.757   2.044  0.1409 -0.6401  0.4248
   15TCq1    H4  242   3.861   0.845   1.770 -1.8446  3.3994 -1.0191
   16MPD2     C  243   4.092   0.851   1.440 -0.2063  0.0936  0.1264
   16MPD2    C1  244   4.149   0.797   1.547 -0.1633  0.3826  0.4965
   16MPD2    C2  245   4.259   0.707   1.532  0.0392 -0.5585 -0.0608
   16MPD2    C3  246   4.308   0.684   1.405 -0.2418 -0.0189 -0.5413
   16MPD2    C4  247   4.249   0.748   1.300  0.5619  0.4037  0.4226
   16MPD2    C5  248   4.141   0.832   1.318 -0.6031  0.0476 -0.5366
   16MPD2     H  249   4.306   0.648   1.609  0.1794 -1.4683 -0.8285
   16MPD2    H1  250   4.271   0.723   1.197  2.1244  0.5200  0.7195
   16MPD2    H2  251   4.004   0.913   1.451 -1.6522 -2.1087  1.0413
   16MPD2    H3  252   4.087   0.871   1.233  0.3622 -2.0664 -2.1427
   16MPD2     N  253   4.411   0.581   1.385 -0.1501  0.0470 -0.1477
   16MPD2    H5  254   4.447   0.533   1.466 -1.4509  1.4988  1.3014
   16MPD2    N1  255   4.091   0.833   1.668 -0.0838 -0.4926  0.7477
   16MPD2    H7  256   4.002   0.881   1.670  0.7481  1.2128 -1.5250
   17TCq1    O1  257   2.418   2.044  10.714  0.5449  0.5327  0.7996
   17TCq1    C1  258   2.479   1.929  10.684 -0.3488 -0.4420  0.4040
   17TCq1    O2  259   2.584   1.919  10.625  0.3525  0.2420  0.0696
   17TCq1    C2  260   2.389   1.814  10.711 -0.5226  0.1650 -0.4606
   17TCq1    C3  261   2.256   1.826  10.693 -0.4440 -0.0915  0.0119
   17TCq1    C4  262   2.184   1.715  10.674 -0.0549  0.0169 -0.2068
   17TCq1    C5  263   2.255   1.592  10.647  0.0554 -0.1727 -0.5879
   17TCq1    C6  264   2.390   1.587  10.662  0.1028 -0.9368  0.1436
   17TCq1    C7  265   2.462   1.703  10.704 -0.2155  0.0015 -0.3690
   17TCq1    C8  266   2.456   1.451  10.636  0.0771 -0.2498 -0.2331
   17TCq1    O4  267   2.377   1.373  10.586  0.2604 -0.2546 -0.3033
   17TCq1    C9  268   2.040   1.717  10.678 -0.0362  0.1799  0.0908
   17TCq1    O5  269   1.974   1.607  10.665 -0.2354 -0.5266  0.0434
   17TCq1    O6  270   1.983   1.826  10.692  0.5369 -0.4861  0.4567
   17TCq1    H1  271   2.359   2.019  10.788 -0.5361 -0.6394 -0.4622
   17TCq1    H2  272   2.211   1.923  10.711 -0.3786  0.2899 -1.8660
   17TCq1    H3  273   2.196   1.504  10.624 -1.6362  0.0761  2.6562
   17TCq1    H4  274   2.569   1.710  10.720 -0.1050  0.3521 -1.3388
   18MPD2     C  275   2.635   1.209  10.573 -0.3024  0.1395 -0.1415
   18MPD2    C1  276   2.681   1.338  10.602  0.4373  0.6298  0.2430
   18MPD2    C2  277   2.814   1.368  10.602 -0.5838  0.6132 -0.6139
   18MPD2    C3  278   2.906   1.270  10.576 -0.2480 -0.3205  0.3271
   18MPD2    C4  279   2.862   1.142  10.532  0.2287 -0.9772  0.4911
   18MPD2    C5  280   2.724   1.118  10.521 -0.8733 -0.0102 -0.7844
   18MPD2     H  281   2.831   1.474  10.623 -2.8537  1.4170 -2.8407
   18MPD2    H1  282   2.931   1.073  10.485  0.2923 -1.2333  0.9676
   18MPD2    H2  283   2.530   1.183  10.577 -0.1002 -0.2711  2.2997
   18MPD2    H3  284   2.689   1.024  10.477  0.0127 -0.9873  0.6029
   18MPD2     N  285   3.042   1.297  10.571  0.3553  0.8585 -0.2312
   18MPD2    H5  286   3.104   1.220  10.547 -1.0250 -1.0715  2.4489
   18MPD2    N1  287   2.593   1.446  10.632  0.2432  0.4473 -0.2202
   18MPD2    H7  288   2.635   1.534  10.660  2.5757 -1.3587  1.9583
   19TMC2    C1  289   4.221   1.681  13.713 -0.4006  0.3862  0.2376
   19TMC2    C2  290   4.155   1.799  13.681  0.3608 -0.1265 -0.0202
   19TMC2    C3  291   4.032   1.777  13.629 -0.0564 -0.0216  0.0182
   19TMC2    C4  292   4.163   1.558  13.698  0.3727 -0.2788  0.1057
   19TMC2    C5  293   4.041   1.548  13.635 -0.4535  0.5297 -0.5881
   19TMC2    C6  294   3.974   1.659  13.612  0.4192 -0.1647 -0.3220
   19TMC2     C  295   4.345   1.708  13.781  0.3103  0.4469 -0.0440
   19TMC2     O  296   4.394   1.818  13.768  0.3425  0.2396  0.1588
   19TMC2     H  297   4.185   1.900  13.707  3.7834 -0.7373 -1.6021
   19TMC2    H1  298   4.226   1.471  13.715  2.9921  1.4493 -0.8982
   19TMC2    H2  299   3.874   1.645  13.574  0.3570  0.0991 -0.2544
   19TMC2    C7  300   3.973   1.422  13.678  0.5963 -0.7050  0.1329
   19TMC2    C8  301   3.953   1.890  13.609  0.3806  0.0486 -0.8037
   19TMC2    O1  302   4.034   1.354  13.759  0.2793  0.4155  0.0876
   19TMC2    O2  303   3.839   1.877  13.644  0.0618 -0.1050  0.7180
   19TMC2    O5  304   3.993   1.944  13.490 -0.0288  0.8842 -0.1542
   19TMC2    H5  305   4.086   1.928  13.465 -0.2987  0.1380 -0.6893
   20MPD2     C  306   4.541   1.709  14.011 -0.4169 -0.5423 -0.0025
   20MPD2    C1  307   4.473   1.601  13.964  0.1265 -0.1452 -0.7381
   20MPD2    C2  308   4.494   1.476  14.028  0.2727  0.6083  0.2355
   20MPD2    C3  309   4.593   1.466  14.128 -0.8357  0.0893  0.4311
   20MPD2    C4  310   4.662   1.578  14.164  0.5567  0.5511  0.5579
   20MPD2    C5  311   4.639   1.695  14.101 -0.1420 -0.2924  0.2261
   20MPD2     H  312   4.441   1.393  13.982  2.8081 -0.2204 -1.1602
   20MPD2    H1  313   0.009   1.565  14.242  2.0083  2.9123 -0.4055
   20MPD2    H2  314   4.519   1.810  13.978 -0.6249 -1.0536 -1.4269
   20MPD2    H3  315   4.689   1.787  14.130  1.2132 -0.8739 -0.2972
   20MPD2     N  316   4.629   1.344  14.189  0.3182 -0.3731  0.0017
   20MPD2    H5  317   4.715   1.341  14.243  0.0534 -0.7661  0.4041
   20MPD2    N1  318   4.374   1.609  13.869  0.6969 -0.4750  0.0030
   20MPD2    H7  319   4.307   1.532  13.872  1.7341 -1.3409  0.9375
   21MPD2     C  320   2.268   2.259  14.522  0.5867  0.5788 -0.7208
   21MPD2    C1  321   2.295   2.132  14.479 -0.0027  0.2643 -0.2410
   21MPD2    C2  322   2.195   2.039  14.471  0.0488  0.1008 -0.7009
   21MPD2    C3  323   2.064   2.069  14.523  0.7970 -0.8507  0.0452
   21MPD2    C4  324   2.047   2.195  14.581  0.2820  0.2027  0.0937
   21MPD2    C5  325   2.144   2.290  14.578 -0.0387 -0.4765  0.5516
   21MPD2     H  326   2.216   1.941  14.432  2.7944  0.7854 -0.9207
   21MPD2    H1  327   1.954   2.226  14.627  1.2547  2.3894  0.5647
   21MPD2    H2  328   2.343   2.337  14.516  1.2638 -0.1182 -1.3734
   21MPD2    H3  329   2.122   2.386  14.623 -2.5908 -0.2000 -1.3221
   21MPD2     N  330   1.955   1.982  14.531  0.4519 -0.1783  0.1098
   21MPD2    H5  331   1.875   2.007  14.588  0.1256 -1.0082  0.0097
   21MPD2    N1  332   2.420   2.100  14.425 -0.0767  0.7294 -0.9581
   21MPD2    H7  333   2.425   2.008  14.382 -0.9211 -0.1538  0.8290
   22TCq2    C1  334   1.955   1.853  14.489 -0.1690 -0.1074 -0.4389
   22TCq2    O2  335   2.029   1.790  14.413 -0.3252  0.0400 -0.1262
   22TCq2    C2  336   1.850   1.775  14.545 -0.6082 -0.0796  0.0385
   22TCq2    C3  337   1.878   1.644  14.568 -0.3124 -0.3938  0.1986
   22TCq2    C4  338   1.785   1.578  14.643 -0.0181  0.0416  0.4901
   22TCq2    C5  339   1.678   1.644  14.698  0.4407 -0.2177  0.4464
   22TCq2    C6  340   1.653   1.772  14.669  0.0860 -0.5173 -0.6805
   22TCq2    C7  341   1.739   1.841  14.594 -0.8065 -0.4233  0.1776
   22TCq2    C8  342   1.567   1.842  14.768  0.0695 -0.0509 -0.0298
   22TCq2    O4  343   1.531   1.786  14.872  0.6931  0.1785 -0.6235
   22TCq2    C9  344   1.837   1.461  14.713  1.1509  0.6026  0.2263
   22TCq2    O5  345   1.783   1.427  14.815  0.2762  0.2998  0.1346
   22TCq2    O6  346   1.957   1.432  14.681  0.4383  0.4123  0.0951
   22TCq2    H2  347   1.964   1.596  14.524 -1.9810 -1.2712 -2.0975
   22TCq2    H3  348   1.618   1.590  14.771 -0.8567  0.9953  0.2716
   22TCq2    H4  349   1.718   1.945  14.573 -0.4578  0.2929  3.3883
   23MPD2     C  350   4.180   3.247  15.026  0.4032 -0.0087  0.0579
   23MPD2    C1  351   4.061   3.218  15.094 -0.4286 -0.0846  0.4630
   23MPD2    C2  352   3.950   3.286  15.055 -0.2073  0.3517  0.3168
   23MPD2    C3  353   3.957   3.394  14.968  0.0497 -0.0102 -0.4068
   23MPD2    C4  354   4.076   3.430  14.919 -0.5265 -0.5115 -0.3070
   23MPD2    C5  355   4.188   3.356  14.943  0.6383  0.0931  0.1064
   23MPD2     H  356   3.859   3.265  15.109 -1.1885 -0.2403 -1.5462
   23MPD2    H1  357   4.093   3.526  14.871 -0.1146  0.3231  1.5209
   23MPD2    H2  358   4.271   3.193  15.051  1.6206  0.4158 -3.4986
   23MPD2    H3  359   4.283   3.390  14.902  0.7173 -0.5665 -0.2535
   23MPD2     N  360   3.840   3.460  14.923 -0.3931 -0.2098  0.4275
   23MPD2    H5  361   3.862   3.540  14.864 -0.0822 -1.1620 -0.7400
   23MPD2    N1  362   4.048   3.108  15.184 -0.7590 -0.3180 -0.3513
   23MPD2    H7  363   3.959   3.106  15.232 -0.6927 -1.8446 -0.2838
   24TCq2    C1  364   3.707   3.434  14.941 -0.0301  0.6168  0.5927
   24TCq2    O2  365   3.660   3.342  15.004  0.3356 -0.4762  0.0151
   24TCq2    C2  366   3.620   3.522  14.860 -0.5713  0.2344  0.4690
   24TCq2    C3  367   3.664   3.571  14.742  0.3798  1.0196 -0.0920
   24TCq2    C4  368   3.573   3.620  14.653  0.4083  0.3762  0.2292
   24TCq2    C5  369   3.440   3.625  14.679 -0.3284  0.5469 -0.1236
   24TCq2    C6  370   3.396   3.592  14.805  0.6004  0.1187  0.1845
   24TCq2    C7  371   3.483   3.525  14.890  0.3106 -0.1250 -0.0486
   24TCq2    C8  372   3.252   3.578  14.819  0.5429  0.1274  0.1848
   24TCq2    O4  373   3.204   3.565  14.931  0.3004 -0.0276 -0.4335
   24TCq2    C9  374   3.620   3.675  14.529 -0.2995 -0.3067  0.6092
   24TCq2    O5  375   3.744   3.686  14.524  0.1340  0.7398 -0.1441
   24TCq2    O6  376   3.543   3.760  14.476 -0.0822 -0.2873 -0.0987
   24TCq2    H2  377   3.768   3.562  14.713  0.3756  1.4592 -0.2469
   24TCq2    H3  378   3.378   3.691  14.619  1.3114  1.0719 -1.2405
   24TCq2    H4  379   3.453   3.508  14.993 -0.9621  1.2292 -0.1834
   25TMC2    C1  380   2.275   0.662  11.471  0.0585 -0.1531  0.5980
   25TMC2    C2  381   2.403   0.702  11.507  0.2613 -1.1469 -0.0121
   25TMC2    C3  382   2.421   0.780  11.617  0.7513  0.0497  0.1629
   25TMC2    C4  383   2.167   0.687  11.545 -0.0613 -0.3961  0.5918
   25TMC2    C5  384   2.189   0.771  11.653 -0.1600 -0.1935  0.3157
   25TMC2    C6  385   2.318   0.814  11.693 -0.2675  0.8392  0.1788
   25TMC2     C  386   2.255   0.605  11.337  0.5319  0.4726 -0.9884
   25TMC2     O  387   2.339   0.653  11.257  0.5124  0.0924 -0.1855
   25TMC2     H  388   2.488   0.673  11.446  1.1237  0.5805  0.3516
   25TMC2    H1  389   2.069   0.666  11.504 -0.2473 -1.6278  1.6957
   25TMC2    H2  390   2.337   0.879  11.778  1.5598 -0.5553  0.8448
   25TMC2    C7  391   2.077   0.808  11.744  0.0429 -0.7526 -0.5533
   25TMC2    C8  392   2.544   0.855  11.633 -0.1847  0.1580 -0.2045
   25TMC2    O1  393   2.122   0.853  11.850  0.5174 -0.0697  0.1635
   25TMC2    O2  394   2.577   0.878  11.746 -0.5723  0.1803 -0.0314
   25TMC2    O5  395   2.526   0.954  11.542 -0.1644 -0.4791  0.1490
   25TMC2    H5  396   2.507   0.909  11.457  3.2016 -0.2651 -0.7102
   26MPD2     C  397   2.048   0.392  10.921  0.1770  0.3407 -0.1104
   26MPD2    C1  398   1.950   0.399  11.013 -0.3084  0.0515 -0.3814
   26MPD2    C2  399   1.978   0.436  11.142  0.1433  0.7388  0.0112
   26MPD2    C3  400   2.109   0.470  11.181 -0.2232 -0.7124  0.8073
   26MPD2    C4  401   2.204   0.459  11.087  1.0737  0.1282 -0.0982
   26MPD2    C5  402   2.177   0.415  10.962 -0.0476 -0.1927 -0.0060
   26MPD2     H  403   1.895   0.453  11.210  0.1854  0.0871  0.2265
   26MPD2    H1  404   2.306   0.484  11.113  1.0732  0.3964 -0.3585
   26MPD2    H2  405   2.029   0.380  10.815 -2.6159 -0.4160  0.4782
   26MPD2    H3  406   2.256   0.417  10.888 -0.6727 -1.0697 -0.6955
   26MPD2     N  407   2.141   0.524  11.307 -0.1774 -0.0069 -0.1709
   26MPD2    H5  408   2.074   0.496  11.379  0.7931  2.0438  1.5349
   26MPD2    N1  409   1.817   0.381  10.967 -0.0820 -0.0796 -0.7042
   26MPD2    H7  410   1.811   0.361  10.868 -1.1275  1.1065 -0.8856
   27TMC2    C1  411   1.106   2.707  12.258  0.1909  0.0266  0.3761
   27TMC2    C2  412   1.216   2.618  12.246  0.3229  0.1963  0.2322
   27TMC2    C3  413   1.319   2.649  12.333  0.5945  0.6097  0.0628
   27TMC2    C4  414   1.108   2.815  12.343  0.5008 -0.1871  0.2172
   27TMC2    C5  415   1.211   2.843  12.426 -0.6682  0.5273  0.2633
   27TMC2    C6  416   1.312   2.751  12.425  0.1107  0.0134  0.3116
   27TMC2     C  417   0.973   2.659  12.239  0.1371  0.6358 -0.3325
   27TMC2     O  418   0.962   2.559  12.170 -0.5657 -0.3929 -0.1235
   27TMC2     H  419   1.215   2.529  12.185 -1.2494 -1.0484  2.0475
   27TMC2    H1  420   1.025   2.883  12.355  0.4237 -0.1117 -0.7276
   27TMC2    H2  421   1.397   2.759  12.492  2.1885 -0.8099 -2.2346
   27TMC2    C7  422   1.169   2.898  12.549  0.3812  0.5051 -0.3015
   27TMC2    C8  423   1.437   2.580  12.332  0.1665 -0.3050 -0.0792
   27TMC2    O1  424   1.204   2.834  12.647 -0.1476  0.1841 -0.3344
   27TMC2    O2  425   1.446   2.462  12.285  0.1094  0.5374 -0.5527
   27TMC2    O5  426   1.515   2.683  12.297 -0.8615 -0.1277  0.0317
   27TMC2    H5  427   1.467   2.766  12.277  0.9113  0.8250 -0.2544
   28MPD2     C  428   0.490   2.567  12.396  0.1670  0.0863 -0.0308
   28MPD2    C1  429   0.550   2.630  12.502  0.3701  0.5459 -0.6332
   28MPD2    C2  430   0.685   2.665  12.484  0.6642  0.0126 -0.4126
   28MPD2    C3  431   0.757   2.643  12.363 -0.0509 -0.1042 -0.8791
   28MPD2    C4  432   0.689   2.573  12.262  0.0769  0.0265 -0.4609
   28MPD2    C5  433   0.558   2.543  12.278 -0.3800  0.2763  0.7852
   28MPD2     H  434   0.737   2.713  12.566  2.3512 -0.0818 -1.4331
   28MPD2    H1  435   0.732   2.542  12.167 -0.8741  1.1202 -1.2417
   28MPD2    H2  436   0.386   2.538  12.390  0.1007  0.5145 -0.9218
   28MPD2    H3  437   0.494   2.497  12.204  0.6658 -0.3305  0.2558
   28MPD2     N  438   0.891   2.689  12.349 -0.0490 -0.1677 -0.2380
   28MPD2    H5  439   0.938   2.745  12.419 -1.4269  2.4746 -1.4214
   28MPD2    N1  440   0.475   2.645  12.611  0.6370  0.1276 -0.1607
   28MPD2    H7  441   0.384   2.601  12.620  2.0748 -2.4997  1.2918
   29MPD2     C  442   0.127   0.061  14.184  0.6436 -0.2307  0.1214
   29MPD2    C1  443   0.229   0.001  14.254 -0.2561 -0.4171 -0.1357
   29MPD2    C2  444   0.317   0.082  14.328  0.0366  0.5697  0.1754
   29MPD2    C3  445   0.321   0.223  14.301 -0.2827 -0.3233 -0.3308
   29MPD2    C4  446   0.225   0.281  14.222  0.1338 -0.3150  0.6966
   29MPD2    C5  447   0.127   0.199  14.169  0.5509  0.0121 -0.0742
   29MPD2     H  448   0.393   0.032  14.386  0.5752 -0.4446 -1.3904
   29MPD2    H1  449   0.213   0.388  14.205  0.1390 -0.6579 -1.4853
   29MPD2    H2  450   0.043   0.013  14.134 -1.5014  4.3654 -0.7030
   29MPD2    H3  451   0.043   0.241  14.115  0.1069  1.5813  1.8459
   29MPD2     N  452   0.403   0.313  14.369  0.7168 -0.8458 -0.0754
   29MPD2    H5  453   0.392   0.411  14.345  0.1898 -1.2031 -1.2580
   29MPD2    N1  454   0.239   4.587  14.270  0.4625 -0.5822  0.2336
   29MPD2    H7  455   0.301   4.547  14.340 -2.5883 -1.4373  2.4783
   30TCq2    C1  456   0.483   0.282  14.472 -0.1726  0.3089  0.1338
   30TCq2    O2  457   0.499   0.185  14.548  0.3920 -0.1404  0.6913
   30TCq2    C2  458   0.562   0.400  14.502  0.0981  0.5711  0.8015
   30TCq2    C3  459   0.609   0.425  14.624 -0.9342 -0.2409  0.0028
   30TCq2    C4  460   0.665   0.545  14.659  0.0246  1.4050 -0.0018
   30TCq2    C5  461   0.670   0.640  14.560 -0.0436  0.0963  0.5332
   30TCq2    C6  462   0.634   0.611  14.434  0.0993 -0.4449  0.0328
   30TCq2    C7  463   0.573   0.491  14.401 -0.2999 -0.2638 -0.4804
   30TCq2    C8  464   0.681   0.696  14.328  0.1794 -0.1374 -0.0916
   30TCq2    O4  465   0.638   0.673  14.216 -0.1134 -0.1290  0.1673
   30TCq2    C9  466   0.724   0.564  14.792  0.1104  0.4293 -0.1869
   30TCq2    O5  467   0.769   0.681  14.810 -0.1788  0.1343  0.1702
   30TCq2    O6  468   0.722   0.472  14.880 -0.7373  0.0730 -0.0998
   30TCq2    H2  469   0.588   0.348  14.697  1.4215 -0.6893  0.2028
   30TCq2    H3  470   0.698   0.738  14.596  1.3584 -0.3232  0.6117
   30TCq2    H4  471   0.550   0.477  14.296 -0.7431 -0.0805 -0.4091
   31MPD2     C  472   3.033   3.991  14.663  0.5314 -0.0392  0.0907
   31MPD2    C1  473   3.155   4.031  14.605 -0.5632 -0.7139 -0.5825
   31MPD2    C2  474   3.276   4.013  14.675  0.0368  0.1654 -0.8182
   31MPD2    C3  475   3.269   3.946  14.794  0.2069 -0.5253  0.0424
   31MPD2    C4  476   3.154   3.901  14.841 -0.0274  0.7452 -0.1670
   31MPD2    C5  477   3.033   3.929  14.784  0.4275  0.3717  0.6456
   31MPD2     H  478   3.367   4.054  14.635  0.3783  0.1138 -0.0962
   31MPD2    H1  479   3.151   3.856  14.940  0.1657 -1.8072 -1.3160
   31MPD2    H2  480   2.934   4.002  14.622  1.0982 -1.2664 -1.5995
   31MPD2    H3  481   2.945   3.895  14.837  0.7827 -0.0265  0.9827
   31MPD2     N  482   3.390   3.919  14.866 -0.0541  0.1236  0.1643
   31MPD2    H5  483   3.380   3.915  14.967 -2.1833  1.2964 -0.0011
   31MPD2    N1  484   3.152   4.082  14.473 -0.2571  0.5564 -0.7100
   31MPD2    H7  485   3.061   4.099  14.430 -0.9291 -0.2523  0.3932
   32TCq2    C1  486   3.518   3.948  14.826  0.0922  0.6577  0.0634
   32TCq2    O2  487   3.560   3.977  14.713  0.3676 -0.3125  0.0522
   32TCq2    C2  488   3.624   3.932  14.936 -0.3532  0.0917  0.4988
   32TCq2    C3  489   3.754   3.905  14.908 -0.2893 -0.9008  0.2922
   32TCq2    C4  490   3.843   3.858  14.999  0.6149  0.4343 -0.3999
   32TCq2    C5  491   3.809   3.837  15.129  0.3948 -0.4141 -0.2953
   32TCq2    C6  492   3.682   3.851  15.157 -0.2134 -0.2005 -0.7896
   32TCq2    C7  493   3.589   3.906  15.069 -0.0241  0.2147 -0.0935
   32TCq2    C8  494   3.643   3.854  15.298 -0.0692 -0.5746 -0.2476
   32TCq2    O4  495   3.710   3.768  15.361 -0.1639  0.5072  0.3590
   32TCq2    C9  496   3.973   3.804  14.950  0.1496  0.6833  0.6459
   32TCq2    O5  497   4.055   3.759  15.035 -0.1505 -0.0822 -0.3792
   32TCq2    O6  498   3.991   3.807  14.827 -0.4684  0.5917  0.7431
   32TCq2    H2  499   3.784   3.905  14.804  3.0077  1.0705  1.2494
   32TCq2    H3  500   3.888   3.817  15.200  0.2196 -1.1354 -0.3065
   32TCq2    H4  501   3.484   3.906  15.097 -0.2008 -0.1031 -0.7732
   33MPD2     C  502   3.757   1.630  10.232  0.1934  0.4431 -0.4050
   33MPD2    C1  503   3.639   1.673  10.289  0.1203 -0.0351  0.4066
   33MPD2    C2  504   3.563   1.776  10.233  0.2710  0.2711  0.5997
   33MPD2    C3  505   3.600   1.839  10.115 -0.3421 -0.2843  0.1543
   33MPD2    C4  506   3.711   1.789  10.051  0.4520  0.5698  0.3765
   33MPD2    C5  507   3.793   1.691  10.111 -0.1284 -0.4050  0.6512
   33MPD2     H  508   3.470   1.805  10.281 -0.0520  0.5724 -0.2031
   33MPD2    H1  509   3.738   1.834   9.956  0.3716 -0.2577 -0.0330
   33MPD2    H2  510   3.805   1.537  10.261  0.7658  0.4460 -1.3402
   33MPD2    H3  511   3.880   1.656  10.057 -0.4635  0.4869 -0.4619
   33MPD2     N  512   3.531   1.941  10.043 -0.3815 -0.2867  0.2577
   33MPD2    H5  513   3.561   1.972   9.951 -2.1911 -0.5517 -0.4253
   33MPD2    N1  514   3.601   1.596  10.404 -0.1138 -0.0822  0.3754
   33MPD2    H7  515   3.663   1.524  10.439 -1.5207 -1.0027  0.9669
   34TCq2    C1  516   3.419   2.010  10.091 -0.3080  0.5354  0.6082
   34TCq2    O2  517   3.377   2.005  10.208 -0.7291 -0.1888 -0.3923
   34TCq2    C2  518   3.358   2.106  10.000  0.1844 -0.7070 -0.0835
   34TCq2    C3  519   3.246   2.177  10.044 -0.0457 -0.3202  0.0162
   34TCq2    C4  520   3.189   2.272   9.961  0.3525 -0.0775 -0.5213
   34TCq2    C5  521   3.240   2.291   9.835  0.5091 -0.0128  0.0824
   34TCq2    C6  522   3.350   2.218   9.800 -0.6613  0.3018 -0.1157
   34TCq2    C7  523   3.409   2.126   9.876  0.1618  0.5094 -0.0013
   34TCq2    C8  524   3.428   2.252   9.686 -0.6531  0.1574  0.3035
   34TCq2    O4  525   3.544   2.209   9.681 -0.0720 -0.0014 -0.0052
   34TCq2    C9  526   3.079   2.361   9.998  0.3387  0.3096 -0.0321
   34TCq2    O5  527   3.038   2.449   9.918 -0.3291  0.1691 -0.2263
   34TCq2    O6  528   3.023   2.337  10.111  0.1463  0.4309 -0.5374
   34TCq2    H2  529   3.207   2.170  10.145 -0.1021  2.0681  0.1402
   34TCq2    H3  530   3.195   2.363   9.768  0.3518  1.1697  1.4751
   34TCq2    H4  531   3.501   2.079   9.844  1.0685  1.7221  0.8118
   35MPD2     C  532   0.064   3.036  11.759 -0.0612  0.7825 -0.9676
   35MPD2    C1  533   4.721   2.921  11.713 -0.5421 -0.3840 -0.1630
   35MPD2    C2  534   4.630   2.952  11.616 -0.2408  0.6396 -0.5390
   35MPD2    C3  535   4.612   3.082  11.559 -0.1145  0.0947 -0.2503
   35MPD2    C4  536   4.685   3.184  11.605 -0.3794  0.2161  0.4179
   35MPD2    C5  537   0.045   3.163  11.705  0.1061 -0.5802  0.2241
   35MPD2     H  538   4.585   2.863  11.575  1.3085 -0.3327 -0.1039
   35MPD2    H1  539   4.686   3.282  11.557 -0.5221  0.4566  0.9094
   35MPD2    H2  540   0.131   3.026  11.844 -1.7529 -1.3496  0.0912
   35MPD2    H3  541   0.101   3.251  11.735 -2.2315  1.1819 -0.6235
   35MPD2     N  542   4.509   3.088  11.463  0.0106  0.8179  0.3355
   35MPD2    H5  543   4.461   2.999  11.450  0.7644  0.4168  0.3246
   35MPD2    N1  544   0.011   2.798  11.781 -0.0605  0.0193  0.0548
   35MPD2    H7  545   0.077   2.803  11.858  0.7074  0.0402 -0.5989
   36TCq2    C1  546   4.471   3.199  11.390 -0.3223 -0.8181 -0.0476
   36TCq2    O2  547   4.534   3.308  11.380 -0.0832 -0.0612  0.1242
   36TCq2    C2  548   4.354   3.176  11.303 -0.8110  0.4085  0.5368
   36TCq2    C3  549   4.343   3.267  11.197 -0.7901  0.7782 -0.0878
   36TCq2    C4  550   4.239   3.248  11.105 -0.5067 -0.0792 -0.3840
   36TCq2    C5  551   4.156   3.139  11.113  0.0287 -0.0346  0.2438
   36TCq2    C6  552   4.175   3.050  11.217 -0.7027  0.4219 -0.9899
   36TCq2    C7  553   4.275   3.064  11.307 -0.1558  0.0711 -0.1160
   36TCq2    C8  554   4.091   2.934  11.241  0.5933 -0.6875 -0.1682
   36TCq2    O4  555   4.141   2.851  11.313  0.2141 -0.2604  0.5684
   36TCq2    C9  556   4.228   3.328  10.991  0.3621 -0.2399 -1.1174
   36TCq2    O5  557   4.308   3.416  10.958  0.0810  0.1503 -0.5094
   36TCq2    O6  558   4.104   3.327  10.955 -0.5781  0.0232 -0.2421
   36TCq2    H2  559   4.402   3.358  11.194 -1.7809  1.3166 -3.6680
   36TCq2    H3  560   4.075   3.115  11.045  1.6948  0.8044 -2.0386
   36TCq2    H4  561   4.273   3.013  11.403 -0.7328 -0.1541 -0.2475
   37TMC2    C1  562   1.856   3.394  11.365 -0.0942  0.1378  0.8623
   37TMC2    C2  563   1.809   3.335  11.249 -0.4495 -0.5718 -0.2659
   37TMC2    C3  564   1.899   3.287  11.156 -1.0161 -0.3532  0.4222
   37TMC2    C4  565   1.986   3.388  11.397  0.6520 -0.1912  0.7989
   37TMC2    C5  566   2.073   3.328  11.314 -0.8033  0.9752 -0.1818
   37TMC2    C6  567   2.035   3.280  11.187  0.7284 -0.0825 -0.2950
   37TMC2     C  568   1.756   3.409  11.467  0.4854 -0.1403 -0.0847
   37TMC2     O  569   1.644   3.431  11.427  0.1509  0.4273 -0.6822
   37TMC2     H  570   1.704   3.337  11.223 -0.7219 -0.9018  0.8221
   37TMC2    H1  571   2.021   3.423  11.494  1.1439 -0.1041  0.5853
   37TMC2    H2  572   2.101   3.256  11.105  0.5513 -0.2783 -0.3795
   37TMC2    C7  573   2.201   3.296  11.368  0.5695  0.0584 -0.4664
   37TMC2    C8  574   1.845   3.246  11.025  0.7560  0.1210 -0.5664
   37TMC2    O1  575   2.242   3.364  11.462 -0.7053 -0.2213 -0.2474
   37TMC2    O2  576   1.733   3.284  11.005 -0.3660  0.0842  0.2046
   37TMC2    O5  577   1.884   3.123  11.019  0.5059 -0.8974  0.0321
   37TMC2    H5  578   1.976   3.112  11.053  0.8678  1.8848 -0.0803
   38MPD2     C  579   1.601   3.354  11.944  0.1577 -0.3423 -0.0446
   38MPD2    C1  580   1.726   3.299  11.941  1.0933 -0.0216  0.7116
   38MPD2    C2  581   1.798   3.311  11.825  0.0150  0.3164 -0.2365
   38MPD2    C3  582   1.738   3.365  11.712  0.8887  0.6363  0.1224
   38MPD2    C4  583   1.608   3.409  11.719 -0.0839  0.1638  1.1183
   38MPD2    C5  584   1.538   3.405  11.833  0.1054 -0.0863  0.9011
   38MPD2     H  585   1.900   3.275  11.813  0.0038 -0.5517  2.3073
   38MPD2    H1  586   1.554   3.451  11.635  2.2299 -0.2269 -0.5696
   38MPD2    H2  587   1.541   3.350  12.034 -0.6146 -1.4909 -0.6055
   38MPD2    H3  588   1.435   3.436  11.829  0.8800  2.3680 -0.3664
   38MPD2     N  589   1.808   3.370  11.593 -0.1044 -0.3262  0.3724
   38MPD2    H5  590   1.906   3.346  11.594 -0.3278 -1.3405 -1.8414
   38MPD2    N1  591   1.794   3.252  12.055  0.4391  0.1705  0.4223
   38MPD2    H7  592   1.881   3.201  12.043 -0.2924 -0.9357 -0.2742
   39MPD2     C  593   4.045   0.431   2.010  0.5569  0.0313 -0.2148
   39MPD2    C1  594   4.154   0.372   1.956  0.5237 -0.0477  0.2387
   39MPD2    C2  595   4.149   0.355   1.818  0.1804 -0.3990 -0.4216
   39MPD2    C3  596   4.049   0.407   1.741 -0.2037  0.0890 -0.0092
   39MPD2    C4  597   3.949   0.473   1.806  0.4653  0.7912  1.0551
   39MPD2    C5  598   3.942   0.479   1.939  0.3231 -0.8423  0.5210
   39MPD2     H  599   4.222   0.296   1.764  0.5699 -0.8655  0.6162
   39MPD2    H1  600   3.859   0.504   1.755 -0.4664 -0.9284  1.6694
   39MPD2    H2  601   4.053   0.445   2.118 -0.9410  2.0718 -0.3741
   39MPD2    H3  602   3.856   0.530   1.983  1.7067  0.0273  2.2091
   39MPD2     N  603   4.035   0.393   1.600  0.6550  0.1155 -0.5605
   39MPD2    H5  604   3.946   0.421   1.558 -0.4643 -0.1054  1.6766
   39MPD2    N1  605   4.249   0.314   2.041 -0.1118 -0.1485  1.3423
   39MPD2    H7  606   4.244   0.337   2.140  0.7677 -0.7722  1.5333
   40TCq2    C1  607   4.369   0.246   2.014  0.1616  0.0526  0.4826
   40TCq2    O2  608   4.423   0.230   1.905 -0.6023  0.4639 -0.1955
   40TCq2    C2  609   4.426   0.179   2.132  0.4068 -0.0838 -0.2748
   40TCq2    C3  610   4.341   0.160   2.244 -0.0649  0.5574  0.2349
   40TCq2    C4  611   4.399   0.110   2.357  0.4304 -0.4728  0.0934
   40TCq2    C5  612   4.528   0.091   2.375  0.3791  0.1521 -0.0795
   40TCq2    C6  613   4.614   0.100   2.268  0.7447  0.8285 -0.4529
   40TCq2    C7  614   4.558   0.144   2.149  0.1858 -0.4098 -0.7265
   40TCq2    C8  615   0.025   0.054   2.290 -0.1278  0.4362  0.2175
   40TCq2    O4  616   0.039   4.708   2.388 -0.1893 -0.4618 -0.7104
   40TCq2    C9  617   4.312   0.073   2.467 -0.4025 -0.4784 -0.6384
   40TCq2    O5  618   4.360   4.725   2.556  0.1518 -0.2431  0.3703
   40TCq2    O6  619   4.190   0.105   2.461 -1.0299 -0.2360  0.1076
   40TCq2    H2  620   4.234   0.182   2.245 -0.6638 -2.3031 -3.6199
   40TCq2    H3  621   4.557   0.040   2.467  1.0407 -0.6033 -0.7058
   40TCq2    H4  622   4.612   0.139   2.055 -0.8177 -3.7182 -1.1429
   41TMC2    C1  623   3.927   2.797  13.605 -0.2377  0.3861 -0.3377
   41TMC2    C2  624   3.808   2.781  13.681  0.4776  0.2894 -0.0959
   41TMC2    C3  625   3.691   2.818  13.622 -0.4673  0.6247  0.7406
   41TMC2    C4  626   3.932   2.848  13.480 -0.3146  0.0946  0.1366
   41TMC2    C5  627   3.822   2.872  13.410  0.7955 -0.2396 -0.0233
   41TMC2    C6  628   3.705   2.859  13.484 -0.3779 -0.0475 -0.2505
   41TMC2     C  629   4.051   2.738  13.657 -0.6220  0.2556 -0.3730
   41TMC2     O  630   4.156   2.766  13.603  0.2469  0.1281  0.4136
   41TMC2     H  631   3.807   2.727  13.775 -0.2358  0.9685  0.2859
   41TMC2    H1  632   4.031   2.863  13.438 -0.3674  1.0045  0.3483
   41TMC2    H2  633   3.608   2.876  13.437  0.5986 -0.9516 -2.5603
   41TMC2    C7  634   3.819   2.948  13.290 -0.1691 -1.1946 -0.0340
   41TMC2    C8  635   3.558   2.831  13.688  0.0195  0.4498 -0.6241
   41TMC2    O1  636   3.707   2.964  13.249  0.0523 -0.5247  0.3807
   41TMC2    O2  637   3.455   2.848  13.629 -0.0538  0.9714 -0.0538
   41TMC2    O5  638   3.591   2.867  13.814  0.0781  0.2275 -0.4527
   41TMC2    H5  639   3.688   2.872  13.828 -0.1749 -1.1198  1.8456
   42MPD2     C  640   4.234   2.554  13.790 -0.1217  0.4696 -0.2995
   42MPD2    C1  641   4.117   2.592  13.848  0.5479  0.3758 -0.4927
   42MPD2    C2  642   4.084   2.542  13.977  0.1844  0.1184 -0.9564
   42MPD2    C3  643   4.179   2.470  14.046 -0.0676  0.0889  0.8302
   42MPD2    C4  644   4.297   2.428  13.985 -0.1302  0.8903  0.2484
   42MPD2    C5  645   4.316   2.474  13.861  0.5515 -0.1134 -0.2277
   42MPD2     H  646   3.992   2.576  14.024 -0.1427  0.3628 -1.7728
   42MPD2    H1  647   4.366   2.363  14.038 -1.4908 -0.5530  0.2574
   42MPD2    H2  648   4.271   2.592  13.695 -1.3394  1.5448 -0.3390
   42MPD2    H3  649   4.410   2.458  13.808  0.4072 -0.3180 -0.4226
   42MPD2     N  650   4.168   2.445  14.183 -0.0383  0.2934  0.3556
   42MPD2    H5  651   4.256   2.416  14.222  0.9731 -0.3289 -2.3693
   42MPD2    N1  652   4.032   2.676  13.777 -0.3050 -0.7555  0.3470
   42MPD2    H7  653   3.939   2.690  13.816 -0.3619  0.5703 -0.2497
   43MPD2     C  654   0.195   0.832   0.762 -0.0754  0.2892 -0.3260
   43MPD2    C1  655   0.317   0.836   0.830 -0.8300 -0.0853 -0.2611
   43MPD2    C2  656   0.319   0.874   0.964  0.1338  0.4048 -0.3510
   43MPD2    C3  657   0.212   0.940   1.026  0.4577  0.5210  0.0949
   43MPD2    C4  658   0.096   0.927   0.956  0.5307  0.0958  0.2472
   43MPD2    C5  659   0.088   0.877   0.828 -0.0693 -0.1376 -0.2522
   43MPD2     H  660   0.417   0.865   1.009  0.6815 -1.1638 -1.8240
   43MPD2    H1  661   0.004   0.967   0.998 -0.7093 -1.0830 -1.3330
   43MPD2    H2  662   0.194   0.793   0.661 -1.3249 -0.7345  0.0828
   43MPD2    H3  663   4.719   0.860   0.780  0.8550 -0.1283 -2.0629
   43MPD2     N  664   0.209   0.985   1.162  0.1845 -0.6691  0.2107
   43MPD2    H5  665   0.123   1.023   1.201 -0.5274 -0.5841 -1.4512
   43MPD2    N1  666   0.438   0.783   0.780  0.7796 -0.7470  0.9033
   43MPD2    H7  667   0.525   0.784   0.832  0.7467 -2.3035  0.9683
   44TCq2    C1  668   0.346   0.971   1.730  0.7339 -0.3789  0.1156
   44TCq2    O2  669   0.421   0.872   1.720  0.2236 -0.1767 -0.1937
   44TCq2    C2  670   0.270   1.017   1.612  0.1394 -0.3227  0.0547
   44TCq2    C3  671   0.202   1.143   1.625  0.1970  1.3554  0.0310
   44TCq2    C4  672   0.158   1.202   1.510  0.5921 -0.2098 -0.3247
   44TCq2    C5  673   0.188   1.147   1.392  0.5607  0.1132 -0.1128
   44TCq2    C6  674   0.267   1.035   1.387 -0.4686  0.6206  0.0952
   44TCq2    C7  675   0.310   0.973   1.498  0.2691  0.0970 -0.2223
   44TCq2    C8  676   0.309   0.979   1.254  0.0940  0.6244  0.2715
   44TCq2    O4  677   0.426   0.950   1.233 -0.1873 -0.1182 -0.5000
   44TCq2    C9  678   0.115   1.337   1.506  0.1742 -0.3318  0.4046
   44TCq2    O5  679   0.072   1.394   1.610 -0.7880 -0.0326 -0.0156
   44TCq2    O6  680   0.162   1.402   1.409  0.3318  0.3197  0.1528
   44TCq2    H2  681   0.176   1.191   1.719  1.0289 -2.2991  2.1084
   44TCq2    H3  682   0.173   1.201   1.299 -0.9367  0.4620  0.3382
   44TCq2    H4  683   0.371   0.883   1.497  0.3981  0.1669  2.1092
   45TMC2    C1  684   0.506   3.699   9.541 -0.1020 -0.4233 -0.2008
   45TMC2    C2  685   0.391   3.705   9.467  0.8786  0.1158  0.5939
   45TMC2    C3  686   0.379   3.812   9.391  0.6166 -0.8595 -0.2712
   45TMC2    C4  687   0.590   3.799   9.551  0.1376  0.8294  0.3990
   45TMC2    C5  688   0.561   3.918   9.491 -0.0125 -0.6232  0.2166
   45TMC2    C6  689   0.460   3.922   9.399 -0.9791  0.1231  0.7773
   45TMC2     C  690   0.537   3.582   9.618 -0.8352 -0.2658 -0.5547
   45TMC2     O  691   0.637   3.591   9.685  0.1865  0.4819  0.2774
   45TMC2     H  692   0.311   3.632   9.473 -0.5200  1.6197 -0.0490
   45TMC2    H1  693   0.676   3.798   9.617  0.3320 -1.4306  0.1017
   45TMC2    H2  694   0.444   4.022   9.361  1.7733  0.8883  1.6717
   45TMC2    C7  695   0.659   4.027   9.510  0.8541  0.0187 -0.0646
   45TMC2    C8  696   0.327   3.784   9.260 -0.1215 -0.0358  0.3017
   45TMC2    O1  697   0.754   4.002   9.585  0.4137 -0.4284  0.1616
   45TMC2    O2  698   0.382   3.690   9.202 -0.3238 -0.2609  0.1295
   45TMC2    O5  699   0.296   3.903   9.207  0.1576  0.0146 -0.5877
   45TMC2    H5  700   0.243   3.960   9.268  0.1441 -0.0621 -0.5272
   46MPD2     C  701   0.650   3.304   9.675 -0.2511  0.2096 -0.2122
   46MPD2    C1  702   0.532   3.333   9.598 -0.9370  0.3249 -0.7664
   46MPD2    C2  703   0.456   3.222   9.552  0.0717 -1.0878  0.4902
   46MPD2    C3  704   0.498   3.091   9.576 -0.4243 -0.6209 -0.2541
   46MPD2    C4  705   0.613   3.070   9.647  0.7787  0.4163  0.2620
   46MPD2    C5  706   0.687   3.178   9.695  0.3842 -0.4587 -0.6100
   46MPD2     H  707   0.360   3.241   9.504  0.7722  0.2891 -0.3772
   46MPD2    H1  708   0.647   2.968   9.664  0.1586  0.2543  0.5281
   46MPD2    H2  709   0.705   3.378   9.732 -1.3361  0.7369  0.1703
   46MPD2    H3  710   0.774   3.158   9.757  0.4435 -2.4757 -1.3677
   46MPD2     N  711   0.415   2.987   9.526  0.0024  0.1624 -0.4688
   46MPD2    H5  712   0.319   3.008   9.500 -0.4026 -1.6299 -0.4062
   46MPD2    N1  713   0.488   3.465   9.569 -0.2005  0.7154 -0.4785
   46MPD2    H7  714   0.409   3.462   9.507 -1.3265  0.8508  0.9543
   47TMC2    C1  715   3.874   3.129   9.588  0.0477  0.1843 -0.2368
   47TMC2    C2  716   3.941   3.042   9.522  0.2071  0.0701 -0.2139
   47TMC2    C3  717   3.900   3.010   9.395  0.3435  0.0384 -0.0246
   47TMC2    C4  718   3.760   3.188   9.547  1.3671 -0.1948  0.0976
   47TMC2    C5  719   3.709   3.142   9.428 -0.1395  1.0149 -0.1494
   47TMC2    C6  720   3.783   3.063   9.349 -0.4829 -0.1441 -0.3002
   47TMC2     C  721   3.904   3.163   9.720  0.0039 -1.0612  0.6229
   47TMC2     O  722   3.872   3.274   9.760 -0.5015 -0.1646 -0.1331
   47TMC2     H  723   4.024   2.984   9.560 -0.6298 -0.4996  0.7382
   47TMC2    H1  724   3.703   3.248   9.617 -3.5510 -1.4926 -2.7467
   47TMC2    H2  725   3.748   3.022   9.255 -2.2980  2.5668 -0.8037
   47TMC2    C7  726   3.577   3.198   9.390  0.4182  0.2590 -0.2548
   47TMC2    C8  727   3.952   2.897   9.317 -0.0411  0.0716  0.2500
   47TMC2    O1  728   3.502   3.252   9.474 -0.0184 -0.0505 -0.4062
   47TMC2    O2  729   3.956   2.888   9.194 -0.0896  0.2976 -0.4054
   47TMC2    O5  730   3.941   2.789   9.401  0.3158 -0.1829  1.2254
   47TMC2    H5  731   3.923   2.809   9.496  1.8318  1.4321  1.1719
   48MPD2     C  732   4.000   3.171  10.009 -0.0879 -1.0405 -0.2414
   48MPD2    C1  733   3.991   3.057   9.928  0.2150  0.4032  0.1691
   48MPD2    C2  734   4.041   2.940   9.977 -0.1516 -0.7597  0.0114
   48MPD2    C3  735   4.095   2.921  10.102  0.8850  0.2555 -0.4541
   48MPD2    C4  736   4.102   3.036  10.180  0.2863  0.3703  0.0792
   48MPD2    C5  737   4.051   3.156  10.137 -0.6349  0.4187 -0.3165
   48MPD2     H  738   4.040   2.855   9.909  3.2819 -0.9958  0.2442
   48MPD2    H1  739   4.152   3.040  10.276 -0.7610 -2.2725  0.7292
   48MPD2    H2  740   3.963   3.268   9.976 -0.8723 -1.1078  0.4499
   48MPD2    H3  741   4.051   3.246  10.196  0.1151  0.1244  0.1306
   48MPD2     N  742   4.145   2.799  10.142 -0.5484  0.7568 -0.3459
   48MPD2    H5  743   4.144   2.730  10.067 -1.5092  0.6169 -0.2038
   48MPD2    N1  744   3.948   3.054   9.788  0.5367 -0.1743 -0.4581
   48MPD2    H7  745   3.939   2.964   9.743 -0.7549  0.0575 -0.6749
   49MPD2     C  746   1.571   0.651   9.717  0.3316 -0.0376  0.4025
   49MPD2    C1  747   1.493   0.627   9.826 -0.1113  0.8283 -0.0735
   49MPD2    C2  748   1.540   0.676   9.950  0.4035 -0.2364 -0.1599
   49MPD2    C3  749   1.652   0.756   9.955  0.2367  1.1344  0.1897
   49MPD2    C4  750   1.728   0.785   9.841  0.1023  0.5261  0.1480
   49MPD2    C5  751   1.682   0.735   9.720 -0.1440 -0.7171 -0.6591
   49MPD2     H  752   1.492   0.651  10.044 -0.2674  1.0879 -0.1399
   49MPD2    H1  753   1.814   0.852   9.838 -0.5605  1.3478 -0.7678
   49MPD2    H2  754   1.549   0.600   9.624 -2.3443  0.7444  0.6035
   49MPD2    H3  755   1.735   0.765   9.630 -1.6431  0.1437 -1.2458
   49MPD2     N  756   1.709   0.811  10.072  0.4312  0.4017  0.6820
   49MPD2    H5  757   1.799   0.856  10.062 -0.5909  2.1130 -0.7204
   49MPD2    N1  758   1.374   0.551   9.817  0.6964 -0.0549  0.2916
   49MPD2    H7  759   1.334   0.540   9.910 -0.6189 -0.9592 -0.3968
   50TCq2    C1  760   1.314   0.508   9.704  0.1753 -0.8586  0.4589
   50TCq2    O2  761   1.349   0.526   9.590  0.0622 -0.7310  0.3788
   50TCq2    C2  762   1.195   0.427   9.723  0.6646  0.2464 -0.1086
   50TCq2    C3  763   1.104   0.418   9.622  0.2304 -0.1842 -0.0192
   50TCq2    C4  764   0.990   0.345   9.655  0.0201 -0.3345  0.0896
   50TCq2    C5  765   0.986   0.269   9.771  0.2490  0.2664  0.0461
   50TCq2    C6  766   1.088   0.288   9.860  1.1298  0.0630  0.3085
   50TCq2    C7  767   1.191   0.371   9.848  0.2572 -0.4680  0.8574
   50TCq2    C8  768   1.051   0.232   9.988  0.3533  0.2345  0.2855
   50TCq2    O4  769   0.971   0.137   9.987  0.0139  0.3991  0.0153
   50TCq2    C9  770   0.887   0.342   9.558  0.2311 -0.3671  0.2286
   50TCq2    O5  771   0.889   0.438   9.476  0.0129  0.0160  0.1488
   50TCq2    O6  772   0.785   0.270   9.581 -0.2263 -0.3058 -0.2677
   50TCq2    H2  773   1.109   0.478   9.533  3.1607 -1.4012 -0.6780
   50TCq2    H3  774   0.900   0.205   9.789  1.2239 -1.1788 -0.3992
   50TCq2    H4  775   1.272   0.362   9.920  0.8652 -1.9119 -0.0166
   51MPD2     C  776   2.036   4.378   0.778 -0.0778  0.1518 -0.6454
   51MPD2    C1  777   2.104   4.264   0.832 -0.2449 -0.4316  0.0652
   51MPD2    C2  778   2.154   4.281   0.965  0.1883  0.2822  0.2643
   51MPD2    C3  779   2.144   4.397   1.038  0.2437  0.6873 -0.0642
   51MPD2    C4  780   2.058   4.492   0.992  1.0282  0.7019  0.4378
   51MPD2    C5  781   2.003   4.483   0.865  0.7106 -0.5026 -0.1352
   51MPD2     H  782   2.231   4.211   0.997  2.1478  1.7377 -1.2332
   51MPD2    H1  783   2.024   4.578   1.049 -1.2218 -0.8654  1.4572
   51MPD2    H2  784   1.991   4.376   0.679 -0.8259  1.3142 -0.3357
   51MPD2    H3  785   1.941   4.565   0.830 -2.3371 -2.5623  0.4011
   51MPD2     N  786   2.198   4.415   1.171  0.4381  0.2174  0.4673
   51MPD2    H5  787   2.177   4.493   1.233 -0.8733 -0.0172  0.3175
   51MPD2    N1  788   2.125   4.144   0.759  0.7932 -0.2209  0.3612
   51MPD2    H7  789   2.171   4.067   0.806  1.6638  0.6122  0.8701
   52TCq2    C1  790   2.316   4.352   1.204  0.8150  0.2996  0.5851
   52TCq2    O2  791   2.375   4.258   1.147 -0.1033 -0.7485 -0.5256
   52TCq2    C2  792   2.390   4.410   1.313  0.1268  0.4964  0.0004
   52TCq2    C3  793   2.482   4.335   1.381 -0.0044  0.4213 -0.4525
   52TCq2    C4  794   2.574   4.396   1.465 -0.5619 -0.1275  0.0311
   52TCq2    C5  795   2.581   4.532   1.466  0.9364 -0.0293  0.0598
   52TCq2    C6  796   2.488   4.602   1.393 -0.4138 -0.1867  0.4094
   52TCq2    C7  797   2.393   4.544   1.317  0.0135  0.0771 -0.2078
   52TCq2    C8  798   2.504   0.023   1.377 -0.4379  0.2541 -0.4588
   52TCq2    O4  799   2.405   0.095   1.365 -0.3829 -0.9480  0.4643
   52TCq2    C9  800   2.675   4.324   1.540  0.0345  0.1259 -0.0898
   52TCq2    O5  801   2.674   4.200   1.525  0.2273 -0.1426  0.3268
   52TCq2    O6  802   2.774   4.390   1.581 -0.4706 -0.3294 -0.4127
   52TCq2    H2  803   2.484   4.227   1.369  0.9607  0.6852 -2.6090
   52TCq2    H3  804   2.634   4.579   1.548  0.0979 -0.2269  0.7192
   52TCq2    H4  805   2.345   4.602   1.239 -0.6890 -2.4000 -1.6212
   53TMC2    C1  806   2.770   3.173  11.783  0.2114 -0.1574 -0.1187
   53TMC2    C2  807   2.883   3.162  11.853 -0.2768  0.1596 -0.4579
   53TMC2    C3  808   2.895   3.231  11.973  0.2735  0.0559 -0.6061
   53TMC2    C4  809   2.659   3.245  11.834 -1.0265  0.5336  0.1040
   53TMC2    C5  810   2.672   3.292  11.962  0.3387  0.0850  0.7136
   53TMC2    C6  811   2.786   3.291  12.029 -0.1314  0.4155  0.0755
   53TMC2     C  812   2.760   3.101  11.657  0.6692  0.2723 -0.2823
   53TMC2     O  813   2.843   3.023  11.610 -0.0750  0.0277  0.3403
   53TMC2     H  814   2.976   3.134  11.806  0.3258  1.2311  0.0984
   53TMC2    H1  815   2.559   3.241  11.792 -0.9880  0.8661 -0.0169
   53TMC2    H2  816   2.801   3.359  12.113  1.6786  0.6688 -0.4658
   53TMC2    C7  817   2.558   3.358  12.026  0.0632  0.0289 -0.2614
   53TMC2    C8  818   3.016   3.310  11.970  0.4767 -0.5070  0.0243
   53TMC2    O1  819   2.466   3.382  11.950 -0.0378  0.3036  0.5820
   53TMC2    O2  820   3.031   3.410  11.900 -0.2030 -0.4984  0.1299
   53TMC2    O5  821   3.055   3.294  12.100 -0.5874 -0.0502 -0.1122
   53TMC2    H5  822   3.029   3.209  12.142  0.0519 -0.5823 -0.8157
   54MPD2     C  823   2.606   2.964  11.436 -0.6739 -0.4680  0.2189
   54MPD2    C1  824   2.575   3.091  11.495 -0.2482 -0.1803 -0.2709
   54MPD2    C2  825   2.459   3.150  11.450 -0.0133 -0.2631 -0.1243
   54MPD2    C3  826   2.369   3.099  11.357  0.5284  0.4000  0.2089
   54MPD2    C4  827   2.396   2.969  11.305 -0.2305  0.1482 -0.8156
   54MPD2    C5  828   2.513   2.908  11.349  0.5145  0.6154 -0.1382
   54MPD2     H  829   2.440   3.247  11.494 -0.1464 -0.6764  0.7304
   54MPD2    H1  830   2.330   2.916  11.238  2.3654 -0.4608 -2.9344
   54MPD2    H2  831   2.694   2.908  11.464 -0.6091 -0.5965 -0.2368
   54MPD2    H3  832   2.528   2.805  11.320 -0.3688  0.0971  1.2402
   54MPD2     N  833   2.244   3.171  11.325 -0.2400  0.1184  0.2905
   54MPD2    H5  834   2.169   3.117  11.285 -0.6809  2.4658 -2.0640
   54MPD2    N1  835   2.651   3.159  11.594 -0.4645  0.2774 -0.8260
   54MPD2    H7  836   2.630   3.254  11.621  1.3951  1.0803 -2.2397
   55MPD2     C  837   3.293   0.910   0.199  0.1091 -0.2124  0.0962
   55MPD2    C1  838   3.216   0.833   0.280  0.1681 -0.0356  0.4709
   55MPD2    C2  839   3.109   0.891   0.350 -0.3300 -0.1490  0.1568
   55MPD2    C3  840   3.085   1.026   0.335  0.3821  1.5746 -0.8626
   55MPD2    C4  841   3.162   1.107   0.256  0.3798  0.0310 -0.6433
   55MPD2    C5  842   3.262   1.043   0.181  0.4647  0.1811 -0.1039
   55MPD2     H  843   3.037   0.836   0.409  2.2632 -2.8537  0.7927
   55MPD2    H1  844   3.143   1.212   0.238 -0.9616 -0.4601 -2.1204
   55MPD2    H2  845   3.389   0.869   0.172 -0.2895 -0.7016 -0.5947
   55MPD2    H3  846   3.331   1.104   0.125  0.6173 -0.3986 -0.5411
   55MPD2     N  847   2.973   1.078   0.414  0.4006 -0.0549  0.5266
   55MPD2    H5  848   2.921   1.008   0.466 -1.8643  0.4599 -1.0475
   55MPD2    N1  849   3.262   0.703   0.297  0.2662  0.3799  0.2595
   55MPD2    H7  850   3.326   0.670   0.225  0.0398  1.1479 -0.3060
   56TCq2    C1  851   3.213   0.624   0.396  0.3802  0.2172 -0.1364
   56TCq2    O2  852   3.139   0.652   0.486  0.0033 -0.2830 -0.0116
   56TCq2    C2  853   3.289   0.500   0.402  0.5111 -1.0283  0.2712
   56TCq2    C3  854   3.348   0.449   0.288 -1.1372 -0.3967  0.4301
   56TCq2    C4  855   3.425   0.337   0.300 -0.5814  0.0578  0.6276
   56TCq2    C5  856   3.455   0.283   0.424  0.0102 -0.6884 -0.2219
   56TCq2    C6  857   3.396   0.333   0.537 -0.4112 -0.0932 -0.0027
   56TCq2    C7  858   3.312   0.441   0.532 -0.1560  0.1321 -0.0517
   56TCq2    C8  859   3.381   0.242   0.652  0.8594 -0.6178 -0.0627
   56TCq2    O4  860   3.438   0.133   0.644  0.6661  0.5423  0.3344
   56TCq2    C9  861   3.482   0.274   0.177 -0.5505 -0.3692  0.1189
   56TCq2    O5  862   3.558   0.176   0.196 -0.4019  0.1790 -0.0747
   56TCq2    O6  863   3.424   0.309   0.069  0.2203  0.0628  0.0518
   56TCq2    H2  864   3.329   0.492   0.191 -2.2964 -0.5814  0.5740
   56TCq2    H3  865   3.524   0.200   0.434  0.0403 -0.9281 -2.5043
   56TCq2    H4  866   3.267   0.486   0.619  1.5869 -1.0087  1.4416
   57TMC2    C1  867   2.712   2.107  13.893  0.5189  0.0040  0.3288
   57TMC2    C2  868   2.792   2.005  13.933  0.5797  0.1153 -0.6593
   57TMC2    C3  869   2.885   1.960  13.846  0.2109 -0.2848 -0.0744
   57TMC2    C4  870   2.724   2.166  13.767  0.6194 -0.6658  0.0240
   57TMC2    C5  871   2.819   2.108  13.681 -0.1050 -0.2707  0.2374
   57TMC2    C6  872   2.906   2.009  13.715 -0.5099 -0.1128  0.5927
   57TMC2     C  873   2.591   2.139  13.967 -0.4270 -0.1454 -0.2841
   57TMC2     O  874   2.565   2.261  13.982 -0.1551 -0.5471  0.3965
   57TMC2     H  875   2.772   1.965  14.032 -2.3191 -1.6978 -1.9846
   57TMC2    H1  876   2.647   2.237  13.739  0.0839 -1.0354  0.5563
   57TMC2    H2  877   2.990   1.979  13.654  0.2229 -0.1407  1.6057
   57TMC2    C7  878   2.793   2.113  13.533  0.4356 -0.0834  0.1586
   57TMC2    C8  879   2.992   1.866  13.887  0.1330 -0.4727 -0.1876
   57TMC2    O1  880   2.738   2.217  13.499 -0.0465 -0.1859  0.0898
   57TMC2    O2  881   3.082   1.824  13.820  0.2714  0.2704  0.3078
   57TMC2    O5  882   3.001   1.870  14.019 -0.0794 -0.1159 -0.2568
   57TMC2    H5  883   2.951   1.948  14.049  1.6410 -0.1800  2.8420
   58MPD2     C  884   2.138   1.974  14.141  0.3785  0.0061 -0.7261
   58MPD2    C1  885   2.190   2.102  14.124  0.1570 -0.2744  0.0835
   58MPD2    C2  886   2.321   2.119  14.079  0.9416 -0.6914 -1.0627
   58MPD2    C3  887   2.397   2.007  14.050  0.0534 -0.0058  0.4713
   58MPD2    C4  888   2.349   1.882  14.074 -0.5430  0.2666 -0.5608
   58MPD2    C5  889   2.220   1.867  14.114  0.3018 -0.4128 -0.2591
   58MPD2     H  890   2.356   2.219  14.059  2.8983 -1.1299  0.0859
   58MPD2    H1  891   2.406   1.792  14.057  2.8693  2.3055  0.0156
   58MPD2    H2  892   2.038   1.948  14.173 -0.5366  0.1687 -3.5224
   58MPD2    H3  893   2.179   1.768  14.129 -0.2461 -0.4688 -2.1128
   58MPD2     N  894   2.527   2.022  13.998 -0.0849 -0.6588  0.3900
   58MPD2    H5  895   2.576   1.935  13.978  2.5853  0.8588  0.3466
   58MPD2    N1  896   2.111   2.218  14.153 -0.1234  0.4527  0.7347
   58MPD2    H7  897   2.159   2.308  14.157  0.6039  0.0205  1.7491
   59MPD2     C  898   0.165   2.131  13.221 -0.1822 -0.1159  0.0938
   59MPD2    C1  899   0.281   2.125  13.149 -0.1978 -0.9226 -0.0168
   59MPD2    C2  900   0.400   2.158  13.207  0.9343 -0.7223 -0.1707
   59MPD2    C3  901   0.401   2.201  13.341 -0.1203  0.7763  0.4314
   59MPD2    C4  902   0.280   2.204  13.413 -0.3334 -0.5559  0.6977
   59MPD2    C5  903   0.166   2.161  13.354  0.2567  0.0799  0.0735
   59MPD2     H  904   0.488   2.157  13.144  0.4602  1.5910 -0.8705
   59MPD2    H1  905   0.281   2.243  13.514  0.2138  2.1322 -0.3244
   59MPD2    H2  906   0.064   2.112  13.186 -0.5359 -0.7049  1.4417
   59MPD2    H3  907   0.075   2.155  13.413 -1.1951 -1.6718 -2.3505
   59MPD2     N  908   0.523   2.238  13.413 -0.5450 -0.1743 -0.1098
   59MPD2    H5  909   0.510   2.294  13.496 -3.0071  0.4149 -0.8720
   59MPD2    N1  910   0.280   2.063  13.022  0.4331  0.1339  0.7935
   59MPD2    H7  911   0.364   2.063  12.965  0.9701  0.2768  1.5842
   60TCq2    C1  912   0.184   1.976  12.978  0.0252  0.3166  0.3003
   60TCq2    O2  913   0.080   1.941  13.034  0.0244  0.0890  0.3275
   60TCq2    C2  914   0.234   1.921  12.854 -0.7132 -0.6792  0.0433
   60TCq2    C3  915   0.194   1.789  12.838  0.1101  0.1785 -0.0205
   60TCq2    C4  916   0.195   1.732  12.717 -0.0110  0.0264 -0.0535
   60TCq2    C5  917   0.236   1.802  12.608 -0.1647  0.1806  0.0093
   60TCq2    C6  918   0.273   1.934  12.624 -0.6325 -0.0465 -0.0153
   60TCq2    C7  919   0.266   1.995  12.747 -0.6404  0.1643  0.0574
   60TCq2    C8  920   0.355   1.989  12.519 -0.5397 -0.3501  0.6217
   60TCq2    O4  921   0.427   1.900  12.471 -0.2001 -0.3441  0.3382
   60TCq2    C9  922   0.159   1.599  12.693  0.3977 -0.7517  0.1734
   60TCq2    O5  923   0.227   1.527  12.616 -0.3365 -0.3400  0.0029
   60TCq2    O6  924   0.071   1.561  12.772 -0.3239  0.1195  0.4063
   60TCq2    H2  925   0.164   1.736  12.928  1.0960 -0.2706  0.0403
   60TCq2    H3  926   0.254   1.743  12.519  0.8006  0.9113 -0.2891
   60TCq2    H4  927   0.310   2.092  12.762 -2.2886  0.8957  0.1968
   61MPD2     C  928   4.394   3.174  15.538  0.4250 -0.3939  0.1773
   61MPD2    C1  929   4.354   3.307  15.512  0.1835 -0.1046  0.6034
   61MPD2    C2  930   4.373   3.350  15.381 -0.7074  0.0214  0.2005
   61MPD2    C3  931   4.444   3.269  15.290 -1.3388 -0.7555  0.2987
   61MPD2    C4  932   4.487   3.139  15.326  0.3605  0.0964 -0.1351
   61MPD2    C5  933   4.457   3.087  15.448 -0.0965 -0.2146  0.5816
   61MPD2     H  934   4.337   3.449  15.355 -1.2007 -0.0430  0.6169
   61MPD2    H1  935   4.549   3.089  15.252  0.3675 -0.3959  0.2084
   61MPD2    H2  936   4.362   3.136  15.635 -1.5739 -1.1858 -0.7812
   61MPD2    H3  937   4.491   2.992  15.488 -0.3350 -0.6922 -0.3589
   61MPD2     N  938   4.490   3.320  15.168  0.2039 -0.2146  0.4111
   61MPD2    H5  939   4.539   3.262  15.101 -2.1179  1.1243 -2.4555
   61MPD2    N1  940   4.288   3.394  15.602 -0.2586 -0.5623 -0.0328
   61MPD2    H7  941   4.284   3.490  15.571 -1.1842  0.5078  3.3727
   62TCq2    C1  942   4.261   3.373  15.735 -0.4187 -0.4077 -0.2471
   62TCq2    O2  943   4.285   3.278  15.808 -0.6451 -0.2205  0.6383
   62TCq2    C2  944   4.215   3.491  15.804  0.2874 -0.2551 -0.7105
   62TCq2    C3  945   4.224   3.483  15.943  0.3027 -0.2005 -0.5506
   62TCq2    C4  946   4.224   3.604  16.021 -0.4729  0.3778  0.3338
   62TCq2    C5  947   4.234   3.728  15.962 -0.1710  0.2319  0.7049
   62TCq2    C6  948   4.222   3.729  15.827  0.2109 -0.6708 -0.3070
   62TCq2    C7  949   4.211   3.612  15.745  0.2187 -0.1068  0.2391
   62TCq2    C8  950   4.214   3.858  15.758 -0.4854  0.0021 -0.2665
   62TCq2    O4  951   4.224   3.868  15.634  0.1936  0.3060  0.1159
   62TCq2    C9  952   4.241   3.596  16.166 -0.6576 -0.2917 -0.4352
   62TCq2    O5  953   4.270   3.705  16.226 -0.4040  0.0360 -0.1684
   62TCq2    O6  954   4.260   3.475  16.211 -0.7426  0.1168  0.1063
   62TCq2    H2  955   4.230   3.384  15.987  2.1994  0.2752  0.2672
   62TCq2    H3  956   4.234   3.810  16.032 -0.8404 -0.1276  1.1284
   62TCq2    H4  957   4.197   3.621  15.638  1.0777  5.8302  0.6544
   63TMC2    C1  958   3.362   3.105   9.984  0.0053 -0.1072 -0.7164
   63TMC2    C2  959   3.290   3.024   9.902 -0.9534  0.3942 -0.4644
   63TMC2    C3  960   3.286   3.069   9.774 -0.4254  0.2818  0.5959
   63TMC2    C4  961   3.443   3.211   9.942  0.1503 -0.3438 -0.1202
   63TMC2    C5  962   3.443   3.248   9.807  0.2684  0.1287 -0.2931
   63TMC2    C6  963   3.349   3.182   9.730 -0.4628  0.4241 -0.0602
   63TMC2     C  964   3.353   3.076  10.122  1.1825 -0.3087 -0.1359
   63TMC2     O  965   3.319   2.963  10.149  0.1892 -0.0851  0.3712
   63TMC2     H  966   3.230   2.942   9.939 -0.2874  0.6362  1.1445
   63TMC2    H1  967   3.514   3.272   9.996  0.2693 -0.6422  0.0622
   63TMC2    H2  968   3.316   3.214   9.632 -0.1962 -1.7278 -0.8660
   63TMC2    C7  969   3.454   3.390   9.787 -0.0040  0.4944  0.1744
   63TMC2    C8  970   3.171   3.029   9.694 -0.3324 -0.3374  0.4825
   63TMC2    O1  971   3.475   3.465   9.880 -0.4205 -0.2513  0.3234
   63TMC2    O2  972   3.134   3.101   9.605 -0.2562 -0.2709 -0.0586
   63TMC2    O5  973   3.154   2.897   9.704  0.0612  0.6697  0.4698
   63TMC2    H5  974   3.213   2.867   9.777  1.5372  0.6290 -0.7296
   64MPD2     C  975   3.401   3.183  10.617  0.1077  0.1395 -0.7925
   64MPD2    C1  976   3.403   3.058  10.553  0.7073 -0.1469  0.1120
   64MPD2    C2  977   3.387   3.066  10.413 -1.1716 -0.2258 -0.4356
   64MPD2    C3  978   3.371   3.185  10.343  0.6941  0.1566 -0.9712
   64MPD2    C4  979   3.377   3.308  10.407  0.0981  0.4243  0.0034
   64MPD2    C5  980   3.384   3.298  10.543 -0.2282 -0.2899 -0.3384
   64MPD2     H  981   3.394   2.972  10.360 -0.8077 -0.6146  0.3035
   64MPD2    H1  982   3.378   3.404  10.356  0.5380 -0.3148 -1.3764
   64MPD2    H2  983   3.410   3.188  10.725  0.7991  1.1033 -0.9025
   64MPD2    H3  984   3.399   3.389  10.600 -1.0493  0.5131 -1.4152
   64MPD2     N  985   3.360   3.188  10.202  0.3459  0.5325  0.3026
   64MPD2    H5  986   3.356   3.276  10.151 -1.9210  1.2988  1.7573
   64MPD2    N1  987   3.422   2.927  10.614  0.7800  0.1794  0.2593
   64MPD2    H7  988   3.406   2.840  10.564  0.1255 -0.4318  1.5369
   65MPD2     C  989   0.097   2.696  15.950 -0.3574  0.3965  0.4891
   65MPD2    C1  990   0.090   2.701  15.809 -0.9595  0.3347 -0.0589
   65MPD2    C2  991   0.104   2.581  15.751 -0.1093  0.2594 -0.0646
   65MPD2    C3  992   0.095   2.460  15.821  0.2013  0.0231 -0.1997
   65MPD2    C4  993   0.121   2.459  15.956 -0.1492  0.3104  0.4291
   65MPD2    C5  994   0.113   2.579  16.021  0.5355 -0.4082  1.1757
   65MPD2     H  995   0.095   2.575  15.643 -1.7213  1.4164 -0.0034
   65MPD2    H1  996   0.116   2.370  16.017  1.8461  0.4552  0.8279
   65MPD2    H2  997   0.077   2.789  16.001  0.1996  0.0482  1.3456
   65MPD2    H3  998   0.109   2.580  16.130  1.6593  1.7146  1.2007
   65MPD2     N  999   0.087   2.335  15.759  0.1659  0.4604  0.4797
   65MPD2    H5 1000   0.096   2.254  15.820 -4.2688  0.4006  1.0091
   65MPD2    N1 1001   0.080   2.823  15.735 -0.0338 -0.3077 -0.6981
   65MPD2    H7 1002   0.095   2.817  15.635  1.1698 -2.9684 -0.3502
   66TCq2    C1 1003   0.073   2.949  15.781 -0.9653 -0.2851  0.0525
   66TCq2    O2 1004   0.056   2.993  15.891  0.1151 -0.4601  1.1550
   66TCq2    C2 1005   0.073   3.033  15.665 -0.9219 -0.5215  0.5001
   66TCq2    C3 1006   0.060   2.976  15.541  0.0447  0.4822  0.4087
   66TCq2    C4 1007   0.115   3.037  15.430  0.1338 -0.1407 -0.7067
   66TCq2    C5 1008   0.187   3.156  15.447 -0.1582 -0.6683  0.4086
   66TCq2    C6 1009   0.191   3.213  15.572  0.3922  0.6511  0.2829
   66TCq2    C7 1010   0.134   3.156  15.678  0.3119  0.0414 -0.3769
   66TCq2    C8 1011   0.236   3.354  15.579  0.3467  0.0797 -0.2184
   66TCq2    O4 1012   0.267   3.398  15.467  0.2869  1.0025  0.8379
   66TCq2    C9 1013   0.103   2.979  15.297 -0.7694  0.5265 -0.2881
   66TCq2    O5 1014   0.060   2.864  15.290 -0.2250  0.0418 -0.1671
   66TCq2    O6 1015   0.149   3.045  15.200  0.0117 -0.0889 -0.6162
   66TCq2    H2 1016   0.023   2.880  15.506  3.1143 -0.8878  0.9278
   66TCq2    H3 1017   0.240   3.202  15.364  3.5603 -0.7009  2.7806
   66TCq2    H4 1018   0.148   3.207  15.773 -0.0576  0.5678 -0.6062
   67MPD2     C 1019   0.368   2.113  13.860  0.9111  0.1339 -0.3253
   67MPD2    C1 1020   0.298   2.159  13.972  0.5713 -0.0970 -0.4921
   67MPD2    C2 1021   0.161   2.145  13.968 -0.3764  0.4464 -0.6638
   67MPD2    C3 1022   0.096   2.099  13.854  0.0681  0.8456 -0.8034
   67MPD2    C4 1023   0.165   2.052  13.748  0.4685  0.6960 -0.4370
   67MPD2    C5 1024   0.304   2.051  13.756  0.3797 -0.2704  0.2411
   67MPD2     H 1025   0.112   2.196  14.050  1.7629 -2.4765  2.4122
   67MPD2    H1 1026   0.121   2.028  13.652  2.7045  2.2146 -1.8497
   67MPD2    H2 1027   0.475   2.102  13.854  0.9515 -0.1832  0.9742
   67MPD2    H3 1028   0.358   1.994  13.682 -1.0300 -0.0012 -0.9971
   67MPD2     N 1029   4.679   2.084  13.853  0.2109 -0.0124 -0.2849
   67MPD2    H5 1030   4.630   2.070  13.766  0.9834  1.4590 -0.9501
   67MPD2    N1 1031   0.348   2.192  14.099 -0.1909  0.0260  0.3076
   67MPD2    H7 1032   0.287   2.226  14.173 -2.9147 -0.4342 -1.7150
   68TCq2    C1 1033   0.475   2.164  14.147  0.3993  0.0641  0.2836
   68TCq2    O2 1034   0.573   2.106  14.101 -0.3082 -0.5978 -0.4788
   68TCq2    C2 1035   0.484   2.206  14.284 -0.6726  0.0021  0.0052
   68TCq2    C3 1036   0.380   2.282  14.340 -0.0438  0.1128  1.3380
   68TCq2    C4 1037   0.386   2.299  14.469 -0.6020 -0.2145  0.4061
   68TCq2    C5 1038   0.494   2.256  14.542 -0.8102  0.6757  0.8119
   68TCq2    C6 1039   0.602   2.203  14.488  0.1517  1.0790 -0.5717
   68TCq2    C7 1040   0.595   2.162  14.359 -0.3921 -0.2789 -0.2562
   68TCq2    C8 1041   0.719   2.194  14.568  0.1864  0.3242  0.0267
   68TCq2    O4 1042   0.811   2.130  14.518 -0.5021 -0.0569 -0.7356
   68TCq2    C9 1043   0.285   2.376  14.545  0.1044 -0.9357 -0.0135
   68TCq2    O5 1044   0.209   2.452  14.480 -0.0165  0.0379  0.5376
   68TCq2    O6 1045   0.269   2.349  14.668 -0.4474 -0.4004 -0.2368
   68TCq2    H2 1046   0.302   2.329  14.282  0.0137 -0.6722  0.6288
   68TCq2    H3 1047   0.488   2.273  14.648 -0.1550 -1.4064  1.1933
   68TCq2    H4 1048   0.670   2.098  14.313 -0.3140  0.6243 -1.3873
   69TMC2    C1 1049   2.741   3.752  12.472 -0.3848 -0.8057 -0.1091
   69TMC2    C2 1050   2.634   3.741  12.386  0.6411  0.2677  0.4567
   69TMC2    C3 1051   2.637   3.813  12.274 -0.1392  0.2907 -0.6591
   69TMC2    C4 1052   2.860   3.818  12.438 -0.2414  0.1530 -0.0519
   69TMC2    C5 1053   2.854   3.902  12.331 -0.2267 -0.0488 -0.2723
   69TMC2    C6 1054   2.741   3.905  12.250 -0.1639  0.0008  0.2380
   69TMC2     C 1055   2.751   3.634  12.557  0.2622  0.0295 -0.3966
   69TMC2     O 1056   2.652   3.600  12.625  0.5405 -0.0577 -0.4810
   69TMC2     H 1057   2.555   3.668  12.401  0.0070  0.6957 -0.8436
   69TMC2    H1 1058   2.947   3.818  12.503  0.3703 -0.2758 -0.8727
   69TMC2    H2 1059   2.741   3.934  12.146  1.9131  1.0388  0.5265
   69TMC2    C7 1060   2.972   3.965  12.285  0.7471 -0.6203  1.0692
   69TMC2    C8 1061   2.514   3.833  12.211 -0.5536  0.6264  0.7440
   69TMC2    O1 1062   3.081   3.927  12.317  0.2516 -0.1668 -0.0820
   69TMC2    O2 1063   2.425   3.754  12.230 -0.2661 -0.0886 -0.3542
   69TMC2    O5 1064   2.499   3.966  12.219 -0.0732  0.2914  0.4203
   69TMC2    H5 1065   2.575   4.018  12.187  0.5296  0.3172  1.9167
   70MPD2     C 1066   3.013   3.386  12.520  0.1291  0.3644  0.8952
   70MPD2    C1 1067   2.894   3.432  12.571  0.3279  0.9369  0.5824
   70MPD2    C2 1068   2.819   3.349  12.659 -0.0400 -0.1550 -0.2292
   70MPD2    C3 1069   2.866   3.229  12.685  0.1681  0.4021  0.1981
   70MPD2    C4 1070   2.987   3.181  12.629  0.4836  0.2290  0.8553
   70MPD2    C5 1071   3.059   3.257  12.545 -0.4273 -0.0665  0.3939
   70MPD2     H 1072   2.728   3.383  12.708  1.6968  1.9218  1.5806
   70MPD2    H1 1073   3.032   3.084  12.647 -0.7017 -0.5921 -0.6344
   70MPD2    H2 1074   3.066   3.454  12.454 -0.0629  0.9995  1.3980
   70MPD2    H3 1075   3.151   3.231  12.494 -0.8834 -1.4842  0.3110
   70MPD2     N 1076   2.803   3.150  12.784  0.1486  0.4463  0.5223
   70MPD2    H5 1077   2.854   3.071  12.823 -0.6176 -0.4034 -0.1956
   70MPD2    N1 1078   2.863   3.561  12.529  0.4128 -0.8693 -0.0132
   70MPD2    H7 1079   2.930   3.600  12.465  1.6152 -1.1628  1.0548
   71TMC2    C1 1080   0.668   4.397   1.466  0.1710 -0.6439 -0.7959
   71TMC2    C2 1081   0.789   4.347   1.504  0.1817 -0.1716 -0.2400
   71TMC2    C3 1082   0.809   4.354   1.642 -0.3432 -0.6536 -0.2027
   71TMC2    C4 1083   0.569   4.453   1.542 -0.3149 -0.4737 -0.5119
   71TMC2    C5 1084   0.594   4.436   1.672  0.3011  0.5201  0.2024
   71TMC2    C6 1085   0.706   4.387   1.728 -0.1891 -0.4094  0.1807
   71TMC2     C 1086   0.629   4.387   1.324  0.3082  0.4523 -0.3219
   71TMC2     O 1087   0.542   4.460   1.279  0.3639 -0.6977  0.4670
   71TMC2     H 1088   0.872   4.319   1.439 -0.3095 -0.6522 -0.6634
   71TMC2    H1 1089   0.482   4.507   1.506 -0.1898 -0.9114 -1.4881
   71TMC2    H2 1090   0.723   4.363   1.832 -0.0534 -0.1189  0.2234
   71TMC2    C7 1091   0.495   4.475   1.764 -0.8902 -0.0921  0.3471
   71TMC2    C8 1092   0.939   4.313   1.686  0.3155  0.6596  0.5516
   71TMC2    O1 1093   0.535   4.507   1.879 -0.2104 -0.4410  0.3309
   71TMC2    O2 1094   0.999   4.219   1.625  0.5922  0.2724 -0.0197
   71TMC2    O5 1095   0.991   4.403   1.767  0.0364 -0.5727  0.1791
   71TMC2    H5 1096   0.929   4.473   1.797 -1.3698 -1.8755  0.2888
   72MPD2     C 1097   0.642   4.072   0.914 -0.2194 -0.0971 -0.0421
   72MPD2    C1 1098   0.553   4.178   0.942  0.4488  0.3393  0.7643
   72MPD2    C2 1099   0.570   4.253   1.056 -0.0135 -0.3707 -0.2018
   72MPD2    C3 1100   0.679   4.232   1.136 -0.4193  0.0173 -0.2579
   72MPD2    C4 1101   0.768   4.132   1.093 -0.7597  0.4960 -0.1264
   72MPD2    C5 1102   0.752   4.048   0.987 -0.1829 -0.0009  0.1467
   72MPD2     H 1103   0.493   4.325   1.086 -0.2816 -0.4159 -0.7849
   72MPD2    H1 1104   0.845   4.105   1.165  0.7041  2.7963 -0.8209
   72MPD2    H2 1105   0.622   3.994   0.842 -2.6080  1.2284 -0.8427
   72MPD2    H3 1106   0.803   3.953   0.977  1.0208  0.8355 -1.6364
   72MPD2     N 1107   0.704   4.291   1.263 -0.0592  0.0972 -0.1978
   72MPD2    H5 1108   0.788   4.254   1.306 -0.1417 -0.0571 -0.1648
   72MPD2    N1 1109   0.430   4.205   0.880 -0.0381 -0.3910 -0.4274
   72MPD2    H7 1110   0.380   4.288   0.911  1.4622 -0.8879  3.3421
   73TMC2    C1 1111   4.416   0.945  13.752  0.5164  0.6795 -0.4578
   73TMC2    C2 1112   4.332   0.941  13.861 -0.0073  0.6378 -0.0249
   73TMC2    C3 1113   4.375   0.877  13.975 -0.4711  0.3805 -1.1127
   73TMC2    C4 1114   4.541   0.881  13.750  0.4436 -0.1263 -0.9782
   73TMC2    C5 1115   4.580   0.829  13.870  0.4654  0.5419  0.4510
   73TMC2    C6 1116   4.502   0.824  13.983  0.6583 -0.0653 -0.4118
   73TMC2     C 1117   4.442   1.086  13.707 -0.4486 -0.0361  0.4098
   73TMC2     O 1118   4.555   1.127  13.725 -0.0015 -0.1259  0.2732
   73TMC2     H 1119   4.238   0.995  13.865 -0.2380  0.0049  3.2605
   73TMC2    H1 1120   4.604   0.896  13.663 -0.8813 -1.1981 -2.1365
   73TMC2    H2 1121   4.542   0.792  14.078 -1.3256 -0.2966  0.3405
   73TMC2    C7 1122   4.719   0.851  13.895  0.7034 -0.5880 -0.0454
   73TMC2    C8 1123   4.298   0.868  14.098 -0.1954  0.3226  0.2698
   73TMC2    O1 1124   0.068   0.772  13.951  0.2085 -0.2345  0.1529
   73TMC2    O2 1125   4.345   0.832  14.202  0.2447 -0.4729  0.3579
   73TMC2    O5 1126   4.172   0.914  14.080  1.0088 -0.2535 -0.5347
   73TMC2    H5 1127   4.134   0.908  13.990  0.3248 -2.0998 -0.1050
   74MPD2     C 1128   4.373   1.511  13.443  0.0215  0.1865  0.7962
   74MPD2    C1 1129   4.452   1.482  13.548 -0.2160  0.1304 -0.0277
   74MPD2    C2 1130   4.441   1.361  13.604  0.2590 -0.8278  0.6125
   74MPD2    C3 1131   4.347   1.265  13.569 -0.2216 -0.4645 -0.1736
   74MPD2    C4 1132   4.256   1.303  13.473 -0.8109  0.4649 -0.5158
   74MPD2    C5 1133   4.268   1.425  13.410 -0.3577  0.6533 -0.8239
   74MPD2     H 1134   4.509   1.343  13.686  1.3892  3.0504  0.5417
   74MPD2    H1 1135   4.186   1.236  13.425  0.8462  0.3784 -2.7987
   74MPD2    H2 1136   4.388   1.594  13.376  0.5365  0.4594  1.2526
   74MPD2    H3 1137   4.209   1.442  13.321 -0.7686 -3.0658 -1.2418
   74MPD2     N 1138   4.341   1.140  13.638  0.4296 -0.5723 -0.1148
   74MPD2    H5 1139   4.264   1.078  13.611  0.2607  0.0989 -1.1848
   74MPD2    N1 1140   4.560   1.577  13.574 -0.2033 -0.0112  0.1576
   74MPD2    H7 1141   4.545   1.666  13.526 -0.1646 -0.0209  0.1278
   75TCq2    C1 1142   4.604   2.092  13.969 -0.4207 -0.2810  0.3733
   75TCq2    O2 1143   4.642   2.074  14.086  0.7486 -0.1713  0.1177
   75TCq2    C2 1144   4.459   2.102  13.945 -0.4300 -0.4386 -0.1933
   75TCq2    C3 1145   4.384   2.047  14.044  0.6599 -0.1373 -0.6866
   75TCq2    C4 1146   4.250   2.066  14.036 -0.3679 -0.4457 -0.0020
   75TCq2    C5 1147   4.188   2.114  13.928  0.0016  0.8081 -0.4900
   75TCq2    C6 1148   4.270   2.152  13.826  0.0094  0.0463  0.0905
   75TCq2    C7 1149   4.397   2.143  13.825 -0.0238 -0.2462 -0.0281
   75TCq2    C8 1150   4.207   2.202  13.706 -0.3600  0.6469  0.1841
   75TCq2    O4 1151   4.270   2.187  13.598  0.6379  0.9456 -0.0714
   75TCq2    C9 1152   4.170   2.031  14.149  0.5129  0.3677 -0.6401
   75TCq2    O5 1153   4.217   1.956  14.239  0.2796  0.2180 -0.2294
   75TCq2    O6 1154   4.059   2.103  14.164 -0.3131 -0.1812  0.2217
   75TCq2    H2 1155   4.426   2.028  14.142 -1.5032 -2.5457 -0.2112
   75TCq2    H3 1156   4.080   2.113  13.928  0.0295 -0.2471 -3.3604
   75TCq2    H4 1157   4.461   2.171  13.741  1.1482 -0.5674  0.7484
   76MPD2     C 1158   3.839   3.419  12.113  0.3890 -0.0501  0.8389
   76MPD2    C1 1159   3.736   3.400  12.019 -0.1005 -0.5246  0.5995
   76MPD2    C2 1160   3.683   3.275  11.996 -0.1323 -0.0271  0.1610
   76MPD2    C3 1161   3.735   3.161  12.051 -0.4990  0.6451  0.3941
   76MPD2    C4 1162   3.838   3.181  12.137 -0.4830 -0.3011  0.6361
   76MPD2    C5 1163   3.894   3.305  12.164 -0.0638  0.8183  0.0299
   76MPD2     H 1164   3.615   3.273  11.911 -2.2457  0.7502  1.8380
   76MPD2    H1 1165   3.885   3.090  12.173  0.2306 -0.2913 -0.2717
   76MPD2    H2 1166   3.898   3.510  12.121 -0.0643  0.4251 -1.1388
   76MPD2    H3 1167   3.984   3.308  12.225 -0.3987 -1.7290  0.6722
   76MPD2     N 1168   3.706   3.028  12.016 -0.2340 -0.2690 -0.3256
   76MPD2    H5 1169   3.747   2.954  12.072 -1.5828 -0.4182  0.4800
   76MPD2    N1 1170   3.689   3.503  11.938  0.1034  0.4277 -0.1353
   76MPD2    H7 1171   3.640   3.481  11.852 -1.5632 -0.0388  0.9223
   77TCq2    C1 1172   3.613   2.987  11.924 -0.1024  0.1493 -0.0737
   77TCq2    O2 1173   3.534   3.043  11.850 -0.3062  0.0092  0.2811
   77TCq2    C2 1174   3.626   2.833  11.913  0.1609 -0.1247  0.2028
   77TCq2    C3 1175   3.515   2.762  11.869  0.4753 -0.1316 -0.0317
   77TCq2    C4 1176   3.530   2.631  11.832  0.4878 -0.2126 -0.5790
   77TCq2    C5 1177   3.649   2.568  11.853  0.2790 -0.2189 -0.0695
   77TCq2    C6 1178   3.755   2.651  11.878  0.9702 -0.3945  0.2792
   77TCq2    C7 1179   3.754   2.785  11.907 -0.7048 -0.3672  1.0209
   77TCq2    C8 1180   3.883   2.585  11.907 -1.1355  0.3250 -0.6479
   77TCq2    O4 1181   3.901   2.476  11.861  0.2668  0.3376 -0.9410
   77TCq2    C9 1182   3.419   2.559  11.777  0.2610 -0.4323  0.2080
   77TCq2    O5 1183   3.451   2.450  11.724 -0.0969 -0.1314 -0.3947
   77TCq2    O6 1184   3.310   2.610  11.795 -0.6842 -0.7381  0.1524
   77TCq2    H2 1185   3.420   2.815  11.863  0.3166 -0.6249 -1.8413
   77TCq2    H3 1186   3.667   2.462  11.843 -1.3002 -0.3888 -1.0867
   77TCq2    H4 1187   3.839   2.849  11.926 -1.8086  1.9070 -1.7227
   78MPD1     C 1188   1.131   1.255   2.138 -0.5047 -0.5453 -1.0600
   78MPD1    C1 1189   1.151   1.365   2.057 -0.5429 -0.3578  0.1646
   78MPD1    C2 1190   1.083   1.483   2.082  0.6115 -0.3760 -0.9078
   78MPD1    C3 1191   0.997   1.495   2.193 -0.1389  0.3198  1.1704
   78MPD1    C4 1192   0.982   1.385   2.277  0.4009  0.0174 -0.1446
   78MPD1    C5 1193   1.042   1.266   2.246 -0.2517  0.7259  0.7304
   78MPD1     H 1194   1.092   1.566   2.013  1.9054 -0.6922 -1.1259
   78MPD1    H1 1195   0.921   1.381   2.367 -1.0814 -2.3592 -1.2633
   78MPD1    H2 1196   1.182   1.160   2.124  2.6887  0.8527  0.8167
   78MPD1    H3 1197   1.019   1.183   2.312  0.9650 -0.5863 -0.4533
   78MPD1     N 1198   0.928   1.620   2.217  0.3445  0.1445 -0.4462
   78MPD1    H5 1199   0.859   1.627   2.291  2.1712 -0.1797  1.2963
   78MPD1    N1 1200   1.236   1.364   1.942 -0.0173  0.4491  0.0899
   78MPD1    H6 1201   1.177   1.384   1.861  0.2641 -0.8892 -0.4391
   78MPD1    H7 1202   1.295   1.446   1.954 -1.8167  1.6134  1.1266
   79TCq2    C1 1203   0.942   1.738   2.145 -0.3274  0.4853  0.5524
   79TCq2    O2 1204   1.031   1.779   2.076 -0.2114 -0.4433 -0.6724
   79TCq2    C2 1205   0.842   1.834   2.169 -0.1678 -0.2002  0.5704
   79TCq2    C3 1206   0.723   1.805   2.239 -0.4555  0.2800 -0.0166
   79TCq2    C4 1207   0.640   1.902   2.272 -0.0771  0.2306  0.3070
   79TCq2    C5 1208   0.667   2.030   2.263  0.5635 -0.2385  0.1611
   79TCq2    C6 1209   0.788   2.059   2.199  0.4227  0.3140 -0.9009
   79TCq2    C7 1210   0.874   1.963   2.161  0.4369 -0.0268  1.1088
   79TCq2    C8 1211   0.827   2.199   2.185 -0.0756 -0.2587 -0.2584
   79TCq2    O4 1212   0.928   2.226   2.126  0.0430 -0.0621  0.1118
   79TCq2    C9 1213   0.503   1.855   2.305  0.2731  0.2005 -0.1052
   79TCq2    O5 1214   0.423   1.935   2.351  0.1601 -0.1810  0.7251
   79TCq2    O6 1215   0.459   1.755   2.241  0.4280  0.5728 -0.3009
   79TCq2    H2 1216   0.682   1.708   2.264  2.4834 -0.9543  0.0673
   79TCq2    H3 1217   0.589   2.093   2.306  1.6556  1.8467 -0.9318
   79TCq2    H4 1218   0.955   1.996   2.097 -1.5322 -1.2353 -2.0398
   80MPD2     C 1219   2.692   2.965  12.293 -0.0655  0.0232 -0.0763
   80MPD2    C1 1220   2.592   2.970  12.187 -0.3776  0.4122  0.4622
   80MPD2    C2 1221   2.463   3.011  12.212  0.7434  0.0904  0.3054
   80MPD2    C3 1222   2.436   3.055  12.334 -0.4456 -0.1029 -0.4951
   80MPD2    C4 1223   2.533   3.068  12.435 -0.5418 -0.4691  0.1067
   80MPD2    C5 1224   2.663   3.019  12.418  0.0407  0.1756 -0.0962
   80MPD2     H 1225   2.401   2.998  12.123 -0.5640  1.5204  0.9924
   80MPD2    H1 1226   2.503   3.122  12.523  0.8810 -1.2521  1.0710
   80MPD2    H2 1227   2.791   2.923  12.281  0.7932  2.1061 -0.3174
   80MPD2    H3 1228   2.735   3.020  12.498 -0.1862  0.0148  0.1120
   80MPD2     N 1229   2.302   3.098  12.367 -0.0970 -0.4916 -0.1840
   80MPD2    H5 1230   2.284   3.126  12.463  1.4274  0.7855 -0.2728
   80MPD2    N1 1231   2.614   2.914  12.057 -0.3631 -0.4455  0.7117
   80MPD2    H7 1232   2.530   2.908  12.000  0.9374 -0.1212 -1.2702
   81TCq2    C1 1233   2.730   2.850  12.017  0.1132  0.8254  0.0176
   81TCq2    O2 1234   2.845   2.874  12.054 -0.0464  0.2197  0.3063
   81TCq2    C2 1235   2.710   2.742  11.922  0.4872  0.5394  0.7178
   81TCq2    C3 1236   2.819   2.687  11.854 -0.0163 -0.0081  0.2169
   81TCq2    C4 1237   2.797   2.613  11.747 -0.7977 -0.5749 -0.0332
   81TCq2    C5 1238   2.672   2.575  11.705  0.9014  0.2578  0.0150
   81TCq2    C6 1239   2.569   2.611  11.783 -0.0876  0.2099  0.0312
   81TCq2    C7 1240   2.585   2.697  11.886  0.4126 -0.5028 -0.3872
   81TCq2    C8 1241   2.439   2.558  11.744  0.1781  0.1948 -0.4374
   81TCq2    O4 1242   2.448   2.495  11.639 -0.5235  0.1328 -0.2430
   81TCq2    C9 1243   2.918   2.580  11.672 -0.1821  0.0551 -0.2129
   81TCq2    O5 1244   3.033   2.584  11.721 -0.4120  0.3179 -0.6421
   81TCq2    O6 1245   2.889   2.513  11.574 -0.3342 -0.7529 -0.5388
   81TCq2    H2 1246   2.919   2.720  11.880 -0.6091  2.3406 -0.4779
   81TCq2    H3 1247   2.668   2.498  11.628 -0.0345  0.7446 -0.4255
   81TCq2    H4 1248   2.496   2.734  11.935  0.1339 -1.0149 -0.5017
   82MPD2     C 1249   1.014   2.496  10.450 -0.0379  0.2301  0.1011
   82MPD2    C1 1250   0.935   2.379  10.448 -0.2459 -0.3093 -0.0852
   82MPD2    C2 1251   0.974   2.277  10.534 -0.8882 -0.1421 -0.4810
   82MPD2    C3 1252   1.082   2.285  10.622  0.4849  1.1767 -0.5826
   82MPD2    C4 1253   1.156   2.402  10.618 -0.3440  0.3365 -0.2930
   82MPD2    C5 1254   1.125   2.502  10.531  0.0083 -0.5427  0.6677
   82MPD2     H 1255   0.915   2.186  10.525 -0.4238 -0.5630  0.6075
   82MPD2    H1 1256   1.247   2.402  10.678 -0.8199 -1.3347  0.4225
   82MPD2    H2 1257   0.989   2.582  10.389 -1.8615 -1.3449 -1.3877
   82MPD2    H3 1258   1.181   2.594  10.526 -2.4190  0.7056 -4.0618
   82MPD2     N 1259   1.121   2.182  10.705 -0.4151 -0.2018  0.1013
   82MPD2    H5 1260   1.219   2.179  10.733 -0.1730 -0.3045 -0.7491
   82MPD2    N1 1261   0.829   2.373  10.361  0.0954 -0.5401 -0.1795
   82MPD2    H7 1262   0.804   2.456  10.308  0.3095  0.7991  1.7920
   83TCq2    C1 1263   1.032   2.088  10.741  0.0321  0.2549  0.4278
   83TCq2    O2 1264   0.909   2.084  10.722 -0.4679 -0.4107  0.2064
   83TCq2    C2 1265   1.086   1.975  10.816  0.1407  0.3442  0.1179
   83TCq2    C3 1266   1.223   1.955  10.827  0.7196 -0.8426 -0.0893
   83TCq2    C4 1267   1.272   1.832  10.863  0.5873  0.1788  0.1228
   83TCq2    C5 1268   1.189   1.728  10.889  0.4305  0.1918 -0.0297
   83TCq2    C6 1269   1.058   1.745  10.862  0.5108  0.5675  0.1059
   83TCq2    C7 1270   1.005   1.865  10.827  0.3189  0.5835  0.4431
   83TCq2    C8 1271   0.973   1.646  10.916  0.9318 -0.0979  0.7994
   83TCq2    O4 1272   1.020   1.587  11.014  0.4359  0.1409 -0.3139
   83TCq2    C9 1273   1.413   1.820  10.874 -0.4537  0.1703  0.6896
   83TCq2    O5 1274   1.477   1.929  10.883  0.1729 -0.5923 -0.1089
   83TCq2    O6 1275   1.460   1.704  10.882  0.4907  0.8405  0.5215
   83TCq2    H2 1276   1.295   2.035  10.818  0.5019 -0.5920  0.3992
   83TCq2    H3 1277   1.233   1.634  10.920 -1.4424 -0.6116  0.2071
   83TCq2    H4 1278   0.898   1.873  10.842 -0.2867 -0.5450 -3.0448
   84TCq2    C1 1279   1.681   0.786  10.201  0.0227 -0.2272  0.3925
   84TCq2    O2 1280   1.573   0.747  10.242 -0.6319  0.4545 -0.4110
   84TCq2    C2 1281   1.777   0.850  10.294  0.3442  0.3184 -0.1850
   84TCq2    C3 1282   1.902   0.889  10.241  0.3969 -0.0357 -0.0075
   84TCq2    C4 1283   1.981   0.967  10.321 -0.8659  0.2039 -0.4089
   84TCq2    C5 1284   1.945   0.992  10.453  0.2677  0.0675 -0.5652
   84TCq2    C6 1285   1.827   0.952  10.503  0.5366 -0.0030 -0.1542
   84TCq2    C7 1286   1.737   0.888  10.424 -0.3572 -0.4076 -0.0686
   84TCq2    C8 1287   1.807   0.985  10.641 -0.1438 -0.6709 -0.0390
   84TCq2    O4 1288   1.891   1.049  10.706 -0.4449 -0.4273  0.1212
   84TCq2    C9 1289   2.103   1.029  10.275  0.0585  0.3057  0.1275
   84TCq2    O5 1290   2.150   1.117  10.351  0.2843  0.0100  0.0269
   84TCq2    O6 1291   2.150   0.995  10.167  0.3724  0.3297 -0.3085
   84TCq2    H2 1292   1.948   0.864  10.146  1.5057  1.9812 -0.0098
   84TCq2    H3 1293   2.013   1.054  10.510  0.2057 -0.4566  0.0745
   84TCq2    H4 1294   1.632   0.870  10.445  0.2196 -1.0422  2.3602
   85MPD2     C 1295   2.469   4.358  16.432  0.1626 -0.6623 -0.4210
   85MPD2    C1 1296   2.506   4.333  16.300 -0.2291 -0.3324  0.5783
   85MPD2    C2 1297   2.551   4.443  16.224 -0.1643 -0.1516  0.0174
   85MPD2    C3 1298   2.562   4.571  16.271  0.1395  0.2078 -0.1978
   85MPD2    C4 1299   2.510   4.591  16.397  0.0195 -0.0191 -0.2749
   85MPD2    C5 1300   2.472   4.484  16.474 -0.3161  0.7225 -0.2011
   85MPD2     H 1301   2.578   4.436  16.119  2.0967 -1.9004  0.7158
   85MPD2    H1 1302   2.519   4.685  16.450 -1.2896  2.7450 -4.8882
   85MPD2    H2 1303   2.443   4.284  16.507 -0.2323  0.0288  0.1126
   85MPD2    H3 1304   2.436   4.508  16.574  0.2909 -1.5796  0.5644
   85MPD2     N 1305   2.619   4.670  16.190 -0.0706 -0.5223 -0.4117
   85MPD2    H5 1306   2.673   4.639  16.109  0.8402 -0.9237  0.3472
   85MPD2    N1 1307   2.489   4.206  16.240  0.2890 -1.0133  0.5313
   85MPD2    H7 1308   2.526   4.206  16.146 -1.3980 -3.9368 -0.1449
   86TCq2    C1 1309   2.645   0.073  16.228  0.1818 -0.1295  0.4745
   86TCq2    O2 1310   2.627   0.122  16.336  0.2672  0.4514 -0.7727
   86TCq2    C2 1311   2.741   0.140  16.147 -0.4693 -0.5191  0.3793
   86TCq2    C3 1312   2.726   0.276  16.150 -0.5751  0.0779  0.5609
   86TCq2    C4 1313   2.819   0.353  16.088  0.3308 -0.3030  0.1672
   86TCq2    C5 1314   2.927   0.296  16.024  0.1212 -0.5368 -0.3136
   86TCq2    C6 1315   2.936   0.164  16.031  0.6021  0.7416 -0.6075
   86TCq2    C7 1316   2.851   0.081  16.102 -0.2331  0.6040 -0.6651
   86TCq2    C8 1317   3.018   0.113  15.917  0.8356  0.3597  0.5327
   86TCq2    O4 1318   3.076   0.008  15.937  0.1155 -0.2781 -0.6289
   86TCq2    C9 1319   2.798   0.492  16.062  0.1623 -0.3141 -0.8505
   86TCq2    O5 1320   2.889   0.555  15.995  0.3699  0.3934 -0.2673
   86TCq2    O6 1321   2.682   0.540  16.095 -0.4281  0.8604 -0.8800
   86TCq2    H2 1322   2.640   0.321  16.198 -0.2363  0.1958  1.0601
   86TCq2    H3 1323   2.994   0.365  15.975  0.6393 -0.7679  0.0755
   86TCq2    H4 1324   2.870   4.702  16.115 -0.8886  0.4786 -0.7190
   87MPD2     C 1325   0.364   2.508   1.655  0.8381  0.0075 -0.0218
   87MPD2    C1 1326   0.403   2.521   1.526  0.1979 -0.3473  0.4771
   87MPD2    C2 1327   0.369   2.639   1.465  0.6383 -0.3226 -0.8344
   87MPD2    C3 1328   0.305   2.742   1.529  1.2042 -0.7159  0.0190
   87MPD2    C4 1329   0.274   2.726   1.661 -0.4498 -0.2450  0.1164
   87MPD2    C5 1330   0.296   2.600   1.720  0.2850 -0.3953 -0.4210
   87MPD2     H 1331   0.388   2.649   1.359 -0.5024 -0.7191 -1.0776
   87MPD2    H1 1332   0.220   2.807   1.710 -0.2617 -0.0640  0.0224
   87MPD2    H2 1333   0.390   2.422   1.715  1.6172 -0.6798 -1.3586
   87MPD2    H3 1334   0.269   2.585   1.823 -0.1203  2.3549 -0.1190
   87MPD2     N 1335   0.257   2.860   1.465  0.7295  0.5635  0.4354
   87MPD2    H5 1336   0.196   2.918   1.522 -0.0816  0.8004 -0.6924
   87MPD2    N1 1337   0.480   2.424   1.469  0.0195 -0.5886  0.1555
   87MPD2    H7 1338   0.493   2.336   1.518  0.0003 -0.4821  0.3532
   88TCq2    C1 1339   0.550   2.439   1.351  0.7082 -0.1967 -0.2110
   88TCq2    O2 1340   0.550   2.529   1.267  0.1389  0.3603 -0.1945
   88TCq2    C2 1341   0.653   2.332   1.328  0.7250 -0.3379 -0.3310
   88TCq2    C3 1342   0.703   2.262   1.434 -0.3971  0.1226  0.0985
   88TCq2    C4 1343   0.822   2.193   1.408 -0.0929  0.5936 -0.0761
   88TCq2    C5 1344   0.885   2.197   1.282  0.0210 -0.3803 -0.5092
   88TCq2    C6 1345   0.822   2.259   1.183  0.1326 -0.7040  0.2532
   88TCq2    C7 1346   0.702   2.324   1.203  0.2871 -0.1414  0.4319
   88TCq2    C8 1347   0.836   2.199   1.047 -0.4811  0.1273  0.1657
   88TCq2    O4 1348   0.783   2.261   0.954 -0.0123  0.1318  0.0736
   88TCq2    C9 1349   0.883   2.121   1.517  0.5344  0.1174 -0.2557
   88TCq2    O5 1350   0.941   2.015   1.475 -0.6654  0.4886 -0.0615
   88TCq2    O6 1351   0.824   2.122   1.626 -0.1156  0.6130  0.2385
   88TCq2    H2 1352   0.669   2.273   1.536  2.1567  0.4100  0.9223
   88TCq2    H3 1353   0.979   2.142   1.278  0.9307  1.1734 -0.3586
   88TCq2    H4 1354   0.645   2.374   1.126  0.1379  1.8959  1.8752
   89MPD2     C 1355   0.292   4.697   2.247  0.1730  0.7346 -0.4452
   89MPD2    C1 1356   0.246   0.083   2.188  0.8464 -0.2531  0.1305
   89MPD2    C2 1357   0.337   0.172   2.131 -0.2575  0.4132 -0.3771
   89MPD2    C3 1358   0.476   0.138   2.123 -0.5143 -0.5068  0.1288
   89MPD2    C4 1359   0.515   0.028   2.195  0.4890  0.3172  0.5776
   89MPD2    C5 1360   0.424   4.667   2.250 -0.3192  0.3743 -0.3376
   89MPD2     H 1361   0.291   0.259   2.087  1.9169  0.7722 -1.9346
   89MPD2    H1 1362   0.619   0.000   2.207  0.6381  0.3146 -0.7707
   89MPD2    H2 1363   0.218   4.630   2.289  1.9361 -0.6009  0.4961
   89MPD2    H3 1364   0.463   4.578   2.299  1.6783  1.7520  0.5712
   89MPD2     N 1365   0.555   0.214   2.032 -0.4129 -0.4537 -0.1591
   89MPD2    H5 1366   0.501   0.290   1.992  0.4536 -0.8335 -2.0593
   89MPD2    N1 1367   0.110   0.116   2.198 -0.2386 -0.2631 -0.8480
   89MPD2    H7 1368   0.070   0.199   2.155  1.5364  0.8198 -0.3925
   90TCq2    C1 1369   0.685   0.179   1.996 -0.7550  0.8627 -0.5313
   90TCq2    O2 1370   0.758   0.091   2.039 -0.4206 -0.1573  0.0928
   90TCq2    C2 1371   0.738   0.255   1.885 -0.9695 -0.6973 -0.1728
   90TCq2    C3 1372   0.876   0.236   1.867 -0.2751  0.0953  0.1791
   90TCq2    C4 1373   0.945   0.318   1.781 -0.9334  0.9920 -0.0400
   90TCq2    C5 1374   0.879   0.409   1.706  0.2337 -0.2260 -0.5040
   90TCq2    C6 1375   0.743   0.425   1.730 -0.0311 -0.1662  0.4486
   90TCq2    C7 1376   0.673   0.361   1.829 -0.4479 -0.2520 -0.1703
   90TCq2    C8 1377   0.660   0.488   1.623 -0.8769 -0.9362  0.4197
   90TCq2    O4 1378   0.538   0.482   1.639 -0.0289 -0.0791  0.0101
   90TCq2    C9 1379   1.085   0.299   1.756  0.2529 -0.5893  0.4177
   90TCq2    O5 1380   1.142   0.393   1.698 -0.1307 -0.6182 -0.4290
   90TCq2    O6 1381   1.145   0.210   1.823 -0.9954 -0.1438 -0.4942
   90TCq2    H2 1382   0.927   0.150   1.908 -1.3383  0.1406  1.5865
   90TCq2    H3 1383   0.930   0.473   1.635 -0.0980  0.1424 -0.4148
   90TCq2    H4 1384   0.565   0.360   1.824 -0.3807 -0.6564 -1.5320
   91TMC2    C1 1385   2.447   0.639  16.367 -0.2551  0.2155 -0.1848
   91TMC2    C2 1386   2.491   0.692  16.249  0.4978  0.2459 -0.3342
   91TMC2    C3 1387   2.398   0.724  16.156 -0.0352  0.4483 -0.3444
   91TMC2    C4 1388   2.315   0.627  16.401 -0.2321 -0.0070  0.1342
   91TMC2    C5 1389   2.224   0.652  16.299  0.1351  0.6421  0.3505
   91TMC2    C6 1390   2.268   0.702  16.177  0.3624  0.5730 -0.4898
   91TMC2     C 1391   2.545   0.588  16.463  0.1462  0.4128  0.0877
   91TMC2     O 1392   2.512   0.577  16.580 -0.4050  0.1733 -0.4668
   91TMC2     H 1393   2.598   0.697  16.233  0.5729 -0.1049  0.0548
   91TMC2    H1 1394   2.285   0.600  16.502  3.2266  1.2112  1.4916
   91TMC2    H2 1395   2.206   0.737  16.095 -1.7914  0.3539  1.0591
   91TMC2    C7 1396   2.094   0.587  16.307 -0.1430 -0.4957 -0.5550
   91TMC2    C8 1397   2.439   0.788  16.031  0.6538  0.2951 -0.6530
   91TMC2    O1 1398   2.060   0.550  16.419 -0.3772 -0.2945 -0.1947
   91TMC2    O2 1399   2.356   0.848  15.962  0.0940  0.6726 -0.5978
   91TMC2    O5 1400   2.567   0.765  16.005 -0.0010  0.6725 -0.3041
   91TMC2    H5 1401   2.607   0.691  16.056 -0.6138  1.5063  1.3756
   92MPD2     C 1402   2.783   0.474  16.607  0.1386  0.6023 -0.0216
   92MPD2    C1 1403   2.778   0.523  16.474  0.7948 -0.3313 -0.1153
   92MPD2    C2 1404   2.895   0.540  16.404 -0.0011 -0.1795  0.5364
   92MPD2    C3 1405   3.014   0.532  16.468 -0.5469 -0.2589 -0.2439
   92MPD2    C4 1406   3.022   0.482  16.591 -0.4708 -0.2883 -0.6482
   92MPD2    C5 1407   2.907   0.450  16.659  0.8929  0.1911  0.7748
   92MPD2     H 1408   2.903   0.566  16.300  1.2261  0.2234  0.7296
   92MPD2    H1 1409   3.110   0.471  16.653 -0.8181  0.7226  0.0213
   92MPD2    H2 1410   2.694   0.446  16.663 -1.9759  1.5375 -2.9059
   92MPD2    H3 1411   2.923   0.412  16.759  0.8317 -0.3596  0.5765
   92MPD2     N 1412   3.127   0.578  16.399 -0.5709  0.1784  0.8045
   92MPD2    H5 1413   3.106   0.630  16.315  0.3249 -0.3201  0.2772
   92MPD2    N1 1414   2.662   0.546  16.405 -0.3511 -0.4699 -0.0861
   92MPD2    H7 1415   2.674   0.560  16.305  0.7769  1.6767  0.3475
   93MPD2     C 1416   3.857   0.720  13.571  0.0910 -0.3483 -0.3076
   93MPD2    C1 1417   3.844   0.583  13.575 -0.3057  0.2559  0.3842
   93MPD2    C2 1418   3.719   0.530  13.553  0.4871  0.5844  0.8131
   93MPD2    C3 1419   3.606   0.612  13.524  0.1335  0.1496  0.0498
   93MPD2    C4 1420   3.626   0.751  13.530 -0.5704  0.1106 -0.1047
   93MPD2    C5 1421   3.749   0.809  13.546  0.1403  0.5210 -0.6815
   93MPD2     H 1422   3.702   0.423  13.554  1.6973  0.3946  0.3967
   93MPD2    H1 1423   3.548   0.817  13.496 -0.4471  0.1238 -0.3610
   93MPD2    H2 1424   3.952   0.768  13.594  0.0655 -0.6587  0.4445
   93MPD2    H3 1425   3.755   0.917  13.541 -2.7088  0.7408  0.6688
   93MPD2     N 1426   3.477   0.558  13.488 -0.2154 -0.1816 -0.0097
   93MPD2    H5 1427   3.417   0.621  13.437 -3.4907 -0.0201  4.0595
   93MPD2    N1 1428   3.952   0.496  13.603  0.0894  0.3507  0.8552
   93MPD2    H7 1429   3.926   0.399  13.619  2.4806 -0.8114 -2.5375
   94TCq2    C1 1430   4.084   0.535  13.625  0.5619 -0.4920  0.3787
   94TCq2    O2 1431   4.131   0.646  13.626 -0.1697 -0.1636  0.2015
   94TCq2    C2 1432   4.186   0.441  13.670  0.1853 -0.8106 -0.0686
   94TCq2    C3 1433   4.158   0.339  13.752 -0.3363  0.2094  0.1987
   94TCq2    C4 1434   4.263   0.267  13.803 -1.0736 -0.5967 -0.3706
   94TCq2    C5 1435   4.389   0.289  13.764  0.4022  0.3877  0.1309
   94TCq2    C6 1436   4.415   0.399  13.685  0.2673  0.4791 -0.4655
   94TCq2    C7 1437   4.314   0.484  13.644  0.1932 -0.5800 -0.3428
   94TCq2    C8 1438   4.556   0.449  13.675  0.0727 -0.3096 -0.2350
   94TCq2    O4 1439   4.631   0.385  13.746 -0.3100 -0.3440 -0.2073
   94TCq2    C9 1440   4.233   0.151  13.898  0.3424  0.0885 -0.0966
   94TCq2    O5 1441   4.329   0.102  13.957  0.1727  0.0226 -1.0559
   94TCq2    O6 1442   4.114   0.125  13.925 -0.1261 -0.7217 -0.3048
   94TCq2    H2 1443   4.060   0.326  13.797 -0.4865 -1.7340 -0.6483
   94TCq2    H3 1444   4.465   0.227  13.812 -0.1653 -2.1427 -2.2464
   94TCq2    H4 1445   4.337   0.570  13.582  0.6750 -0.9744 -0.7111
   95TMC2    C1 1446   4.044   1.824  16.157  0.1022 -0.1706 -0.1200
   95TMC2    C2 1447   4.080   1.842  16.283  0.5499  0.8365 -0.1074
   95TMC2    C3 1448   3.984   1.867  16.374 -0.1016 -0.4614 -0.0897
   95TMC2    C4 1449   3.914   1.824  16.114  1.0901 -0.7024 -0.6634
   95TMC2    C5 1450   3.821   1.843  16.207  0.1747  0.2935 -0.5707
   95TMC2    C6 1451   3.848   1.868  16.340 -0.3299  0.9670 -0.4558
   95TMC2     C 1452   4.153   1.799  16.068 -0.9048 -0.3202 -0.7315
   95TMC2     O 1453   4.257   1.855  16.101  0.3844  0.3105 -0.1034
   95TMC2     H 1454   4.183   1.830  16.315  0.6493 -0.3116 -0.8347
   95TMC2    H1 1455   3.890   1.828  16.008  0.6346  0.0046 -0.5350
   95TMC2    H2 1456   3.763   1.900  16.400  1.1067  3.7940  0.1018
   95TMC2    C7 1457   3.700   1.901  16.154  0.1395 -0.0553  0.7025
   95TMC2    C8 1458   4.020   1.884  16.511  0.3298 -0.0933 -0.4575
   95TMC2    O1 1459   3.640   1.977  16.232 -0.1731  0.2475  0.5590
   95TMC2    O2 1460   3.928   1.882  16.587 -0.1920 -0.3795 -0.6602
   95TMC2    O5 1461   4.131   1.961  16.516 -0.0125  0.1182 -0.1043
   95TMC2    H5 1462   4.167   1.988  16.429 -1.5662 -0.1213 -0.8312
   96MPD2     C 1463   4.325   1.635  15.615  0.2100  0.1559  0.2089
   96MPD2    C1 1464   4.369   1.741  15.692 -0.3822 -0.2503  0.4451
   96MPD2    C2 1465   4.305   1.760  15.809  0.4102  0.2108  0.1261
   96MPD2    C3 1466   4.195   1.690  15.845  0.2827 -0.2474 -0.9633
   96MPD2    C4 1467   4.156   1.587  15.766  0.2245 -0.3421 -0.2876
   96MPD2    C5 1468   4.228   1.551  15.655  0.1662 -0.0309 -0.2546
   96MPD2     H 1469   4.332   1.845  15.871 -0.8579 -0.7734  2.0489
   96MPD2    H1 1470   4.069   1.528  15.795  0.0053 -0.6093 -1.4786
   96MPD2    H2 1471   4.379   1.622  15.522 -0.4933 -0.2388 -0.1470
   96MPD2    H3 1472   4.194   1.473  15.589  0.1755 -0.1322 -0.1393
   96MPD2     N 1473   4.118   1.718  15.960 -0.2972  0.6170 -0.0531
   96MPD2    H5 1474   4.024   1.679  15.962 -0.4788  0.9719 -1.9529
   96MPD2    N1 1475   4.476   1.818  15.637 -0.0691 -0.7640  0.3173
   96MPD2    H7 1476   4.497   1.781  15.545 -0.2374 -2.2863  0.8740
   97MPD2     C 1477   1.241   3.878   0.448  0.3646  0.5959 -0.0644
   97MPD2    C1 1478   1.324   3.980   0.503 -0.4501 -0.7960  0.2589
   97MPD2    C2 1479   1.388   4.063   0.406 -0.5361  0.7346  0.7490
   97MPD2    C3 1480   1.365   4.046   0.269  0.3096 -0.3661 -0.1348
   97MPD2    C4 1481   1.288   3.941   0.227  0.3607 -0.2637  0.5807
   97MPD2    C5 1482   1.227   3.856   0.314 -0.0386  0.0667 -0.0908
   97MPD2     H 1483   1.454   4.144   0.436 -1.2058  1.6989 -0.3769
   97MPD2    H1 1484   1.258   3.929   0.123  2.7339 -3.4386  0.2680
   97MPD2    H2 1485   1.188   3.809   0.513 -1.7846  2.8861  0.6221
   97MPD2    H3 1486   1.154   3.784   0.279  0.2825 -1.0101  1.4410
   97MPD2     N 1487   1.413   4.135   0.176 -0.2219 -0.1538 -0.8477
   97MPD2    H5 1488   1.396   4.105   0.080  0.8787 -0.4400 -0.9574
   97MPD2    N1 1489   1.334   3.986   0.645 -0.1179 -0.0485 -0.2633
   97MPD2    H7 1490   1.279   3.914   0.690  1.5608 -1.5792 -0.6796
   98TCq2    C1 1491   1.478   4.253   0.200  0.3878 -0.7099 -0.0947
   98TCq2    O2 1492   1.479   4.322   0.298 -0.1975 -0.0627 -0.4253
   98TCq2    C2 1493   1.522   4.316   0.076  0.2571  0.0062  0.0807
   98TCq2    C3 1494   1.553   4.240  17.676 -0.1905 -0.5389 -0.1995
   98TCq2    C4 1495   1.574   4.287  17.551  0.4655 -0.3460 -0.7719
   98TCq2    C5 1496   1.599   4.419  17.541 -0.0816 -1.2331 -0.1459
   98TCq2    C6 1497   1.585   4.500  17.653  0.8760  0.0996 -0.0418
   98TCq2    C7 1498   1.539   4.452   0.066  1.3564 -0.1608 -0.0030
   98TCq2    C8 1499   1.621   4.638  17.643 -0.3678  0.0840 -0.7318
   98TCq2    O4 1500   1.574   4.716   0.024 -0.9779  0.3990 -0.4400
   98TCq2    C9 1501   1.580   4.199  17.436 -0.2259 -0.5516 -0.0162
   98TCq2    O5 1502   1.552   4.075  17.443  0.0075 -0.1333  0.4283
   98TCq2    O6 1503   1.597   4.257  17.326 -0.3543  0.2768 -0.3318
   98TCq2    H2 1504   1.543   4.132  17.663 -2.6097 -0.2580 -0.5904
   98TCq2    H3 1505   1.647   4.449  17.449 -1.6357  1.7756  0.0155
   98TCq2    H4 1506   1.521   4.511   0.155  0.4049 -1.2062  0.5062
   99MPD2     C 1507   0.418   0.950   2.243 -0.4150  0.0678  0.8927
   99MPD2    C1 1508   0.324   1.043   2.210 -0.1257 -0.2353 -0.1363
   99MPD2    C2 1509   0.281   1.074   2.083  0.4536 -0.0279 -0.2352
   99MPD2    C3 1510   0.338   1.004   1.979  0.3232 -0.1470  1.1962
   99MPD2    C4 1511   0.443   0.917   2.006  0.1240 -0.1102 -0.2615
   99MPD2    C5 1512   0.480   0.890   2.138 -0.3228 -0.1029  0.5257
   99MPD2     H 1513   0.204   1.148   2.064 -0.3495 -0.8925 -0.3067
   99MPD2    H1 1514   0.499   0.863   1.930  0.7327 -0.3690  0.3767
   99MPD2    H2 1515   0.442   0.926   2.346  1.4861  1.6620  0.8286
   99MPD2    H3 1516   0.564   0.822   2.149  1.9151  2.5110 -0.4094
   99MPD2     N 1517   0.300   1.028   1.845  0.6695  0.0668 -0.3256
   99MPD2    H5 1518   0.226   1.097   1.833 -0.1058 -1.1850 -2.7959
   99MPD2    N1 1519   0.259   1.122   2.309  0.4512 -0.2524  0.5727
   99MPD2    H7 1520   0.186   1.177   2.264  0.3877 -0.9081 -0.1298
  100TCq2    C1 1521   0.301   1.138   2.441  0.5295 -0.5765 -0.1914
  100TCq2    O2 1522   0.410   1.115   2.492 -0.2329 -0.3352  0.0109
  100TCq2    C2 1523   0.210   1.223   2.511  0.0344  0.9952  0.1664
  100TCq2    C3 1524   0.266   1.303   2.599  0.3558 -0.4919  0.5287
  100TCq2    C4 1525   0.181   1.390   2.663 -0.0076  0.1030  0.0314
  100TCq2    C5 1526   0.046   1.380   2.650 -0.1644 -0.1355  0.0047
  100TCq2    C6 1527   0.000   1.305   2.544  0.8236 -0.2338 -0.0569
  100TCq2    C7 1528   0.081   1.219   2.476  0.0336 -0.1047 -0.0340
  100TCq2    C8 1529   4.584   1.298   2.520  0.3207 -0.0195  0.1473
  100TCq2    O4 1530   4.516   1.365   2.595  0.1460 -0.7502 -0.0580
  100TCq2    C9 1531   0.228   1.486   2.759 -0.3096 -0.3707 -0.3405
  100TCq2    O5 1532   0.340   1.461   2.805 -0.6814  0.1134 -0.2681
  100TCq2    O6 1533   0.137   1.552   2.820  0.5140  0.3089  0.2339
  100TCq2    H2 1534   0.373   1.318   2.602  0.4123 -0.6749 -0.6970
  100TCq2    H3 1535   4.705   1.447   2.701  0.4616  0.6240 -0.1675
  100TCq2    H4 1536   0.054   1.140   2.407  1.4118 -0.1525 -0.5051
  101MPD2     C 1537   1.302   2.788  13.069 -0.5474  0.5858  0.0485
  101MPD2    C1 1538   1.204   2.857  13.140  0.0793  0.2297 -0.1748
  101MPD2    C2 1539   1.146   2.800  13.254 -0.1125 -0.3294  1.0332
  101MPD2    C3 1540   1.170   2.659  13.273 -0.1447 -0.3821 -0.2196
  101MPD2    C4 1541   1.268   2.600  13.197 -0.5075  0.4284 -0.4975
  101MPD2    C5 1542   1.342   2.664  13.100 -0.4383  0.1466 -0.5412
  101MPD2     H 1543   1.078   2.851  13.320  0.7421 -1.4098  2.7527
  101MPD2    H1 1544   1.294   2.498  13.220 -0.5194  0.3307 -0.9119
  101MPD2    H2 1545   1.356   2.830  12.985  1.4436 -0.6262  0.7176
  101MPD2    H3 1546   1.423   2.607  13.056 -0.4789  1.4585 -2.3198
  101MPD2     N 1547   1.097   2.587  13.374  0.4378  0.8820  0.2637
  101MPD2    H5 1548   1.035   2.634  13.439 -0.2752  0.1323  0.1236
  101MPD2    N1 1549   1.173   2.987  13.092 -0.3783  0.1598 -0.5670
  101MPD2    H7 1550   1.227   3.019  13.012  0.7203  1.7154  0.8183
  102TCq2    C1 1551   1.186   3.392  12.794  0.1104  0.1052 -0.7725
  102TCq2    O2 1552   1.297   3.341  12.779  0.0677 -0.0462 -0.9319
  102TCq2    C2 1553   1.128   3.374  12.925  0.2037 -0.2759  0.5244
  102TCq2    C3 1554   1.027   3.458  12.950 -0.3836 -0.0877  0.1758
  102TCq2    C4 1555   0.938   3.413  13.043  0.2721 -0.3310  0.6180
  102TCq2    C5 1556   0.950   3.284  13.102 -0.2023  0.0706 -0.5005
  102TCq2    C6 1557   1.061   3.201  13.074 -0.2938  0.0644  0.5095
  102TCq2    C7 1558   1.161   3.252  12.991 -0.2040 -0.7368 -0.2126
  102TCq2    C8 1559   1.078   3.076  13.148  0.7708 -0.0627  0.0402
  102TCq2    O4 1560   1.002   3.062  13.241  0.1669  0.1876 -0.3009
  102TCq2    C9 1561   0.811   3.491  13.057 -0.0423  0.2837  0.3601
  102TCq2    O5 1562   0.804   3.604  13.005 -0.7458 -0.5981  0.1363
  102TCq2    O6 1563   0.731   3.454  13.142 -0.2753 -0.3553 -0.1565
  102TCq2    H2 1564   1.007   3.554  12.903  2.7774 -0.7741 -2.5871
  102TCq2    H3 1565   0.869   3.253  13.166  0.5274  0.2724  0.5149
  102TCq2    H4 1566   1.243   3.194  12.950 -0.1695 -2.1373  1.8290
  103TMC2    C1 1567   4.343   2.790  12.523 -0.5683  0.5951 -0.1278
  103TMC2    C2 1568   4.477   2.760  12.532 -0.2756  0.5147 -0.1400
  103TMC2    C3 1569   4.546   2.798  12.640 -0.1253 -0.1781  0.4329
  103TMC2    C4 1570   4.282   2.868  12.622  0.4452  0.1386 -0.6000
  103TMC2    C5 1571   4.358   2.914  12.724 -0.6945 -0.8532 -0.5101
  103TMC2    C6 1572   4.490   2.880  12.734  0.7272 -0.0729 -0.1939
  103TMC2     C 1573   4.278   2.789  12.390 -0.4696  0.1914  0.2182
  103TMC2     O 1574   4.182   2.860  12.372 -0.3266  0.1678 -0.0881
  103TMC2     H 1575   4.534   2.714  12.451  0.5157  0.3677  0.4983
  103TMC2    H1 1576   4.176   2.889  12.613  0.2713 -0.5999 -0.2307
  103TMC2    H2 1577   4.540   2.916  12.823  0.5431  1.0420 -0.5419
  103TMC2    C7 1578   4.298   2.955  12.848  0.2300  0.7063  0.0844
  103TMC2    C8 1579   4.646   2.704  12.676  0.2743  0.2924 -0.0316
  103TMC2    O1 1580   4.330   2.888  12.946  0.0710 -0.1788  0.4400
  103TMC2    O2 1581   4.659   2.590  12.627  0.6685  0.3640  0.3402
  103TMC2    O5 1582   0.028   2.766  12.713  0.1303  0.1138 -0.0083
  103TMC2    H5 1583   0.013   2.857  12.747 -0.9300 -0.5928  1.4024
  104MPD2     C 1584   4.322   2.514  12.145 -0.2867 -0.6512 -0.4103
  104MPD2    C1 1585   4.264   2.628  12.199 -0.0158  0.1225 -0.1867
  104MPD2    C2 1586   4.149   2.678  12.141 -0.4303  0.4235 -0.0269
  104MPD2    C3 1587   4.092   2.611  12.036 -1.0289 -0.4701 -0.4009
  104MPD2    C4 1588   4.158   2.503  11.972  0.1914 -1.0107 -0.8202
  104MPD2    C5 1589   4.271   2.452  12.035  0.4465  0.1160 -0.7863
  104MPD2     H 1590   4.098   2.760  12.190 -2.7608 -1.2568  0.3200
  104MPD2    H1 1591   4.133   2.453  11.879 -1.1521 -3.5354  0.9041
  104MPD2    H2 1592   4.411   2.468  12.189  0.1702  0.7721  0.1690
  104MPD2    H3 1593   4.320   2.364  11.995  1.9001  1.4738 -1.9996
  104MPD2     N 1594   3.961   2.655  11.991 -0.1894 -0.2409  0.1549
  104MPD2    H5 1595   3.923   2.735  12.042 -0.3627  0.2379 -0.7249
  104MPD2    N1 1596   4.319   2.678  12.322  0.2252 -0.2620  0.2721
  104MPD2    H7 1597   4.396   2.623  12.360 -0.0143 -0.1918  0.8431
  105MPD2     C 1598   1.121   1.893  17.209  0.4944 -0.4714 -0.2154
  105MPD2    C1 1599   1.045   2.000  17.236  0.4549 -0.0523  0.2542
  105MPD2    C2 1600   1.001   2.013  17.371  0.6593  0.0027  0.1338
  105MPD2    C3 1601   1.034   1.929  17.468  0.1529 -0.6774 -0.1232
  105MPD2    C4 1602   1.094   1.809  17.430 -0.9496 -0.4508  0.2994
  105MPD2    C5 1603   1.136   1.790  17.304  0.4656 -0.1325 -0.0945
  105MPD2     H 1604   0.947   2.100  17.406  0.1335  0.0444 -0.7871
  105MPD2    H1 1605   1.107   1.728  17.500  0.3009 -1.9501 -1.6689
  105MPD2    H2 1606   1.151   1.868  17.107 -0.2200 -0.9593 -0.3045
  105MPD2    H3 1607   1.210   1.713  17.283  1.9835  0.3086  3.5875
  105MPD2     N 1608   0.980   1.951  17.596 -0.4112  0.4925 -0.4374
  105MPD2    H5 1609   0.927   2.038  17.605 -0.6968  0.2633  0.0917
  105MPD2    N1 1610   1.006   2.097  17.140  0.4209  0.1311  0.2622
  105MPD2    H7 1611   0.956   2.174  17.184 -2.1463 -1.5803  0.3685
  106TCq2    C1 1612   0.996   1.868  17.706  0.2819  0.0306 -0.0843
  106TCq2    O2 1613   1.046   1.759   0.005  0.2836 -0.1616 -0.5739
  106TCq2    C2 1614   0.946   1.927   0.128 -0.2588 -0.3181 -0.1200
  106TCq2    C3 1615   0.886   2.047   0.129 -0.4354 -0.9751 -1.0392
  106TCq2    C4 1616   0.883   2.130   0.240  0.7855 -0.6480  0.0970
  106TCq2    C5 1617   0.953   2.091   0.351  0.1030  0.0518 -0.2360
  106TCq2    C6 1618   0.987   1.959   0.356  0.0608  0.4499 -0.3736
  106TCq2    C7 1619   0.995   1.876   0.246  0.0342 -0.0208 -0.3675
  106TCq2    C8 1620   0.995   1.887   0.483  0.0430  0.3809 -0.6557
  106TCq2    O4 1621   1.014   1.765   0.472 -0.2400 -0.3318 -0.0146
  106TCq2    C9 1622   0.811   2.261   0.234 -0.7926  0.8089  0.4229
  106TCq2    O5 1623   0.795   2.318   0.344  0.0477  0.2762  0.9434
  106TCq2    O6 1624   0.769   2.305   0.123  0.3189 -0.0242  0.2589
  106TCq2    H2 1625   0.840   2.082   0.038  0.8961  1.5419 -0.7425
  106TCq2    H3 1626   0.951   2.159   0.435 -1.8397  1.0562 -1.0984
  106TCq2    H4 1627   1.032   1.775   0.242  1.6439  0.5916 -0.8434
  107TMC2    C1 1628   1.943   1.195  11.591 -0.1937  0.4932 -0.8243
  107TMC2    C2 1629   2.043   1.263  11.528 -0.1750  0.2389 -0.4626
  107TMC2    C3 1630   2.077   1.226  11.402  0.0098  0.5653 -0.6178
  107TMC2    C4 1631   1.863   1.101  11.524  0.4375 -0.2681  0.9760
  107TMC2    C5 1632   1.885   1.097  11.384 -0.0523 -0.9558  0.8299
  107TMC2    C6 1633   2.008   1.138  11.328 -0.4112 -0.3600  0.0669
  107TMC2     C 1634   1.870   1.282  11.685 -0.2959 -0.2819 -0.5410
  107TMC2     O 1635   1.840   1.237  11.794  0.7568  0.0741 -0.5614
  107TMC2     H 1636   2.103   1.341  11.575 -0.4456 -0.4520  1.0220
  107TMC2    H1 1637   1.772   1.059  11.566 -1.3921  2.9873  0.2067
  107TMC2    H2 1638   2.027   1.116  11.224  0.5713  0.0626  0.1683
  107TMC2    C7 1639   1.798   1.013  11.310 -0.7772 -0.0897 -0.1849
  107TMC2    C8 1640   2.183   1.310  11.339 -0.0424  0.2219  0.0448
  107TMC2    O1 1641   1.752   0.915  11.367 -0.1788 -0.2376 -0.1927
  107TMC2    O2 1642   2.191   1.432  11.355 -0.1100 -0.1742  0.3014
  107TMC2    O5 1643   2.263   1.231  11.260 -0.0150  0.1591  1.1431
  107TMC2    H5 1644   2.241   1.138  11.284  1.2871 -0.6998 -0.9644
  108MPD2     C 1645   1.759   1.617  11.597  0.1220 -0.3044  0.4334
  108MPD2    C1 1646   1.787   1.517  11.686 -0.0507  0.2417 -0.2607
  108MPD2    C2 1647   1.741   1.519  11.814 -0.0259  0.1098  0.3238
  108MPD2    C3 1648   1.674   1.636  11.861 -0.4625  0.5013 -0.3499
  108MPD2    C4 1649   1.649   1.738  11.770 -0.3502 -0.1354 -0.4039
  108MPD2    C5 1650   1.694   1.725  11.639  0.8914 -0.4854 -0.2352
  108MPD2     H 1651   1.756   1.435  11.880  0.0266 -0.7465 -0.7768
  108MPD2    H1 1652   1.598   1.830  11.799  0.2225 -0.0739  0.3893
  108MPD2    H2 1653   1.803   1.613  11.498 -1.5245  0.2729 -0.3343
  108MPD2    H3 1654   1.691   1.814  11.577 -0.6680  1.0100  1.9866
  108MPD2     N 1655   1.618   1.648  11.992  0.1546  0.3065  0.3023
  108MPD2    H5 1656   1.556   1.728  11.998 -0.4023 -0.0344 -0.9815
  108MPD2    N1 1657   1.847   1.404  11.624 -0.1659  0.0436 -0.0019
  108MPD2    H7 1658   1.867   1.409  11.524 -0.2848  0.6746  0.0050
  109MPD2     C 1659   1.588   2.544   1.608  0.2464 -1.0508 -1.2348
  109MPD2    C1 1660   1.524   2.665   1.587 -0.2611 -0.5060 -0.3392
  109MPD2    C2 1661   1.582   2.761   1.503  0.1787  0.0962  0.5032
  109MPD2    C3 1662   1.705   2.739   1.449  0.5214 -0.6506 -0.4762
  109MPD2    C4 1663   1.770   2.622   1.470  0.1819  0.0452 -0.3053
  109MPD2    C5 1664   1.711   2.527   1.550 -0.5174 -0.4317  0.0087
  109MPD2     H 1665   1.523   2.847   1.474  0.7435  0.2965 -0.0389
  109MPD2    H1 1666   1.867   2.602   1.427  0.6993  0.5400  0.6146
  109MPD2    H2 1667   1.544   2.467   1.671 -2.9957 -0.2709 -2.5673
  109MPD2    H3 1668   1.758   2.430   1.564  0.3001 -0.1253 -0.6408
  109MPD2     N 1669   1.747   2.835   1.353  0.2431  0.0297 -0.3812
  109MPD2    H5 1670   1.678   2.903   1.326 -0.5219 -1.0330 -1.0995
  109MPD2    N1 1671   1.401   2.685   1.647 -0.1896 -0.7898 -0.0069
  109MPD2    H7 1672   1.356   2.609   1.697  1.2823 -2.2316 -0.8949
  110TCq2    C1 1673   1.860   2.834   1.281  0.6615 -0.1960 -0.2766
  110TCq2    O2 1674   1.954   2.752   1.287  0.4160 -0.3662  0.1573
  110TCq2    C2 1675   1.846   2.939   1.177  0.0009 -0.2805  0.0950
  110TCq2    C3 1676   1.921   2.920   1.065  0.3399 -0.2012  0.1059
  110TCq2    C4 1677   1.905   3.016   0.974 -0.0823  0.7270  0.6139
  110TCq2    C5 1678   1.833   3.127   0.994  0.4194 -0.2227  0.0719
  110TCq2    C6 1679   1.755   3.143   1.108  0.1644 -0.5860  0.5648
  110TCq2    C7 1680   1.766   3.050   1.202  0.0806 -0.0643  0.3960
  110TCq2    C8 1681   1.679   3.262   1.129  0.5112  0.2369 -0.1434
  110TCq2    O4 1682   1.703   3.357   1.057 -0.1801  0.0164 -0.2625
  110TCq2    C9 1683   1.954   2.991   0.845  0.8893 -0.0649  0.1666
  110TCq2    O5 1684   1.928   3.071   0.752 -0.3064  0.1944  1.3789
  110TCq2    O6 1685   2.018   2.887   0.827  0.0120  0.1536 -0.1180
  110TCq2    H2 1686   1.969   2.827   1.037 -0.4245 -0.6062  0.1227
  110TCq2    H3 1687   1.820   3.193   0.909 -1.6215 -0.4338  0.2299
  110TCq2    H4 1688   1.730   3.071   1.301  0.9772 -1.1064  0.9524
  111TMC2    C1 1689   1.406   3.922  11.198 -0.3717  0.4296 -0.0977
  111TMC2    C2 1690   1.490   4.009  11.128 -0.1442  0.0071 -0.0291
  111TMC2    C3 1691   1.612   4.037  11.185 -0.0901  0.0588 -0.1101
  111TMC2    C4 1692   1.450   3.859  11.317 -0.2757  0.5250  0.0880
  111TMC2    C5 1693   1.578   3.888  11.360  0.5635 -0.6962  0.1866
  111TMC2    C6 1694   1.667   3.966  11.287  0.0004  0.1129  0.0612
  111TMC2     C 1695   1.273   3.898  11.139  0.0384 -0.2033  0.2889
  111TMC2     O 1696   1.268   3.940  11.027 -0.0818 -0.3735 -0.1745
  111TMC2     H 1697   1.461   4.066  11.041 -1.6789  3.5364  2.7869
  111TMC2    H1 1698   1.393   3.779  11.363  1.1351 -1.1535 -1.0805
  111TMC2    H2 1699   1.761   3.994  11.332  0.1988 -1.7216  0.7722
  111TMC2    C7 1700   1.631   3.804  11.465 -0.4547  0.0256 -0.4400
  111TMC2    C8 1701   1.709   4.108  11.108 -0.6401 -0.1292 -0.1739
  111TMC2    O1 1702   1.550   3.757  11.544 -0.4557  0.0463  0.0081
  111TMC2    O2 1703   1.666   4.182  11.018  0.2494 -0.1450 -0.6513
  111TMC2    O5 1704   1.829   4.039  11.107  0.1145  0.1505 -1.0236
  111TMC2    H5 1705   1.834   3.958  11.163  0.2658 -0.2218 -1.5771
  112MPD2     C 1706   0.802   3.720  11.125  0.4314  0.3129  0.3447
  112MPD2    C1 1707   0.894   3.739  11.024 -0.4852 -0.0703 -0.8008
  112MPD2    C2 1708   1.021   3.785  11.055 -0.1613  0.0109  0.0807
  112MPD2    C3 1709   1.054   3.796  11.189  0.2885 -0.2741  0.7792
  112MPD2    C4 1710   0.964   3.783  11.295  0.4759  0.0889 -0.0070
  112MPD2    C5 1711   0.838   3.745  11.256 -0.6764 -0.2661 -0.2135
  112MPD2     H 1712   1.088   3.790  10.970 -0.8821  1.7412 -0.3803
  112MPD2    H1 1713   0.986   3.798  11.400 -1.2989 -2.1033  0.6762
  112MPD2    H2 1714   0.701   3.684  11.114  0.2094  0.8460  0.6252
  112MPD2    H3 1715   0.764   3.730  11.334  0.8068  0.2884  1.2941
  112MPD2     N 1716   1.182   3.845  11.220  0.7007  0.4402  0.2624
  112MPD2    H5 1717   1.206   3.829  11.318 -2.0254 -1.1268  0.6739
  112MPD2    N1 1718   0.872   3.703  10.890 -0.0992 -0.0889 -0.0123
  112MPD2    H7 1719   0.950   3.716  10.826  1.6566  0.4922  2.2518
  113MPD2     C 1720   4.606   1.393   1.039  0.5323 -0.2708 -0.0503
  113MPD2    C1 1721   4.479   1.439   1.077  0.3646  0.0014 -0.3922
  113MPD2    C2 1722   4.397   1.491   0.986  0.0594 -0.3440  0.1193
  113MPD2    C3 1723   4.443   1.509   0.851 -0.4703  0.1405 -0.2831
  113MPD2    C4 1724   4.565   1.451   0.813  0.8114  0.6135 -0.2321
  113MPD2    C5 1725   4.642   1.392   0.905 -0.1324 -0.2316 -0.7220
  113MPD2     H 1726   4.301   1.526   1.022 -0.3042  0.1861 -1.3572
  113MPD2    H1 1727   4.598   1.445   0.709  3.4315 -1.6012  0.7376
  113MPD2    H2 1728   4.686   1.358   1.103  1.3821  2.0625  0.1277
  113MPD2    H3 1729   0.011   1.343   0.888 -0.2760 -1.5727  2.3278
  113MPD2     N 1730   4.371   1.578   0.755 -0.0046  0.3012 -0.4735
  113MPD2    H5 1731   4.422   1.610   0.673  0.3913 -0.8215 -0.6636
  113MPD2    N1 1732   4.435   1.451   1.210 -0.2682  0.2207  0.1867
  113MPD2    H7 1733   4.351   1.503   1.231  1.3634  4.3878 -3.6375
  114TCq2    C1 1734   4.243   1.618   0.759 -1.0287 -0.5413 -0.0894
  114TCq2    O2 1735   4.152   1.601   0.840  0.1015  0.0031 -0.2212
  114TCq2    C2 1736   4.212   1.678   0.626 -0.5738  0.3035 -0.0208
  114TCq2    C3 1737   4.316   1.741   0.556  0.5340  0.2141  0.4741
  114TCq2    C4 1738   4.293   1.758   0.417  0.1644 -0.7845  0.3589
  114TCq2    C5 1739   4.186   1.711   0.353  0.1237  1.0551  0.0066
  114TCq2    C6 1740   4.082   1.655   0.425 -0.7526  0.4222  0.1983
  114TCq2    C7 1741   4.096   1.636   0.561 -0.5979 -0.1965 -0.5315
  114TCq2    C8 1742   3.976   1.588   0.358  0.5902 -0.2005  0.3185
  114TCq2    O4 1743   3.963   1.602   0.237 -0.0844  0.0715  0.2766
  114TCq2    C9 1744   4.401   1.801   0.330 -0.2771 -0.0830  0.6903
  114TCq2    O5 1745   4.384   1.784   0.206 -0.1797 -0.0251 -0.3818
  114TCq2    O6 1746   4.511   1.834   0.389 -0.2274 -0.6380 -0.1174
  114TCq2    H2 1747   4.413   1.756   0.602  1.1740 -4.1181  0.5000
  114TCq2    H3 1748   4.174   1.719   0.246  0.2449 -0.4818 -0.1165
  114TCq2    H4 1749   4.019   1.592   0.622  0.9711 -0.7621  1.0323
  115TMC2    C1 1750   0.214   3.999   0.037 -0.0844  0.2295 -0.4206
  115TMC2    C2 1751   0.343   3.969   0.027  0.5384  0.3178  0.4261
  115TMC2    C3 1752   0.432   4.071   0.017 -0.5014 -0.0460  0.2144
  115TMC2    C4 1753   0.171   4.127   0.011  0.1237 -0.4418  0.7404
  115TMC2    C5 1754   0.267   4.227   0.016 -0.1374  0.0159  0.1718
  115TMC2    C6 1755   0.400   4.204   0.021 -0.2807  0.1750 -0.4998
  115TMC2     C 1756   0.125   3.890   0.009 -0.8491 -0.4024  0.2972
  115TMC2     O 1757   0.163   3.789  17.663  0.1491  0.3548 -0.7286
  115TMC2     H 1758   0.369   3.864   0.017 -1.0105  0.1234 -1.3922
  115TMC2    H1 1759   0.065   4.146  17.701 -0.1132 -0.2639  2.3216
  115TMC2    H2 1760   0.475   4.282   0.027  0.7635 -0.7394 -1.3648
  115TMC2    C7 1761   0.217   4.353  17.701  0.3758 -0.2153 -0.4794
  115TMC2    C8 1762   0.570   4.040   0.021 -0.5116 -0.2778 -0.7772
  115TMC2    O1 1763   0.103   4.380   0.025  0.2309 -0.1503  0.0754
  115TMC2    O2 1764   0.648   4.083   0.108 -0.1827 -0.0908  0.4478
  115TMC2    O5 1765   0.592   3.940  17.645 -0.5492  0.0088 -0.3083
  115TMC2    H5 1766   0.512   3.918  17.594  0.1331 -0.3593 -1.2228
  116MPD2     C 1767   4.374   3.726  17.649  0.1506  0.2524 -0.1531
  116MPD2    C1 1768   4.493   3.678  17.592 -0.0129 -0.3796 -0.5785
  116MPD2    C2 1769   4.613   3.734  17.633 -0.2577  0.9320  0.3666
  116MPD2    C3 1770   4.609   3.831   0.027 -0.4598 -0.5534 -0.5737
  116MPD2    C4 1771   4.493   3.879   0.083  0.2624  1.0685 -0.5964
  116MPD2    C5 1772   4.376   3.821   0.043  0.3743  0.3265 -0.6970
  116MPD2     H 1773   4.703   3.699  17.583 -1.3877 -3.2373  1.2322
  116MPD2    H1 1774   4.490   3.964   0.149 -0.2441 -0.1325  0.9073
  116MPD2    H2 1775   4.283   3.692  17.603  0.2890 -1.8584  1.1722
  116MPD2    H3 1776   4.278   3.859   0.069  0.2408 -1.1700  1.0098
  116MPD2     N 1777   4.723   3.917   0.052  0.2123 -0.1569  1.1667
  116MPD2    H5 1778   4.708   4.001   0.107 -0.6405  0.6637 -0.3024
  116MPD2    N1 1779   4.479   3.585  17.487 -0.4177 -0.0890 -0.0210
  116MPD2    H7 1780   4.388   3.572  17.443  0.3180 -2.6403 -0.7618
  117TMC2    C1 1781   3.598   0.709  14.129  0.4129  0.2828 -0.8722
  117TMC2    C2 1782   3.672   0.681  14.240 -0.3472 -0.0561  0.5070
  117TMC2    C3 1783   3.796   0.741  14.245 -0.2995 -0.8382  0.0359
  117TMC2    C4 1784   3.634   0.793  14.023  0.5880  0.2858 -0.6845
  117TMC2    C5 1785   3.749   0.863  14.044 -0.3284 -0.4754 -0.8716
  117TMC2    C6 1786   3.836   0.832  14.148 -0.1695  0.6061 -0.3775
  117TMC2     C 1787   3.464   0.662  14.132 -0.1102 -0.3015 -0.3375
  117TMC2     O 1788   3.467   0.558  14.196 -0.3742 -0.1623  0.1690
  117TMC2     H 1789   3.644   0.611  14.319 -0.3314  1.0340  1.4840
  117TMC2    H1 1790   3.571   0.799  13.935 -1.4861 -3.8655  0.5496
  117TMC2    H2 1791   3.930   0.881  14.169  1.1110 -2.5558  1.3195
  117TMC2    C7 1792   3.782   0.970  13.958 -0.3072 -0.1361 -0.0253
  117TMC2    C8 1793   3.866   0.745  14.375  0.7300 -0.7146  0.0746
  117TMC2    O1 1794   3.881   1.031  13.979  0.2387  0.8800  0.4847
  117TMC2    O2 1795   3.976   0.691  14.387 -0.6281 -0.3162  0.1363
  117TMC2    O5 1796   3.853   0.872  14.417  0.6107  0.3961 -0.6162
  117TMC2    H5 1797   3.759   0.900  14.417  0.2191 -0.8971 -1.9140
  118MPD2     C 1798   3.590   1.076  13.665 -0.1089 -0.4953  0.6146
  118MPD2    C1 1799   3.688   1.094  13.753  0.2864 -0.3961  0.4652
  118MPD2    C2 1800   3.780   1.194  13.736 -0.5990 -0.6148 -0.6412
  118MPD2    C3 1801   3.766   1.287  13.633  0.3148  0.3116 -0.2457
  118MPD2    C4 1802   3.656   1.275  13.544  0.2944 -0.0502 -0.0055
  118MPD2    C5 1803   3.572   1.167  13.566 -0.5744  0.0964  0.2734
  118MPD2     H 1804   3.855   1.213  13.812 -1.6530 -0.5938  0.3977
  118MPD2    H1 1805   3.641   1.348  13.465  1.5043  0.1817 -0.0244
  118MPD2    H2 1806   3.517   0.997  13.681  1.2313 -1.7854  0.3467
  118MPD2    H3 1807   3.480   1.159  13.510 -0.3416  0.3892 -0.1452
  118MPD2     N 1808   3.854   1.398  13.607  0.0050  0.2622 -0.3637
  118MPD2    H5 1809   3.822   1.463  13.536 -0.2765  0.7939  0.2515
  118MPD2    N1 1810   3.688   0.990  13.851  0.0950  0.1058  0.5646
  118MPD2    H7 1811   3.614   0.921  13.844  0.8525 -0.8087  1.7212
  119MPD2     C 1812   2.387   2.609  14.283  0.1010  0.5090 -0.3232
  119MPD2    C1 1813   2.251   2.612  14.260  0.1959  0.7279  0.0858
  119MPD2    C2 1814   2.204   2.606  14.131 -0.0538  0.3630  0.4438
  119MPD2    C3 1815   2.286   2.566  14.021 -0.0201  0.2073  0.6519
  119MPD2    C4 1816   2.422   2.547  14.049  0.2314  0.1650 -0.2732
  119MPD2    C5 1817   2.468   2.574  14.173  0.0691 -0.3047 -0.5071
  119MPD2     H 1818   2.104   2.646  14.113  0.6055  0.8037 -2.1637
  119MPD2    H1 1819   2.498   2.519  13.977 -0.0548  1.1375 -0.9552
  119MPD2    H2 1820   2.432   2.613  14.382  2.2730 -4.0455 -1.1305
  119MPD2    H3 1821   2.572   2.552  14.190 -0.0151 -0.0753  0.2942
  119MPD2     N 1822   2.239   2.550  13.888  0.0301  0.2712  0.2588
  119MPD2    H5 1823   2.314   2.515  13.829  1.1144  3.3086 -0.1543
  119MPD2    N1 1824   2.175   2.652  14.377 -0.6504  0.3527  0.4717
  119MPD2    H7 1825   2.227   2.682  14.458  0.0635 -1.1061  0.5674
  120TCq2    C1 1826   2.106   2.572  13.850  0.1528 -0.1227  0.2978
  120TCq2    O2 1827   2.010   2.610  13.918  0.0848 -0.0546 -0.3085
  120TCq2    C2 1828   2.081   2.549  13.714 -0.3232  0.3151 -0.3209
  120TCq2    C3 1829   2.187   2.561  13.621  0.0082  0.0505 -0.5579
  120TCq2    C4 1830   2.150   2.540  13.490 -0.1125  0.0468  0.9789
  120TCq2    C5 1831   2.020   2.538  13.447  0.0665  0.1340 -0.0976
  120TCq2    C6 1832   1.920   2.551  13.541  0.4334  0.2662  0.8982
  120TCq2    C7 1833   1.946   2.547  13.681  0.0052  0.2586 -0.1577
  120TCq2    C8 1834   1.784   2.518  13.504  0.1237 -0.0838  0.4599
  120TCq2    O4 1835   1.758   2.551  13.390 -0.3306  0.0296 -0.3052
  120TCq2    C9 1836   2.249   2.538  13.391  0.1166  0.1629  0.2507
  120TCq2    O5 1837   2.371   2.553  13.429 -0.1948  0.1071  0.0409
  120TCq2    O6 1838   2.225   2.503  13.273  0.7663 -0.0759  0.4293
  120TCq2    H2 1839   2.290   2.573  13.651 -0.3244  0.3826  0.4422
  120TCq2    H3 1840   2.007   2.528  13.340 -0.6395 -0.3549  0.0257
  120TCq2    H4 1841   1.863   2.568  13.747 -1.8358  0.9520 -2.7204
  121TMC2    C1 1842   3.571   3.919  14.047 -0.5518  0.5522 -0.9126
  121TMC2    C2 1843   3.506   3.840  14.145 -0.3830  0.7304  0.0138
  121TMC2    C3 1844   3.367   3.839  14.156 -0.2555  0.1770  0.3383
  121TMC2    C4 1845   3.495   4.001  13.960 -0.2314 -0.3220 -0.0818
  121TMC2    C5 1846   3.363   3.997  13.977 -0.6019  0.1268  0.1832
  121TMC2    C6 1847   3.297   3.915  14.071 -0.2023  0.4861  0.2105
  121TMC2     C 1848   3.709   3.889  14.023 -0.1486 -0.1142  0.0176
  121TMC2     O 1849   3.769   3.820  14.107 -0.0435  0.5508 -0.2631
  121TMC2     H 1850   3.562   3.786  14.220 -0.2349 -0.4878 -0.9787
  121TMC2    H1 1851   3.528   4.062  13.876  0.0969  1.1847  1.1379
  121TMC2    H2 1852   3.188   3.910  14.071 -0.1997  0.1662 -3.2393
  121TMC2    C7 1853   3.286   4.067  13.880  0.5352  0.7852 -0.1232
  121TMC2    C8 1854   3.289   3.740  14.230 -0.0338 -0.5351  0.7132
  121TMC2    O1 1855   3.341   4.160  13.824 -0.3909 -0.4730 -0.4168
  121TMC2    O2 1856   3.168   3.723  14.214  0.4973 -0.0021 -0.0005
  121TMC2    O5 1857   3.371   3.663  14.308 -0.0435 -0.2510  0.0021
  121TMC2    H5 1858   3.451   3.706  14.344 -0.3800  0.1580  0.2674
  122MPD2     C 1859   3.996   3.877  13.915 -0.5190 -0.1113  0.3284
  122MPD2    C1 1860   3.893   3.954  13.860  0.2322  0.6334 -0.0556
  122MPD2    C2 1861   3.911   4.020  13.741  0.0068  0.4633 -0.5617
  122MPD2    C3 1862   4.026   4.007  13.668  0.0588  0.1066 -0.1533
  122MPD2    C4 1863   4.120   3.914  13.709  0.5360  0.0560  0.4446
  122MPD2    C5 1864   4.108   3.861  13.839  0.2545  0.0648 -0.6086
  122MPD2     H 1865   3.832   4.083  13.701 -1.8167 -0.4009  1.6691
  122MPD2    H1 1866   4.214   3.896  13.657  0.3205  0.7389 -0.1773
  122MPD2    H2 1867   3.986   3.820  14.007  0.4982  1.5441  1.4715
  122MPD2    H3 1868   4.181   3.788  13.873  0.4382  1.4693  2.0127
  122MPD2     N 1869   4.044   4.084  13.549 -0.0532  0.4120 -0.0397
  122MPD2    H5 1870   4.127   4.061  13.495 -1.1423 -0.3129 -1.4197
  122MPD2    N1 1871   3.760   3.963  13.920 -0.4516 -0.3708  0.1315
  122MPD2    H7 1872   3.694   4.015  13.863  0.3459  0.4783 -0.0277
  123MPD2     C 1873   0.954   1.663   9.119  0.5396 -0.2828  0.1058
  123MPD2    C1 1874   1.073   1.620   9.167 -0.2763 -0.2846 -0.3972
  123MPD2    C2 1875   1.180   1.699   9.138  0.4692 -0.4425 -0.6988
  123MPD2    C3 1876   1.165   1.824   9.061 -0.9008 -0.1530 -0.3977
  123MPD2    C4 1877   1.044   1.857   9.014  0.4859  0.8742  0.4902
  123MPD2    C5 1878   0.938   1.773   9.038  0.0830  0.4762 -0.3221
  123MPD2     H 1879   1.277   1.683   9.184  1.6592  2.0679 -2.3239
  123MPD2    H1 1880   1.025   1.941   8.948 -1.1489  0.7181  0.7554
  123MPD2    H2 1881   0.861   1.615   9.147  0.7546 -0.7915 -0.0482
  123MPD2    H3 1882   0.841   1.801   9.001  0.0001  0.5032 -0.0830
  123MPD2     N 1883   1.280   1.905   9.042  0.0647 -0.9623  0.2717
  123MPD2    H5 1884   1.369   1.870   9.076  0.3058  0.3445  0.9566
  123MPD2    N1 1885   1.074   1.505   9.251 -0.1718 -0.2788 -0.3622
  123MPD2    H7 1886   0.984   1.461   9.268 -0.4582  0.0020 -1.1721
  124TCq2    C1 1887   1.291   2.002   8.946 -0.0924 -0.2243 -0.0723
  124TCq2    O2 1888   1.213   2.036   8.858 -0.3401 -0.7627  0.6632
  124TCq2    C2 1889   1.416   2.077   8.957  0.2855  0.0764 -0.3782
  124TCq2    C3 1890   1.444   2.157   8.850 -0.3817  0.5314 -0.0697
  124TCq2    C4 1891   1.555   2.232   8.855  0.0492  0.1098 -0.6413
  124TCq2    C5 1892   1.644   2.225   8.964  0.3027 -0.0660 -0.5496
  124TCq2    C6 1893   1.614   2.137   9.068  0.1094 -0.2264  0.3560
  124TCq2    C7 1894   1.494   2.067   9.070  0.0587 -0.1374 -0.1820
  124TCq2    C8 1895   1.718   2.076   9.151  0.1851  0.8883 -0.0388
  124TCq2    O4 1896   1.694   1.962   9.192  0.1069  0.2885 -0.6960
  124TCq2    C9 1897   1.587   2.321   8.744 -0.1728  0.0035  0.6099
  124TCq2    O5 1898   1.494   2.344   8.661 -0.1320  0.5154 -0.3406
  124TCq2    O6 1899   1.684   2.399   8.764  0.3632  0.2911  0.6176
  124TCq2    H2 1900   1.394   2.134   8.756 -0.0614  1.9934 -0.6001
  124TCq2    H3 1901   1.722   2.301   8.957 -0.8175  1.2181  0.7602
  124TCq2    H4 1902   1.466   2.007   9.156 -1.0111 -1.4709 -1.4555
  125TMC2    C1 1903   2.883   3.672   9.431  0.1565  0.8568  0.5458
  125TMC2    C2 1904   2.904   3.807   9.430  0.0258  0.7897  0.1151
  125TMC2    C3 1905   2.980   3.860   9.328 -0.3723  0.2441 -0.2287
  125TMC2    C4 1906   2.947   3.595   9.342  0.0946 -0.3512  0.6375
  125TMC2    C5 1907   3.030   3.660   9.250 -0.3722 -0.0098  0.0079
  125TMC2    C6 1908   3.046   3.794   9.237  0.3680 -0.2715 -0.5735
  125TMC2     C 1909   2.834   3.618   9.556  0.0031  0.3190 -0.6109
  125TMC2     O 1910   2.772   3.698   9.624 -0.4526 -0.5145  0.0037
  125TMC2     H 1911   2.864   3.876   9.502 -1.3469 -0.1570  0.2641
  125TMC2    H1 1912   2.928   3.489   9.338 -1.5690 -0.0614  0.9504
  125TMC2    H2 1913   3.096   3.839   9.152  0.9037  2.1410  1.0212
  125TMC2    C7 1914   3.105   3.580   9.159  0.3662 -0.0760  0.4466
  125TMC2    C8 1915   2.969   4.004   9.323 -0.4025  0.7441  0.2217
  125TMC2    O1 1916   3.113   3.607   9.043  0.1125  0.0477 -0.1425
  125TMC2    O2 1917   3.002   4.073   9.416  0.0515 -0.5268 -0.5426
  125TMC2    O5 1918   2.890   4.045   9.225  0.0905  1.0109 -0.0860
  125TMC2    H5 1919   2.832   3.974   9.190  1.2009 -0.3045  0.7798
  126MPD1     C 1920   2.705   3.272   9.898  0.1951 -0.1042  0.1328
  126MPD1    C1 1921   2.792   3.209   9.813  0.2975  0.8387  0.0339
  126MPD1    C2 1922   2.847   3.288   9.714  0.3779 -0.6837  0.2906
  126MPD1    C3 1923   2.805   3.414   9.690 -0.4960  0.1971  0.0695
  126MPD1    C4 1924   2.701   3.467   9.769  0.2248  0.2428 -0.2023
  126MPD1    C5 1925   2.647   3.389   9.866 -0.0096 -0.3669  0.4884
  126MPD1     H 1926   2.925   3.243   9.653  0.5681  0.5834 -0.3867
  126MPD1    H1 1927   2.645   3.559   9.754  0.3120 -0.1430 -2.8022
  126MPD1    H2 1928   2.663   3.221   9.984  1.2644 -0.8126  0.2226
  126MPD1    H3 1929   2.572   3.436   9.929  1.1084 -1.8131  2.9245
  126MPD1     N 1930   2.866   3.486   9.582  0.4858 -0.2741  0.0052
  126MPD1    H5 1931   2.928   3.435   9.520 -1.5537 -0.8213 -1.5851
  126MPD1    N1 1932   2.840   3.084   9.848  0.2227  0.1147  0.3672
  126MPD1    H6 1933   2.789   3.037   9.922  1.0020 -0.0043  0.8256
  126MPD1    H7 1934   2.854   3.019   9.770 -1.0356  0.3292 -0.0366
  127MPD2     C 1935   4.525   2.403   9.474  0.1786  0.5332 -0.3227
  127MPD2    C1 1936   4.413   2.460   9.525 -0.1520 -0.1687  0.4769
  127MPD2    C2 1937   4.394   2.510   9.650 -0.3030 -0.3784 -0.0129
  127MPD2    C3 1938   4.487   2.476   9.743  0.4344  0.0371 -0.0074
  127MPD2    C4 1939   4.604   2.413   9.703 -0.7836 -0.1826  0.0203
  127MPD2    C5 1940   4.623   2.385   9.570 -0.2232  0.3434 -0.5434
  127MPD2     H 1941   4.306   2.564   9.684  0.0303  0.2874 -0.2150
  127MPD2    H1 1942   4.684   2.384   9.771  0.2789 -0.4031 -1.3338
  127MPD2    H2 1943   4.531   2.366   9.373  0.8787 -0.3327  0.0284
  127MPD2    H3 1944   4.710   2.323   9.547  2.0160  2.2850  2.6512
  127MPD2     N 1945   4.441   2.502   9.872 -0.4427  0.0380  0.3167
  127MPD2    H5 1946   4.350   2.546   9.879  1.4192  3.8609  0.4985
  127MPD2    N1 1947   4.316   2.457   9.422  0.2896 -0.2355  0.1549
  127MPD2    H7 1948   4.341   2.419   9.332  1.4940 -3.5091  1.8815
  128TCq2    C1 1949   4.186   2.491   9.440  0.8470 -0.4493  0.3492
  128TCq2    O2 1950   4.124   2.507   9.543  0.5217 -0.3991 -0.1369
  128TCq2    C2 1951   4.117   2.506   9.312  0.0729  0.0152  0.1413
  128TCq2    C3 1952   4.191   2.535   9.203 -0.4059  0.4989  0.2211
  128TCq2    C4 1953   4.119   2.537   9.088  0.4583  0.1432  0.1887
  128TCq2    C5 1954   3.979   2.522   9.094  0.2910 -0.6160 -0.3021
  128TCq2    C6 1955   3.906   2.502   9.209  0.1384 -0.0608 -0.3176
  128TCq2    C7 1956   3.980   2.497   9.321 -0.2299 -0.0730 -1.0010
  128TCq2    C8 1957   3.767   2.528   9.201  0.4009  0.4972  0.1934
  128TCq2    O4 1958   3.715   2.581   9.103 -0.1902 -0.2261 -0.2517
  128TCq2    C9 1959   4.183   2.535   8.957 -1.1683  0.1724 -0.3310
  128TCq2    O5 1960   4.309   2.510   8.964  0.1570 -0.4362 -0.3694
  128TCq2    O6 1961   4.118   2.526   8.848  0.4735  0.1004 -0.2859
  128TCq2    H2 1962   4.296   2.560   9.190 -0.0593 -0.3484  1.3637
  128TCq2    H3 1963   3.930   2.527   8.997  0.4749 -1.0318 -0.4169
  128TCq2    H4 1964   3.930   2.474   9.414 -0.5631 -1.5966 -1.5600
  129MPD2     C 1965   1.491   3.409   0.707 -0.1114 -0.3064  0.3790
  129MPD2    C1 1966   1.604   3.336   0.677 -0.8970  0.4780 -0.2930
  129MPD2    C2 1967   1.716   3.403   0.623 -0.1567 -0.3984  0.4351
  129MPD2    C3 1968   1.717   3.545   0.613 -0.8181  0.8545 -0.1355
  129MPD2    C4 1969   1.599   3.613   0.653 -0.5471  0.8780 -1.0600
  129MPD2    C5 1970   1.487   3.544   0.699 -0.3311  0.1493  0.0064
  129MPD2     H 1971   1.804   3.348   0.591 -0.1174 -0.3678  0.4905
  129MPD2    H1 1972   1.602   3.720   0.670  0.2764  0.7202 -0.1405
  129MPD2    H2 1973   1.401   3.373   0.755 -0.9615 -0.5330 -1.3688
  129MPD2    H3 1974   1.411   3.613   0.734  0.7916  1.0647  0.6356
  129MPD2     N 1975   1.837   3.618   0.578  0.2963  0.0500 -0.9283
  129MPD2    H5 1976   1.919   3.566   0.550 -0.9236 -2.1831 -0.3327
  129MPD2    N1 1977   1.613   3.202   0.704  0.2333  0.2009 -0.2101
  129MPD2    H7 1978   1.697   3.158   0.669  0.1937 -0.3761  0.4202
  130TCq2    C1 1979   1.525   3.135   0.790 -0.4729  0.7986 -0.3148
  130TCq2    O2 1980   1.431   3.177   0.853  0.2602 -0.4195 -0.2062
  130TCq2    C2 1981   1.556   2.994   0.804 -0.2023 -0.4213 -0.0396
  130TCq2    C3 1982   1.619   2.921   0.708  0.5161  0.0433  0.2511
  130TCq2    C4 1983   1.635   2.788   0.729  0.3773  0.9401 -0.3743
  130TCq2    C5 1984   1.588   2.718   0.839  0.5314 -0.0952 -0.3436
  130TCq2    C6 1985   1.523   2.795   0.935  0.8843  0.0462 -0.3778
  130TCq2    C7 1986   1.510   2.929   0.917 -0.2201 -0.0428  0.3752
  130TCq2    C8 1987   1.455   2.734   1.050 -0.3944 -0.4726 -0.0116
  130TCq2    O4 1988   1.347   2.785   1.082  0.1223 -1.0354 -0.3779
  130TCq2    C9 1989   1.717   2.723   0.626 -1.1742 -0.6925 -0.6087
  130TCq2    O5 1990   1.770   2.617   0.672 -0.1939 -0.2191  0.3441
  130TCq2    O6 1991   1.780   2.808   0.555  0.9162 -0.4230  0.2421
  130TCq2    H2 1992   1.650   2.972   0.617 -2.3814  0.2202 -0.6668
  130TCq2    H3 1993   1.591   2.610   0.852 -0.4133  0.2976  2.8884
  130TCq2    H4 1994   1.463   2.990   0.993 -0.8088  0.4516 -0.3871
  131MPD2     C 1995   1.617   1.699   9.990 -0.0762 -1.0467  0.1887
  131MPD2    C1 1996   1.601   1.742   9.859  0.6624  0.3209 -0.3528
  131MPD2    C2 1997   1.517   1.668   9.787 -1.0652  0.2663  0.6216
  131MPD2    C3 1998   1.458   1.551   9.835 -0.8805 -0.8420 -0.3994
  131MPD2    C4 1999   1.473   1.513   9.970  0.3166  0.0040 -0.3028
  131MPD2    C5 2000   1.551   1.593  10.043 -0.1689  0.1565  0.0982
  131MPD2     H 2001   1.493   1.692   9.684 -0.6644 -1.7395  0.0496
  131MPD2    H1 2002   1.446   1.417  10.013  1.8712 -1.0321 -1.6469
  131MPD2    H2 2003   1.673   1.759  10.062  0.8083 -0.4054 -1.0384
  131MPD2    H3 2004   1.568   1.567  10.147 -0.5738 -0.4468  0.0094
  131MPD2     N 2005   1.382   1.476   9.739  0.2378  0.3666  0.1023
  131MPD2    H5 2006   1.387   1.501   9.641  0.1081  1.0057  0.2589
  131MPD2    N1 2007   1.667   1.858   9.819 -0.7691 -0.2485  0.2976
  131MPD2    H7 2008   1.732   1.903   9.883  0.6867 -2.0446  0.0797
  132TCq2    C1 2009   2.013   2.229   9.747 -0.4182 -0.2185 -0.4275
  132TCq2    O2 2010   2.060   2.155   9.833 -0.0932 -0.1556 -0.2215
  132TCq2    C2 2011   1.888   2.199   9.686  0.2780  0.0973 -0.1942
  132TCq2    C3 2012   1.824   2.272   9.593 -0.3953 -0.1226 -0.1150
  132TCq2    C4 2013   1.695   2.245   9.559 -0.6993  0.0328  0.2907
  132TCq2    C5 2014   1.627   2.138   9.602  0.0953  0.0103  0.2004
  132TCq2    C6 2015   1.696   2.058   9.691 -0.5450 -0.1321 -0.1704
  132TCq2    C7 2016   1.829   2.083   9.731  0.0976 -0.1603 -0.4436
  132TCq2    C8 2017   1.642   1.923   9.698 -0.5468  0.1960  0.0316
  132TCq2    O4 2018   1.574   1.888   9.604  0.0154 -0.2055  0.0901
  132TCq2    C9 2019   1.627   2.336   9.466  0.4383 -0.7777  0.4236
  132TCq2    O5 2020   1.500   2.312   9.451 -0.0114 -0.4644 -0.3188
  132TCq2    O6 2021   1.689   2.421   9.396 -0.3673  0.1186 -0.4881
  132TCq2    H2 2022   1.867   2.359   9.545  0.6806 -0.3034  0.5194
  132TCq2    H3 2023   1.525   2.130   9.564 -0.2816 -0.5339  1.3288
  132TCq2    H4 2024   1.900   2.015   9.777  1.4765  1.1325 -0.6457
  133MPD2     C 2025   0.095   2.015   9.177 -0.2625  0.5225  0.2911
  133MPD2    C1 2026   0.211   2.048   9.235 -0.0532 -0.3495 -0.0003
  133MPD2    C2 2027   0.235   2.178   9.268  0.0067  0.2356 -0.1720
  133MPD2    C3 2028   0.130   2.271   9.259 -0.0329  0.2096  0.0674
  133MPD2    C4 2029   0.009   2.230   9.205 -0.0935  0.2078  0.1667
  133MPD2    C5 2030   4.722   2.105   9.156 -0.1945  0.0588 -0.1701
  133MPD2     H 2031   0.330   2.199   9.315  2.1039 -2.1978 -3.3036
  133MPD2    H1 2032   4.648   2.289   9.181 -0.4141 -1.0000 -1.7013
  133MPD2    H2 2033   0.076   1.914   9.144  1.0100  0.2978  0.2484
  133MPD2    H3 2034   4.631   2.070   9.110  0.4676  0.5772 -1.8808
  133MPD2     N 2035   0.147   2.402   9.309 -0.5750 -0.1328  0.4616
  133MPD2    H5 2036   0.066   2.463   9.306  0.4835  1.2196 -0.5905
  133MPD2    N1 2037   0.308   1.939   9.236  0.1731  0.0264 -0.0016
  133MPD2    H7 2038   0.278   1.845   9.213 -0.2918 -0.2616  1.7658
  134TCq2    C1 2039   0.443   1.949   9.271  0.4839  1.2711  0.0737
  134TCq2    O2 2040   0.505   2.038   9.329  0.1396 -0.0270 -0.2574
  134TCq2    C2 2041   0.508   1.818   9.252 -0.2887 -0.2846 -0.5895
  134TCq2    C3 2042   0.441   1.711   9.190 -0.0426  0.2279  0.8224
  134TCq2    C4 2043   0.495   1.588   9.195  0.1264 -0.5795 -0.2031
  134TCq2    C5 2044   0.609   1.562   9.263  0.8991  0.4241  0.4020
  134TCq2    C6 2045   0.674   1.666   9.331 -0.4563 -0.1645  0.1169
  134TCq2    C7 2046   0.623   1.795   9.330  0.0278  0.6413 -0.7335
  134TCq2    C8 2047   0.787   1.635   9.422 -0.5138 -0.0546  0.5618
  134TCq2    O4 2048   0.777   1.526   9.476 -0.1716 -0.5537  0.2212
  134TCq2    C9 2049   0.422   1.476   9.145  0.0980  0.0843  0.7088
  134TCq2    O5 2050   0.471   1.358   9.150  0.2724  0.0198 -0.0809
  134TCq2    O6 2051   0.309   1.508   9.090  0.3553  0.1535  0.0226
  134TCq2    H2 2052   0.365   1.722   9.114 -2.1914  0.2242  2.9869
  134TCq2    H3 2053   0.650   1.462   9.261  0.6443  0.3370 -0.3216
  134TCq2    H4 2054   0.665   1.872   9.394  1.4722 -2.2418  1.7384
  135MPD2     C 2055   3.417   4.320   9.414 -0.2786  0.4062  0.5357
  135MPD2    C1 2056   3.320   4.291   9.319 -0.1062  0.4135 -0.4251
  135MPD2    C2 2057   3.330   4.174   9.252 -0.1618 -0.3857  0.7491
  135MPD2    C3 2058   3.450   4.099   9.262  0.3811 -0.1050 -0.3179
  135MPD2    C4 2059   3.547   4.140   9.346  0.0743 -0.0565  0.4365
  135MPD2    C5 2060   3.530   4.247   9.427  0.5583  0.2964 -0.6423
  135MPD2     H 2061   3.251   4.133   9.190  2.0293 -2.1744 -0.8651
  135MPD2    H1 2062   3.635   4.079   9.360 -0.5630 -1.6385 -2.4960
  135MPD2    H2 2063   3.418   4.413   9.469  4.1376 -0.7907  2.4621
  135MPD2    H3 2064   3.613   4.278   9.490 -2.8852  3.6935  2.2045
  135MPD2     N 2065   3.477   3.978   9.194 -0.0652  0.4062  0.3224
  135MPD2    H5 2066   3.565   3.934   9.220 -0.6262 -1.7725 -1.4652
  135MPD2    N1 2067   3.203   4.375   9.297  0.0225  0.2946 -0.9096
  135MPD2    H7 2068   3.131   4.356   9.227  1.2318 -1.3762 -1.7053
  136TCq2    C1 2069   3.172   4.488   9.364  0.0797  0.1368 -0.2519
  136TCq2    O2 2070   3.238   4.543   9.448  0.2403 -0.6302 -0.5468
  136TCq2    C2 2071   3.032   4.531   9.343  0.1086  0.2444 -0.8308
  136TCq2    C3 2072   2.968   4.489   9.229  0.5626 -0.2595 -0.2258
  136TCq2    C4 2073   2.833   4.479   9.236 -0.8512 -0.2605 -0.6166
  136TCq2    C5 2074   2.761   4.502   9.348 -0.1941  0.0470  0.0389
  136TCq2    C6 2075   2.827   4.552   9.460 -0.2524 -0.4546  0.3055
  136TCq2    C7 2076   2.963   4.565   9.455  0.6425 -0.1500  1.1773
  136TCq2    C8 2077   2.767   4.545   9.586  0.3796 -0.1933 -0.8331
  136TCq2    O4 2078   2.825   4.600   9.678  0.1500  0.7681  0.4787
  136TCq2    C9 2079   2.765   4.447   9.114 -0.1230 -0.3591 -0.9174
  136TCq2    O5 2080   2.650   4.501   9.093  0.2386  0.2637  0.0706
  136TCq2    O6 2081   2.834   4.386   9.030 -0.0303 -0.3022 -0.1759
  136TCq2    H2 2082   3.021   4.474   9.136 -0.8812 -0.8002 -0.9657
  136TCq2    H3 2083   2.653   4.503   9.342 -0.2372 -2.5826  0.4058
  136TCq2    H4 2084   3.015   4.597   9.545 -0.3511  3.4405  0.4753
  137MPD2     C 2085   3.442   2.487  10.188  0.7610  0.2196  0.3461
  137MPD2    C1 2086   3.373   2.562  10.099  0.1930 -0.0363 -0.1896
  137MPD2    C2 2087   3.268   2.644  10.140 -0.4763 -0.5663  0.2590
  137MPD2    C3 2088   3.228   2.633  10.269 -1.0006  0.4854  0.1832
  137MPD2    C4 2089   3.293   2.545  10.358  0.7531  0.8524 -0.1736
  137MPD2    C5 2090   3.409   2.479  10.319 -0.3393 -0.8717 -0.7071
  137MPD2     H 2091   3.213   2.705  10.068  0.0178 -0.9004 -0.4019
  137MPD2    H1 2092   3.255   2.534  10.459  0.6568  1.1779 -0.1749
  137MPD2    H2 2093   3.520   2.424  10.147  1.4404  0.5419  1.1535
  137MPD2    H3 2094   3.458   2.423  10.398  1.3356  0.2537 -0.9257
  137MPD2     N 2095   3.120   2.713  10.318 -0.4025  0.2102  0.1744
  137MPD2    H5 2096   3.079   2.779  10.253  0.3876  1.7494  1.2281
  137MPD2    N1 2097   3.424   2.562   9.964 -0.4567  0.0662  0.4060
  137MPD2    H7 2098   3.505   2.506   9.940  0.1095  0.2444  1.8709
  138TCq2    C1 2099   3.385   2.640   9.863 -0.6231  0.3731 -0.0437
  138TCq2    O2 2100   3.282   2.698   9.850  0.2644 -0.0235  0.5214
  138TCq2    C2 2101   3.480   2.658   9.754  0.5793 -0.3276  1.4114
  138TCq2    C3 2102   3.614   2.664   9.777  0.5909 -0.4640  0.0094
  138TCq2    C4 2103   3.694   2.719   9.683 -0.4592  0.8173 -0.1517
  138TCq2    C5 2104   3.642   2.793   9.578  0.1442  0.3307 -0.4214
  138TCq2    C6 2105   3.508   2.767   9.549 -0.5882  0.2745  0.4918
  138TCq2    C7 2106   3.418   2.701   9.637  0.0999 -0.0173  0.0182
  138TCq2    C8 2107   3.449   2.816   9.424 -0.0155 -0.2009 -0.2609
  138TCq2    O4 2108   3.531   2.861   9.344  0.5943 -0.0620 -0.1022
  138TCq2    C9 2109   3.826   2.746   9.730 -0.5690  0.4488 -0.4241
  138TCq2    O5 2110   3.892   2.812   9.647 -0.3309 -0.1615  0.5395
  138TCq2    O6 2111   3.883   2.680   9.821  0.5010 -0.7190 -0.4101
  138TCq2    H2 2112   3.648   2.621   9.871 -0.7483  0.2220  0.8056
  138TCq2    H3 2113   3.705   2.844   9.506 -0.3664  1.6911  0.0994
  138TCq2    H4 2114   3.316   2.672   9.617 -0.4468  2.2838 -0.4352
  139TMC2    C1 2115   3.094   1.993  13.089 -0.2218 -0.3939  0.2885
  139TMC2    C2 2116   3.038   2.060  12.988  0.8658  0.2593  0.0734
  139TMC2    C3 2117   3.010   2.191  12.999  0.0430 -0.6979 -0.8155
  139TMC2    C4 2118   3.121   2.055  13.211  0.3185 -0.1199 -0.0176
  139TMC2    C5 2119   3.071   2.180  13.225 -0.4076 -0.1203 -0.1008
  139TMC2    C6 2120   3.021   2.251  13.120 -0.8208  0.2199  0.1787
  139TMC2     C 2121   3.156   1.861  13.048 -0.9643 -0.6408  0.5800
  139TMC2     O 2122   3.137   1.816  12.934 -0.4849 -0.4891 -0.5336
  139TMC2     H 2123   2.998   2.000  12.907  0.0379 -0.5596  1.0824
  139TMC2    H1 2124   3.150   1.995  13.296 -3.8333 -0.9289  0.8330
  139TMC2    H2 2125   2.986   2.352  13.135  0.3883  0.6035  0.4823
  139TMC2    C7 2126   3.058   2.247  13.360 -0.3573  0.5956  0.8398
  139TMC2    C8 2127   2.929   2.264  12.903 -0.2996 -0.2596 -0.8415
  139TMC2    O1 2128   2.977   2.338  13.364  0.2094  0.1101  0.4084
  139TMC2    O2 2129   2.849   2.351  12.935  0.8443 -0.1387 -0.1149
  139TMC2    O5 2130   2.937   2.212  12.778  0.1028  0.3440 -0.3289
  139TMC2    H5 2131   3.005   2.143  12.760  0.5856  0.0875  2.5124
  140MPD2     C 2132   3.303   1.610  13.267 -0.3332  0.0286  0.0743
  140MPD2    C1 2133   3.280   1.672  13.145 -0.1094  0.7873  0.3644
  140MPD2    C2 2134   3.309   1.598  13.030  0.4217 -0.4004 -0.2790
  140MPD2    C3 2135   3.364   1.472  13.036 -0.2607 -0.5417 -0.4348
  140MPD2    C4 2136   3.393   1.419  13.158 -0.2731 -0.1494 -0.7347
  140MPD2    C5 2137   3.371   1.489  13.268  0.0088  0.2252 -0.4520
  140MPD2     H 2138   3.302   1.649  12.934 -0.8577 -0.3596 -0.1730
  140MPD2    H1 2139   3.448   1.326  13.171  1.1817  0.8248 -0.0447
  140MPD2    H2 2140   3.286   1.664  13.359  0.2607 -1.6231  1.1411
  140MPD2    H3 2141   3.410   1.450  13.361  1.0527  0.7225 -0.6701
  140MPD2     N 2142   3.372   1.403  12.909  0.3573  0.3634  0.9505
  140MPD2    H5 2143   3.339   1.448  12.824 -0.5792  2.0907  2.2319
  140MPD2    N1 2144   3.211   1.796  13.151 -0.2830 -0.5217 -0.2197
  140MPD2    H7 2145   3.206   1.834  13.245  0.7402 -0.2001 -0.2944
  141TCq2    C1 2146   4.058   2.477  14.257 -0.5708  0.3179  0.2427
  141TCq2    O2 2147   3.945   2.494  14.215  0.4654  0.3326  0.1278
  141TCq2    C2 2148   4.093   2.523  14.388  0.8224  0.1210  0.2260
  141TCq2    C3 2149   4.198   2.472  14.458  0.6373  0.1661  0.5045
  141TCq2    C4 2150   4.267   2.551  14.545 -0.1644 -0.0590  0.2302
  141TCq2    C5 2151   4.239   2.684  14.560 -0.4348  0.1286  0.6868
  141TCq2    C6 2152   4.139   2.742  14.479 -0.2518  0.0125  0.3341
  141TCq2    C7 2153   4.061   2.658  14.399 -0.6965  0.0017  0.2223
  141TCq2    C8 2154   4.171   2.877  14.429 -0.1416 -0.0409  0.4585
  141TCq2    O4 2155   4.118   2.918  14.324  0.0300  0.4996 -0.0250
  141TCq2    C9 2156   4.373   2.496  14.626 -0.0344 -0.6930 -0.0086
  141TCq2    O5 2157   4.371   2.372  14.654 -0.1214  0.0372 -0.3809
  141TCq2    O6 2158   4.459   2.569  14.681 -0.2663  0.4838  0.2346
  141TCq2    H2 2159   4.222   2.366  14.452  1.9263  0.5250 -0.6200
  141TCq2    H3 2160   4.282   2.725  14.651  0.2288 -0.0020  0.4328
  141TCq2    H4 2161   3.983   2.700  14.337 -1.6312 -0.4150  1.1036
  142MPD2     C 2162   1.627   1.121  10.130 -0.0270 -1.2860  0.1380
  142MPD2    C1 2163   1.615   1.134   9.994  0.5784  0.0985  0.0763
  142MPD2    C2 2164   1.689   1.235   9.931 -0.0988 -0.8864 -0.5969
  142MPD2    C3 2165   1.787   1.306   9.999  0.5058  0.1762  0.6214
  142MPD2    C4 2166   1.815   1.273  10.130  0.9710 -0.1799 -0.0038
  142MPD2    C5 2167   1.734   1.180  10.190 -0.4776  0.7518  0.0271
  142MPD2     H 2168   1.686   1.250   9.824  0.9222 -2.0094 -0.7774
  142MPD2    H1 2169   1.883   1.328  10.194 -1.4889  3.0421 -0.1816
  142MPD2    H2 2170   1.573   1.054  10.196  0.1898 -1.9319 -0.3514
  142MPD2    H3 2171   1.757   1.156  10.293  1.2798  1.9827 -0.0735
  142MPD2     N 2172   1.850   1.420   9.948 -0.3266  0.1134  0.4002
  142MPD2    H5 2173   1.915   1.473  10.005  0.3968 -2.8023  2.3145
  142MPD2    N1 2174   1.517   1.056   9.930 -0.0637  0.9368  1.0529
  142MPD2    H7 2175   1.461   0.994   9.988 -0.4778  0.1711 -0.1715
  143TCq2    C1 2176   1.839   1.463   9.817 -0.1259  0.2195 -0.0049
  143TCq2    O2 2177   1.791   1.410   9.723  0.1155 -0.1823  0.0710
  143TCq2    C2 2178   1.921   1.579   9.803  0.5674 -0.5271  0.3239
  143TCq2    C3 2179   2.005   1.617   9.901 -0.1104 -0.3794 -0.3759
  143TCq2    C4 2180   2.079   1.733   9.892 -0.5113 -0.4276 -0.3490
  143TCq2    C5 2181   2.087   1.790   9.761  0.1159 -1.4647  1.2111
  143TCq2    C6 2182   2.005   1.739   9.661 -0.7139  0.3872  0.3637
  143TCq2    C7 2183   1.914   1.637   9.682 -0.4801  0.1434 -0.3278
  143TCq2    C8 2184   1.971   1.827   9.549  0.5422 -0.4811 -1.1739
  143TCq2    O4 2185   1.878   1.790   9.479 -0.4926 -0.3978 -0.5269
  143TCq2    C9 2186   2.180   1.766   9.988  1.0832  0.4086  0.2763
  143TCq2    O5 2187   2.259   1.859   9.957  0.3424  0.5946 -0.2669
  143TCq2    O6 2188   2.162   1.723  10.106 -0.1042 -0.1153 -0.1411
  143TCq2    H2 2189   2.034   1.556   9.986  0.9133 -0.8500 -1.0645
  143TCq2    H3 2190   2.140   1.884   9.747 -1.8929 -0.3772  0.8208
  143TCq2    H4 2191   1.849   1.597   9.605 -1.0871 -2.0619  1.3224
  144MPD2     C 2192   3.984   0.696   0.711 -0.1585 -0.4129  1.0616
  144MPD2    C1 2193   4.052   0.616   0.620  0.3252  0.0478  0.1109
  144MPD2    C2 2194   4.180   0.572   0.658 -0.5302 -0.3711 -0.2790
  144MPD2    C3 2195   4.241   0.611   0.778  0.0363 -0.0552  0.0251
  144MPD2    C4 2196   4.177   0.701   0.857  0.8185  0.2731 -0.3808
  144MPD2    C5 2197   4.051   0.738   0.825  0.4899 -0.5950 -0.1992
  144MPD2     H 2198   4.229   0.504   0.589  1.9990  1.6927 -0.4971
  144MPD2    H1 2199   4.231   0.753   0.935 -0.3166 -1.6461  1.6802
  144MPD2    H2 2200   3.880   0.719   0.697  0.1221  0.4080  0.3366
  144MPD2    H3 2201   4.009   0.816   0.888 -0.3259 -1.9707  0.9683
  144MPD2     N 2202   4.380   0.575   0.809 -0.9670 -0.0310  0.5179
  144MPD2    H5 2203   4.420   0.624   0.889 -0.3563 -0.7869  0.6738
  144MPD2    N1 2204   3.998   0.576   0.495 -0.0333 -0.4363 -0.8231
  144MPD2    H7 2205   4.057   0.535   0.424  0.1371  0.0928 -0.9905
  145TCq2    C1 2206   4.463   0.486   0.742  0.2119  0.0928  0.2235
  145TCq2    O2 2207   4.444   0.424   0.640 -0.7502 -0.2747 -0.1788
  145TCq2    C2 2208   4.604   0.471   0.792 -0.5213 -0.1310  0.2176
  145TCq2    C3 2209   4.681   0.383   0.722  0.7316 -0.7966 -0.5353
  145TCq2    C4 2210   0.088   0.388   0.750 -0.4069 -0.9365  0.4127
  145TCq2    C5 2211   0.144   0.471   0.842 -0.0754  0.9064  0.2554
  145TCq2    C6 2212   0.059   0.543   0.929 -0.1062  0.2626  0.5579
  145TCq2    C7 2213   4.652   0.544   0.897  0.6924 -0.1657  0.3043
  145TCq2    C8 2214   0.111   0.569   1.061 -0.1726  0.4708  0.2382
  145TCq2    O4 2215   0.207   0.498   1.086  0.9564 -0.1675 -0.1560
  145TCq2    C9 2216   0.168   0.300   0.670 -0.0972  0.5193 -1.1324
  145TCq2    O5 2217   0.125   0.254   0.562 -0.2292 -0.5383 -0.0614
  145TCq2    O6 2218   0.288   0.299   0.706  0.3192 -0.0489  0.2506
  145TCq2    H2 2219   4.646   0.322   0.639 -2.8326  0.4838  0.0056
  145TCq2    H3 2220   0.251   0.461   0.854 -0.3841 -1.1994  1.3683
  145TCq2    H4 2221   4.586   0.597   0.965 -0.1176  2.1299 -2.2551
  146TMC2    C1 2222   1.432   4.050  11.887 -0.2517  0.0011 -0.0970
  146TMC2    C2 2223   1.366   4.080  11.775 -0.8523  0.3371 -0.2569
  146TMC2    C3 2224   1.445   4.086  11.663 -0.0239  0.1506  0.2685
  146TMC2    C4 2225   1.568   4.016  11.902  0.0191  0.0283  0.5213
  146TMC2    C5 2226   1.642   4.024  11.788 -0.3795  0.6560  0.5129
  146TMC2    C6 2227   1.590   4.070  11.665 -0.1840 -0.2173  0.0228
  146TMC2     C 2228   1.339   4.035  11.996  0.4629 -0.3126 -0.5718
  146TMC2     O 2229   1.228   4.076  11.975 -0.6701 -0.4197 -0.3516
  146TMC2     H 2230   1.263   4.109  11.761 -1.1701 -1.6258 -1.9877
  146TMC2    H1 2231   1.614   3.975  11.990  0.4156 -0.0032  0.2995
  146TMC2    H2 2232   1.655   4.065  11.579 -0.9603 -0.1827 -0.5718
  146TMC2    C7 2233   1.786   4.048  11.799  0.1000 -0.8993  0.5119
  146TMC2    C8 2234   1.388   4.133  11.537 -0.3783  0.2968  0.4326
  146TMC2    O1 2235   1.849   4.070  11.691  0.1821  0.2859  0.3535
  146TMC2    O2 2236   1.458   4.200  11.456 -0.0095  0.4340 -0.1981
  146TMC2    O5 2237   1.272   4.055  11.514  0.2551 -0.0883  0.1197
  146TMC2    H5 2238   1.244   3.997  11.588  2.7500 -3.0090 -1.2077
  147MPD2     C 2239   2.244   4.088  12.028  0.4669 -0.2336  0.1202
  147MPD2    C1 2240   2.160   4.015  12.108 -0.1367 -1.0341 -0.1807
  147MPD2    C2 2241   2.032   3.989  12.061 -0.3453  0.4769 -0.1778
  147MPD2    C3 2242   1.978   4.050  11.941 -0.2862 -0.2856 -0.8125
  147MPD2    C4 2243   2.063   4.124  11.860  0.1380  0.2419 -1.1450
  147MPD2    C5 2244   2.188   4.143  11.910 -0.4029  0.5996 -0.3182
  147MPD2     H 2245   1.965   3.921  12.114  2.3080 -3.2823 -1.6415
  147MPD2    H1 2246   2.040   4.180  11.770 -3.7996 -1.1420 -1.0162
  147MPD2    H2 2247   2.350   4.097  12.051  0.2129 -0.2694  1.2809
  147MPD2    H3 2248   2.259   4.208  11.861 -0.9840  1.4665 -0.0139
  147MPD2     N 2249   1.844   4.026  11.918  0.4828 -0.0677 -0.7855
  147MPD2    H5 2250   1.783   3.989  11.991 -0.4737  1.8493 -0.6213
  147MPD2    N1 2251   2.220   3.972  12.233  0.5821  0.1859  0.0861
  147MPD2    H7 2252   2.320   3.978  12.244  0.5422  0.9850 -0.0390
  148MPD2     C 2253   2.008   2.954  10.073 -0.0001 -0.5462  0.7013
  148MPD2    C1 2254   1.984   2.851  10.149  0.1783 -0.4443  0.0546
  148MPD2    C2 2255   1.859   2.805  10.185 -0.5297 -0.1080 -0.5877
  148MPD2    C3 2256   1.747   2.861  10.124  0.7379  0.0536  0.2677
  148MPD2    C4 2257   1.774   2.976  10.047  0.6691 -0.1814  0.2248
  148MPD2    C5 2258   1.899   3.021  10.021  0.1173 -0.1996  0.5338
  148MPD2     H 2259   1.847   2.717  10.247 -0.4282 -0.2643 -0.7905
  148MPD2    H1 2260   1.689   3.014   9.992  0.6641  1.4278  1.3506
  148MPD2    H2 2261   2.103   3.000  10.045 -0.6755  1.4072  1.5924
  148MPD2    H3 2262   1.908   3.100   9.947  2.9218 -2.8238 -1.8762
  148MPD2     N 2263   1.612   2.803  10.127 -0.5719  0.2940  0.1129
  148MPD2    H5 2264   1.551   2.832  10.050  1.1888  0.3129 -1.2669
  148MPD2    N1 2265   2.085   2.763  10.194  0.1529 -0.2036 -0.5428
  148MPD2    H7 2266   2.063   2.697  10.268 -0.0922 -2.6208 -2.7643
  149TCq2    C1 2267   2.197   2.735  10.124 -0.9287  0.2163 -0.5154
  149TCq2    O2 2268   2.231   2.776  10.012  0.3474 -0.3557  0.0021
  149TCq2    C2 2269   2.230   2.594  10.148  0.2429  0.0108  0.0970
  149TCq2    C3 2270   2.245   2.570  10.284 -0.1342 -0.2978 -0.7046
  149TCq2    C4 2271   2.168   2.470  10.334 -0.2757 -0.2536 -0.7429
  149TCq2    C5 2272   2.087   2.395  10.256 -0.6146  0.2090 -0.2247
  149TCq2    C6 2273   2.074   2.424  10.123  0.2932 -0.5203  0.6445
  149TCq2    C7 2274   2.145   2.525  10.067 -0.1086  0.1296 -0.2266
  149TCq2    C8 2275   1.940   2.382  10.074 -0.0011  0.0310  0.1378
  149TCq2    O4 2276   1.889   2.281  10.124 -0.4482 -0.2094  0.2051
  149TCq2    C9 2277   2.194   2.418  10.461  0.0254 -0.0107  0.7440
  149TCq2    O5 2278   2.109   2.342  10.512  0.0796  0.5846  0.1936
  149TCq2    O6 2279   2.294   2.460  10.516 -0.0179 -0.0367 -0.5868
  149TCq2    H2 2280   2.307   2.634  10.345  0.7634 -0.4499 -1.4567
  149TCq2    H3 2281   2.035   2.309  10.296 -0.5861  0.1545 -0.3045
  149TCq2    H4 2282   2.122   2.553   9.964  1.6178  1.6483 -0.2006
  150MPD2     C 2283   2.645   2.570  12.291 -0.1156 -0.0107  0.0730
  150MPD2    C1 2284   2.688   2.484  12.192 -0.0647 -0.3393  0.5017
  150MPD2    C2 2285   2.822   2.489  12.161  0.5382  0.5497 -0.0702
  150MPD2    C3 2286   2.917   2.572  12.219 -1.0122 -0.0299  0.2432
  150MPD2    C4 2287   2.864   2.653  12.317 -0.0297  0.7026 -0.0220
  150MPD2    C5 2288   2.733   2.653  12.353 -0.6445  0.1290  0.7670
  150MPD2     H 2289   2.867   2.417  12.093  1.3545  0.8254  0.1691
  150MPD2    H1 2290   2.930   2.702  12.388  1.0048 -2.0552  0.9232
  150MPD2    H2 2291   2.543   2.583  12.327  0.1632  1.3151  0.3923
  150MPD2    H3 2292   2.700   2.712  12.438 -2.8521  0.6519 -0.4609
  150MPD2     N 2293   3.051   2.560  12.181 -0.1986 -0.5986 -0.0397
  150MPD2    H5 2294   3.075   2.489  12.112 -2.6900 -2.4504  0.9953
  150MPD2    N1 2295   2.598   2.398  12.124  0.1078  0.2889 -0.2074
  150MPD2    H7 2296   2.501   2.408  12.150  0.1050  0.0322 -0.1132
  151TCq2    C1 2297   3.155   2.629  12.237 -0.7025 -0.6548  0.4950
  151TCq2    O2 2298   3.150   2.708  12.330  0.6298  0.4319  0.6019
  151TCq2    C2 2299   3.276   2.598  12.164 -0.6926 -0.3213 -0.9011
  151TCq2    C3 2300   3.272   2.486  12.082  0.5014 -0.3117 -0.0966
  151TCq2    C4 2301   3.371   2.396  12.081 -0.8571 -0.3909 -0.2579
  151TCq2    C5 2302   3.467   2.406  12.178  0.4070 -0.6512  0.4327
  151TCq2    C6 2303   3.477   2.523  12.250 -0.3450  0.5237  0.9084
  151TCq2    C7 2304   3.387   2.620  12.240  0.6773  0.1144 -0.3823
  151TCq2    C8 2305   3.595   2.534  12.331 -1.3751 -0.4697 -0.5432
  151TCq2    O4 2306   3.623   2.653  12.359  0.3557  0.3440 -0.2189
  151TCq2    C9 2307   3.377   2.293  11.986  0.1301 -0.1413  0.1040
  151TCq2    O5 2308   3.490   2.230  11.975  0.1586 -0.6643  0.4833
  151TCq2    O6 2309   3.288   2.296  11.895 -0.2450  0.1218 -0.1229
  151TCq2    H2 2310   3.193   2.467  12.010  1.5736 -3.4190 -0.4644
  151TCq2    H3 2311   3.551   2.339  12.163 -0.0813 -0.8808 -1.3698
  151TCq2    H4 2312   3.377   2.710  12.301  0.6227  0.4104 -0.8245
  152MPD2     C 2313   2.565   2.114  12.676  0.5128  0.3049 -0.4208
  152MPD2    C1 2314   2.565   2.140  12.546  0.2595 -0.1859  0.2270
  152MPD2    C2 2315   2.443   2.140  12.478 -0.7643  0.4459  0.5764
  152MPD2    C3 2316   2.324   2.103  12.535  0.6465  0.5534  0.5544
  152MPD2    C4 2317   2.329   2.056  12.661 -0.6611  0.5666  0.4306
  152MPD2    C5 2318   2.451   2.066  12.734  0.0628  0.3960 -0.1957
  152MPD2     H 2319   2.443   2.178  12.376  1.7427  0.0597  0.4249
  152MPD2    H1 2320   2.244   2.013  12.711  0.1770  0.3204  1.6347
  152MPD2    H2 2321   2.659   2.114  12.730  0.2319 -2.3780  0.0762
  152MPD2    H3 2322   2.451   2.015  12.829  0.0435 -0.7537 -0.8085
  152MPD2     N 2323   2.207   2.118  12.461 -0.1314 -0.3014  0.2045
  152MPD2    H5 2324   2.225   2.139  12.364 -0.5335 -1.2577 -0.0706
  152MPD2    N1 2325   2.688   2.164  12.489 -0.2213 -0.2059 -0.3087
  152MPD2    H7 2326   2.766   2.182  12.551  0.3432 -0.9881 -0.7959
  153TCq2    C1 2327   2.724   2.151  12.358  0.5381 -0.1077 -0.1262
  153TCq2    O2 2328   2.655   2.105  12.266 -0.0160  0.2801  0.9801
  153TCq2    C2 2329   2.858   2.202  12.337  0.5358 -0.0616 -0.2028
  153TCq2    C3 2330   2.939   2.144  12.243  0.2931  0.3726  0.1820
  153TCq2    C4 2331   3.075   2.150  12.261  0.4195  0.2703  0.0323
  153TCq2    C5 2332   3.121   2.218  12.365 -0.2799 -0.2458  0.4396
  153TCq2    C6 2333   3.041   2.286  12.446  0.0209  0.4265  0.1413
  153TCq2    C7 2334   2.901   2.279  12.435 -0.4524  0.0970  0.1379
  153TCq2    C8 2335   3.091   2.391  12.530  0.4923 -0.5745 -0.3801
  153TCq2    O4 2336   3.006   2.453  12.592  0.2855  0.5125  0.8241
  153TCq2    C9 2337   3.165   2.080  12.176  0.7232 -0.2365 -0.3730
  153TCq2    O5 2338   3.283   2.067  12.220 -0.3296 -0.4391  0.3001
  153TCq2    O6 2339   3.132   2.060  12.059  0.1766 -0.0395 -0.0935
  153TCq2    H2 2340   2.906   2.072  12.169 -1.7548 -1.9431  3.3592
  153TCq2    H3 2341   3.229   2.218  12.373 -0.1741 -0.3180 -0.9343
  153TCq2    H4 2342   2.839   2.354  12.482 -0.8292 -0.6323  0.8125
  154MPD2     C 2343   3.997   2.096   0.118 -0.3080  0.6398 -0.2299
  154MPD2    C1 2344   4.070   2.208   0.111  0.4308  0.1072 -0.1258
  154MPD2    C2 2345   4.156   2.250   0.214  0.3902 -0.1689  0.1375
  154MPD2    C3 2346   4.154   2.178   0.333  0.3009  0.1698  0.0016
  154MPD2    C4 2347   4.077   2.061   0.340 -0.2361 -0.1318  0.0713
  154MPD2    C5 2348   4.010   2.015   0.226  0.8801 -0.3146 -0.1030
  154MPD2     H 2349   4.202   2.348   0.213 -2.0895  0.9872  0.6709
  154MPD2    H1 2350   4.059   2.002   0.429 -1.5834  3.3761  2.1259
  154MPD2    H2 2351   3.951   2.056   0.028 -0.2893  0.7615 -0.2932
  154MPD2    H3 2352   3.958   1.920   0.227 -1.9105  1.2100  0.1148
  154MPD2     N 2353   4.214   2.230   0.452 -0.0707  0.7175  0.1490
  154MPD2    H5 2354   4.247   2.326   0.450 -0.7852  0.9052 -1.9073
  154MPD2    N1 2355   4.061   2.280  17.696  0.4838 -0.2698  0.3584
  154MPD2    H7 2356   4.007   2.243  17.619 -1.6235  1.3644  1.0507
  155TCq2    C1 2357   4.119   2.397  17.658 -0.5134  0.4054 -0.3694
  155TCq2    O2 2358   4.194   2.473   0.010 -0.2520  0.3589 -0.0812
  155TCq2    C2 2359   4.069   2.446  17.527 -0.4753  0.4095 -0.4938
  155TCq2    C3 2360   3.972   2.379  17.465 -0.0459 -0.3628  0.1274
  155TCq2    C4 2361   3.921   2.433  17.350 -0.2994 -0.1063  0.3314
  155TCq2    C5 2362   3.963   2.552  17.296 -0.1255  0.0140 -0.8708
  155TCq2    C6 2363   4.059   2.613  17.371  0.0568 -0.7486 -0.8018
  155TCq2    C7 2364   4.119   2.567  17.484  0.4481 -0.1766 -0.3128
  155TCq2    C8 2365   4.114   2.733  17.320 -0.1147 -0.0407 -0.8841
  155TCq2    O4 2366   4.214   2.779  17.374  0.8533 -0.4066  0.1271
  155TCq2    C9 2367   3.831   2.344  17.269 -1.1560 -0.6989 -0.0240
  155TCq2    O5 2368   3.781   2.393  17.163 -0.5951 -0.6582 -0.0590
  155TCq2    O6 2369   3.840   2.223  17.290  0.4953  0.3784 -0.3267
  155TCq2    H2 2370   3.929   2.283  17.493  0.4489  0.2592  3.0573
  155TCq2    H3 2371   3.934   2.574  17.194  1.4650  1.1276 -1.0901
  155TCq2    H4 2372   4.186   2.626  17.546 -0.0418  0.5255 -0.4536
  156MPD2     C 2373   3.145   0.217  12.202  0.0564  0.0612 -0.5159
  156MPD2    C1 2374   3.076   0.133  12.120  0.3425  0.1965  0.1004
  156MPD2    C2 2375   2.949   0.101  12.162 -0.3224  0.1863 -0.2590
  156MPD2    C3 2376   2.898   0.154  12.283  0.2162  0.1185  0.0222
  156MPD2    C4 2377   2.969   0.236  12.371 -0.3047  0.6760  0.2041
  156MPD2    C5 2378   3.093   0.271  12.319  0.3301  0.3496 -0.7561
  156MPD2     H 2379   2.887   0.028  12.112  0.3431 -0.7870  0.3383
  156MPD2    H1 2380   2.935   0.272  12.468 -2.9280 -0.1145 -0.4225
  156MPD2    H2 2381   3.244   0.249  12.171 -0.4973  1.1033 -1.2226
  156MPD2    H3 2382   3.148   0.349  12.371 -2.1206  0.6029  1.4895
  156MPD2     N 2383   2.760   0.123  12.301  0.4608 -0.4261  0.4390
  156MPD2    H5 2384   2.704   0.075  12.232  2.7990 -0.8574 -1.1418
  156MPD2    N1 2385   3.136   0.080  12.001 -0.2659 -0.5983 -0.1291
  156MPD2    H7 2386   3.232   0.102  11.978 -1.1948  3.6177 -0.0324
  157TCq2    C1 2387   3.068   0.020  11.899  0.0304 -0.5572 -0.1168
  157TCq2    O2 2388   2.948   4.724  11.883  0.5768  0.7033  0.2347
  157TCq2    C2 2389   3.147   4.684  11.794 -0.8367 -0.1896  0.2724
  157TCq2    C3 2390   3.274   4.638  11.818  0.2970  0.2909  0.2725
  157TCq2    C4 2391   3.331   4.560  11.723  0.6662 -0.1392  0.7846
  157TCq2    C5 2392   3.257   4.506  11.621  0.7599 -0.3750  0.4543
  157TCq2    C6 2393   3.129   4.550  11.604 -0.2415 -0.1836 -0.1793
  157TCq2    C7 2394   3.075   4.640  11.687 -0.2177 -0.5841 -0.2233
  157TCq2    C8 2395   3.055   4.543  11.475 -0.1421  0.4099  0.0467
  157TCq2    O4 2396   2.984   4.641  11.454  0.4031 -0.0170 -0.6366
  157TCq2    C9 2397   3.473   4.534  11.734 -1.1630 -0.4823 -0.1367
  157TCq2    O5 2398   3.531   4.577  11.839 -0.7527  0.2605 -0.0814
  157TCq2    O6 2399   3.520   4.461  11.638  0.4934  0.0260  0.1721
  157TCq2    H2 2400   3.336   4.675  11.899  2.5922  0.1838 -1.4454
  157TCq2    H3 2401   3.300   4.439  11.548 -0.8168  0.5955 -1.3755
  157TCq2    H4 2402   2.977   4.675  11.659  0.4631  1.1772 -0.3670
  158TMC2    C1 2403   3.295   3.354  13.265  0.7696  0.4345  0.0568
  158TMC2    C2 2404   3.314   3.455  13.174  0.8444 -0.1986  0.3815
  158TMC2    C3 2405   3.209   3.528  13.122  0.2823  0.4250  0.4527
  158TMC2    C4 2406   3.165   3.315  13.289  0.0110 -0.1812 -0.0912
  158TMC2    C5 2407   3.059   3.383  13.233  0.6138  0.8432  0.6441
  158TMC2    C6 2408   3.077   3.490  13.148  0.5027  0.5711 -0.5252
  158TMC2     C 2409   3.414   3.291  13.314 -0.1221 -0.2479  0.1162
  158TMC2     O 2410   3.500   3.274  13.231  0.0113  1.0217 -0.3373
  158TMC2     H 2411   3.418   3.485  13.160  0.6108 -0.5764 -2.1797
  158TMC2    H1 2412   3.147   3.223  13.343  2.3978  0.2375  1.4092
  158TMC2    H2 2413   3.002   3.547  13.094 -0.2190 -0.0367 -0.1567
  158TMC2    C7 2414   2.922   3.343  13.266 -0.2059  0.2134 -0.4370
  158TMC2    C8 2415   3.246   3.649  13.052  0.0260 -0.3442  0.3268
  158TMC2    O1 2416   2.833   3.398  13.202  0.0439  0.4170  0.3979
  158TMC2    O2 2417   3.336   3.723  13.092 -0.0638 -0.4862 -0.1865
  158TMC2    O5 2418   3.176   3.655  12.939  0.0942 -0.1732  0.2283
  158TMC2    H5 2419   3.139   3.565  12.924 -0.6626  0.1325  0.3044
  159MPD2     C 2420   3.726   3.188  13.709 -0.3950  0.8948 -0.6646
  159MPD2    C1 2421   3.607   3.239  13.752  1.2848  0.1225 -0.0392
  159MPD2    C2 2422   3.501   3.259  13.661  0.3349  0.2350 -0.1412
  159MPD2    C3 2423   3.522   3.233  13.526  0.2272  0.1136  0.7759
  159MPD2    C4 2424   3.649   3.201  13.480  0.4149 -0.8858 -0.5386
  159MPD2    C5 2425   3.746   3.178  13.577 -0.3669 -0.4587  0.0500
  159MPD2     H 2426   3.403   3.284  13.698  0.1346  0.1146 -0.5842
  159MPD2    H1 2427   3.675   3.202  13.375  0.9856 -0.0943 -0.3905
  159MPD2    H2 2428   3.808   3.169  13.776 -0.9882 -0.9208 -0.4429
  159MPD2    H3 2429   3.850   3.156  13.554 -0.2219 -0.3462  0.6065
  159MPD2     N 2430   3.409   3.272  13.447  1.3141  0.6640 -0.1635
  159MPD2    H5 2431   3.323   3.298  13.494  0.3146 -0.2568 -1.4606
  159MPD2    N1 2432   3.594   3.255  13.898 -0.1115 -0.6012 -0.5656
  159MPD2    H7 2433   3.681   3.236  13.946 -1.2789 -1.1393  1.3123
  160TMC2    C1 2434   2.919   1.376   1.390  0.4233 -0.3571  0.0573
  160TMC2    C2 2435   3.012   1.328   1.484 -0.2726 -0.6517  0.4294
  160TMC2    C3 2436   3.142   1.350   1.451 -0.7278 -0.1624 -0.3699
  160TMC2    C4 2437   2.950   1.439   1.274 -0.5044 -0.2279 -0.5351
  160TMC2    C5 2438   3.082   1.471   1.259  0.3036 -0.3875  0.5713
  160TMC2    C6 2439   3.183   1.422   1.344 -0.1156  0.7221  0.0032
  160TMC2     C 2440   2.781   1.358   1.430 -0.8155 -0.0582  0.4038
  160TMC2     O 2441   2.753   1.260   1.500  0.3012 -0.1197  0.1731
  160TMC2     H 2442   2.992   1.269   1.573 -1.2942 -1.5056 -0.3594
  160TMC2    H1 2443   2.878   1.457   1.194  0.5759 -2.1517 -1.9277
  160TMC2    H2 2444   3.286   1.453   1.330  0.4451 -1.3565 -0.3674
  160TMC2    C7 2445   3.114   1.526   1.122 -0.4759 -0.7513  0.0552
  160TMC2    C8 2446   3.231   1.357   1.564  0.0554 -0.2862 -0.0354
  160TMC2    O1 2447   3.017   1.548   1.050 -0.2723 -0.9105 -0.2205
  160TMC2    O2 2448   3.197   1.377   1.680  0.6483  0.4428 -0.0567
  160TMC2    O5 2449   3.335   1.286   1.520 -0.0833 -0.3712  0.3438
  160TMC2    H5 2450   3.340   1.266   1.424  0.2472 -2.2806  0.7685
  161MPD2     C 2451   2.470   1.355   1.427 -0.0200  1.0078 -0.2076
  161MPD2    C1 2452   2.555   1.437   1.356 -0.0494 -0.5273  0.1514
  161MPD2    C2 2453   2.491   1.526   1.268  0.3133 -0.0064  1.0441
  161MPD2    C3 2454   2.353   1.526   1.250  1.3098 -0.0242  0.7349
  161MPD2    C4 2455   2.275   1.439   1.317 -0.8152  0.3909  0.0517
  161MPD2    C5 2456   2.338   1.367   1.414  0.0631  0.3722 -0.9910
  161MPD2     H 2457   2.551   1.597   1.213 -0.9343 -0.9106 -1.4950
  161MPD2    H1 2458   2.175   1.419   1.282 -0.3105 -2.5257  0.2802
  161MPD2    H2 2459   2.516   1.279   1.489 -1.2936 -0.5101 -1.1282
  161MPD2    H3 2460   2.288   1.287   1.467 -0.7535  1.3450 -0.3076
  161MPD2     N 2461   2.289   1.598   1.148  0.0391 -0.4492 -0.2799
  161MPD2    H5 2462   2.188   1.595   1.141  0.1929 -0.6864 -2.2870
  161MPD2    N1 2463   2.694   1.437   1.358 -0.4816 -0.4183  0.1267
  161MPD2    H7 2464   2.737   1.511   1.304 -2.5678  1.2509  0.7716
  162TMC2    C1 2465   0.736   3.312   0.768 -0.7953 -0.0450 -0.9270
  162TMC2    C2 2466   0.747   3.444   0.732  0.9152 -0.0868  0.3548
  162TMC2    C3 2467   0.712   3.527   0.833  0.7467  0.8824  0.4246
  162TMC2    C4 2468   0.699   3.274   0.892 -0.7414  0.4189 -0.2189
  162TMC2    C5 2469   0.690   3.368   0.993  0.0991 -0.3383 -0.1953
  162TMC2    C6 2470   0.705   3.500   0.966 -0.0315 -0.2776  0.6212
  162TMC2     C 2471   0.793   3.219   0.670  0.3261 -0.1664  0.1807
  162TMC2     O 2472   0.832   3.264   0.567 -0.6648 -0.0380 -0.7049
  162TMC2     H 2473   0.761   3.476   0.630  1.9161  2.0329  1.1671
  162TMC2    H1 2474   0.666   3.174   0.916 -0.9458  0.6593  0.5354
  162TMC2    H2 2475   0.705   3.573   1.046 -0.6432  0.3857  0.0164
  162TMC2    C7 2476   0.630   3.337   1.120 -0.2827 -0.8469 -0.0637
  162TMC2    C8 2477   0.704   3.658   0.789 -0.0904 -0.0945 -0.2989
  162TMC2    O1 2478   0.583   3.433   1.186 -0.3926 -0.0529 -0.0889
  162TMC2    O2 2479   0.654   3.689   0.681 -0.0783  0.5819  0.0532
  162TMC2    O5 2480   0.830   3.692   0.827  0.0665 -0.3989  0.5385
  162TMC2    H5 2481   0.859   3.661   0.916 -0.9374 -2.3282  0.1735
  163MPD2     C 2482   0.957   2.764   0.526 -0.7145 -0.3332  0.4268
  163MPD2    C1 2483   0.987   2.888   0.473 -0.3582 -1.0497 -0.1419
  163MPD2    C2 2484   0.933   2.996   0.542  0.6930  1.0292 -0.5301
  163MPD2    C3 2485   0.837   2.986   0.640  0.0543 -0.1561  0.3005
  163MPD2    C4 2486   0.803   2.863   0.686 -0.5579 -0.6525 -0.2209
  163MPD2    C5 2487   0.866   2.752   0.628  0.2890  0.1736  0.4335
  163MPD2     H 2488   0.954   3.094   0.502 -1.7787  1.7141 -0.1165
  163MPD2    H1 2489   0.722   2.842   0.755 -3.0616 -0.1085 -2.9766
  163MPD2    H2 2490   0.999   2.673   0.485  0.1495  0.6161 -0.7938
  163MPD2    H3 2491   0.833   2.658   0.671 -0.3541  0.5981  0.8771
  163MPD2     N 2492   0.778   3.094   0.708 -0.0781 -0.2097  0.6470
  163MPD2    H5 2493   0.729   3.068   0.793 -1.4380  2.3180  0.6228
  163MPD2    N1 2494   1.056   2.897   0.350  0.3929 -0.9533 -0.0722
  163MPD2    H7 2495   1.073   2.804   0.314 -1.0313 -0.2482 -2.5501
  164TCq2    C1 2496   1.772   3.486  10.725 -0.5051 -0.0697 -0.4771
  164TCq2    O2 2497   1.674   3.468  10.655 -0.4051 -0.0897  0.1874
  164TCq2    C2 2498   1.741   3.550  10.850 -0.2113 -0.1328  0.2785
  164TCq2    C3 2499   1.837   3.597  10.930 -0.7390  0.4256  0.0795
  164TCq2    C4 2500   1.804   3.634  11.054 -0.4905  0.6977 -0.0821
  164TCq2    C5 2501   1.679   3.611  11.106 -0.6222  0.0146  0.2940
  164TCq2    C6 2502   1.582   3.557  11.025 -0.1316 -0.5723 -0.4517
  164TCq2    C7 2503   1.607   3.540  10.889 -0.4541  0.3743 -0.5818
  164TCq2    C8 2504   1.453   3.512  11.071 -0.4268  0.5445 -0.1139
  164TCq2    O4 2505   1.369   3.483  10.987 -0.3651 -0.5647  0.2264
  164TCq2    C9 2506   1.906   3.709  11.128  0.2789  0.4196  0.2299
  164TCq2    O5 2507   2.021   3.664  11.117 -0.3774 -0.5688 -0.1855
  164TCq2    O6 2508   1.863   3.795  11.199  0.3671 -0.0577 -0.0098
  164TCq2    H2 2509   1.941   3.615  10.908 -0.2754 -1.8949  0.4368
  164TCq2    H3 2510   1.659   3.638  11.209 -0.3273 -1.9145  0.8653
  164TCq2    H4 2511   1.538   3.483  10.828  0.5410 -0.9240 -0.4755
  165MPD2     C 2512   2.832   0.181   1.413  0.4034 -0.0997 -0.0535
  165MPD2    C1 2513   2.691   0.182   1.423 -0.1682 -0.0218  0.2379
  165MPD2    C2 2514   2.619   0.297   1.425  0.3684 -0.3604 -0.4556
  165MPD2    C3 2515   2.690   0.420   1.420  0.4080 -0.2364  0.3389
  165MPD2    C4 2516   2.825   0.417   1.427 -0.0320  0.1996 -0.1281
  165MPD2    C5 2517   2.894   0.298   1.427  0.0420  0.0269  0.3885
  165MPD2     H 2518   2.511   0.296   1.433  0.5120 -0.2915  1.7326
  165MPD2    H1 2519   2.878   0.511   1.432 -1.4313  0.9719  0.1828
  165MPD2    H2 2520   2.896   0.095   1.403  3.0078  1.8892 -0.3903
  165MPD2    H3 2521   3.002   0.300   1.418 -0.0315 -0.5466 -0.6647
  165MPD2     N 2522   2.639   0.550   1.422  0.3869  0.2987 -0.1039
  165MPD2    H5 2523   2.712   0.620   1.430 -0.6220  1.4450 -0.9568
  165MPD2    N1 2524   2.634   0.056   1.403  0.1541  0.0960 -0.5065
  165MPD2    H7 2525   2.691   4.698   1.397 -1.6503 -1.0507 -1.4056
  166TCq2    C1 2526   2.499   0.580   1.437  0.5864  0.1964 -0.2753
  166TCq2    O2 2527   2.409   0.502   1.446 -0.5117  0.3653  0.2864
  166TCq2    C2 2528   2.463   0.724   1.424  0.2561  0.1202  0.2738
  166TCq2    C3 2529   2.333   0.762   1.445  0.8916  0.0925  0.1651
  166TCq2    C4 2530   2.307   0.897   1.418 -1.0348  0.1371  0.3267
  166TCq2    C5 2531   2.401   0.987   1.375  0.2604  1.0503 -0.1091
  166TCq2    C6 2532   2.526   0.938   1.346 -0.5189  0.5794  0.1963
  166TCq2    C7 2533   2.560   0.809   1.375  0.2395  0.1143  1.1586
  166TCq2    C8 2534   2.633   1.023   1.292 -0.4112  0.3844 -0.5215
  166TCq2    O4 2535   2.744   1.007   1.337  0.2173  0.2224 -0.3412
  166TCq2    C9 2536   2.180   0.952   1.469  0.5443 -0.1149  0.9391
  166TCq2    O5 2537   2.082   0.872   1.480  0.3098 -0.1085 -0.6374
  166TCq2    O6 2538   2.171   1.074   1.495  0.5861  0.2827  0.2001
  166TCq2    H2 2539   2.257   0.694   1.479 -0.7639  1.9166  0.1144
  166TCq2    H3 2540   2.375   1.091   1.363 -1.1497  0.7565  0.3551
  166TCq2    H4 2541   2.663   0.778   1.358 -0.4903 -2.5658  1.6219
  167TMC2    C1 2542   0.750   2.862  13.133 -0.4290 -0.0341 -0.1855
  167TMC2    C2 2543   0.724   2.887  13.267  0.0908 -0.0152 -0.4530
  167TMC2    C3 2544   0.670   2.780  13.342 -0.0652 -0.2449 -0.5953
  167TMC2    C4 2545   0.720   2.744  13.069 -0.3668  0.3026  0.5391
  167TMC2    C5 2546   0.671   2.642  13.145  0.6193 -0.2032 -0.2424
  167TMC2    C6 2547   0.639   2.656  13.280  0.7908 -0.2062  0.7706
  167TMC2     C 2548   0.768   2.981  13.046 -0.0565  0.3442 -0.2302
  167TMC2     O 2549   0.698   3.078  13.068 -0.0527 -0.5346  0.3106
  167TMC2     H 2550   0.750   2.986  13.305 -0.9598 -0.9097  2.6172
  167TMC2    H1 2551   0.713   2.744  12.961 -0.5952  0.0560  0.5567
  167TMC2    H2 2552   0.587   2.578  13.334  2.1615 -0.7763  1.2637
  167TMC2    C7 2553   0.625   2.527  13.073  0.0962  0.0412 -1.0077
  167TMC2    C8 2554   0.649   2.793  13.480 -0.0107  0.0555  0.1464
  167TMC2    O1 2555   0.514   2.475  13.094  0.6495  0.2884 -0.1109
  167TMC2    O2 2556   0.593   2.699  13.536  0.0160  0.3240 -0.6118
  167TMC2    O5 2557   0.670   2.912  13.528  0.5624  0.8230  0.0062
  167TMC2    H5 2558   0.740   2.963  13.483  1.9568  0.6923  2.0133
  168MPD2     C 2559   0.812   3.157  12.808 -0.2752 -0.2651  0.5105
  168MPD2    C1 2560   0.870   3.031  12.829 -0.0802 -0.2058  0.6897
  168MPD2    C2 2561   0.959   2.979  12.737  0.0028  0.2750 -0.2922
  168MPD2    C3 2562   0.997   3.060  12.629  0.0936  0.1693 -0.2292
  168MPD2    C4 2563   0.934   3.177  12.600  0.0430  0.0692 -0.1289
  168MPD2    C5 2564   0.838   3.223  12.694  0.4526 -0.4066 -0.0030
  168MPD2     H 2565   1.007   2.885  12.762  0.5400 -0.0241 -2.4268
  168MPD2    H1 2566   0.953   3.237  12.512 -1.6540  0.6415 -0.0898
  168MPD2    H2 2567   0.741   3.210  12.871 -0.7336 -1.2117  0.7856
  168MPD2    H3 2568   0.782   3.314  12.677  0.1492 -0.7262 -0.7390
  168MPD2     N 2569   1.096   3.013  12.538  0.1416  0.0209  0.6635
  168MPD2    H5 2570   1.101   3.070  12.455 -2.0709 -0.7338  0.0228
  168MPD2    N1 2571   0.848   2.948  12.939  0.4113  0.2329  0.5058
  168MPD2    H7 2572   0.891   2.855  12.938  0.4985  0.3026 -3.2198
  169MPD1     C 2573   2.701   2.695   9.065 -0.5464  0.5165 -0.3468
  169MPD1    C1 2574   2.652   2.573   9.108  0.3099  0.1390  0.2869
  169MPD1    C2 2575   2.742   2.470   9.120 -0.2282  0.3116 -0.0000
  169MPD1    C3 2576   2.877   2.482   9.107 -0.8051 -0.0363  0.4261
  169MPD1    C4 2577   2.916   2.611   9.079  1.0820  0.1401 -0.1719
  169MPD1    C5 2578   2.834   2.715   9.060  0.0241  0.0309 -0.2450
  169MPD1     H 2579   2.704   2.373   9.153  0.7039  0.6949  2.1813
  169MPD1    H1 2580   3.020   2.641   9.074  1.1486  0.0365  0.5331
  169MPD1    H2 2581   2.636   2.781   9.056  1.0449  1.8909  1.1059
  169MPD1    H3 2582   2.877   2.812   9.038 -0.3869  0.5399  1.2149
  169MPD1     N 2583   2.968   2.373   9.122  0.5426  0.1276 -0.5734
  169MPD1    H5 2584   2.932   2.281   9.146  0.2036  0.5782  0.6515
  169MPD1    N1 2585   2.517   2.559   9.141  0.0118 -0.1119  0.4738
  169MPD1    H6 2586   2.512   2.498   9.223 -0.2404  1.6290  1.7415
  169MPD1    H7 2587   2.478   2.651   9.158  0.1046  0.5796 -3.0024
  170MPD1     C 2588   1.656   0.112  12.957 -0.7927  0.6374 -1.4837
  170MPD1    C1 2589   1.568   0.122  13.063 -0.1023  0.4304  0.5087
  170MPD1    C2 2590   1.601   0.202  13.165  0.5387  0.3981  0.2638
  170MPD1    C3 2591   1.735   0.241  13.174  1.3096  0.6801 -0.6102
  170MPD1    C4 2592   1.828   0.213  13.077  0.3068 -0.4570  0.0931
  170MPD1    C5 2593   1.786   0.152  12.964 -0.1937 -1.0039 -0.3324
  170MPD1     H 2594   1.532   0.212  13.247  0.8927  3.7548  0.1454
  170MPD1    H1 2595   1.933   0.243  13.080 -0.1085  0.9872  0.0419
  170MPD1    H2 2596   1.628   0.060  12.866 -0.1987  0.7175 -1.7136
  170MPD1    H3 2597   1.865   0.145  12.891 -1.1850  0.1865 -1.5120
  170MPD1     N 2598   1.775   0.323  13.282  0.1265  0.0707  0.5475
  170MPD1    H5 2599   1.709   0.328  13.359 -2.2765  2.3916 -1.6373
  170MPD1    N1 2600   1.434   0.081  13.047 -0.3884  0.5947 -0.5893
  170MPD1    H6 2601   1.390   0.055  13.135  0.0753  1.3419 -0.1449
  170MPD1    H7 2602   1.415   0.000  12.988 -0.8386  0.6979 -0.5894
  171MPD1     C 2603   0.196   0.460  15.452 -0.3551 -0.6061 -0.2068
  171MPD1    C1 2604   0.296   0.483  15.355  0.0150  0.1188 -0.0990
  171MPD1    C2 2605   0.431   0.496  15.400 -0.0035  0.0568  0.2485
  171MPD1    C3 2606   0.469   0.481  15.534 -0.3023 -0.6447  0.5901
  171MPD1    C4 2607   0.366   0.451  15.624  0.0274 -0.3059 -0.0175
  171MPD1    C5 2608   0.233   0.456  15.580  0.2136 -0.2269  0.2338
  171MPD1     H 2609   0.503   0.529  15.326  0.6592  0.5903  1.1268
  171MPD1    H1 2610   0.388   0.450  15.731 -2.0163  1.4038  0.4099
  171MPD1    H2 2611   0.092   0.443  15.427 -0.0381 -1.2302 -1.1047
  171MPD1    H3 2612   0.155   0.438  15.654 -0.3961 -0.9765 -0.5955
  171MPD1     N 2613   0.599   0.497  15.586 -0.5961 -0.4948  0.0398
  171MPD1    H5 2614   0.617   0.466  15.681  1.4588 -1.0940 -0.5410
  171MPD1    N1 2615   0.252   0.521  15.226  0.4534  0.4010 -0.0497
  171MPD1    H6 2616   0.198   0.442  15.193  1.3885  0.2483 -1.2077
  171MPD1    H7 2617   0.333   0.517  15.164  1.6507 -1.9135  1.6438
  172MPD1     C 2618   4.230   4.723   0.187  0.3556  0.1805 -0.1799
  172MPD1    C1 2619   4.147   0.106   0.203 -0.1350  0.1688 -0.4906
  172MPD1    C2 2620   4.207   0.217   0.247  0.1298  0.3525 -0.6517
  172MPD1    C3 2621   4.334   0.225   0.291  0.2234  0.5398 -0.5783
  172MPD1    C4 2622   4.405   0.109   0.294  0.3275 -0.1249  0.1162
  172MPD1    C5 2623   4.360   4.725   0.232  0.3236 -0.2818 -0.1019
  172MPD1     H 2624   4.155   0.313   0.249 -0.7983 -0.2041  2.1146
  172MPD1    H1 2625   4.508   0.108   0.329  0.7983 -1.5162 -1.3479
  172MPD1    H2 2626   4.186   4.628   0.156 -0.6390  0.6369 -0.1718
  172MPD1    H3 2627   4.421   4.635   0.237  1.2138  0.2315 -1.6185
  172MPD1     N 2628   4.403   0.345   0.327  0.2769  0.3965 -0.1227
  172MPD1    H5 2629   4.498   0.326   0.356  1.1209  1.5848 -2.0684
  172MPD1    N1 2630   4.012   0.118   0.147  0.0646  0.2033 -0.1465
  172MPD1    H6 2631   3.960   0.037   0.181 -0.7121  1.1520  0.9106
  172MPD1    H7 2632   3.958   0.197   0.181 -0.4947  0.7900 -2.4327
  173MPD1     C 2633   1.389   0.822  14.100 -0.5107  1.1501  0.5417
  173MPD1    C1 2634   1.268   0.787  14.052 -0.0533 -0.0558  0.5439
  173MPD1    C2 2635   1.188   0.705  14.136 -0.4752  0.1400 -0.1741
  173MPD1    C3 2636   1.223   0.687  14.270 -0.1484  0.4099  0.2330
  173MPD1    C4 2637   1.341   0.743  14.324  0.6621 -0.3646 -0.4327
  173MPD1    C5 2638   1.427   0.800  14.230  0.0627  0.0966  0.2654
  173MPD1     H 2639   1.094   0.664  14.100 -1.3219  2.9875 -1.2086
  173MPD1    H1 2640   1.365   0.738  14.430 -1.7108  2.2281  0.2186
  173MPD1    H2 2641   1.460   0.875  14.037 -0.4443 -0.7330 -0.9553
  173MPD1    H3 2642   1.522   0.838  14.267 -0.8362  1.0078  1.6320
  173MPD1     N 2643   1.129   0.606  14.342  0.1719  0.2669  0.1637
  173MPD1    H5 2644   1.043   0.584  14.294 -0.3644  3.7863 -0.4596
  173MPD1    N1 2645   1.237   0.810  13.914  0.5360  0.1644 -0.9472
  173MPD1    H6 2646   1.138   0.789  13.902  0.3948  0.7361 -0.7985
  173MPD1    H7 2647   1.256   0.905  13.883  1.0311  0.5730  0.5927
  174MPD1     C 2648   1.040   4.601  13.938 -0.0700 -0.3729 -0.7361
  174MPD1    C1 2649   0.962   4.571  14.044  0.6965 -0.0153  0.6934
  174MPD1    C2 2650   0.951   4.668  14.138 -0.2346 -0.8764  0.9104
  174MPD1    C3 2651   1.035   0.054  14.145  0.0639  0.1670 -0.8245
  174MPD1    C4 2652   1.113   0.085  14.041  0.0560 -0.4726 -0.1357
  174MPD1    C5 2653   1.103   4.721  13.937  0.3324  0.6861  0.1485
  174MPD1     H 2654   0.870   4.643  14.207  0.0884  0.2615  1.7026
  174MPD1    H1 2655   1.153   0.184  14.019  0.7876 -0.9283 -0.8564
  174MPD1    H2 2656   1.038   4.541  13.848  2.2715 -1.7100  0.1105
  174MPD1    H3 2657   1.164   0.019  13.851 -0.3099  1.6214 -0.0381
  174MPD1     N 2658   1.034   0.147  14.251 -0.3581  0.5011 -0.2134
  174MPD1    H5 2659   1.099   0.223  14.233  1.7085 -1.3515 -0.5858
  174MPD1    N1 2660   0.869   4.465  14.034 -0.4353  0.3102  0.1805
  174MPD1    H6 2661   0.836   4.426  14.122  0.8297  0.1629  0.5768
  174MPD1    H7 2662   0.909   4.383  13.989  0.0924  1.1116 -0.8131
  175MPD1     C 2663   4.509   1.293  15.307 -0.5954 -0.1231  0.1480
  175MPD1    C1 2664   4.600   1.268  15.411  0.1209 -0.0885 -0.1585
  175MPD1    C2 2665   4.553   1.255  15.545 -0.3391  0.2506  0.6304
  175MPD1    C3 2666   4.417   1.242  15.567  0.3348 -0.2055 -0.4830
  175MPD1    C4 2667   4.328   1.272  15.467  0.0855  0.0106 -0.1351
  175MPD1    C5 2668   4.373   1.297  15.337 -0.2265  0.1029  0.4346
  175MPD1     H 2669   4.629   1.236  15.620 -0.7340  0.5506  1.1033
  175MPD1    H1 2670   4.221   1.280  15.475 -0.1987 -3.5784 -0.1114
  175MPD1    H2 2671   4.537   1.328  15.208  2.2451 -2.1891  0.2372
  175MPD1    H3 2672   4.319   1.361  15.268 -0.1261 -0.5681 -0.2679
  175MPD1     N 2673   4.371   1.229  15.701 -0.2124  0.3898  0.7087
  175MPD1    H5 2674   4.269   1.236  15.704 -0.0748  1.7356  2.0717
  175MPD1    N1 2675   0.012   1.288  15.386 -0.1493 -0.7909 -0.4300
  175MPD1    H6 2676   0.030   1.283  15.286  2.3368 -1.5079  0.0692
  175MPD1    H7 2677   0.077   1.237  15.445 -2.2805 -1.2217  1.5360
  176MPD1     C 2678   0.782   2.926  17.614  0.4409  0.6711  0.7087
  176MPD1    C1 2679   0.711   3.043  17.638 -0.0318  0.7283  0.1298
  176MPD1    C2 2680   0.771   3.154  17.578 -0.8058  0.1134 -0.2418
  176MPD1    C3 2681   0.888   3.145  17.499 -0.3479  0.5481 -0.4531
  176MPD1    C4 2682   0.941   3.021  17.469 -0.5298 -0.7368  0.0303
  176MPD1    C5 2683   0.890   2.911  17.529 -0.4705  0.5118  0.7877
  176MPD1     H 2684   0.725   3.248  17.604  1.6016  2.1774 -3.4579
  176MPD1    H1 2685   1.037   3.006  17.420 -0.7198 -2.9566  0.3296
  176MPD1    H2 2686   0.746   2.846  17.679 -0.8627  0.4554 -0.2827
  176MPD1    H3 2687   0.944   2.817  17.524  1.0310  1.4615 -1.0088
  176MPD1     N 2688   0.939   3.266  17.452 -0.1086 -0.1471  0.6469
  176MPD1    H5 2689   0.893   3.349  17.488  0.7649  1.2134 -1.3941
  176MPD1    N1 2690   0.624   3.055   0.037 -0.4332 -0.1820  0.2164
  176MPD1    H6 2691   0.568   2.971   0.053 -0.8882 -0.3007 -2.0607
  176MPD1    H7 2692   0.559   3.130   0.019  1.3471  2.2517  3.7785
  177MPD1     C 2693   0.236   2.265  10.656  0.7574 -0.1991  0.1725
  177MPD1    C1 2694   0.262   2.303  10.520 -0.4684  0.2341 -0.1582
  177MPD1    C2 2695   0.160   2.382  10.463  0.0647 -0.0260  0.2448
  177MPD1    C3 2696   0.037   2.407  10.523  0.0768 -0.1066 -0.0705
  177MPD1    C4 2697   0.019   2.379  10.656  0.7345 -0.0211  0.0911
  177MPD1    C5 2698   0.123   2.310  10.717 -0.2028 -0.6016  0.1009
  177MPD1     H 2699   0.167   2.409  10.359  4.2862 -1.3479  0.1892
  177MPD1    H1 2700   4.661   2.415  10.713  0.1991 -0.0259 -0.7065
  177MPD1    H2 2701   0.309   2.215  10.718  1.3120 -0.1284 -0.4278
  177MPD1    H3 2702   0.116   2.290  10.823 -1.3596  1.9615  0.5280
  177MPD1     N 2703   4.670   2.466  10.435  0.1348  0.5382  0.2794
  177MPD1    H5 2704   4.717   2.486  10.347  0.5430 -0.5600  0.2404
  177MPD1    N1 2705   0.386   2.280  10.458  0.2117  0.3124  0.6444
  177MPD1    H6 2706   0.436   2.202  10.499 -0.2827 -1.2012 -1.6531
  177MPD1    H7 2707   0.385   2.269  10.357 -0.9029  4.0295  0.2307
  178MPD1     C 2708   1.718   3.933   0.263  0.5411  0.1551 -0.3028
  178MPD1    C1 2709   1.821   4.021   0.315  0.7535 -0.0592 -0.7631
  178MPD1    C2 2710   1.903   4.082   0.220  0.1504  0.0181  0.7302
  178MPD1    C3 2711   1.900   4.035   0.084  0.1137 -0.7208  0.1952
  178MPD1    C4 2712   1.805   3.949   0.040 -0.2316  0.1511 -0.0565
  178MPD1    C5 2713   1.708   3.897   0.128 -1.0313  0.3003  0.0106
  178MPD1     H 2714   1.956   4.173   0.245 -0.4721  0.2515  1.2030
  178MPD1    H1 2715   1.796   3.927  17.642 -3.1601 -1.7055  0.5702
  178MPD1    H2 2716   1.642   3.901   0.334  2.8130 -0.8716  1.6599
  178MPD1    H3 2717   1.623   3.838   0.094 -0.5191 -1.1808  1.3016
  178MPD1     N 2718   1.984   4.095  17.692 -0.5912  0.1564  0.5109
  178MPD1    H5 2719   1.971   4.065  17.595 -2.1730  2.7803 -0.0667
  178MPD1    N1 2720   1.818   4.068   0.443 -0.5197  0.2605 -0.5807
  178MPD1    H6 2721   1.784   4.011   0.520  2.0216 -0.9857 -0.3836
  178MPD1    H7 2722   1.914   4.094   0.467 -1.0240  3.0239 -1.5339
  179MPD1     C 2723   0.581   2.656  15.962 -0.3962 -0.3766 -0.6905
  179MPD1    C1 2724   0.554   2.537  15.890 -0.5186 -0.3213 -0.6959
  179MPD1    C2 2725   0.670   2.474  15.834 -0.3875 -0.1208  0.1173
  179MPD1    C3 2726   0.801   2.518  15.856 -0.0689 -0.2480  0.3649
  179MPD1    C4 2727   0.813   2.633  15.938 -0.0416 -0.0252  0.3906
  179MPD1    C5 2728   0.707   2.702  15.980 -0.0488  0.1938  0.0121
  179MPD1     H 2729   0.658   2.392  15.764 -2.4658  0.6538 -0.4143
  179MPD1    H1 2730   0.911   2.671  15.966 -0.7159  2.0494 -0.0942
  179MPD1    H2 2731   0.504   2.713  16.014  1.7766  2.3031 -0.4038
  179MPD1    H3 2732   0.715   2.793  16.038  0.2886 -1.4483  2.5450
  179MPD1     N 2733   0.914   2.455  15.806  0.3869  0.1730  0.4165
  179MPD1    H5 2734   1.005   2.491  15.831 -0.4594  2.2736  0.4102
  179MPD1    N1 2735   0.424   2.503  15.844 -0.2781  0.4323 -0.3983
  179MPD1    H6 2736   0.410   2.405  15.823 -0.3608  0.2663  0.4186
  179MPD1    H7 2737   0.358   2.542  15.912  0.9464 -1.8647  2.0749
  180MPD1     C 2738   0.920   3.877  13.976 -0.2572  0.1129 -0.3013
  180MPD1    C1 2739   1.004   3.798  13.896  0.2585  0.0326  0.4081
  180MPD1    C2 2740   1.102   3.720  13.951  0.4284  0.6950  0.0708
  180MPD1    C3 2741   1.127   3.724  14.086 -0.4732  0.4368 -0.1111
  180MPD1    C4 2742   1.045   3.797  14.171 -0.5930 -0.1697 -0.6453
  180MPD1    C5 2743   0.947   3.874  14.113 -0.1293  0.4004 -0.4273
  180MPD1     H 2744   1.163   3.655  13.888 -2.1128 -1.6871  0.0793
  180MPD1    H1 2745   1.060   3.802  14.278 -2.7994  0.6639 -0.3635
  180MPD1    H2 2746   0.842   3.942  13.938 -0.4215 -0.2496 -0.5896
  180MPD1    H3 2747   0.899   3.943  14.181  2.1653 -0.9124  2.5388
  180MPD1     N 2748   1.241   3.648  14.132  1.0224  0.2154 -0.1724
  180MPD1    H5 2749   1.300   3.605  14.062  0.4987 -0.3647 -0.2642
  180MPD1    N1 2750   0.968   3.790  13.763 -0.1757  0.1878  0.1567
  180MPD1    H6 2751   0.935   3.879  13.726  0.8877  0.1040 -0.9694
  180MPD1    H7 2752   1.033   3.749  13.697  0.2248 -0.8066  1.1710
  181MPD1     C 2753   2.415   0.034   9.514  0.1387 -0.2743  0.3040
  181MPD1    C1 2754   2.493   0.075   9.622 -0.4822 -0.0239 -0.0586
  181MPD1    C2 2755   2.618   0.131   9.597  0.8274  0.3189 -0.2740
  181MPD1    C3 2756   2.672   0.141   9.465  0.0626 -0.0230 -0.3354
  181MPD1    C4 2757   2.594   0.094   9.356 -0.1777  0.5376  0.3032
  181MPD1    C5 2758   2.470   0.047   9.387 -0.2403 -0.5524 -0.2162
  181MPD1     H 2759   2.664   0.173   9.686  0.4044  1.5773 -0.6506
  181MPD1    H1 2760   2.626   0.082   9.253  0.5399  2.7871  0.2415
  181MPD1    H2 2761   2.315   4.719   9.528 -0.2228  0.4127 -0.2583
  181MPD1    H3 2762   2.406   0.008   9.309 -1.5767  1.5791 -0.1620
  181MPD1     N 2763   2.797   0.203   9.431 -0.0987  0.0010 -0.4091
  181MPD1    H5 2764   2.831   0.187   9.337  0.6331  2.4696 -0.5913
  181MPD1    N1 2765   2.446   0.074   9.758  0.0990  0.2423  0.2756
  181MPD1    H6 2766   2.402   4.714   9.785  0.3876 -0.0560 -0.2016
  181MPD1    H7 2767   2.526   0.087   9.819 -0.3363 -0.9084  1.0842
  182MPD1     C 2768   4.614   4.712   1.562  0.3320  0.4125  0.0573
  182MPD1    C1 2769   4.642   4.645   1.442 -1.4518  1.0233  0.3918
  182MPD1    C2 2770   4.542   4.637   1.346  0.3243 -0.2257 -0.5939
  182MPD1    C3 2771   4.422   4.688   1.376  0.5471  0.8072  0.1135
  182MPD1    C4 2772   4.396   0.026   1.499  0.3711  0.1760  0.4703
  182MPD1    C5 2773   4.491   0.035   1.596 -0.0066  0.3912  0.0504
  182MPD1     H 2774   4.568   4.580   1.258 -0.2023 -1.1761 -0.1404
  182MPD1    H1 2775   4.294   0.048   1.526  1.1043  3.0547  0.9014
  182MPD1    H2 2776   4.697   4.721   1.631  0.8196  2.2601 -0.7784
  182MPD1    H3 2777   4.472   0.100   1.680 -2.9171 -0.9360  0.4474
  182MPD1     N 2778   4.312   4.676   1.288  0.0337 -0.0905  0.2452
  182MPD1    H5 2779   4.226   4.716   1.326 -0.4503  1.1251 -2.1573
  182MPD1    N1 2780   0.043   4.589   1.410 -0.2968  0.0314  0.0494
  182MPD1    H6 2781   0.098   4.565   1.492  0.1563  0.3963 -0.1520
  182MPD1    H7 2782   0.027   4.497   1.369 -0.4774  1.1933 -2.5252
  183MPD1     C 2783   3.726   4.311   8.206 -0.0631  0.1800  0.2399
  183MPD1    C1 2784   3.598   4.320   8.259 -0.0574 -0.2111  0.4563
  183MPD1    C2 2785   3.585   4.391   8.376  0.1658  0.3834  0.8736
  183MPD1    C3 2786   3.680   4.471   8.425  0.3200  0.2631  0.4163
  183MPD1    C4 2787   3.806   4.468   8.366  0.1700  0.1791  0.9170
  183MPD1    C5 2788   3.824   4.396   8.252 -0.3460  0.7771 -0.2870
  183MPD1     H 2789   3.484   4.393   8.416  0.5971 -0.1897  2.0160
  183MPD1    H1 2790   3.887   4.531   8.401 -0.2576  0.2283  1.8054
  183MPD1    H2 2791   3.749   4.253   8.117 -4.0870 -1.4687  0.2710
  183MPD1    H3 2792   3.919   4.397   8.200 -0.8575 -1.1390 -1.2664
  183MPD1     N 2793   3.647   4.548   8.540 -0.0284 -0.5883  0.4854
  183MPD1    H5 2794   3.553   4.537   8.578 -0.6041  0.4214 -0.6680
  183MPD1    N1 2795   3.498   4.240   8.200  0.2554  0.3886 -0.4118
  183MPD1    H6 2796   3.494   4.240   8.098  0.9686  1.4697 -0.4349
  183MPD1    H7 2797   3.406   4.267   8.235  1.6178  1.5984  2.2086
  184MPD1     C 2798   4.723   2.062  10.389  0.6370  0.0473  0.1099
  184MPD1    C1 2799   4.662   2.069  10.266 -0.5124  1.0793  0.5178
  184MPD1    C2 2800   4.539   2.128  10.246 -0.3760  0.4294  0.2359
  184MPD1    C3 2801   4.462   2.149  10.361  0.7322  0.2367 -0.0343
  184MPD1    C4 2802   4.519   2.131  10.486  0.0447  0.4390  0.3840
  184MPD1    C5 2803   4.644   2.087  10.498 -0.2015 -0.0710  0.1008
  184MPD1     H 2804   4.495   2.151  10.150  2.2960 -0.1274 -1.1137
  184MPD1    H1 2805   4.457   2.146  10.574  2.1286  0.9390  1.7763
  184MPD1    H2 2806   0.100   2.034  10.406  0.1615 -3.1452 -2.3280
  184MPD1    H3 2807   4.690   2.077  10.596 -0.8829  0.1170  0.4407
  184MPD1     N 2808   4.333   2.197  10.369 -0.4921 -0.1653 -0.0804
  184MPD1    H5 2809   4.302   2.200  10.465 -2.8783 -3.8877 -0.7519
  184MPD1    N1 2810   0.015   2.046  10.152 -0.2889  0.9801 -0.4956
  184MPD1    H6 2811   0.099   1.990  10.163 -0.7718 -0.3007 -3.2694
  184MPD1    H7 2812   4.691   2.032  10.065 -1.7990 -0.2005  0.5730
  185MPD1     C 2813   3.872   1.966  11.029 -0.6801 -0.2591 -0.5819
  185MPD1    C1 2814   3.787   2.062  10.987 -0.0270 -0.6666  0.1146
  185MPD1    C2 2815   3.816   2.123  10.861  0.3294 -0.1890 -0.4768
  185MPD1    C3 2816   3.942   2.110  10.807 -0.4369 -0.4405  0.4721
  185MPD1    C4 2817   4.025   2.012  10.857 -0.0429 -0.6721 -0.8849
  185MPD1    C5 2818   3.990   1.938  10.960 -0.5665 -0.0061 -0.0489
  185MPD1     H 2819   3.757   2.205  10.822 -1.2156 -0.9115  0.3404
  185MPD1    H1 2820   4.114   1.973  10.809 -0.5527 -1.9159 -0.8106
  185MPD1    H2 2821   3.852   1.903  11.115  1.2301 -0.6123 -0.4102
  185MPD1    H3 2822   4.056   1.858  10.990  0.0648 -0.1447 -1.7888
  185MPD1     N 2823   3.976   2.169  10.683  0.4718  0.9672 -0.5868
  185MPD1    H5 2824   4.073   2.174  10.655  1.4659  1.4748  2.9122
  185MPD1    N1 2825   3.661   2.089  11.046 -0.6663  0.6212 -0.4176
  185MPD1    H6 2826   3.674   2.075  11.146 -2.4302 -1.1329 -0.4430
  185MPD1    H7 2827   3.622   2.183  11.038  0.8076  1.2375 -0.2046
  186MPD1     C 2828   2.551   2.608  15.582 -0.3168 -0.1926 -0.3614
  186MPD1    C1 2829   2.416   2.585  15.626 -0.6103 -0.1660 -0.3988
  186MPD1    C2 2830   2.355   2.681  15.708 -0.1981 -0.3828  1.0510
  186MPD1    C3 2831   2.430   2.781  15.765  0.9558 -0.2135  0.0550
  186MPD1    C4 2832   2.559   2.793  15.729 -0.4131  0.9169  0.0382
  186MPD1    C5 2833   2.612   2.714  15.636 -0.0995  0.4722  0.2250
  186MPD1     H 2834   2.248   2.669  15.724 -0.1787  1.3651  2.4407
  186MPD1    H1 2835   2.625   2.873  15.759 -1.2867  2.5776 -2.4144
  186MPD1    H2 2836   2.603   2.537  15.519  0.6462  0.3126 -0.1406
  186MPD1    H3 2837   2.714   2.734  15.605  0.9003 -2.1574  1.8028
  186MPD1     N 2838   2.371   2.878  15.849  0.6544 -0.2815  0.4413
  186MPD1    H5 2839   2.428   2.960  15.871  1.4573 -0.3516 -1.4140
  186MPD1    N1 2840   2.338   2.488  15.557  0.0355  0.6818 -0.0566
  186MPD1    H6 2841   2.262   2.462  15.620 -0.5754 -0.0439 -1.0904
  186MPD1    H7 2842   2.401   2.410  15.537  0.1384  1.1880 -1.7373
  187MPD1     C 2843   1.060   4.471   0.428  0.1196  0.4931  0.1582
  187MPD1    C1 2844   1.100   4.353   0.377  0.0217 -0.2624  0.1150
  187MPD1    C2 2845   1.098   4.347   0.241  0.5273 -0.1770  0.1131
  187MPD1    C3 2846   1.101   4.464   0.161 -0.2813 -0.0512 -0.2877
  187MPD1    C4 2847   1.077   4.588   0.222 -0.1128 -0.4042  0.1578
  187MPD1    C5 2848   1.052   4.582   0.355  0.0494 -0.5030  0.3597
  187MPD1     H 2849   1.119   4.249   0.200 -0.5173  1.5063 -4.4870
  187MPD1    H1 2850   1.075   4.680   0.166 -1.9077 -0.4092  0.2203
  187MPD1    H2 2851   1.038   4.475   0.534 -0.6900  1.5417 -0.0574
  187MPD1    H3 2852   1.022   4.671   0.409  0.6429 -1.0267  1.5426
  187MPD1     N 2853   1.119   4.460   0.023 -0.0970 -0.1707 -0.4743
  187MPD1    H5 2854   1.125   4.548  17.681 -3.6612  0.1308 -0.3304
  187MPD1    N1 2855   1.113   4.234   0.459 -0.4937  0.2154 -0.1430
  187MPD1    H6 2856   1.125   4.255   0.558  2.0768  1.4051 -0.6983
  187MPD1    H7 2857   1.174   4.163   0.420 -1.3861 -1.1540  0.9715
  188MPD1     C 2858   0.543   4.581  10.016 -0.1075  0.2767 -0.1902
  188MPD1    C1 2859   0.488   4.531   9.902 -0.1147 -0.0638 -0.9273
  188MPD1    C2 2860   0.507   4.399   9.875 -0.2396 -0.2891 -0.4362
  188MPD1    C3 2861   0.602   4.320   9.948  0.3768 -0.7986  0.0814
  188MPD1    C4 2862   0.679   4.382  10.045 -0.0459 -0.4727  0.3627
  188MPD1    C5 2863   0.647   4.511  10.076 -0.2865 -0.5588  0.1984
  188MPD1     H 2864   0.471   4.363   9.779  0.1227 -0.1083 -0.6382
  188MPD1    H1 2865   0.748   4.332  10.113  2.3860  0.6688 -1.2457
  188MPD1    H2 2866   0.531   4.688  10.029  0.1686  0.2733  0.0875
  188MPD1    H3 2867   0.691   4.556  10.164 -1.5078 -1.6912  1.3766
  188MPD1     N 2868   0.630   4.186   9.916 -0.2974 -0.4285 -0.0613
  188MPD1    H5 2869   0.717   4.158   9.960 -0.7112 -1.7504 -0.0788
  188MPD1    N1 2870   0.379   4.602   9.840  0.7176 -0.4206  0.8434
  188MPD1    H6 2871   0.354   4.575   9.745 -1.5737  0.7877  1.0874
  188MPD1    H7 2872   0.405   4.699   9.826  0.4514 -0.4937 -0.1939
  189MPD1     C 2873   2.560   0.300   0.684 -0.1772  0.9824 -0.0492
  189MPD1    C1 2874   2.504   0.212   0.594  0.1132 -0.4972 -0.1743
  189MPD1    C2 2875   2.399   0.263   0.517  0.5658  0.3184  0.1448
  189MPD1    C3 2876   2.332   0.382   0.544 -0.4705 -0.5510  0.6785
  189MPD1    C4 2877   2.377   0.452   0.655  1.5481 -0.0256  0.1975
  189MPD1    C5 2878   2.489   0.418   0.721 -0.0316  0.1372  0.2449
  189MPD1     H 2879   2.359   0.198   0.441 -3.4368 -0.5294  2.9590
  189MPD1    H1 2880   2.326   0.546   0.675  0.2189 -0.7293  0.0666
  189MPD1    H2 2881   2.662   0.287   0.719 -0.1784 -0.4764 -0.5927
  189MPD1    H3 2882   2.527   0.489   0.793  1.9965  0.6839 -1.3588
  189MPD1     N 2883   2.228   0.414   0.463 -0.4589  0.2558 -0.2154
  189MPD1    H5 2884   2.210   0.355   0.383 -1.0495  1.9881 -1.3658
  189MPD1    N1 2885   2.578   0.107   0.547  0.6332  0.5579 -0.3812
  189MPD1    H6 2886   2.527   0.046   0.483  1.2537  0.4335 -0.7573
  189MPD1    H7 2887   2.635   0.054   0.613 -0.7143  0.3988  0.6585
  190MPD1     C 2888   2.137   0.186  15.421  0.3508 -0.4671 -0.4397
  190MPD1    C1 2889   2.195   0.088  15.340  0.6993  0.0395  0.0286
  190MPD1    C2 2890   2.246   4.698  15.398 -0.6175 -1.0696 -0.7001
  190MPD1    C3 2891   2.236   4.678  15.537 -0.1304 -0.2519 -0.6624
  190MPD1    C4 2892   2.168   0.041  15.608  0.0887  0.9139  0.1653
  190MPD1    C5 2893   2.105   0.149  15.549  0.7267  0.4086  0.1515
  190MPD1     H 2894   2.299   4.626  15.337 -1.1558 -0.4661 -1.8928
  190MPD1    H1 2895   2.163   0.040  15.716 -0.9020  1.2170  0.1301
  190MPD1    H2 2896   2.096   0.277  15.379  1.6812  0.6339  0.6272
  190MPD1    H3 2897   2.043   0.218  15.606 -1.2985 -2.8173  1.8851
  190MPD1     N 2898   2.280   4.558  15.587 -0.2558 -0.2554 -0.1735
  190MPD1    H5 2899   2.332   4.502  15.521  0.6651  1.1821 -0.6682
  190MPD1    N1 2900   2.203   0.108  15.207  0.4353 -0.6630  0.6370
  190MPD1    H6 2901   2.262   0.048  15.149  0.3818  0.8149 -0.9319
  190MPD1    H7 2902   2.200   0.204  15.174  2.5622 -0.2633  1.6238
  191MPD1     C 2903   1.095   0.606  12.953 -0.5720  0.0609  0.4341
  191MPD1    C1 2904   1.209   0.633  12.871  0.6550  0.9885 -0.0920
  191MPD1    C2 2905   1.207   0.743  12.785 -0.1205 -0.1925 -0.0857
  191MPD1    C3 2906   1.091   0.810  12.772  0.8921  0.3204  0.2482
  191MPD1    C4 2907   0.974   0.778  12.838 -0.3212 -0.1386 -0.8982
  191MPD1    C5 2908   0.978   0.673  12.929  0.3590  0.6360 -0.0807
  191MPD1     H 2909   1.293   0.751  12.720 -1.7101 -0.5906 -2.2361
  191MPD1    H1 2910   0.875   0.821  12.825 -0.0976  0.0884 -1.8485
  191MPD1    H2 2911   1.102   0.536  13.036  0.2231 -2.3579 -1.6883
  191MPD1    H3 2912   0.894   0.667  12.997  0.1177 -2.8152 -0.6797
  191MPD1     N 2913   1.094   0.905  12.663 -0.0561  0.0643 -0.5600
  191MPD1    H5 2914   1.182   0.913  12.612  0.2427  2.5893  0.3557
  191MPD1    N1 2915   1.321   0.560  12.906 -0.0899  0.2007 -0.4710
  191MPD1    H6 2916   1.376   0.540  12.823 -0.5345 -0.7717 -0.5333
  191MPD1    H7 2917   1.299   0.468  12.942 -0.7624  0.5637  0.0509
  192MPD1     C 2918   0.725   1.870  12.244 -0.5868 -0.0729 -0.2502
  192MPD1    C1 2919   0.767   1.837  12.373 -0.1321  0.1113 -0.4331
  192MPD1    C2 2920   0.800   1.705  12.398  0.4880  0.6338 -0.4720
  192MPD1    C3 2921   0.790   1.601  12.302  0.3158  0.6031 -0.4048
  192MPD1    C4 2922   0.736   1.636  12.183 -0.4201 -0.2782  0.3867
  192MPD1    C5 2923   0.704   1.766  12.155  0.7855  0.2068  0.0192
  192MPD1     H 2924   0.837   1.676  12.496 -1.6310  1.1397  0.4871
  192MPD1    H1 2925   0.735   1.565  12.101  0.6435 -1.4048  1.3413
  192MPD1    H2 2926   0.703   1.969  12.206 -0.5805  0.2459  0.5633
  192MPD1    H3 2927   0.670   1.782  12.053 -0.0169 -1.7812 -0.0314
  192MPD1     N 2928   0.823   1.462  12.319  0.4783  0.0707  0.2259
  192MPD1    H5 2929   0.800   1.406  12.238  0.0064  1.8215 -0.8487
  192MPD1    N1 2930   0.784   1.935  12.471 -0.2628  0.2386  0.4887
  192MPD1    H6 2931   0.881   1.930  12.502 -0.9570  3.3234  3.2063
  192MPD1    H7 2932   0.762   2.029  12.441  1.9215  0.7006  0.3669
  193MPD1     C 2933   0.206   1.148  16.592  0.3146 -0.1267  0.4090
  193MPD1    C1 2934   0.308   1.081  16.523 -0.2459 -0.0559  0.5976
  193MPD1    C2 2935   0.439   1.111  16.557 -0.0017 -0.3403 -0.0305
  193MPD1    C3 2936   0.460   1.199  16.665 -0.0219  0.0090 -0.0848
  193MPD1    C4 2937   0.355   1.267  16.725  0.5415  0.4478 -0.6999
  193MPD1    C5 2938   0.230   1.240  16.690  0.0597 -0.3171 -0.2159
  193MPD1     H 2939   0.521   1.064  16.506  0.0295  1.1553 -1.3615
  193MPD1    H1 2940   0.376   1.338  16.805  1.0100  1.4444 -1.7032
  193MPD1    H2 2941   0.103   1.145  16.558 -0.0532  2.2589  1.3793
  193MPD1    H3 2942   0.146   1.293  16.734 -0.6619  0.3922 -2.4694
  193MPD1     N 2943   0.586   1.242  16.709  0.3251 -0.0853  0.1181
  193MPD1    H5 2944   0.588   1.306  16.788  0.4887 -2.1735  1.8178
  193MPD1    N1 2945   0.274   1.007  16.414 -0.0016 -0.5525  0.0333
  193MPD1    H6 2946   0.178   0.975  16.422 -0.4819  0.8204 -0.1448
  193MPD1    H7 2947   0.332   0.924  16.405 -0.3929 -0.9698  1.4305
  194MPD1     C 2948   3.008   3.436  16.593  0.2972  0.4038 -0.0957
  194MPD1    C1 2949   2.978   3.312  16.545  0.0782  0.0971 -0.3892
  194MPD1    C2 2950   3.062   3.208  16.575 -0.2622 -0.4598  0.5116
  194MPD1    C3 2951   3.183   3.229  16.642 -0.7600 -0.3958 -0.3714
  194MPD1    C4 2952   3.220   3.360  16.659  0.4672 -1.0760  0.0495
  194MPD1    C5 2953   3.132   3.470  16.638 -0.2486 -0.1931 -0.0185
  194MPD1     H 2954   3.030   3.115  16.530 -1.8636 -0.3238  1.3493
  194MPD1    H1 2955   3.321   3.373  16.695 -0.2132  1.0987  1.2160
  194MPD1    H2 2956   2.935   3.515  16.580  1.6217  1.4151 -1.2375
  194MPD1    H3 2957   3.164   3.572  16.659  2.0104 -0.4699 -2.1024
  194MPD1     N 2958   3.269   3.135  16.687 -0.0805 -0.7382 -0.3103
  194MPD1    H5 2959   3.352   3.151  16.743 -0.6637  0.2612  0.2685
  194MPD1    N1 2960   2.851   3.283  16.502  0.1113 -0.1532  0.1825
  194MPD1    H6 2961   2.853   3.227  16.417  2.6614 -0.8380  0.7021
  194MPD1    H7 2962   2.812   3.369  16.466 -0.7114 -0.5297  0.1736
  195MPD1     C 2963   0.824   0.529  17.520 -0.1601 -0.5513  0.5706
  195MPD1    C1 2964   0.728   0.508  17.613 -0.9009  0.1022  0.1631
  195MPD1    C2 2965   0.710   0.380  17.656  0.0188 -0.4224  0.3293
  195MPD1    C3 2966   0.800   0.281  17.614  0.0601  0.3948 -0.2754
  195MPD1    C4 2967   0.904   0.305  17.529 -0.6117 -0.3260  0.5001
  195MPD1    C5 2968   0.914   0.432  17.486 -0.4525  0.1398 -0.5015
  195MPD1     H 2969   0.629   0.356   0.015  0.4789 -0.2383  0.9532
  195MPD1    H1 2970   0.969   0.227  17.489  0.9500 -0.5064  3.3930
  195MPD1    H2 2971   0.837   0.621  17.464 -0.6191 -0.6522  0.3007
  195MPD1    H3 2972   0.990   0.454  17.412 -1.7897 -0.8113 -2.1756
  195MPD1     N 2973   0.791   0.145  17.664 -0.3229  0.7773 -0.5221
  195MPD1    H5 2974   0.844   0.074  17.615 -0.7137  0.1035  0.0323
  195MPD1    N1 2975   0.631   0.612  17.634 -0.5954  0.0628  0.2304
  195MPD1    H6 2976   0.682   0.700  17.641  0.6210 -0.7377  1.6078
  195MPD1    H7 2977   0.578   0.603   0.013  2.2602 -0.0706  1.9816
  196MPD1     C 2978   4.528   3.524   0.520 -0.0142  0.5934 -0.1865
  196MPD1    C1 2979   4.487   3.646   0.468  0.6207  0.6119 -0.3224
  196MPD1    C2 2980   4.528   3.754   0.540 -0.2841 -0.6711  0.0125
  196MPD1    C3 2981   4.615   3.752   0.649 -0.5380  0.2799  0.0518
  196MPD1    C4 2982   4.643   3.627   0.701  0.4618  0.0939  0.0495
  196MPD1    C5 2983   4.598   3.518   0.637  0.2115  0.6854 -0.1836
  196MPD1     H 2984   4.481   3.849   0.519  1.6286  0.1991 -0.3234
  196MPD1    H1 2985   4.707   3.626   0.789  1.0708 -0.1400 -0.3997
  196MPD1    H2 2986   4.502   3.428   0.477 -0.8622  0.9447 -0.4603
  196MPD1    H3 2987   4.624   3.421   0.677  1.5818  1.5618  1.0325
  196MPD1     N 2988   4.670   3.867   0.715 -0.2800 -0.1755  0.4945
  196MPD1    H5 2989   4.726   3.863   0.799  1.6937  0.3868 -0.7840
  196MPD1    N1 2990   4.389   3.645   0.368 -0.6738 -0.7557  0.7178
  196MPD1    H6 2991   4.408   3.564   0.309  1.2725  1.2798 -1.4514
  196MPD1    H7 2992   4.399   3.729   0.311  0.3182 -1.8525 -0.7362
  197MPD1     C 2993   4.068   0.881  17.504 -0.5056 -0.5980 -0.6507
  197MPD1    C1 2994   4.197   0.924  17.529 -0.4300 -0.4550 -0.3362
  197MPD1    C2 2995   4.240   1.040  17.472  0.2646 -0.7916 -0.2078
  197MPD1    C3 2996   4.148   1.119  17.400  0.4571  0.5930 -0.0319
  197MPD1    C4 2997   4.022   1.076  17.375  0.5742  0.3388  0.8189
  197MPD1    C5 2998   3.988   0.955  17.429 -0.3862  0.0492 -0.3177
  197MPD1     H 2999   4.344   1.068  17.479 -0.2315  1.0284 -0.0738
  197MPD1    H1 3000   3.964   1.140  17.309 -0.8610 -0.2268  1.5129
  197MPD1    H2 3001   4.022   0.801  17.561  0.4131 -0.3262  0.4888
  197MPD1    H3 3002   3.889   0.918  17.409 -0.2401 -0.3688 -0.2670
  197MPD1     N 3003   4.179   1.240  17.333 -0.1298 -0.2084 -0.4502
  197MPD1    H5 3004   4.121   1.269  17.255 -0.1588  0.3720 -0.2128
  197MPD1    N1 3005   4.285   0.850  17.612 -0.3345  0.4615 -0.1709
  197MPD1    H6 3006   4.377   0.890  17.628 -0.9907  1.5852  0.8690
  197MPD1    H7 3007   4.287   0.749  17.603  0.0515  0.3810  0.7324
  198MPD1     C 3008   1.604   4.143  15.500 -0.2661 -0.4026 -0.5555
  198MPD1    C1 3009   1.560   4.211  15.608  0.2265 -0.1369  0.9179
  198MPD1    C2 3010   1.582   4.347  15.604 -0.2724 -0.0284 -0.3283
  198MPD1    C3 3011   1.651   4.406  15.502 -0.0596  0.3355 -0.3796
  198MPD1    C4 3012   1.687   4.331  15.387  0.2020 -0.2729 -0.9240
  198MPD1    C5 3013   1.664   4.198  15.390  0.6031 -0.4417 -0.1769
  198MPD1     H 3014   1.554   4.403  15.693  0.5902 -1.5165  0.8702
  198MPD1    H1 3015   1.744   4.368  15.302  0.5189 -0.5710 -0.8421
  198MPD1    H2 3016   1.584   4.036  15.501  2.4038 -0.9253 -3.0643
  198MPD1    H3 3017   1.679   4.136  15.301  0.2523  0.4158 -0.8334
  198MPD1     N 3018   1.679   4.547  15.515  0.4870  0.0851 -0.1069
  198MPD1    H5 3019   1.645   4.594  15.599 -1.6139 -1.2661 -0.2105
  198MPD1    N1 3020   1.510   4.139  15.718 -0.2874 -0.2192 -0.1935
  198MPD1    H6 3021   1.441   4.198  15.763  0.4785  1.8181 -1.6989
  198MPD1    H7 3022   1.466   4.051  15.692 -1.0252 -0.8497  3.1867
  199MPD1     C 3023   4.229   1.064   9.456 -0.0452  1.0356 -0.5067
  199MPD1    C1 3024   4.161   1.186   9.430  0.3916  0.4125  0.3337
  199MPD1    C2 3025   4.028   1.180   9.395 -0.0687 -0.4262  0.1792
  199MPD1    C3 3026   3.956   1.060   9.403 -0.1825 -1.5351 -0.1547
  199MPD1    C4 3027   4.029   0.942   9.424  0.2908  0.2914  0.5509
  199MPD1    C5 3028   4.168   0.941   9.454 -1.3127  0.0361 -0.1393
  199MPD1     H 3029   3.989   1.270   9.348 -1.0179 -0.8783  0.1118
  199MPD1    H1 3030   3.981   0.845   9.431  0.1158  0.3233 -0.1742
  199MPD1    H2 3031   4.335   1.073   9.473  0.0355 -0.2171 -0.3597
  199MPD1    H3 3032   4.224   0.851   9.473 -0.6810  0.2381 -1.0485
  199MPD1     N 3033   3.818   1.044   9.372 -0.0180 -0.3034  0.1665
  199MPD1    H5 3034   3.781   0.949   9.375 -0.0712 -0.3206 -1.0804
  199MPD1    N1 3035   4.232   1.308   9.422  0.4455 -0.4622  0.1548
  199MPD1    H6 3036   4.174   1.386   9.453 -0.4523 -0.9210 -0.3917
  199MPD1    H7 3037   4.317   1.306   9.478  0.3997  0.8079  0.2489
  200MPD1     C 3038   1.896   1.166  15.202 -0.0476 -0.1563  0.6351
  200MPD1    C1 3039   1.895   1.175  15.065  0.2932 -0.4265 -0.4076
  200MPD1    C2 3040   2.013   1.208  15.005  0.1915 -0.0477 -0.7922
  200MPD1    C3 3041   2.133   1.185  15.064 -0.0963  0.6880 -0.1544
  200MPD1    C4 3042   2.133   1.164  15.202 -0.5204 -0.0046  0.0323
  200MPD1    C5 3043   2.020   1.165  15.269 -0.4070  0.0578 -0.2409
  200MPD1     H 3044   2.018   1.251  14.905  0.0950  0.8355 -0.4169
  200MPD1    H1 3045   2.220   1.168  15.266 -0.7284  3.3029  0.0918
  200MPD1    H2 3046   1.797   1.167  15.247 -0.6302  0.4948 -0.6694
  200MPD1    H3 3047   2.014   1.161  15.377 -0.2549 -0.5663 -0.2566
  200MPD1     N 3048   2.248   1.186  14.975  0.6126  0.3148  0.0978
  200MPD1    H5 3049   2.230   1.200  14.876  1.3892 -1.3237 -0.2859
  200MPD1    N1 3050   1.771   1.198  15.001 -1.0403  0.1508  0.5121
  200MPD1    H6 3051   1.707   1.128  15.037 -2.2079 -0.5747 -2.9502
  200MPD1    H7 3052   1.784   1.187  14.900  0.4967 -1.3808  0.8753
  201MPD1     C 3053   4.436   0.182  13.322 -0.6638  0.3028 -0.1598
  201MPD1    C1 3054   4.536   0.105  13.263  0.6517  0.5305 -0.1029
  201MPD1    C2 3055   4.599   0.010  13.338  0.3006  0.0872 -0.0519
  201MPD1    C3 3056   4.547   4.695  13.462 -0.1732 -0.4365  0.1879
  201MPD1    C4 3057   4.448   0.043  13.519  0.2877  0.3222  0.4143
  201MPD1    C5 3058   4.395   0.151  13.448 -0.2727  0.4939  0.1118
  201MPD1     H 3059   4.688   4.694  13.295  0.3353 -0.8802  0.9784
  201MPD1    H1 3060   4.409   0.039  13.621  0.5667 -1.0414  0.4626
  201MPD1    H2 3061   4.377   0.258  13.273  0.8093  1.5705  0.0319
  201MPD1    H3 3062   4.310   0.204  13.490 -1.2673 -2.1781  1.4492
  201MPD1     N 3063   4.619   4.605  13.536  0.4780 -0.6300  0.5340
  201MPD1    H5 3064   4.708   4.570  13.502  0.6971  1.2391 -0.8344
  201MPD1    N1 3065   4.593   0.151  13.143 -0.1677 -0.0086  0.1614
  201MPD1    H6 3066   4.530   0.195  13.077 -0.8914 -1.4249 -0.0995
  201MPD1    H7 3067   4.619   0.067  13.091  0.3686  0.3811 -0.1999
  202MPD1     C 3068   4.136   3.910   8.659  0.4302 -0.2338 -0.0591
  202MPD1    C1 3069   4.149   3.801   8.747 -0.5134 -0.2440  0.6414
  202MPD1    C2 3070   4.184   3.837   8.880 -0.5604  0.7036  0.0119
  202MPD1    C3 3071   4.160   3.965   8.922 -0.3733  0.2365  0.1676
  202MPD1    C4 3072   4.121   4.065   8.836  0.3343 -0.1140 -0.3677
  202MPD1    C5 3073   4.106   4.038   8.703  0.2853 -0.4197  0.4261
  202MPD1     H 3074   4.224   3.753   8.936 -0.4466  0.8852  0.2042
  202MPD1    H1 3075   4.100   4.167   8.869 -0.0415 -0.4188  0.3524
  202MPD1    H2 3076   4.123   3.899   8.552 -0.4511  0.2943 -0.0103
  202MPD1    H3 3077   4.064   4.116   8.641  1.2562  1.4628  2.1422
  202MPD1     N 3078   4.196   4.009   9.060 -0.1545  0.3677 -0.0814
  202MPD1    H5 3079   4.180   4.105   9.089 -2.5902 -0.0451 -0.0779
  202MPD1    N1 3080   4.193   3.680   8.690  0.1227  0.2066 -0.6769
  202MPD1    H6 3081   4.170   3.601   8.749  0.4601  2.7570  2.8847
  202MPD1    H7 3082   4.152   3.665   8.598 -1.1201  1.3379 -0.3075
  203MPD1     C 3083   4.071   1.207  12.592 -0.0096 -0.4410  0.0745
  203MPD1    C1 3084   4.105   1.129  12.484 -0.1967 -0.2044  0.2658
  203MPD1    C2 3085   4.105   0.989  12.491  0.2934 -0.8854  1.1645
  203MPD1    C3 3086   4.084   0.925  12.614 -0.5802  0.1843 -0.1310
  203MPD1    C4 3087   4.053   1.006  12.722  0.5374 -0.1209  0.3076
  203MPD1    C5 3088   4.052   1.138  12.710  0.1377 -0.2895  0.1983
  203MPD1     H 3089   4.126   0.930  12.403  0.0069 -0.7053  0.9743
  203MPD1    H1 3090   4.038   0.962  12.820 -1.0019 -0.6444 -0.1670
  203MPD1    H2 3091   4.080   1.315  12.591  2.5772 -0.6721 -0.4886
  203MPD1    H3 3092   4.034   1.199  12.798 -3.4542 -0.8608 -0.1713
  203MPD1     N 3093   4.075   0.784  12.614  0.2992  0.1651  0.1752
  203MPD1    H5 3094   4.093   0.738  12.526 -1.1082  0.0884 -0.0786
  203MPD1    N1 3095   4.088   1.197  12.360 -0.3310  0.4710  0.5556
  203MPD1    H6 3096   4.143   1.158  12.283 -1.6177  1.6897 -0.9554
  203MPD1    H7 3097   4.133   1.287  12.375  1.4312 -0.2707 -0.1888
  204MPD1     C 3098   2.738   2.208  17.431 -0.0423 -0.7462 -0.1408
  204MPD1    C1 3099   2.697   2.177  17.299 -0.1721  0.0629 -0.7913
  204MPD1    C2 3100   2.719   2.039  17.261 -0.5738 -0.1304 -0.1515
  204MPD1    C3 3101   2.766   1.944  17.352  0.1819  0.0724 -0.4796
  204MPD1    C4 3102   2.812   1.984  17.476  0.1061 -0.7142  0.4772
  204MPD1    C5 3103   2.796   2.116  17.511 -0.2657  0.9506 -0.1735
  204MPD1     H 3104   2.691   2.003  17.163 -1.6866  3.4296 -1.1516
  204MPD1    H1 3105   2.856   1.916  17.548  1.2311  0.1754  0.6246
  204MPD1    H2 3106   2.722   2.306  17.475 -1.0044 -1.0953  0.2718
  204MPD1    H3 3107   2.799   2.143  17.616  1.1469 -0.3378  0.1274
  204MPD1     N 3108   2.775   1.809  17.302 -0.2457  0.0125  0.3778
  204MPD1    H5 3109   2.763   1.788  17.204 -0.7328 -0.2718  0.4980
  204MPD1    N1 3110   2.663   2.280  17.206 -0.4399  0.3652 -0.3239
  204MPD1    H6 3111   2.589   2.335  17.249 -1.0446 -1.4295  0.9445
  204MPD1    H7 3112   2.624   2.246  17.118  0.0124  0.4075 -0.5396
  205MPD1     C 3113   3.859   0.309  17.401 -0.1412  0.1545 -0.5179
  205MPD1    C1 3114   3.787   0.400  17.330 -0.6537  0.0778 -0.2357
  205MPD1    C2 3115   3.659   0.435  17.375  0.5212 -0.5219 -0.3791
  205MPD1    C3 3116   3.611   0.383  17.492  0.6597 -0.1784  0.0988
  205MPD1    C4 3117   3.688   0.301  17.572 -0.4634  0.8722 -0.7032
  205MPD1    C5 3118   3.808   0.259  17.519  0.1002 -0.0927  0.1886
  205MPD1     H 3119   3.591   0.494  17.315 -0.4350 -0.8218  0.4062
  205MPD1    H1 3120   3.643   0.270  17.665  0.9663  0.8407 -0.0152
  205MPD1    H2 3121   3.960   0.279  17.376  0.3297 -0.2752  1.8866
  205MPD1    H3 3122   3.866   0.193  17.583 -2.0820 -2.0802  0.1094
  205MPD1     N 3123   3.489   0.420  17.545 -0.0884 -0.5681 -0.2357
  205MPD1    H5 3124   3.458   0.385  17.635  1.8013  1.2082  1.1035
  205MPD1    N1 3125   3.846   0.453  17.209 -0.2490  0.5747  0.0243
  205MPD1    H6 3126   3.795   0.536  17.180  1.0017  1.1165 -0.6372
  205MPD1    H7 3127   3.941   0.485  17.228 -0.1203 -0.3784  0.9667
  206MPD1     C 3128   3.438   3.710  16.811 -0.2317  0.3304  0.2197
  206MPD1    C1 3129   3.535   3.625  16.759 -0.6504  0.4295  0.2251
  206MPD1    C2 3130   3.519   3.593  16.631 -1.1506 -0.1758  0.3710
  206MPD1    C3 3131   3.442   3.661  16.538  0.2706  0.4233 -0.4492
  206MPD1    C4 3132   3.370   3.762  16.591  0.0189  0.0427 -0.1941
  206MPD1    C5 3133   3.371   3.792  16.725  0.4404  0.1126  0.4516
  206MPD1     H 3134   3.575   3.503  16.608 -0.4070 -0.0222  1.5324
  206MPD1    H1 3135   3.301   3.815  16.526  0.6165 -0.0124 -0.8716
  206MPD1    H2 3136   3.435   3.731  16.918  1.8344 -0.0606  0.3471
  206MPD1    H3 3137   3.308   3.874  16.760  0.4381 -0.1459  1.0529
  206MPD1     N 3138   3.441   3.636  16.397  0.2600  0.5447  0.1073
  206MPD1    H5 3139   3.404   3.706  16.334  1.7043  2.3672  1.2891
  206MPD1    N1 3140   3.626   3.553  16.840  0.2449  0.4410  0.7066
  206MPD1    H6 3141   3.715   3.539  16.792 -0.7425 -0.0643 -0.9546
  206MPD1    H7 3142   3.646   3.615  16.919  1.0836  1.7316 -0.4961
  207MPD1     C 3143   0.923   1.062   9.019  0.0848 -0.5196 -0.0897
  207MPD1    C1 3144   1.055   1.096   9.035  0.6135 -0.0015  0.0615
  207MPD1    C2 3145   1.107   1.078   9.161  0.1808 -0.0861  0.2072
  207MPD1    C3 3146   1.039   1.017   9.263  0.7254  0.5844 -0.8958
  207MPD1    C4 3147   0.907   0.993   9.241 -0.1292 -0.0612  0.3707
  207MPD1    C5 3148   0.850   1.026   9.125  0.3078  0.6158 -0.9455
  207MPD1     H 3149   1.209   1.111   9.179  0.4222 -0.8252  0.2141
  207MPD1    H1 3150   0.841   0.956   9.320 -1.5749  1.4409 -0.1384
  207MPD1    H2 3151   0.875   1.065   8.922  0.7007  0.1525 -0.3766
  207MPD1    H3 3152   0.743   1.014   9.119  0.4856 -1.6643  0.0689
  207MPD1     N 3153   1.095   0.970   9.385 -0.2535  0.1833 -0.8314
  207MPD1    H5 3154   1.031   0.906   9.429  1.0056  1.4756  2.8534
  207MPD1    N1 3155   1.140   1.135   8.929  0.3480 -0.4005 -0.2143
  207MPD1    H6 3156   1.091   1.190   8.858  0.2619 -1.0601 -0.6690
  207MPD1    H7 3157   1.222   1.183   8.963  0.6264 -0.8134 -0.2981
  208MPD1     C 3158   3.323   3.743  17.380  0.3575  0.2645  0.0516
  208MPD1    C1 3159   3.276   3.871  17.369 -0.0345  0.2475  0.2451
  208MPD1    C2 3160   3.324   3.965  17.459  0.7690  0.1712 -0.7410
  208MPD1    C3 3161   3.420   3.931  17.552  0.1751 -0.2026  0.1146
  208MPD1    C4 3162   3.476   3.808  17.552 -0.3624  0.2580  0.2526
  208MPD1    C5 3163   3.421   3.713  17.469  0.1761  0.2055  0.2170
  208MPD1     H 3164   3.295   4.069  17.458 -0.0119 -0.0510 -0.3706
  208MPD1    H1 3165   3.545   3.764  17.624 -1.0640  0.2981  0.9509
  208MPD1    H2 3166   3.279   3.657  17.330  1.6348 -1.8600  2.5654
  208MPD1    H3 3167   3.452   3.609  17.471  0.8430  0.3813 -1.2055
  208MPD1     N 3168   3.456   4.037  17.650  0.0605  0.1237  0.4359
  208MPD1    H5 3169   3.393   4.114  17.632  1.7162  1.4785  0.4974
  208MPD1    N1 3170   3.162   3.904  17.290  0.2342 -0.3515 -0.0402
  208MPD1    H6 3171   3.161   4.004  17.269  0.9651 -0.4038 -0.3002
  208MPD1    H7 3172   3.155   3.848  17.205 -0.0968 -0.8374  0.3117
  209MPD1     C 3173   0.142   0.034  10.707  0.0552  0.2367 -0.0575
  209MPD1    C1 3174   0.267   0.006  10.753  0.2066  0.3799  0.2863
  209MPD1    C2 3175   0.365   0.099  10.718 -0.3064  0.0200 -0.0117
  209MPD1    C3 3176   0.341   0.204  10.639  0.9441 -0.5980  0.2944
  209MPD1    C4 3177   0.224   0.218  10.583  0.2547  0.6726  1.3661
  209MPD1    C5 3178   0.120   0.141  10.626  0.2036  0.8072  0.3143
  209MPD1     H 3179   0.463   0.077  10.757 -0.3327  0.1060  0.1025
  209MPD1    H1 3180   0.195   0.296  10.513 -0.9859  0.4377  1.6287
  209MPD1    H2 3181   0.060   4.703  10.749 -0.0983 -0.1446 -0.8809
  209MPD1    H3 3182   0.022   0.169  10.590  0.2652  0.7208  0.0797
  209MPD1     N 3183   0.453   0.297  10.614  0.1546 -0.1000  0.1960
  209MPD1    H5 3184   0.545   0.274  10.651  0.6514  0.5769 -0.6479
  209MPD1    N1 3185   0.296   4.625  10.840 -0.0013 -0.3723 -0.2544
  209MPD1    H6 3186   0.239   4.544  10.814  0.4562 -0.2944 -1.5135
  209MPD1    H7 3187   0.394   4.598  10.831  0.6575  1.0158  2.8423
  210MPD1     C 3188   1.277   0.603  11.031  0.0272 -0.3137  0.1435
  210MPD1    C1 3189   1.173   0.513  11.065 -0.0090 -1.3624 -0.2061
  210MPD1    C2 3190   1.077   0.487  10.964 -0.3015 -0.4739  0.2563
  210MPD1    C3 3191   1.085   0.553  10.839  0.2684 -0.2484  0.4998
  210MPD1    C4 3192   1.193   0.630  10.812  0.1597 -0.7324 -0.3726
  210MPD1    C5 3193   1.286   0.655  10.906 -0.0735  0.6069 -0.1719
  210MPD1     H 3194   1.000   0.414  10.983  1.4848 -2.2112  0.8093
  210MPD1    H1 3195   1.200   0.690  10.722 -0.7322 -1.4736 -0.9425
  210MPD1    H2 3196   1.350   0.642  11.101 -0.8567 -1.0463  1.4729
  210MPD1    H3 3197   1.361   0.732  10.887  0.7135 -0.0140  0.3989
  210MPD1     N 3198   0.982   0.552  10.745  0.3702 -0.2831  0.6198
  210MPD1    H5 3199   1.001   0.592  10.654 -0.3106 -0.7432  0.2763
  210MPD1    N1 3200   1.176   0.427  11.183 -0.1446 -0.1729 -0.0128
  210MPD1    H6 3201   1.228   0.475  11.257  1.7796  1.7903 -2.6204
  210MPD1    H7 3202   1.077   0.430  11.204  0.0590  1.4962  0.7251
  211MPD1     C 3203   3.901   0.567  15.740  0.3003 -0.3141  0.1670
  211MPD1    C1 3204   3.777   0.614  15.705 -0.4863  0.1678 -0.0177
  211MPD1    C2 3205   3.691   0.653  15.802  0.0854  0.2007  0.1122
  211MPD1    C3 3206   3.720   0.627  15.934  0.1829  0.0167  0.3789
  211MPD1    C4 3207   3.845   0.579  15.971  0.5622 -0.1203  0.7636
  211MPD1    C5 3208   3.937   0.551  15.871  0.0439  0.3653 -0.1836
  211MPD1     H 3209   3.599   0.702  15.772 -2.7889 -4.1585  1.9638
  211MPD1    H1 3210   3.868   0.560  16.075  4.0149 -1.1508 -0.1862
  211MPD1    H2 3211   3.973   0.541  15.663  0.0500  1.3263 -0.6254
  211MPD1    H3 3212   4.034   0.507  15.893 -0.8087 -1.1722  0.4993
  211MPD1     N 3213   3.615   0.653  16.021 -0.1580 -0.2005  0.5861
  211MPD1    H5 3214   3.530   0.675  15.971 -0.9368 -1.6647  1.2414
  211MPD1    N1 3215   3.755   0.656  15.575 -0.1105  0.7734 -0.2135
  211MPD1    H6 3216   3.784   0.585  15.508  0.6351  2.2722 -1.5030
  211MPD1    H7 3217   3.654   0.669  15.563  0.0209  2.8999  0.8269
  212MPD1     C 3218   3.233   3.503  17.029 -0.4741  0.1135  0.4980
  212MPD1    C1 3219   3.131   3.598  17.019  0.6496 -0.6162  0.1513
  212MPD1    C2 3220   3.003   3.550  16.996  0.3618 -0.7783  0.1248
  212MPD1    C3 3221   2.972   3.421  16.953 -0.0846 -0.4026  0.2267
  212MPD1    C4 3222   3.079   3.333  16.950 -0.1922 -0.4697 -0.1324
  212MPD1    C5 3223   3.200   3.370  16.995  0.6079  0.1340  0.1782
  212MPD1     H 3224   2.915   3.610  17.012  0.0791 -1.4414  1.0597
  212MPD1    H1 3225   3.064   3.227  16.934  0.5924 -0.2726 -2.1447
  212MPD1    H2 3226   3.338   3.516  17.051 -1.1848  3.2614  1.9878
  212MPD1    H3 3227   3.270   3.289  17.010 -1.0556 -1.6892 -1.9873
  212MPD1     N 3228   2.847   3.373  16.911  0.7396 -0.6460  0.2137
  212MPD1    H5 3229   2.845   3.273  16.895  0.7321 -0.5981 -0.0854
  212MPD1    N1 3230   3.145   3.739  17.040 -0.2338 -0.3601  0.0295
  212MPD1    H6 3231   3.068   3.783  16.990 -0.2978 -0.9643 -0.4017
  212MPD1    H7 3232   3.227   3.775  16.993 -1.0378  1.8764  0.3314
  213MPD1     C 3233   1.090   4.184  15.868 -1.0219 -0.2721  0.0377
  213MPD1    C1 3234   1.137   4.073  15.811 -0.3068 -0.4174  0.1602
  213MPD1    C2 3235   1.094   4.044  15.678 -0.1553 -0.3419 -0.3755
  213MPD1    C3 3236   1.021   4.134  15.606  0.1887  0.1879  0.4637
  213MPD1    C4 3237   0.994   4.255  15.661 -0.1904 -0.2931 -0.8786
  213MPD1    C5 3238   1.023   4.285  15.792  0.3177  0.2087  0.4409
  213MPD1     H 3239   1.119   3.946  15.640  2.5239 -0.2498  1.1472
  213MPD1    H1 3240   0.934   4.324  15.603 -0.6103 -0.9787 -1.2499
  213MPD1    H2 3241   1.119   4.209  15.969  0.9766 -2.9533  0.1013
  213MPD1    H3 3242   0.995   4.382  15.832 -3.6921 -0.4198 -0.8499
  213MPD1     N 3243   1.003   4.103  15.470  0.1864 -0.0204  1.0114
  213MPD1    H5 3244   1.047   4.019  15.434 -0.8808  0.8793 -2.3673
  213MPD1    N1 3245   1.185   3.975  15.895  0.0808  0.1766  0.2752
  213MPD1    H6 3246   1.252   3.908  15.859 -0.0987  1.0829 -1.7372
  213MPD1    H7 3247   1.230   4.014  15.978 -0.3174  1.4949 -0.1183
  214MPD1     C 3248   0.634   3.409  14.830  0.3437 -0.6312  0.3429
  214MPD1    C1 3249   0.602   3.456  14.959 -0.2805 -0.0613 -0.6569
  214MPD1    C2 3250   0.677   3.561  15.008 -0.1900 -0.1674  0.9014
  214MPD1    C3 3251   0.787   3.617  14.944 -0.1159 -0.3569  0.6959
  214MPD1    C4 3252   0.814   3.568  14.821  0.5267 -0.0148  0.2505
  214MPD1    C5 3253   0.738   3.470  14.761 -0.2320 -0.0368  0.2358
  214MPD1     H 3254   0.648   3.597  15.107  0.2742 -0.9437  1.3242
  214MPD1    H1 3255   0.900   3.596  14.762 -0.8825  0.6000 -1.5085
  214MPD1    H2 3256   0.574   3.338  14.774  1.6772 -0.2540 -1.5673
  214MPD1    H3 3257   0.766   3.432  14.664 -1.0004 -0.7974  0.3164
  214MPD1     N 3258   0.873   3.715  14.999  0.1172  0.2213  0.2812
  214MPD1    H5 3259   0.940   3.753  14.933 -0.3190 -1.9707 -1.4424
  214MPD1    N1 3260   0.477   3.427  15.019  0.1774  0.2859 -0.0050
  214MPD1    H6 3261   0.457   3.327  15.022 -2.4318  0.8614  2.0149
  214MPD1    H7 3262   0.466   3.459  15.115 -0.1523  0.1292  0.0093
  215MPD1     C 3263   0.177   0.488  10.855  0.5728  0.0080 -0.1002
  215MPD1    C1 3264   0.262   0.403  10.917  0.4399  1.3846  0.0631
  215MPD1    C2 3265   0.378   0.444  10.964  0.2011 -0.1731 -0.6780
  215MPD1    C3 3266   0.426   0.570  10.927 -0.1125  0.7782  1.2306
  215MPD1    C4 3267   0.346   0.662  10.860  0.0689  0.1214 -0.0065
  215MPD1    C5 3268   0.221   0.611  10.818  0.0361  0.5201 -0.3324
  215MPD1     H 3269   0.437   0.379  11.028 -1.7849  0.3545  1.6725
  215MPD1    H1 3270   0.371   0.766  10.840  2.1632 -0.7609 -1.9932
  215MPD1    H2 3271   0.080   0.458  10.815  0.1624 -2.6891  2.8462
  215MPD1    H3 3272   0.160   0.685  10.768 -0.5785  1.8941  2.4737
  215MPD1     N 3273   0.555   0.595  10.980 -0.5968 -0.2215  0.8461
  215MPD1    H5 3274   0.607   0.516  11.017 -2.3091 -0.8945  1.8186
  215MPD1    N1 3275   0.216   0.279  10.964  1.0062  0.5529 -0.8650
  215MPD1    H6 3276   0.280   0.200  10.966  0.6030  0.2314 -0.8272
  215MPD1    H7 3277   0.141   0.256  10.900  0.2587 -0.4748  0.4008
  216MPD1     C 3278   2.721   2.807  16.992  0.5370  0.6463 -0.2279
  216MPD1    C1 3279   2.790   2.754  17.100 -0.6935 -0.5951  0.2106
  216MPD1    C2 3280   2.811   2.619  17.088  0.3556  0.0340  0.3770
  216MPD1    C3 3281   2.797   2.549  16.971  0.5106  0.1580 -0.5925
  216MPD1    C4 3282   2.729   2.603  16.864  0.1107 -0.0480 -0.6780
  216MPD1    C5 3283   2.687   2.732  16.879  0.0664 -0.0026 -0.5553
  216MPD1     H 3284   2.830   2.561  17.177 -3.6980 -0.5015  0.8972
  216MPD1    H1 3285   2.713   2.545  16.774  1.3465 -0.9212 -0.3391
  216MPD1    H2 3286   2.673   2.904  16.994 -2.5300 -0.8409 -0.9572
  216MPD1    H3 3287   2.622   2.784  16.810  0.0513  1.6900  0.7349
  216MPD1     N 3288   2.843   2.416  16.970 -0.1590  0.5075 -0.0191
  216MPD1    H5 3289   2.903   2.392  17.048 -0.6839 -0.1822  0.1698
  216MPD1    N1 3290   2.791   2.825  17.219 -0.6687 -0.0703 -0.5367
  216MPD1    H6 3291   2.818   2.923  17.211 -1.2391  0.1353  0.0917
  216MPD1    H7 3292   2.853   2.782  17.287 -1.1821  0.9108  0.5321
  217MPD1     C 3293   3.484   3.309   8.349 -0.6927 -0.4591 -0.3396
  217MPD1    C1 3294   3.382   3.386   8.397 -0.6833  0.0935  0.0432
  217MPD1    C2 3295   3.374   3.418   8.525 -0.5245  0.4160 -0.7211
  217MPD1    C3 3296   3.478   3.399   8.610 -0.3873  0.1464  0.3104
  217MPD1    C4 3297   3.585   3.335   8.560 -0.6666  0.5557  0.1999
  217MPD1    C5 3298   3.585   3.277   8.439 -0.6493  0.1029  0.2319
  217MPD1     H 3299   3.282   3.463   8.559  0.5937  2.1587 -0.0071
  217MPD1    H1 3300   3.676   3.316   8.615 -1.4160 -0.3807  1.1152
  217MPD1    H2 3301   3.485   3.271   8.247 -0.4056  2.0354 -1.2714
  217MPD1    H3 3302   3.678   3.227   8.414 -0.5993  0.9330 -1.2514
  217MPD1     N 3303   3.495   3.453   8.747  0.7375  0.4273  0.0115
  217MPD1    H5 3304   3.577   3.420   8.797  0.6670  0.7495  0.3368
  217MPD1    N1 3305   3.261   3.391   8.320  0.0901 -0.8866 -0.3700
  217MPD1    H6 3306   3.266   3.392   8.219  0.3895 -0.2262 -0.3427
  217MPD1    H7 3307   3.212   3.478   8.339  0.7786 -0.3842 -0.8919
  218MPD1     C 3308   0.420   1.322  12.781 -0.8310 -0.0274  0.1050
  218MPD1    C1 3309   0.546   1.318  12.717 -0.6038  0.3708 -0.5059
  218MPD1    C2 3310   0.601   1.192  12.720 -0.0848  0.1285 -0.5947
  218MPD1    C3 3311   0.542   1.076  12.769  0.6987 -0.9651  1.0530
  218MPD1    C4 3312   0.413   1.087  12.826 -0.0446  0.3704  0.2265
  218MPD1    C5 3313   0.358   1.209  12.824  0.3845 -0.0005  0.3261
  218MPD1     H 3314   0.697   1.180  12.672 -0.0830  3.7286 -1.5354
  218MPD1    H1 3315   0.353   1.003  12.860 -0.5015  1.2329  1.5908
  218MPD1    H2 3316   0.374   1.417  12.805 -0.5447  0.1978 -0.2353
  218MPD1    H3 3317   0.259   1.222  12.867  0.6956  1.6458  0.5368
  218MPD1     N 3318   0.614   0.955  12.757  0.2680 -0.2148 -0.0763
  218MPD1    H5 3319   0.697   0.967  12.700 -0.0386  0.5955 -0.3469
  218MPD1    N1 3320   0.617   1.431  12.693  0.2720 -0.4852 -0.7037
  218MPD1    H6 3321   0.556   1.512  12.680  0.3349  0.2521  3.6058
  218MPD1    H7 3322   0.709   1.430  12.649  0.1325 -0.1502 -1.0001
  219MPD1     C 3323   0.860   0.449  11.973  0.8661 -0.0835 -0.6657
  219MPD1    C1 3324   0.934   0.534  12.047 -0.5850 -0.5640  0.4569
  219MPD1    C2 3325   0.905   0.552  12.181 -0.6965 -0.1395  0.0636
  219MPD1    C3 3326   0.812   0.468  12.246 -0.1936 -0.3705 -0.1205
  219MPD1    C4 3327   0.741   0.381  12.175  0.3561  0.2528 -0.0301
  219MPD1    C5 3328   0.761   0.374  12.035  0.2138  0.7914 -0.3184
  219MPD1     H 3329   0.957   0.629  12.237  1.8085  0.0483 -2.5474
  219MPD1    H1 3330   0.658   0.319  12.210 -0.3178  0.9997 -0.3076
  219MPD1    H2 3331   0.879   0.426  11.869  1.3088 -1.1459 -0.3546
  219MPD1    H3 3332   0.701   0.304  11.978 -0.7305  1.7945 -0.5611
  219MPD1     N 3333   0.786   0.489  12.388 -0.2267  0.0006  0.1776
  219MPD1    H5 3334   0.711   0.434  12.429 -1.4240  0.1056 -1.8704
  219MPD1    N1 3335   1.022   0.625  11.985 -0.7362  0.2232  0.2214
  219MPD1    H6 3336   1.099   0.654  12.045 -1.2214  0.1884  0.8607
  219MPD1    H7 3337   1.060   0.582  11.901 -0.2777 -0.0731  0.5800
  220MPD1     C 3338   0.626   1.763   9.756  0.1193 -0.5085  0.0558
  220MPD1    C1 3339   0.692   1.752   9.873 -0.3077  0.0819  0.3074
  220MPD1    C2 3340   0.739   1.619   9.899  0.6967  0.0680  0.3830
  220MPD1    C3 3341   0.674   1.511   9.851  1.1160  0.2250 -0.4949
  220MPD1    C4 3342   0.588   1.524   9.744  0.2015  0.3620 -0.4796
  220MPD1    C5 3343   0.574   1.651   9.694 -0.1161 -0.2204  0.0232
  220MPD1     H 3344   0.807   1.611   9.983  0.4511 -0.7609  0.5046
  220MPD1    H1 3345   0.538   1.445   9.689  2.0038  1.0344 -3.0415
  220MPD1    H2 3346   0.613   1.855   9.699 -0.0805 -1.4562 -1.4168
  220MPD1    H3 3347   0.510   1.654   9.606  0.1120 -0.4125 -0.1497
  220MPD1     N 3348   0.709   1.380   9.902  0.7553 -0.4872  0.1314
  220MPD1    H5 3349   0.784   1.376   9.970  2.4779  0.1039 -1.7271
  220MPD1    N1 3350   0.749   1.863   9.926  0.1596  0.0070  0.4483
  220MPD1    H6 3351   0.774   1.866  10.025 -0.0839  1.1947  0.4798
  220MPD1    H7 3352   0.695   1.948   9.914  0.0365 -0.1541 -0.1140
  221MPD1     C 3353   3.326   0.512  17.024 -0.8723  0.4143 -0.3531
  221MPD1    C1 3354   3.327   0.486  16.886 -0.3417  0.9240 -0.3414
  221MPD1    C2 3355   3.366   0.361  16.837 -0.0255 -0.2339 -0.2206
  221MPD1    C3 3356   3.411   0.266  16.931 -0.8961  0.0910  0.4619
  221MPD1    C4 3357   3.420   0.295  17.067  0.2783 -0.2664  0.0502
  221MPD1    C5 3358   3.366   0.415  17.108  0.6472 -0.0259 -0.5682
  221MPD1     H 3359   3.386   0.349  16.732  1.1866  3.1230 -0.3738
  221MPD1    H1 3360   3.465   0.241  17.150 -0.3422  1.2347  1.3810
  221MPD1    H2 3361   3.275   0.601  17.059 -1.7533 -1.6948  3.7748
  221MPD1    H3 3362   3.357   0.438  17.213 -0.5753 -2.1043 -0.2164
  221MPD1     N 3363   3.453   0.137  16.898 -0.0579  0.5264 -0.5219
  221MPD1    H5 3364   3.493   0.075  16.968 -0.3561  1.8091  0.7841
  221MPD1    N1 3365   3.280   0.591  16.804 -0.6496  0.7498  0.1825
  221MPD1    H6 3366   3.304   0.587  16.705  3.2158  2.5892  1.0384
  221MPD1    H7 3367   3.299   0.682  16.846 -0.9316  0.3181  1.2339
  222MPD1     C 3368   4.583   0.088  17.466  0.8737  0.0844  0.0421
  222MPD1    C1 3369   4.536   0.019  17.576  0.1133 -0.0951 -0.6557
  222MPD1    C2 3370   4.458   4.639  17.548 -0.3680  0.0291 -0.2002
  222MPD1    C3 3371   4.408   4.624  17.421 -0.4040 -0.3862  0.7674
  222MPD1    C4 3372   4.457   4.690  17.312 -0.5471 -0.2861 -0.2196
  222MPD1    C5 3373   4.540   0.069  17.338 -0.7711  0.4292  0.1219
  222MPD1     H 3374   4.433   4.570  17.628  1.6185  0.5888  0.8916
  222MPD1    H1 3375   4.418   4.671  17.213  1.6427 -1.5294 -0.8368
  222MPD1    H2 3376   4.635   0.183  17.466 -0.8412  1.0287 -1.8428
  222MPD1    H3 3377   4.585   0.132  17.262  1.4127 -0.1945  0.8775
  222MPD1     N 3378   4.319   4.516  17.397 -0.1385  0.3885  0.6458
  222MPD1    H5 3379   4.306   4.490  17.299 -1.8015  0.7937  0.7537
  222MPD1    N1 3380   4.572   0.048   0.005 -0.2307 -0.6645 -0.1936
  222MPD1    H6 3381   4.624   0.135   0.018  1.5818 -1.8004  0.1645
  222MPD1    H7 3382   4.504   0.035   0.080 -0.4211  1.3830  0.0036
  223MPD1     C 3383   3.947   3.589  17.094 -0.3304  0.4615 -0.4399
  223MPD1    C1 3384   3.846   3.656  17.156  0.2370  0.1199 -0.4315
  223MPD1    C2 3385   3.863   3.781  17.207 -0.1129 -0.9295 -0.2037
  223MPD1    C3 3386   3.977   3.860  17.184 -0.2678 -0.0032  0.9304
  223MPD1    C4 3387   4.078   3.795  17.117  0.0662  0.7897 -1.2334
  223MPD1    C5 3388   4.062   3.667  17.072  0.4305  0.1205  0.3012
  223MPD1     H 3389   3.785   3.824  17.269 -0.3331  0.8866 -1.7709
  223MPD1    H1 3390   4.172   3.842  17.091  0.3890  0.3909 -0.7825
  223MPD1    H2 3391   3.941   3.485  17.066  1.7095  0.0369  0.7081
  223MPD1    H3 3392   4.144   3.622  17.018  0.9437 -0.0781  1.2334
  223MPD1     N 3393   3.973   4.001  17.229  0.0247 -0.0401  0.5304
  223MPD1    H5 3394   3.894   4.034  17.282  1.1231  0.8206  1.6232
  223MPD1    N1 3395   3.728   3.587  17.190  0.5352  0.0708  0.1172
  223MPD1    H6 3396   3.708   3.509  17.128  0.7470  0.1947 -0.1069
  223MPD1    H7 3397   3.655   3.657  17.189  0.1928 -0.2939 -1.2302
  224MPD1     C 3398   3.772   3.608   8.673  0.0626  0.4913  0.3574
  224MPD1    C1 3399   3.684   3.704   8.639 -0.4145  0.3939 -0.1434
  224MPD1    C2 3400   3.678   3.826   8.705  0.1298  0.0749 -0.7421
  224MPD1    C3 3401   3.758   3.839   8.814 -0.6046  0.5923 -0.2295
  224MPD1    C4 3402   3.832   3.740   8.858 -0.0037 -0.2784 -1.0057
  224MPD1    C5 3403   3.844   3.631   8.786 -0.3902  0.0201  0.5505
  224MPD1     H 3404   3.625   3.910   8.662 -0.8760  0.4446  1.2114
  224MPD1    H1 3405   3.896   3.744   8.945  1.5796  1.5865 -2.2556
  224MPD1    H2 3406   3.768   3.520   8.611  0.7537  0.9528 -0.3298
  224MPD1    H3 3407   3.916   3.559   8.824 -0.1213 -0.6518 -1.2067
  224MPD1     N 3408   3.754   3.957   8.887 -0.3161  0.1718 -0.3346
  224MPD1    H5 3409   3.818   3.950   8.965  1.5621  2.6864 -1.6486
  224MPD1    N1 3410   3.611   3.681   8.518 -0.3607  0.1830 -0.0116
  224MPD1    H6 3411   3.591   3.582   8.507 -2.5081  0.8806 -2.4540
  224MPD1    H7 3412   3.520   3.726   8.527 -0.9524 -1.0821  0.2756
  225MPD1     C 3413   0.542   1.909  11.669 -0.1998  0.0161  1.1939
  225MPD1    C1 3414   0.503   1.778  11.639  0.5573  0.3770 -0.0438
  225MPD1    C2 3415   0.435   1.709  11.741 -0.1548  0.2324 -0.8736
  225MPD1    C3 3416   0.431   1.759  11.873  0.3054  0.3054 -0.2543
  225MPD1    C4 3417   0.470   1.883  11.894 -0.5573  0.2796 -0.1154
  225MPD1    C5 3418   0.518   1.962  11.791  0.2158  0.2414  0.0801
  225MPD1     H 3419   0.388   1.616  11.710  2.4325 -0.9615 -1.2134
  225MPD1    H1 3420   0.448   1.936  11.986  0.9181 -0.0020  0.3803
  225MPD1    H2 3421   0.602   1.965  11.598 -1.9651  0.2928 -0.0878
  225MPD1    H3 3422   0.553   2.063  11.808 -0.4743  0.4651  0.1694
  225MPD1     N 3423   0.378   1.681  11.976  0.4602  0.5172 -0.5393
  225MPD1    H5 3424   0.375   1.727  12.066  0.0960 -0.3776 -0.0926
  225MPD1    N1 3425   0.500   1.736  11.507  0.7525  0.4869  0.3290
  225MPD1    H6 3426   0.462   1.643  11.489 -0.6081  1.4117 -1.5841
  225MPD1    H7 3427   0.589   1.762  11.465 -0.2930  0.2009 -2.0855
  226MPD1     C 3428   2.302   0.777   9.379 -0.1313  0.0774  0.0240
  226MPD1    C1 3429   2.291   0.722   9.252 -0.5594  0.2605 -0.1426
  226MPD1    C2 3430   2.398   0.742   9.163  0.0991 -0.1304  0.1371
  226MPD1    C3 3431   2.520   0.795   9.201 -0.5060 -0.1294  0.1874
  226MPD1    C4 3432   2.533   0.842   9.329 -0.1763  0.1573  0.2727
  226MPD1    C5 3433   2.428   0.830   9.418 -0.7199  0.2189  1.0887
  226MPD1     H 3434   2.395   0.720   9.057  0.3599 -3.0297  0.7394
  226MPD1    H1 3435   2.635   0.863   9.359 -0.3701  2.2587 -0.5139
  226MPD1    H2 3436   2.227   0.776   9.457  0.1366 -1.2250  0.2691
  226MPD1    H3 3437   2.439   0.857   9.523 -0.8718 -0.6874  1.3347
  226MPD1     N 3438   2.625   0.802   9.103 -0.4809 -0.3115 -0.1224
  226MPD1    H5 3439   2.599   0.771   9.010  2.1298 -1.3555 -0.4827
  226MPD1    N1 3440   2.177   0.661   9.205 -0.3837  0.2601 -0.3022
  226MPD1    H6 3441   2.197   0.604   9.123  0.5280  0.3250 -0.1243
  226MPD1    H7 3442   2.131   0.604   9.276 -0.5951  0.2416 -0.4534
  227MPD1     C 3443   3.492   1.279   9.010 -0.9305 -0.1901 -0.4723
  227MPD1    C1 3444   3.362   1.321   9.027  0.1172  0.1384  0.6981
  227MPD1    C2 3445   3.261   1.231   9.006  0.0143  0.7308  0.1673
  227MPD1    C3 3446   3.285   1.103   8.973 -0.1628  0.0379 -0.2751
  227MPD1    C4 3447   3.417   1.060   8.964 -0.9673 -0.1919 -0.7551
  227MPD1    C5 3448   3.518   1.149   8.987 -0.5123  0.6106 -0.3860
  227MPD1     H 3449   3.162   1.274   9.008  0.0149  0.6995  0.7663
  227MPD1    H1 3450   3.445   0.959   8.937  0.8233  0.7973 -2.6195
  227MPD1    H2 3451   3.573   1.350   9.018  0.1012 -1.8236  3.5854
  227MPD1    H3 3452   3.617   1.109   8.965 -0.2872 -0.0630  1.8408
  227MPD1     N 3453   3.173   1.026   8.953  0.2919 -0.3141 -0.3757
  227MPD1    H5 3454   3.086   1.065   8.987  0.9792  1.2483 -0.4085
  227MPD1    N1 3455   3.331   1.457   9.060 -0.2900 -0.6157  0.0409
  227MPD1    H6 3456   3.236   1.476   9.092  0.8754  1.9060  2.0337
  227MPD1    H7 3457   3.403   1.505   9.114  0.5850 -1.0246 -0.7649
  228MPD1     C 3458   2.922   4.340  12.489 -0.2385 -0.7550  0.3641
  228MPD1    C1 3459   2.821   4.365  12.396  0.1611  0.7595 -0.1915
  228MPD1    C2 3460   2.703   4.296  12.405 -0.1736  1.0193 -0.2510
  228MPD1    C3 3461   2.696   4.198  12.503 -0.3807 -0.2339 -0.1327
  228MPD1    C4 3462   2.800   4.176  12.595  0.0909  0.2990  0.3647
  228MPD1    C5 3463   2.912   4.244  12.584 -0.5309  0.1284 -0.3802
  228MPD1     H 3464   2.625   4.325  12.336 -0.4755  1.3341  0.2236
  228MPD1    H1 3465   2.794   4.110  12.680 -1.7174 -0.9374 -0.7184
  228MPD1    H2 3466   3.009   4.404  12.483  1.0782 -2.3952  1.6091
  228MPD1    H3 3467   2.993   4.216  12.650 -0.0651  0.6272 -0.7335
  228MPD1     N 3468   2.572   4.128  12.512  0.8723  0.0760 -1.0827
  228MPD1    H5 3469   2.503   4.156  12.444 -2.3509  0.9823  2.5753
  228MPD1    N1 3470   2.831   4.475  12.316 -0.4595  0.3456 -0.4294
  228MPD1    H6 3471   2.778   4.472  12.229  0.4122  4.7758 -1.0933
  228MPD1    H7 3472   2.925   4.506  12.293  0.3192 -0.7268  1.3522
  229MPD1     C 3473   1.235   2.808  14.571  0.1916 -0.6861  0.3378
  229MPD1    C1 3474   1.295   2.684  14.579  0.4182  0.4271 -0.1932
  229MPD1    C2 3475   1.336   2.637  14.703 -0.3647  0.6773 -0.2370
  229MPD1    C3 3476   1.313   2.709  14.818 -0.3228  0.4096 -0.1489
  229MPD1    C4 3477   1.252   2.831  14.810 -0.2349  0.0416  0.5587
  229MPD1    C5 3478   1.208   2.879  14.688  0.5254  0.6031  0.5807
  229MPD1     H 3479   1.394   2.545  14.706 -0.8644  0.3498 -0.5480
  229MPD1    H1 3480   1.235   2.888  14.900 -2.4879  1.1664 -0.5425
  229MPD1    H2 3481   1.212   2.848  14.473  2.1315 -2.4060 -0.8317
  229MPD1    H3 3482   1.157   2.975  14.684 -0.2286  0.2353  1.4674
  229MPD1     N 3483   1.353   2.662  14.943  0.0307  0.6637 -0.7244
  229MPD1    H5 3484   1.328   2.726  15.017 -1.2074  1.6251 -1.9762
  229MPD1    N1 3485   1.349   2.633  14.463  0.3612  0.7274 -0.5747
  229MPD1    H6 3486   1.281   2.649  14.389 -0.6268  0.0262  0.1779
  229MPD1    H7 3487   1.361   2.532  14.468 -0.7526  0.5988 -0.5595
  230MPD1     C 3488   1.227   2.734  15.933 -0.2153 -0.0233  0.4895
  230MPD1    C1 3489   1.364   2.701  15.917 -0.0763 -0.3605  0.5284
  230MPD1    C2 3490   1.412   2.645  15.800 -0.0446  0.5304  0.2703
  230MPD1    C3 3491   1.329   2.645  15.690 -0.0659 -0.3331  0.4531
  230MPD1    C4 3492   1.193   2.681  15.706  0.9097 -0.8286  0.3434
  230MPD1    C5 3493   1.147   2.727  15.825  0.1846  0.1490  0.1793
  230MPD1     H 3494   1.518   2.625  15.785 -0.7604 -0.4479 -3.4031
  230MPD1    H1 3495   1.125   2.681  15.622  0.4122  1.8349  0.7493
  230MPD1    H2 3496   1.194   2.770  16.029 -0.2095 -1.1814  0.9279
  230MPD1    H3 3497   1.046   2.765  15.828  0.1799 -0.2107  3.8215
  230MPD1     N 3498   1.387   2.605  15.566  0.1399 -0.0904 -0.3290
  230MPD1    H5 3499   1.487   2.590  15.575 -0.1206 -1.4685  0.3510
  230MPD1    N1 3500   1.459   2.719  16.019  0.7921  0.3324  0.0684
  230MPD1    H6 3501   1.555   2.723  15.987  0.8579  0.0546  0.2342
  230MPD1    H7 3502   1.438   2.794  16.084  1.9396 -0.3599  1.2382
  231MPD1     C 3503   4.651   4.147  15.730  0.2127 -0.0664 -0.7305
  231MPD1    C1 3504   4.719   4.039  15.675  0.3548 -0.2303 -0.6200
  231MPD1    C2 3505   0.096   4.071  15.591  0.2810  0.3177  0.5880
  231MPD1    C3 3506   0.147   4.198  15.582  0.1677 -0.6139  0.6555
  231MPD1    C4 3507   0.074   4.305  15.643 -0.2987  0.0988 -0.4259
  231MPD1    C5 3508   4.687   4.274  15.714  0.0866 -0.0587  0.1801
  231MPD1     H 3509   0.136   3.997  15.523  0.1738 -0.2500  1.1353
  231MPD1    H1 3510   0.093   4.411  15.634  1.6746 -0.0480  2.1865
  231MPD1    H2 3511   4.569   4.123  15.797 -0.7309  0.1026 -1.8191
  231MPD1    H3 3512   4.617   4.346  15.754  0.6574 -0.2614  1.5687
  231MPD1     N 3513   0.251   4.224  15.495  0.5343 -0.4724 -0.0767
  231MPD1    H5 3514   0.283   4.153  15.431  0.2417 -0.1783 -0.5461
  231MPD1    N1 3515   4.659   3.915  15.676 -0.2340  0.8508  0.1591
  231MPD1    H6 3516   4.606   3.911  15.763  0.3390 -1.1762  0.4079
  231MPD1    H7 3517   0.008   3.848  15.684 -1.4056 -0.4470  0.3632
  232MPD1     C 3518   2.140   1.720   0.043 -0.2375  0.4972 -0.1103
  232MPD1    C1 3519   2.146   1.667   0.169  0.6168 -0.2959 -0.0162
  232MPD1    C2 3520   2.075   1.554   0.194 -0.0195 -0.1692 -0.6105
  232MPD1    C3 3521   1.995   1.492   0.098  0.5716  0.8108  0.4125
  232MPD1    C4 3522   1.981   1.548  17.683 -0.6791 -0.0437  0.6705
  232MPD1    C5 3523   2.055   1.662  17.656  0.0315 -0.5770 -0.2365
  232MPD1     H 3524   2.098   1.495   0.282  0.4071  0.5443 -0.2489
  232MPD1    H1 3525   1.921   1.505  17.604  0.9720  0.2323 -0.7333
  232MPD1    H2 3526   2.206   1.799   0.011 -0.9956  0.5534 -1.5274
  232MPD1    H3 3527   2.073   1.689  17.553  2.0451  0.2100  0.3100
  232MPD1     N 3528   1.912   1.384   0.136 -0.1613  0.3821 -0.5046
  232MPD1    H5 3529   1.900   1.365   0.235 -0.3426  0.7845 -0.4535
  232MPD1    N1 3530   2.236   1.710   0.267  0.3472 -0.4901 -0.2031
  232MPD1    H6 3531   2.193   1.703   0.359 -1.9880 -1.0009 -1.3387
  232MPD1    H7 3532   2.244   1.811   0.252  0.4470 -0.0309  3.0045
  233MPD1     C 3533   2.814   0.606   1.803 -0.3928  0.0750  0.0019
  233MPD1    C1 3534   2.827   0.474   1.775  0.1020  0.4704 -0.4133
  233MPD1    C2 3535   2.959   0.424   1.768 -0.5350  0.0085 -0.1404
  233MPD1    C3 3536   3.059   0.512   1.784  0.6325  0.1019 -0.0224
  233MPD1    C4 3537   3.041   0.651   1.804  0.6716 -0.3125 -0.0918
  233MPD1    C5 3538   2.913   0.694   1.810  0.3020 -0.3130  0.0897
  233MPD1     H 3539   2.977   0.318   1.755  0.0742 -0.0942  1.5219
  233MPD1    H1 3540   3.123   0.719   1.821  1.0251 -0.2272 -2.0385
  233MPD1    H2 3541   2.711   0.641   1.810 -0.4044 -0.2062  1.1911
  233MPD1    H3 3542   2.887   0.797   1.835  2.5145  0.1397  0.5769
  233MPD1     N 3543   3.194   0.471   1.773 -0.2459 -0.0932  0.0970
  233MPD1    H5 3544   3.261   0.545   1.755 -0.5330 -0.0464 -0.7816
  233MPD1    N1 3545   2.712   0.391   1.778 -0.1155 -0.6042 -0.1081
  233MPD1    H6 3546   2.719   0.297   1.740  1.9223 -0.8739  0.9334
  233MPD1    H7 3547   2.630   0.445   1.750  0.9743  2.0536  1.8258
  234MPD1     C 3548   4.480   3.377  10.443  0.6086 -0.5900  0.5200
  234MPD1    C1 3549   4.516   3.500  10.413  0.3081 -0.0267  0.4587
  234MPD1    C2 3550   4.468   3.559  10.299  0.4820  0.0827  0.0261
  234MPD1    C3 3551   4.387   3.495  10.208  0.1875 -0.1974 -0.2804
  234MPD1    C4 3552   4.355   3.364  10.242 -0.8469 -0.1880  0.0698
  234MPD1    C5 3553   4.396   3.310  10.359  0.0771  0.1899 -0.6267
  234MPD1     H 3554   4.507   3.657  10.273 -0.1594  0.6092  1.0352
  234MPD1    H1 3555   4.283   3.305  10.186 -0.3718 -1.6940  1.0284
  234MPD1    H2 3556   4.524   3.320  10.523  2.1617 -1.0415 -0.6430
  234MPD1    H3 3557   4.388   3.202  10.372 -1.5790  0.1533 -2.0097
  234MPD1     N 3558   4.336   3.561  10.098  0.5286  0.4677  0.2573
  234MPD1    H5 3559   4.354   3.660  10.087  1.5000  0.3796  0.9892
  234MPD1    N1 3560   4.603   3.572  10.501  0.5644 -0.4518  0.2821
  234MPD1    H6 3561   4.667   3.507  10.546  0.3957 -0.0672  1.0802
  234MPD1    H7 3562   4.666   3.633  10.448  1.5795 -1.4391  0.3448
  235MPD1     C 3563   0.498   0.958   9.425  0.1634 -0.4463  0.3993
  235MPD1    C1 3564   0.498   1.082   9.366 -0.8299 -0.7722  0.3451
  235MPD1    C2 3565   0.597   1.171   9.400  0.0939 -0.2536  0.6085
  235MPD1    C3 3566   0.695   1.131   9.490 -0.2947 -0.0261 -0.9158
  235MPD1    C4 3567   0.689   1.007   9.556  0.2083  0.3320 -0.1439
  235MPD1    C5 3568   0.596   0.917   9.511 -0.5621 -0.0285  0.2600
  235MPD1     H 3569   0.595   1.274   9.365  2.6472 -0.2914  0.3271
  235MPD1    H1 3570   0.767   0.987   9.628 -0.6237 -2.2167  0.0201
  235MPD1    H2 3571   0.416   0.887   9.419 -2.6981  2.9885 -1.3113
  235MPD1    H3 3572   0.582   0.818   9.552 -2.0970 -0.7519 -1.9736
  235MPD1     N 3573   0.789   1.229   9.524  0.3331  0.2974  0.1908
  235MPD1    H5 3574   0.776   1.320   9.480  1.9067 -0.9860 -2.9681
  235MPD1    N1 3575   0.384   1.133   9.301  0.3703 -0.3344  0.0385
  235MPD1    H6 3576   0.398   1.205   9.231 -1.7673  1.0716  1.0780
  235MPD1    H7 3577   0.323   1.060   9.264 -0.7508  0.0952  1.0224
  236MPD1     C 3578   0.900   2.906   9.657  0.5497 -0.4222 -0.2317
  236MPD1    C1 3579   0.884   2.771   9.678  0.5975  0.1908 -0.2813
  236MPD1    C2 3580   0.975   2.716   9.768 -0.4967 -0.5263 -0.0328
  236MPD1    C3 3581   1.056   2.787   9.851 -0.3036 -0.2595 -0.0210
  236MPD1    C4 3582   1.057   2.922   9.839  0.4353 -0.9284  0.4426
  236MPD1    C5 3583   0.993   2.972   9.732 -0.3516  0.1363 -0.5544
  236MPD1     H 3584   0.976   2.608   9.777  0.3068 -0.5427 -0.3389
  236MPD1    H1 3585   1.136   2.977   9.889  1.2025 -0.4304 -1.3295
  236MPD1    H2 3586   0.854   2.958   9.574 -0.2679  1.4801  1.4225
  236MPD1    H3 3587   1.004   3.080   9.723  0.1025  0.1458  0.1381
  236MPD1     N 3588   1.155   2.734   9.936 -0.3226 -0.6508 -0.3358
  236MPD1    H5 3589   1.214   2.802   9.984 -0.8665  0.2350 -0.9240
  236MPD1    N1 3590   0.811   2.684   9.603  0.0400  0.0507  0.1033
  236MPD1    H6 3591   0.794   2.590   9.638  1.8288 -0.2050  0.2948
  236MPD1    H7 3592   0.720   2.720   9.574 -0.3841 -1.0840  0.0069
  237MPD1     C 3593   0.511   1.062  15.442 -0.6900 -0.1569 -0.1962
  237MPD1    C1 3594   0.424   1.113  15.349 -0.0890 -0.1882  0.4710
  237MPD1    C2 3595   0.336   1.027  15.287  0.2031  0.4640 -0.3813
  237MPD1    C3 3596   0.319   0.905  15.335 -0.1753  0.2404 -0.0540
  237MPD1    C4 3597   0.399   0.852  15.435  0.1355 -0.1222  0.3136
  237MPD1    C5 3598   0.496   0.932  15.481 -0.3393  0.0862 -0.5134
  237MPD1     H 3599   0.266   1.067  15.214  0.7628  0.5970 -0.8442
  237MPD1    H1 3600   0.396   0.748  15.464 -1.3304 -0.2801 -0.4194
  237MPD1    H2 3601   0.583   1.114  15.504  0.8860 -0.5870 -1.6808
  237MPD1    H3 3602   0.561   0.883  15.554  1.2327  0.4074 -1.7091
  237MPD1     N 3603   0.219   0.812  15.279  0.1182 -0.9152  0.6645
  237MPD1    H5 3604   0.217   0.716  15.311 -1.2117 -1.3038 -0.6049
  237MPD1    N1 3605   0.404   1.250  15.333  0.2659  0.2624  0.9424
  237MPD1    H6 3606   0.375   1.281  15.241  0.8521  0.1332  0.7093
  237MPD1    H7 3607   0.478   1.312  15.367  0.7452  1.3090 -1.9662
  238MPD1     C 3608   2.082   4.087  15.495 -0.8039  0.4522  0.6426
  238MPD1    C1 3609   2.045   4.168  15.392 -0.5674  0.2783 -0.6782
  238MPD1    C2 3610   1.960   4.119  15.296  0.0509 -0.1011  0.2386
  238MPD1    C3 3611   1.917   3.987  15.296 -0.1333 -0.1258 -0.5201
  238MPD1    C4 3612   1.959   3.909  15.404  0.2669 -0.4763 -0.1350
  238MPD1    C5 3613   2.032   3.964  15.506  0.3819 -0.2013  0.2117
  238MPD1     H 3614   1.930   4.181  15.211 -0.2919 -1.1631 -0.4084
  238MPD1    H1 3615   1.919   3.808  15.414 -3.0354  0.6861 -1.4950
  238MPD1    H2 3616   2.151   4.123  15.570 -0.7853 -0.2694  0.9662
  238MPD1    H3 3617   2.062   3.904  15.592  1.6855  0.2316  0.0523
  238MPD1     N 3618   1.825   3.930  15.201  0.9552  0.2618 -0.2462
  238MPD1    H5 3619   1.799   3.832  15.205  0.2502  0.4175 -1.1029
  238MPD1    N1 3620   2.077   4.304  15.394  0.6152 -0.0847 -0.4375
  238MPD1    H6 3621   2.176   4.311  15.376  0.8808  0.2108  1.1527
  238MPD1    H7 3622   2.039   4.365  15.322  0.4512  1.7295  1.1946
  239MPD1     C 3623   2.333   4.534  14.716  0.2657 -0.2288  0.4072
  239MPD1    C1 3624   2.445   4.562  14.644  0.1611  0.1795 -0.6528
  239MPD1    C2 3625   2.428   4.655  14.543 -0.1101 -0.4167 -0.1107
  239MPD1    C3 3626   2.320   0.007  14.533 -0.2744 -0.8565  0.9632
  239MPD1    C4 3627   2.209   4.703  14.611  0.3689  0.0621 -0.0972
  239MPD1    C5 3628   2.224   4.608  14.705  0.3174  1.4671  0.1001
  239MPD1     H 3629   2.509   4.663  14.471 -0.4081  1.3361 -0.2576
  239MPD1    H1 3630   2.113   0.025  14.599 -0.6359 -2.2512 -1.4861
  239MPD1    H2 3631   2.319   4.456  14.790 -0.3839 -0.2447  0.2639
  239MPD1    H3 3632   2.136   4.582  14.762 -1.0828 -0.9260 -3.1055
  239MPD1     N 3633   2.316   0.124  14.450 -0.3662  0.0789  0.1263
  239MPD1    H5 3634   2.226   0.171  14.449  0.1437  1.0800  1.0325
  239MPD1    N1 3635   2.565   4.489  14.653 -0.3950  0.6380  0.0223
  239MPD1    H6 3636   2.648   4.530  14.611 -0.5856 -0.3354 -1.2938
  239MPD1    H7 3637   2.583   4.463  14.750  0.5630  3.6667  0.6517
  240MPD1     C 3638   1.617   0.135  14.073 -0.0543  0.2372  0.7374
  240MPD1    C1 3639   1.600   0.155  14.207  0.3064 -0.3729 -0.5423
  240MPD1    C2 3640   1.511   0.080  14.279  0.1084  0.2854  0.2199
  240MPD1    C3 3641   1.429   4.714  14.217  0.1377  0.4378  0.1441
  240MPD1    C4 3642   1.441   4.698  14.080 -0.3665 -0.2156  0.5235
  240MPD1    C5 3643   1.530   0.043  14.014 -0.0292 -0.8606 -0.2213
  240MPD1     H 3644   1.497   0.081  14.386  1.9120 -1.4294  0.4838
  240MPD1    H1 3645   1.387   4.622  14.025 -0.1357  1.5221 -2.0852
  240MPD1    H2 3646   1.676   0.193  14.004  1.2394  0.0604  1.6976
  240MPD1    H3 3647   1.524   0.038  13.906 -0.0486 -0.6036 -0.2342
  240MPD1     N 3648   1.339   4.633  14.292  0.0335 -0.1646  0.8002
  240MPD1    H5 3649   1.326   4.658  14.389 -4.8378  1.7639 -0.3670
  240MPD1    N1 3650   1.681   0.249  14.263  0.1718 -0.1658 -0.1599
  240MPD1    H6 3651   1.709   0.335  14.216  0.8773  1.3267  2.9164
  240MPD1    H7 3652   1.660   0.274  14.360 -2.0130  1.1588 -0.9995
  241MPD1     C 3653   1.368   4.098  15.141  0.0664  0.0553 -0.1619
  241MPD1    C1 3654   1.399   4.226  15.110 -0.8084  0.2360  0.3499
  241MPD1    C2 3655   1.378   4.269  14.981 -0.6332 -0.3147 -0.0599
  241MPD1    C3 3656   1.330   4.172  14.887  0.7497  0.7154  0.1188
  241MPD1    C4 3657   1.291   4.044  14.928 -0.7863  0.4646  0.6153
  241MPD1    C5 3658   1.316   4.000  15.057  0.1307 -0.2320  0.1466
  241MPD1     H 3659   1.399   4.372  14.956  1.9438 -0.9339 -0.5237
  241MPD1    H1 3660   1.235   3.979  14.861  2.6130 -0.8730 -0.9485
  241MPD1    H2 3661   1.393   4.062  15.241 -1.8848 -1.8876 -0.3647
  241MPD1    H3 3662   1.298   3.896  15.083  1.0467 -0.2286  0.8330
  241MPD1     N 3663   1.313   4.202  14.754  0.4931  0.0533  0.0217
  241MPD1    H5 3664   1.279   4.131  14.690  2.4564 -0.0546 -0.8993
  241MPD1    N1 3665   1.444   4.317  15.205 -0.7508 -0.2717 -0.2369
  241MPD1    H6 3666   1.509   4.267  15.264 -0.7803  1.6261  1.3960
  241MPD1    H7 3667   1.494   4.393  15.160  0.6018  0.5934  2.7427
  242MPD1     C 3668   0.829   3.119  15.963 -0.1762  0.7926 -0.1473
  242MPD1    C1 3669   0.955   3.103  16.017  0.1336  0.2001 -0.1146
  242MPD1    C2 3670   1.055   3.088  15.923  0.9280  0.4255  0.5411
  242MPD1    C3 3671   1.036   3.120  15.789  0.1898  0.0741 -0.2078
  242MPD1    C4 3672   0.910   3.152  15.744  0.6792  0.2977 -0.8964
  242MPD1    C5 3673   0.804   3.158  15.834 -0.2584 -0.3926 -0.2438
  242MPD1     H 3674   1.152   3.058  15.962  0.6103 -1.4210 -0.0683
  242MPD1    H1 3675   0.889   3.168  15.639 -1.8576  2.5714 -0.0451
  242MPD1    H2 3676   0.740   3.111  16.025 -0.0168  0.5051  0.0456
  242MPD1    H3 3677   0.706   3.185  15.796  1.5674  2.8821 -2.6414
  242MPD1     N 3678   1.132   3.111  15.688  0.8590  0.4477  0.1388
  242MPD1    H5 3679   1.094   3.141  15.598 -2.8113 -0.1795  1.4668
  242MPD1    N1 3680   0.969   3.075  16.151 -0.0740  0.8178  0.1243
  242MPD1    H6 3681   1.063   3.101  16.180  0.9942 -1.9084 -0.9424
  242MPD1    H7 3682   0.911   3.130  16.214 -0.4057  0.6331 -0.0241
  243MPD1     C 3683   3.619   1.675  17.338  0.1718  0.1310 -0.0273
  243MPD1    C1 3684   3.530   1.626  17.248  0.1210  0.0785  0.6595
  243MPD1    C2 3685   3.468   1.714  17.157 -0.8198  0.5855  0.1334
  243MPD1    C3 3686   3.491   1.853  17.169 -0.0103  0.2778  0.4783
  243MPD1    C4 3687   3.571   1.904  17.273  0.9618 -0.2726 -0.8035
  243MPD1    C5 3688   3.638   1.812  17.352  0.2781 -0.4773 -0.6229
  243MPD1     H 3689   3.419   1.684  17.065 -3.1618 -1.2575  1.9656
  243MPD1    H1 3690   3.594   2.010  17.287 -0.4896 -0.2514  1.4230
  243MPD1    H2 3691   3.683   1.607  17.393  0.8241  1.3231  0.6925
  243MPD1    H3 3692   3.712   1.853  17.419 -1.0579  1.1848 -0.1639
  243MPD1     N 3693   3.441   1.938  17.065 -0.2754 -0.0187 -0.0602
  243MPD1    H5 3694   3.378   1.891  17.001  0.3558  0.7060 -1.2110
  243MPD1    N1 3695   3.553   1.489  17.214  0.0853  0.6965 -0.0238
  243MPD1    H6 3696   3.559   1.434  17.299 -0.9794 -0.7023 -0.8453
  243MPD1    H7 3697   3.470   1.447  17.171  0.4537 -0.1767  0.1116
  244MPD1     C 3698   3.194   2.926  17.116 -0.4284  0.2007 -0.1157
  244MPD1    C1 3699   3.301   2.870  17.179 -0.8171  0.5797 -0.1192
  244MPD1    C2 3700   3.335   2.745  17.125 -0.4444 -0.0529  0.0966
  244MPD1    C3 3701   3.279   2.689  17.008 -1.0475  0.1473 -0.1614
  244MPD1    C4 3702   3.183   2.758  16.942 -0.1970  0.9747 -0.6629
  244MPD1    C5 3703   3.139   2.872  17.003 -0.9731 -0.4206  0.4435
  244MPD1     H 3704   3.418   2.690  17.168  0.0255  1.4001  1.0799
  244MPD1    H1 3705   3.128   2.726  16.855 -2.3878 -0.5384  1.2759
  244MPD1    H2 3706   3.145   3.016  17.153  2.9399  2.0256 -0.0918
  244MPD1    H3 3707   3.057   2.929  16.961 -0.5888 -0.5182 -0.4534
  244MPD1     N 3708   3.327   2.559  16.967 -0.2997  0.1582 -0.6717
  244MPD1    H5 3709   3.397   2.521  17.030 -1.5734  0.7713  1.1092
  244MPD1    N1 3710   3.347   2.915  17.306 -0.3205  0.2756 -0.2114
  244MPD1    H6 3711   3.347   3.017  17.309  0.0593  0.2032  1.9205
  244MPD1    H7 3712   3.444   2.887  17.321 -1.7020 -2.8699  2.8967
  245MPD1     C 3713   4.305   1.988  13.131  0.0882  0.2801 -0.0045
  245MPD1    C1 3714   4.437   2.020  13.153 -0.3857  0.5069  0.5643
  245MPD1    C2 3715   4.465   2.132  13.225 -1.0936 -0.2513 -0.4067
  245MPD1    C3 3716   4.365   2.220  13.263 -0.7293  0.5474  0.2450
  245MPD1    C4 3717   4.234   2.196  13.238  0.4584 -0.7031 -0.0062
  245MPD1    C5 3718   4.205   2.080  13.171  0.2821  0.2251 -0.1977
  245MPD1     H 3719   4.568   2.143  13.257 -0.7245  1.8364 -2.3034
  245MPD1    H1 3720   4.154   2.256  13.281  1.0042  0.2467 -0.3231
  245MPD1    H2 3721   4.271   1.900  13.078  0.7439  1.4202 -2.3123
  245MPD1    H3 3722   4.101   2.053  13.152  0.2351  0.3075 -0.0544
  245MPD1     N 3723   4.405   2.325  13.342  0.1778 -0.1096 -0.3626
  245MPD1    H5 3724   4.501   2.322  13.373 -0.1648 -2.0431  0.5111
  245MPD1    N1 3725   4.532   1.921  13.127 -0.1733  0.1977  0.3489
  245MPD1    H6 3726   4.509   1.847  13.061 -0.0287  0.9461 -0.5253
  245MPD1    H7 3727   4.623   1.956  13.101  0.3087 -0.4558  1.1452
  246MPD1     C 3728   1.206   1.792   9.679  0.5631  0.2746 -0.4874
  246MPD1    C1 3729   1.198   1.854   9.558  0.2891 -0.3371  0.6203
  246MPD1    C2 3730   1.082   1.837   9.483  0.6513 -0.2030 -0.3899
  246MPD1    C3 3731   0.992   1.739   9.518  0.4882  0.1654  0.5560
  246MPD1    C4 3732   1.008   1.671   9.637 -1.1559 -0.4756 -0.0736
  246MPD1    C5 3733   1.101   1.714   9.726 -0.0019  0.0241 -0.1756
  246MPD1     H 3734   1.070   1.900   9.395 -2.5323 -1.0774 -0.5675
  246MPD1    H1 3735   0.936   1.601   9.679 -1.5842 -0.2969 -0.5236
  246MPD1    H2 3736   1.290   1.810   9.745  0.5835 -1.5218 -0.0385
  246MPD1    H3 3737   1.115   1.665   9.822 -1.9932 -0.8621 -0.3436
  246MPD1     N 3738   0.891   1.725   9.419 -0.4386 -0.2388 -0.8547
  246MPD1    H5 3739   0.889   1.805   9.356 -2.5399  2.1286  2.1664
  246MPD1    N1 3740   1.291   1.953   9.522 -0.0894 -0.2782 -0.0235
  246MPD1    H6 3741   1.384   1.935   9.560 -0.6550 -1.8663  0.5831
  246MPD1    H7 3742   1.301   1.986   9.426 -0.4569  1.3221  0.4801
  247MPD1     C 3743   3.276   1.849  15.893  0.1407  0.5690  0.2722
  247MPD1    C1 3744   3.344   1.733  15.866  0.4409 -0.4631  0.1218
  247MPD1    C2 3745   3.468   1.732  15.916  0.2515  0.6874  0.5601
  247MPD1    C3 3746   3.521   1.838  15.989 -0.1785  0.5477  0.1055
  247MPD1    C4 3747   3.443   1.943  16.024 -0.4655 -0.4750  0.2710
  247MPD1    C5 3748   3.322   1.947  15.973  0.3647  0.2435 -0.3058
  247MPD1     H 3749   3.544   1.666  15.878 -0.6670  1.3090 -2.3226
  247MPD1    H1 3750   3.465   2.030  16.083  0.9491  1.4080 -3.0042
  247MPD1    H2 3751   3.175   1.861  15.856  0.0101  0.7732  0.6965
  247MPD1    H3 3752   3.256   2.034  15.978  0.2031  0.1475 -0.7640
  247MPD1     N 3753   3.657   1.832  16.039  0.3903 -0.5788 -0.2774
  247MPD1    H5 3754   3.719   1.758  16.007  2.1024  0.1205  1.3849
  247MPD1    N1 3755   3.296   1.636  15.777  0.3436 -0.1055 -0.3684
  247MPD1    H6 3756   3.196   1.640  15.764 -0.1259 -0.9197  2.9480
  247MPD1    H7 3757   3.329   1.545  15.808 -0.8511 -1.0535 -1.9493
  248MPD1     C 3758   4.184   3.064  16.934 -0.1440 -0.2940 -0.6108
  248MPD1    C1 3759   4.079   2.974  16.903 -0.1215 -0.0632  0.1545
  248MPD1    C2 3760   4.039   2.889  17.005  0.5911 -0.4789 -0.0542
  248MPD1    C3 3761   4.099   2.884  17.127  0.2827  0.3621  0.6352
  248MPD1    C4 3762   4.206   2.964  17.149 -0.3631  0.0758 -0.7243
  248MPD1    C5 3763   4.252   3.054  17.055 -0.2003 -0.4542 -0.0020
  248MPD1     H 3764   3.956   2.821  16.988 -1.0933  1.6361 -0.3238
  248MPD1    H1 3765   4.242   2.969  17.252  1.3384 -0.6430 -1.2810
  248MPD1    H2 3766   4.215   3.140  16.863  2.2034 -0.3021  0.3899
  248MPD1    H3 3767   4.345   3.108  17.065  0.0172 -0.9045  0.4279
  248MPD1     N 3768   4.054   2.781  17.213 -0.0597 -0.2654  0.0099
  248MPD1    H5 3769   3.966   2.737  17.188  0.8476 -1.0557 -1.7985
  248MPD1    N1 3770   4.009   2.995  16.783 -0.1360  0.7164 -0.5046
  248MPD1    H6 3771   4.050   3.036  16.699 -1.5257  0.7919 -1.1638
  248MPD1    H7 3772   3.938   2.925  16.764 -0.2677  0.8118 -0.3698
  249MPD1     C 3773   1.089   0.270  10.502  0.6876  0.0277 -0.3692
  249MPD1    C1 3774   1.132   0.390  10.450 -0.2056  0.3200 -0.3586
  249MPD1    C2 3775   1.109   0.408  10.315  0.0951 -0.0205  0.6318
  249MPD1    C3 3776   1.072   0.302  10.229  0.4238 -0.3784  0.5730
  249MPD1    C4 3777   1.025   0.190  10.283 -0.7247  0.7361 -0.1751
  249MPD1    C5 3778   1.031   0.176  10.421  0.3634  0.4491 -0.6051
  249MPD1     H 3779   1.142   0.501  10.271  0.0214  0.0657  0.7593
  249MPD1    H1 3780   0.982   0.116  10.216  0.1505 -0.3291  0.4457
  249MPD1    H2 3781   1.086   0.250  10.608  1.0183 -4.2881 -1.1638
  249MPD1    H3 3782   1.000   0.084  10.468  0.0481 -0.6060 -2.9029
  249MPD1     N 3783   1.082   0.322  10.091 -0.1648 -0.1498 -0.6790
  249MPD1    H5 3784   1.128   0.406  10.058 -1.6940 -0.2525 -3.0752
  249MPD1    N1 3785   1.172   0.496  10.533 -0.1663 -0.2121 -0.1725
  249MPD1    H6 3786   1.229   0.558  10.476 -0.1359  0.5407  0.6840
  249MPD1    H7 3787   1.227   0.467  10.613  0.4501 -2.2082 -1.3371
  250MPD2     C 3788   2.729   0.929  13.258 -0.4364 -0.0716  0.1832
  250MPD2    C1 3789   2.706   0.974  13.136  0.4468 -0.1472  0.2475
  250MPD2    C2 3790   2.634   0.899  13.041 -0.3377  0.0437  0.1040
  250MPD2    C3 3791   2.585   0.770  13.075 -0.1124 -0.4945 -0.3402
  250MPD2    C4 3792   2.619   0.723  13.200 -1.5777 -0.4457 -0.4541
  250MPD2    C5 3793   2.690   0.801  13.281  0.2418 -0.3063 -0.3606
  250MPD2     H 3794   2.607   0.939  12.944 -2.1019 -0.0341  0.5537
  250MPD2    H1 3795   2.594   0.625  13.239  0.6126 -0.1995  1.5689
  250MPD2    H2 3796   2.791   0.970  13.337 -0.4093 -0.1973  0.2265
  250MPD2    H3 3797   2.719   0.759  13.376 -0.0875 -1.0937 -0.6126
  250MPD2     N 3798   2.522   0.676  12.982 -0.1081  0.3109  0.0930
  250MPD2    H5 3799   2.485   0.590  13.021  1.4503  0.4830  1.9242
  250MPD2    N1 3800   2.774   1.097  13.106 -0.0831 -0.3306  0.1167
  250MPD2    H7 3801   2.830   1.138  13.180  0.1879 -1.3282  0.4641
  251TMC3    C1 3802   2.851   1.273  12.976 -0.1119  0.1541 -0.3150
  251TMC3    C2 3803   2.813   1.369  13.058 -0.6139 -0.2169 -0.4493
  251TMC3    C3 3804   2.848   1.494  13.024  0.2144  0.1700  0.4020
  251TMC3    C4 3805   2.923   1.300  12.860 -0.1937  0.2912  0.1900
  251TMC3    C5 3806   2.955   1.429  12.824 -0.6376 -0.2869  0.0751
  251TMC3    C6 3807   2.919   1.529  12.910 -0.2340  0.4664  0.9174
  251TMC3     C 3808   2.762   1.153  12.980 -0.1379 -0.1078  0.8406
  251TMC3     O 3809   2.743   1.094  12.872 -0.0878 -0.0017 -0.3761
  251TMC3     H 3810   2.752   1.347  13.145  0.1326 -0.1650  0.0938
  251TMC3    H1 3811   2.949   1.216  12.796 -0.0728  1.1583 -0.9158
  251TMC3    H2 3812   2.946   1.631  12.885  0.8129 -0.5347 -2.0658
  251TMC3    C7 3813   3.043   1.450  12.707  0.2158 -0.1371 -0.0160
  251TMC3    C8 3814   2.815   1.597  13.116 -0.9713  0.5968  0.6075
  251TMC3    O1 3815   3.093   1.347  12.672 -0.5626 -0.1040  0.6893
  251TMC3    O2 3816   2.794   1.556  13.229  0.3009 -0.1686 -0.5163
  252TMC3    C1 3817   3.176   2.263   9.146 -0.1494  0.1102  0.3680
  252TMC3    C2 3818   3.311   2.260   9.114 -0.6346 -0.3538 -0.4431
  252TMC3    C3 3819   3.394   2.171   9.177  0.0763 -0.6221 -0.4774
  252TMC3    C4 3820   3.125   2.169   9.235  0.1849 -0.3979  0.3491
  252TMC3    C5 3821   3.215   2.079   9.290 -0.1451 -0.0963  0.0624
  252TMC3    C6 3822   3.346   2.064   9.248  0.0851 -0.1117  0.1993
  252TMC3     C 3823   3.100   2.377   9.092  0.8461  0.4244  0.2287
  252TMC3     O 3824   3.163   2.468   9.049  0.5613  0.3326 -0.0361
  252TMC3     H 3825   3.356   2.351   9.075 -0.5782  0.9283  2.5998
  252TMC3    H1 3826   3.022   2.163   9.267 -0.3647 -1.4085 -1.6276
  252TMC3    H2 3827   3.413   1.991   9.292  0.6941 -0.1341 -0.7552
  252TMC3    C7 3828   3.151   1.975   9.371 -0.7384 -0.0956 -0.5862
  252TMC3    C8 3829   3.536   2.176   9.135 -0.9650 -0.3052  0.6162
  252TMC3    O1 3830   3.052   2.010   9.434  0.0632  0.2631  0.7839
  252TMC3    O2 3831   3.565   2.216   9.025  0.5692  0.1929  0.8904
  253MPD2     C 3832   4.384   1.001  15.037  0.5176 -0.1075  0.0703
  253MPD2    C1 3833   4.262   0.948  15.085 -0.2871  0.8730 -0.2838
  253MPD2    C2 3834   4.252   0.902  15.210 -0.3000 -0.3047  0.3256
  253MPD2    C3 3835   4.362   0.908  15.301  0.0441  0.0929  0.2987
  253MPD2    C4 3836   4.477   0.965  15.257 -0.4317 -0.4688 -0.0846
  253MPD2    C5 3837   4.482   1.011  15.130 -0.4305 -0.3688  0.7110
  253MPD2     H 3838   4.165   0.845  15.242 -1.1158  0.2459 -0.9296
  253MPD2    H1 3839   4.561   0.972  15.325  0.0432  1.1540 -0.8236
  253MPD2    H2 3840   4.398   1.047  14.940  1.6626  1.4181  0.9721
  253MPD2    H3 3841   4.573   1.057  15.092 -0.7567  0.5368  1.0355
  253MPD2     N 3842   4.350   0.879  15.437  0.6756 -0.4031  0.0128
  253MPD2    H5 3843   4.434   0.888  15.492  2.3159 -0.8967 -2.4081
  253MPD2    N1 3844   4.151   0.920  14.997 -0.1133  0.0611  0.2540
  253MPD2    H7 3845   4.074   0.873  15.043 -0.4947  3.1259  2.7871
  254TMC3    C1 3846   4.238   0.822  15.645 -0.0437  0.5421 -0.4941
  254TMC3    C2 3847   4.113   0.837  15.701 -0.0388 -1.0349 -0.0698
  254TMC3    C3 3848   4.104   0.858  15.840 -0.0007 -0.1287  0.4486
  254TMC3    C4 3849   4.352   0.808  15.716 -0.2426  0.1187  0.4573
  254TMC3    C5 3850   4.339   0.831  15.847  0.9081 -1.0757  0.4634
  254TMC3    C6 3851   4.224   0.858  15.913 -0.3687 -0.6250  0.4368
  254TMC3     C 3852   4.238   0.827  15.498  0.0754  0.1738 -0.0006
  254TMC3     O 3853   4.126   0.816  15.452  0.1505 -0.2087 -0.1242
  254TMC3     H 3854   4.020   0.805  15.655 -0.1814 -0.7835  0.0459
  254TMC3    H1 3855   4.451   0.778  15.684 -0.2742  0.4368  0.0622
  254TMC3    H2 3856   4.224   0.883  16.019 -0.5207 -0.2025  0.3394
  254TMC3    C7 3857   4.458   0.807  15.932  0.6320  0.4925  0.9206
  254TMC3    C8 3858   3.991   0.928  15.896 -0.2203 -0.3108 -0.2271
  254TMC3    O1 3859   4.426   0.760  16.042  0.4124 -0.6028  0.4275
  254TMC3    O2 3860   3.998   0.958  16.017  0.5203 -0.6646  0.2238
  255MPD2     C 3861   2.286   3.234  10.196  0.8223 -0.4030  0.4058
  255MPD2    C1 3862   2.386   3.331  10.183 -0.4641  0.3667 -0.3858
  255MPD2    C2 3863   2.516   3.297  10.217 -0.1290  0.4547 -0.1542
  255MPD2    C3 3864   2.552   3.169  10.254  0.1034  0.1765  0.7789
  255MPD2    C4 3865   2.447   3.073  10.260 -0.5223  0.0645 -0.2137
  255MPD2    C5 3866   2.316   3.106  10.226 -0.5385  0.1172  0.4414
  255MPD2     H 3867   2.593   3.374  10.216  0.6599 -0.3259  1.0582
  255MPD2    H1 3868   2.458   2.969  10.289 -1.9859  0.0555  0.2991
  255MPD2    H2 3869   2.184   3.254  10.166  0.8478 -1.4886 -0.4212
  255MPD2    H3 3870   2.238   3.033  10.242 -1.4261  0.8492 -0.5427
  255MPD2     N 3871   2.687   3.134  10.285 -0.3490  0.0377  0.2653
  255MPD2    H5 3872   2.757   3.207  10.274  1.2665 -1.6882 -0.8829
  255MPD2    N1 3873   2.346   3.458  10.137 -0.1274  1.0125 -0.7037
  255MPD2    H7 3874   2.249   3.462  10.109 -0.2938 -0.7430 -0.3877
  256TMC3    C1 3875   2.370   3.663  10.018 -0.1373  0.2586 -0.3782
  256TMC3    C2 3876   2.417   3.789  10.022 -0.3082  0.2881 -0.0518
  256TMC3    C3 3877   2.405   3.869   9.918  0.2124 -0.0704  0.2583
  256TMC3    C4 3878   2.308   3.619   9.899 -0.3640  0.3671 -0.7341
  256TMC3    C5 3879   2.304   3.703   9.795 -0.6596  0.5340 -0.0654
  256TMC3    C6 3880   2.352   3.833   9.798  0.3710 -0.2885  0.6655
  256TMC3     C 3881   2.424   3.566  10.112  0.1502  0.0575 -0.2578
  256TMC3     O 3882   2.533   3.589  10.164 -0.3172 -0.2803 -0.3359
  256TMC3     H 3883   2.467   3.815  10.114 -1.2188  1.5876  0.0882
  256TMC3    H1 3884   2.276   3.515   9.895  1.5905 -0.2476 -0.1568
  256TMC3    H2 3885   2.344   3.910   9.722  0.0044 -0.6057  0.3810
  256TMC3    C7 3886   2.325   3.629   9.675  0.8750 -0.1453  0.4389
  256TMC3    C8 3887   2.436   4.008   9.945  1.3425  0.3268 -1.1104
  256TMC3    O1 3888   2.274   3.518   9.663 -0.1203 -0.2141 -0.2577
  256TMC3    O2 3889   2.432   4.045  10.062  0.1353 -0.3844 -0.2964
  257MPD2     C 3890   2.094   1.244  13.242 -1.1699  0.2188 -0.2458
  257MPD2    C1 3891   2.026   1.151  13.165 -0.4163  0.1982  0.3156
  257MPD2    C2 3892   1.961   1.038  13.227  0.0458 -0.4563  0.3352
  257MPD2    C3 3893   1.996   1.001  13.356 -0.3671 -0.6524  0.4501
  257MPD2    C4 3894   2.067   1.097  13.435 -0.0739  0.6544 -0.1588
  257MPD2    C5 3895   2.120   1.215  13.376  0.0783  0.0568 -0.0101
  257MPD2     H 3896   1.889   0.974  13.179 -0.6777 -0.0531  0.8875
  257MPD2    H1 3897   2.078   1.075  13.540 -0.8062 -2.4862 -0.7558
  257MPD2    H2 3898   2.137   1.335  13.201  0.4749 -0.4264  0.0296
  257MPD2    H3 3899   2.179   1.287  13.432 -1.5411  1.5268 -0.1894
  257MPD2     N 3900   1.951   0.877  13.406 -0.3695  0.1094  0.2270
  257MPD2    H5 3901   1.890   0.822  13.345  1.4052 -1.6731  0.0464
  257MPD2    N1 3902   2.008   1.191  13.034  0.1127  0.3403 -0.1216
  257MPD2    H7 3903   2.049   1.282  13.013 -2.1788  1.2652 -0.6276
  258TMC3    C1 3904   1.966   0.672  13.513 -0.2918 -0.6714 -0.4258
  258TMC3    C2 3905   1.948   0.605  13.397 -0.2837  0.3484  0.1335
  258TMC3    C3 3906   1.916   0.472  13.406  0.0005 -0.6013  0.5137
  258TMC3    C4 3907   1.950   0.614  13.637 -0.1111  0.4197 -0.3999
  258TMC3    C5 3908   1.908   0.484  13.644 -0.3408  0.3806 -0.3882
  258TMC3    C6 3909   1.893   0.410  13.527  0.1118  0.9360  0.6539
  258TMC3     C 3910   1.997   0.811  13.520 -0.4517  0.0770 -0.3240
  258TMC3     O 3911   2.061   0.847  13.614 -0.6942 -0.1108  0.2113
  258TMC3     H 3912   1.965   0.650  13.300  2.7298  0.6355  0.8000
  258TMC3    H1 3913   1.976   0.672  13.724 -0.2999  0.5675 -0.4421
  258TMC3    H2 3914   1.858   0.308  13.533 -2.6502  1.8989  0.5515
  258TMC3    C7 3915   1.921   0.424  13.773 -0.1522 -0.9717 -0.1918
  258TMC3    C8 3916   1.891   0.401  13.285  0.6782 -0.7926  0.8701
  258TMC3    O1 3917   1.891   0.492  13.873 -0.8447 -0.6160  0.0101
  258TMC3    O2 3918   1.959   0.426  13.187 -0.2138  0.7517 -0.4809
  259MPD2     C 3919   1.025   1.065   1.829 -0.0690 -0.1131  0.1730
  259MPD2    C1 3920   1.002   1.183   1.768  0.1070 -0.3647  0.1606
  259MPD2    C2 3921   1.072   1.215   1.657 -0.2806  0.1509  0.1915
  259MPD2    C3 3922   1.169   1.134   1.604  0.5053 -0.5612 -0.1942
  259MPD2    C4 3923   1.199   1.018   1.666  0.6919  0.7527 -0.7996
  259MPD2    C5 3924   1.122   0.979   1.779 -0.7185 -0.1529 -1.1410
  259MPD2     H 3925   1.056   1.313   1.613  0.7054  0.6758  1.0217
  259MPD2    H1 3926   1.272   0.953   1.619 -2.6222 -1.4588 -2.8678
  259MPD2    H2 3927   0.970   1.036   1.918 -0.2615  1.7703  0.6564
  259MPD2    H3 3928   1.133   0.884   1.829  0.9876  0.8114  0.3512
  259MPD2     N 3929   1.242   1.185   1.491  0.0446 -0.4375 -0.6311
  259MPD2    H5 3930   1.214   1.276   1.456 -1.3805 -1.3317 -1.8452
  259MPD2    N1 3931   0.897   1.258   1.832 -0.1876  0.1895  0.0438
  259MPD2    H7 3932   0.850   1.216   1.912 -1.8272  0.7077 -0.6477
  260TMC3    C1 3933   1.422   1.196   1.333 -0.2692 -0.6896  0.8915
  260TMC3    C2 3934   1.551   1.171   1.302 -0.0406 -0.0802 -0.4173
  260TMC3    C3 3935   1.617   1.228   1.198 -0.3765  0.3301  0.4026
  260TMC3    C4 3936   1.349   1.289   1.257  0.5647  0.2277 -0.1510
  260TMC3    C5 3937   1.411   1.332   1.141 -1.6989  0.0948  0.5055
  260TMC3    C6 3938   1.546   1.305   1.111  0.2982  0.2727 -0.2999
  260TMC3     C 3939   1.363   1.130   1.448 -0.5461  0.6127 -0.1760
  260TMC3     O 3940   1.432   1.046   1.508 -0.8734 -0.5678 -0.1237
  260TMC3     H 3941   1.606   1.094   1.357  0.4736 -1.1960 -2.4934
  260TMC3    H1 3942   1.248   1.316   1.286  1.3218  0.3827  2.3425
  260TMC3    H2 3943   1.581   1.354   1.020 -0.2495 -0.0684 -0.6966
  260TMC3    C7 3944   1.336   1.393   1.033 -0.0562 -0.6788 -0.6365
  260TMC3    C8 3945   1.728   1.160   1.139  0.6487 -0.2820  0.3550
  260TMC3    O1 3946   1.386   1.404   0.922  0.1578 -0.3567  0.2176
  260TMC3    O2 3947   1.813   1.114   1.219 -0.3415 -0.4090 -0.3003
  261MPD2     C 3948   2.390   0.549  12.155 -0.6648  0.4388  0.4882
  261MPD2    C1 3949   2.417   0.647  12.253  0.7933 -0.0601 -0.5814
  261MPD2    C2 3950   2.495   0.755  12.208  0.3009  0.1117  0.4692
  261MPD2    C3 3951   2.527   0.780  12.073  0.8688 -0.3541  0.3436
  261MPD2    C4 3952   2.492   0.676  11.987 -0.1780  0.0827 -0.2016
  261MPD2    C5 3953   2.425   0.559  12.023  0.0541 -0.2749  0.2791
  261MPD2     H 3954   2.527   0.824  12.285  0.9860  0.2219  0.0876
  261MPD2    H1 3955   2.510   0.683  11.880  0.2664 -1.4446 -0.2305
  261MPD2    H2 3956   2.339   0.459  12.187 -0.5924  0.9725  2.0784
  261MPD2    H3 3957   2.401   0.486  11.947 -0.4668 -1.6000  1.7000
  261MPD2     N 3958   2.606   0.889  12.025  0.3373  0.0297 -0.0253
  261MPD2    H5 3959   2.607   0.901  11.924  2.8714  0.4947  0.0578
  261MPD2    N1 3960   2.378   0.642  12.393  0.7095 -0.5846  0.3323
  261MPD2    H7 3961   2.409   0.716  12.455 -0.1102  0.9668 -1.1038
  262TMC3    C1 3962   2.693   1.113  12.033 -0.6048  0.0725 -0.6649
  262TMC3    C2 3963   2.642   1.239  12.073 -0.2165 -0.4051  0.5332
  262TMC3    C3 3964   2.636   1.346  11.990  0.7230 -0.9601  0.1671
  262TMC3    C4 3965   2.740   1.102  11.903 -0.0835  0.1325 -0.2545
  262TMC3    C5 3966   2.745   1.217  11.828  0.0220  0.4055  0.3253
  262TMC3    C6 3967   2.704   1.337  11.872 -0.3981  0.2446  0.0909
  262TMC3     C 3968   2.648   0.994  12.104 -0.4394 -0.3906  0.6556
  262TMC3     O 3969   2.651   1.009  12.225  0.0776 -0.7207 -0.0112
  262TMC3     H 3970   2.595   1.236  12.171 -1.9888 -0.4311 -0.3367
  262TMC3    H1 3971   2.787   1.008  11.878  1.5083  1.0143 -0.6042
  262TMC3    H2 3972   2.678   1.414  11.800  1.3623 -0.6553 -1.4775
  262TMC3    C7 3973   2.798   1.209  11.694 -0.2100 -0.2289 -0.5043
  262TMC3    C8 3974   2.576   1.472  12.025 -0.0996  0.5542 -1.1608
  262TMC3    O1 3975   2.782   1.111  11.622 -0.2099 -0.3804 -0.8917
  262TMC3    O2 3976   2.622   1.567  11.959 -0.4819 -0.4192 -0.3600
  263MPD2     C 3977   3.762   0.584  11.745 -0.0911 -0.4830 -0.2231
  263MPD2    C1 3978   3.782   0.491  11.640 -0.8624 -0.3386  0.1589
  263MPD2    C2 3979   3.743   0.531  11.513 -0.6932  0.6600 -0.2322
  263MPD2    C3 3980   3.690   0.663  11.494 -0.3144  0.1849  0.3773
  263MPD2    C4 3981   3.672   0.749  11.597 -0.6346 -0.5462 -0.1785
  263MPD2    C5 3982   3.711   0.707  11.728 -0.0357  0.2263  0.3067
  263MPD2     H 3983   3.763   0.463  11.431 -3.7927 -1.0039  0.3606
  263MPD2    H1 3984   3.654   0.854  11.578  2.7728 -0.0419 -0.6288
  263MPD2    H2 3985   3.786   0.560  11.848  2.1506 -1.8751 -1.0688
  263MPD2    H3 3986   3.709   0.785  11.803 -2.5570 -1.6054  2.1431
  263MPD2     N 3987   3.662   0.704  11.359 -0.4941  0.2790 -0.2618
  263MPD2    H5 3988   3.687   0.637  11.287 -0.4297 -1.4429  1.3626
  263MPD2    N1 3989   3.829   0.363  11.677 -0.0010 -0.4708  0.1679
  263MPD2    H7 3990   3.839   0.362  11.778 -0.2572 -2.1926  0.1773
  264TMC3    C1 3991   3.608   0.829  11.175 -0.2902  0.5528 -0.4753
  264TMC3    C2 3992   3.493   0.867  11.113  0.4695 -0.1614 -0.9672
  264TMC3    C3 3993   3.492   0.851  10.975 -0.1501  0.3855  0.1974
  264TMC3    C4 3994   3.719   0.779  11.108 -0.3305  0.5164  0.3089
  264TMC3    C5 3995   3.716   0.775  10.976  0.2914  0.0719  0.2884
  264TMC3    C6 3996   3.605   0.814  10.910 -0.1119 -0.2427 -0.1292
  264TMC3     C 3997   3.604   0.825  11.318 -0.3395 -0.2320 -0.2604
  264TMC3     O 3998   3.524   0.889  11.387 -0.3062  0.6142  0.0862
  264TMC3     H 3999   3.402   0.882  11.170  0.4256  0.7087 -1.2607
  264TMC3    H1 4000   3.802   0.730  11.157  0.4744  0.1660 -1.4333
  264TMC3    H2 4001   3.609   0.815  10.802  0.3017 -1.1053 -0.1158
  264TMC3    C7 4002   3.846   0.782  10.914 -0.1452 -0.6521 -0.1267
  264TMC3    C8 4003   3.374   0.863  10.894  0.2514  0.1615  0.5501
  264TMC3    O1 4004   3.872   0.692  10.832  0.1908 -0.1763 -0.1040
  264TMC3    O2 4005   3.337   0.764  10.831 -0.1117 -0.1616  0.6351
  265MPD2     C 4006   1.321   0.209  15.478 -0.2098 -0.0196  0.1876
  265MPD2    C1 4007   1.275   0.316  15.412 -0.1323 -1.0297 -0.6852
  265MPD2    C2 4008   1.305   0.333  15.278 -0.6400  0.2918 -1.0175
  265MPD2    C3 4009   1.386   0.242  15.214  0.1872  0.3197 -0.7195
  265MPD2    C4 4010   1.428   0.133  15.286  0.4466 -0.2551  0.1250
  265MPD2    C5 4011   1.386   0.111  15.417 -0.4497 -0.0187 -0.8140
  265MPD2     H 4012   1.249   0.403  15.217 -0.2145  1.9050  0.4706
  265MPD2    H1 4013   1.493   0.055  15.247  0.4190  0.0590 -0.5455
  265MPD2    H2 4014   1.305   0.194  15.584 -1.3671 -0.4541 -0.0463
  265MPD2    H3 4015   1.425   0.023  15.467 -0.7217 -0.5412 -1.5387
  265MPD2     N 4016   1.426   0.253  15.080 -0.1741 -0.5413  0.7234
  265MPD2    H5 4017   1.471   0.170  15.041 -1.7395 -1.1482  0.2249
  265MPD2    N1 4018   1.178   0.404  15.468  0.0935 -0.0505 -0.0106
  265MPD2    H7 4019   1.130   0.458  15.397  2.1961  2.8312  0.7803
  266TMC3    C1 4020   1.044   0.503  15.638 -0.2833 -0.6169  0.5432
  266TMC3    C2 4021   1.036   0.538  15.773 -0.4392  0.6877 -0.9450
  266TMC3    C3 4022   0.916   0.581  15.816  0.6521 -0.8094  0.1964
  266TMC3    C4 4023   0.937   0.511  15.562  0.7293 -0.5977 -0.0198
  266TMC3    C5 4024   0.823   0.570  15.611  0.1347  0.7851  0.1341
  266TMC3    C6 4025   0.808   0.605  15.740 -0.2760  0.3518 -0.3321
  266TMC3     C 4026   1.151   0.414  15.605 -0.2059 -0.5388 -0.4167
  266TMC3     O 4027   1.225   0.387  15.698 -0.2761 -0.1041 -0.3827
  266TMC3     H 4028   1.114   0.520  15.846 -1.3535  2.0604  0.3791
  266TMC3    H1 4029   0.931   0.472  15.461  2.3684 -0.4361 -0.1825
  266TMC3    H2 4030   0.711   0.630  15.780 -0.4985  0.1978 -0.7702
  266TMC3    C7 4031   0.706   0.548  15.521 -0.0982 -0.3227 -0.1474
  266TMC3    C8 4032   0.898   0.600  15.962 -0.2544  0.0084  0.2319
  266TMC3    O1 4033   0.719   0.580  15.400 -0.2102  0.1963  0.1758
  266TMC3    O2 4034   0.977   0.535  16.031  0.2905 -0.4032 -0.5065
  267MPD2     C 4035   3.368   1.871  17.584 -0.5882  0.5235  0.7912
  267MPD2    C1 4036   3.359   2.000  17.543 -0.3371 -0.5278 -0.4350
  267MPD2    C2 4037   3.282   2.019  17.429  0.7234  0.5341 -0.3678
  267MPD2    C3 4038   3.199   1.919  17.372 -0.1147  0.0541 -0.6426
  267MPD2    C4 4039   3.190   1.792  17.438  0.7369 -0.0755  0.0518
  267MPD2    C5 4040   3.271   1.773  17.544  0.3331  0.1535  0.1491
  267MPD2     H 4041   3.291   2.116  17.383  2.2373  0.9987  0.8906
  267MPD2    H1 4042   3.134   1.712  17.391 -0.1142  0.5538 -0.0068
  267MPD2    H2 4043   3.434   1.855  17.669  0.3633  0.3367  0.0199
  267MPD2    H3 4044   3.277   1.681  17.602 -1.9582 -0.5318 -0.6975
  267MPD2     N 4045   3.117   1.947  17.261  0.4213  0.2167 -0.2560
  267MPD2    H5 4046   3.072   1.861  17.231  1.2638 -0.2209 -0.2652
  267MPD2    N1 4047   3.448   2.095  17.612 -0.3087  0.6885  0.3761
  267MPD2    H7 4048   3.505   2.066  17.692  2.4826  3.6438 -0.5577
  268TMC3    C1 4049   3.536   2.308  17.661  0.1787  0.0169  0.4034
  268TMC3    C2 4050   3.565   2.436  17.616 -0.2667  0.2099 -0.2062
  268TMC3    C3 4051   3.681   2.492  17.671 -0.8601  0.6294  0.0221
  268TMC3    C4 4052   3.599   2.251   0.063  0.2896 -0.4836 -0.2922
  268TMC3    C5 4053   3.694   2.325   0.129 -0.2667  0.4339  0.1259
  268TMC3    C6 4054   3.749   2.437   0.074  0.1710 -0.8654  0.3665
  268TMC3     C 4055   3.444   2.232  17.583  0.8319  1.3771 -0.8586
  268TMC3     O 4056   3.375   2.297  17.504 -0.0837 -0.2245  0.2240
  268TMC3     H 4057   3.499   2.482  17.544 -0.8241 -0.9058 -0.4147
  268TMC3    H1 4058   3.546   2.174   0.118 -0.5996  0.2587 -0.1067
  268TMC3    H2 4059   3.831   2.490   0.119  0.7342 -1.1325 -0.3488
  268TMC3    C7 4060   3.734   2.271   0.256  0.2543  0.1626 -0.5203
  268TMC3    C8 4061   3.722   2.617  17.625  0.7170  0.0667 -0.2696
  268TMC3    O1 4062   3.711   2.154   0.286 -0.5859  0.1751  0.5337
  268TMC3    O2 4063   3.781   2.683   0.002 -0.0774 -0.3785  0.0754
  269MPD2     C 4064   3.385   1.198  15.416 -0.0753  0.0164  0.2505
  269MPD2    C1 4065   3.326   1.242  15.537  0.0809 -0.9814 -0.2484
  269MPD2    C2 4066   3.330   1.376  15.568 -0.2386 -0.7953 -0.0690
  269MPD2    C3 4067   3.405   1.466  15.488 -0.2433 -0.2247  0.1428
  269MPD2    C4 4068   3.464   1.415  15.374 -0.2222 -0.5519  0.5208
  269MPD2    C5 4069   3.453   1.284  15.335 -0.2298 -0.2122  0.7204
  269MPD2     H 4070   3.266   1.420  15.644 -0.2773  0.2696 -0.7194
  269MPD2    H1 4071   3.513   1.475  15.298  0.7197 -0.5276  1.1529
  269MPD2    H2 4072   3.368   1.096  15.385 -2.4075  1.1151 -2.1758
  269MPD2    H3 4073   3.495   1.260  15.237  0.2958 -0.8932  1.1153
  269MPD2     N 4074   3.411   1.605  15.526 -0.0620 -0.2992 -0.0266
  269MPD2    H5 4075   3.370   1.635  15.614 -1.1266  0.0982 -0.6610
  269MPD2    N1 4076   3.256   1.149  15.618  0.2477 -0.1320  0.4697
  269MPD2    H7 4077   3.270   1.050  15.602 -0.3939 -0.1973  0.3390
  270TMC3    C1 4078   3.109   1.056  15.776 -0.2382  0.6521  0.0497
  270TMC3    C2 4079   2.970   1.041  15.784  0.3385 -0.2780  0.5292
  270TMC3    C3 4080   2.926   0.907  15.803 -0.2038 -0.0070  0.1765
  270TMC3    C4 4081   3.201   0.962  15.806  0.0574  0.1953  0.2216
  270TMC3    C5 4082   3.150   0.840  15.847 -0.0983 -0.2977 -1.1300
  270TMC3    C6 4083   3.015   0.807  15.834  0.1796 -0.2674  0.0851
  270TMC3     C 4084   3.152   1.171  15.708  0.0594  0.0297 -0.0466
  270TMC3     O 4085   3.103   1.278  15.736  0.2256  0.3308  0.4279
  270TMC3     H 4086   2.906   1.107  15.727 -2.1297 -1.2830  2.1204
  270TMC3    H1 4087   3.307   0.973  15.789  0.2446  0.6700  1.6892
  270TMC3    H2 4088   2.987   0.705  15.856  0.8680 -0.5965 -0.5753
  270TMC3    C7 4089   3.243   0.737  15.897  0.1070  0.4908  0.0627
  270TMC3    C8 4090   2.809   0.866  15.720  0.8506 -0.2509 -0.0602
  270TMC3    O1 4091   3.360   0.752  15.868 -0.4211  0.2693  0.0347
  270TMC3    O2 4092   2.716   0.943  15.714 -0.4511  0.1873 -0.6056
  271MPD2     C 4093   2.488   0.749  13.872  0.4539 -0.1853 -0.2078
  271MPD2    C1 4094   2.432   0.749  14.006 -0.0828  0.8805 -0.1134
  271MPD2    C2 4095   2.314   0.815  14.031 -0.7274 -0.3898 -0.1257
  271MPD2    C3 4096   2.244   0.871  13.923  0.5982  0.4447 -0.0367
  271MPD2    C4 4097   2.310   0.884  13.803  0.1294 -0.8085  0.2813
  271MPD2    C5 4098   2.426   0.822  13.776  0.3640 -0.0615 -0.6021
  271MPD2     H 4099   2.263   0.811  14.126 -1.9020 -1.6780 -0.8104
  271MPD2    H1 4100   2.258   0.932  13.722 -0.2328  2.0564  2.2074
  271MPD2    H2 4101   2.576   0.691  13.849  2.0158  2.9786 -2.1735
  271MPD2    H3 4102   2.468   0.835  13.677 -1.5064  2.5895 -1.0434
  271MPD2     N 4103   2.102   0.905  13.925  0.8920  0.0859 -0.1503
  271MPD2    H5 4104   2.062   0.952  13.844 -0.0797 -0.0902  0.2219
  271MPD2    N1 4105   2.476   0.661  14.106 -0.4692 -0.1655  0.1152
  271MPD2    H7 4106   2.429   0.665  14.196 -2.6260 -0.4811 -0.9922
  272TMC3    C1 4107   2.609   0.524  14.233 -0.3882 -0.6679 -0.1080
  272TMC3    C2 4108   2.706   0.432  14.234  0.0724  0.3049  0.4546
  272TMC3    C3 4109   2.746   0.380  14.355  0.3545  0.0004 -0.4578
  272TMC3    C4 4110   2.537   0.563  14.345  0.0708 -0.0687 -0.5892
  272TMC3    C5 4111   2.585   0.512  14.462 -0.6152 -0.1724  0.5871
  272TMC3    C6 4112   2.681   0.418  14.469 -0.3953  0.6372  0.3045
  272TMC3     C 4113   2.583   0.580  14.102 -0.4297  0.2271 -0.2958
  272TMC3     O 4114   2.662   0.566  14.013 -0.0185  0.0871 -0.5818
  272TMC3     H 4115   2.766   0.415  14.146 -1.9227  2.1512 -1.2678
  272TMC3    H1 4116   2.472   0.649  14.344  0.0707 -0.0511  1.0241
  272TMC3    H2 4117   2.712   0.377  14.565 -1.2326 -1.2759 -0.2462
  272TMC3    C7 4118   2.497   0.528  14.575  0.0726 -0.9020  0.3192
  272TMC3    C8 4119   2.875   0.303  14.345  0.2930  0.7102 -0.1869
  272TMC3    O1 4120   2.380   0.545  14.548 -0.0306  0.4765 -0.9894
  272TMC3    O2 4121   2.900   0.262  14.231  0.4332 -0.0113 -0.4037
  273MPD2     C 4122   4.097   3.601  11.886 -0.1093 -0.8668  0.3096
  273MPD2    C1 4123   4.128   3.721  11.822 -0.2759  0.2522  0.8430
  273MPD2    C2 4124   4.067   3.749  11.701  0.0723 -0.2358  0.4736
  273MPD2    C3 4125   3.976   3.671  11.640  0.4635 -0.0378 -0.0738
  273MPD2    C4 4126   3.952   3.548  11.698 -0.6358  0.2870  0.0219
  273MPD2    C5 4127   4.009   3.524  11.821 -0.2793  0.0622  1.0362
  273MPD2     H 4128   4.098   3.836  11.645  0.6008  1.9319  4.1706
  273MPD2    H1 4129   3.875   3.483  11.657  0.2295 -1.0199  0.4543
  273MPD2    H2 4130   4.126   3.579  11.988  2.3545 -2.4499 -0.7221
  273MPD2    H3 4131   3.970   3.436  11.871 -2.3898  0.6588  0.4705
  273MPD2     N 4132   3.917   3.707  11.516 -0.2208 -0.6372  0.1636
  273MPD2    H5 4133   3.959   3.788  11.472 -2.5521 -0.6145 -2.0007
  273MPD2    N1 4134   4.207   3.812  11.894 -0.1843 -0.8700 -1.0689
  273MPD2    H7 4135   4.206   3.801  11.994 -0.3419 -0.9012 -1.0738
  274TMC3    C1 4136   3.812   3.689  11.306 -0.1004  0.2343 -1.1941
  274TMC3    C2 4137   3.685   3.720  11.271  0.4358 -0.3495 -0.0406
  274TMC3    C3 4138   3.668   3.842  11.205  0.7016  0.1964 -0.0724
  274TMC3    C4 4139   3.919   3.768  11.279  0.4010 -0.5179  0.3736
  274TMC3    C5 4140   3.901   3.895  11.227 -0.3663  0.0237  0.3360
  274TMC3    C6 4141   3.774   3.939  11.190  0.5244 -0.4922  0.0855
  274TMC3     C 4142   3.823   3.630  11.440 -0.1479 -0.7813  0.3542
  274TMC3     O 4143   3.735   3.551  11.480 -0.7571 -0.1617 -0.0303
  274TMC3     H 4144   3.600   3.657  11.297 -1.5715  2.0539 -0.7099
  274TMC3    H1 4145   4.017   3.729  11.306  0.9414  0.1003 -0.6847
  274TMC3    H2 4146   3.753   4.030  11.136 -0.3290 -1.7895 -1.7661
  274TMC3    C7 4147   4.015   3.985  11.202 -0.5363  0.1525 -0.1209
  274TMC3    C8 4148   3.537   3.881  11.167  0.3122 -0.0055 -0.0872
  274TMC3    O1 4149   4.116   3.928  11.167 -0.4042  0.1087 -0.2959
  274TMC3    O2 4150   3.510   3.999  11.162  0.8463 -0.6296  0.5810
  275MPD2     C 4151   3.885   1.757  14.381 -0.0363  0.3436  0.2534
  275MPD2    C1 4152   3.855   1.743  14.517 -0.3248  0.5072  0.9186
  275MPD2    C2 4153   3.751   1.664  14.551  0.2394  0.1702 -0.0123
  275MPD2    C3 4154   3.681   1.582  14.461  0.1985 -0.0593 -0.2861
  275MPD2    C4 4155   3.725   1.576  14.330  0.1399  0.0012  1.0059
  275MPD2    C5 4156   3.826   1.666  14.292 -0.2986  0.6930  0.4481
  275MPD2     H 4157   3.729   1.648  14.656  0.1182 -0.4598 -0.1318
  275MPD2    H1 4158   3.679   1.516  14.252  1.1009 -2.2149  2.1477
  275MPD2    H2 4159   3.948   1.835  14.340  0.2694  0.3938  0.8211
  275MPD2    H3 4160   3.844   1.679  14.186 -0.1822 -3.3141 -0.0305
  275MPD2     N 4161   3.576   1.494  14.506  0.1194  0.5956  0.8128
  275MPD2    H5 4162   3.534   1.429  14.441  0.6513 -0.6089  1.6724
  275MPD2    N1 4163   3.918   1.814  14.622 -0.5955  0.1632 -0.0775
  275MPD2    H7 4164   3.882   1.814  14.717  0.4543 -0.1423  0.3257
  276TMC3    C1 4165   4.060   1.949  14.734  0.1268 -1.1539 -0.0334
  276TMC3    C2 4166   3.955   1.946  14.817  0.1717 -0.1630 -0.5230
  276TMC3    C3 4167   3.980   1.919  14.948 -0.7500  0.4942 -0.4896
  276TMC3    C4 4168   4.187   1.915  14.766 -0.3142  0.2050  0.4460
  276TMC3    C5 4169   4.201   1.886  14.900 -0.1071  0.3362  0.6000
  276TMC3    C6 4170   4.100   1.888  14.994 -1.0041  0.1165  0.0636
  276TMC3     C 4171   4.028   1.895  14.605 -0.4571 -0.6170  0.2210
  276TMC3     O 4172   4.110   1.899  14.515 -0.1972 -0.6935 -0.1764
  276TMC3     H 4173   3.860   1.982  14.780  1.1494  0.2530 -2.6275
  276TMC3    H1 4174   4.275   1.931  14.703  0.9248 -0.3918  2.0227
  276TMC3    H2 4175   4.117   1.844  15.091 -0.9874 -0.7874 -0.3473
  276TMC3    C7 4176   4.326   1.882  14.969 -0.1282 -0.3815  0.1232
  276TMC3    C8 4177   3.879   1.830  14.993 -0.1437  0.1992 -0.2730
  276TMC3    O1 4178   4.321   1.927  15.084  0.1472  0.2640  0.1373
  276TMC3    O2 4179   3.774   1.887  15.028 -0.3864  0.3178  0.6153
  277MPD2     C 4180   1.169   0.833  13.364 -0.3999  0.3753 -0.3055
  277MPD2    C1 4181   1.032   0.830  13.321 -0.5971 -0.5637  0.1988
  277MPD2    C2 4182   0.937   0.797  13.417 -0.0928 -0.4984  0.3730
  277MPD2    C3 4183   0.975   0.778  13.546  0.3397  0.4931  0.0724
  277MPD2    C4 4184   1.103   0.785  13.585  0.0377  0.9225  0.3223
  277MPD2    C5 4185   1.203   0.801  13.491 -0.5957 -0.0751 -0.1880
  277MPD2     H 4186   0.835   0.780  13.383  0.1282  1.8761 -1.4783
  277MPD2    H1 4187   1.119   0.774  13.692  0.8219  0.4659  0.1609
  277MPD2    H2 4188   1.248   0.860  13.295  0.6179  0.1937  0.7853
  277MPD2    H3 4189   1.308   0.809  13.515 -0.8927  2.8077  0.1477
  277MPD2     N 4190   0.871   0.749  13.636 -0.5719  0.0629 -0.1502
  277MPD2    H5 4191   0.781   0.727  13.594 -0.3369  2.6374 -2.0031
  277MPD2    N1 4192   0.995   0.892  13.200 -0.6395 -0.7177 -0.3273
  277MPD2    H7 4193   1.076   0.930  13.151 -2.1669 -0.5633 -2.7375
  278TMC3    C1 4194   0.752   0.687  13.823  0.0343  0.3461  0.2821
  278TMC3    C2 4195   0.743   0.565  13.877  0.4503 -0.1562  0.0450
  278TMC3    C3 4196   0.620   0.516  13.895 -0.8660  0.3775  0.7709
  278TMC3    C4 4197   0.640   0.762  13.794 -0.1961 -0.6708  0.1358
  278TMC3    C5 4198   0.513   0.715  13.812 -0.0329 -0.2819 -0.1407
  278TMC3    C6 4199   0.512   0.591  13.870 -0.3441 -0.1474  0.2759
  278TMC3     C 4200   0.884   0.722  13.769 -0.3140 -0.3521  0.0183
  278TMC3     O 4201   0.974   0.711  13.850  0.1760  0.4142 -0.1109
  278TMC3     H 4202   0.836   0.509  13.875 -0.1393 -1.0718 -1.4305
  278TMC3    H1 4203   0.648   0.860  13.749 -3.5486 -0.4995 -0.0640
  278TMC3    H2 4204   0.417   0.542  13.888 -1.5405  1.6778 -1.0981
  278TMC3    C7 4205   0.406   0.761  13.725 -0.0837 -0.1419 -0.0337
  278TMC3    C8 4206   0.623   0.387  13.964 -1.1023 -0.4750 -0.5837
  278TMC3    O1 4207   0.450   0.845  13.651 -0.4329  0.1611  0.0669
  278TMC3    O2 4208   0.725   0.355  14.026  0.1964 -0.0285  0.4530
  279MPD2     C 4209   0.241   0.415   0.159 -0.0506 -0.5338  0.5428
  279MPD2    C1 4210   0.198   0.545   0.193  0.6508  0.3244 -0.0329
  279MPD2    C2 4211   0.228   0.656   0.112  0.4880  0.0855 -0.7115
  279MPD2    C3 4212   0.291   0.640  17.699 -0.5018  0.1182  1.0412
  279MPD2    C4 4213   0.323   0.511  17.667 -0.1598 -0.2608 -0.1641
  279MPD2    C5 4214   0.302   0.400   0.042  0.1228  0.5192  0.2402
  279MPD2     H 4215   0.195   0.754   0.145  0.2418 -0.9033  1.9018
  279MPD2    H1 4216   0.387   0.498  17.581 -2.4746  0.2926 -1.9648
  279MPD2    H2 4217   0.204   0.333   0.219  1.1352 -0.2885  1.5933
  279MPD2    H3 4218   0.339   0.303   0.010 -2.0699 -0.4148  0.5238
  279MPD2     N 4219   0.311   0.740  17.606 -0.6353 -0.1110  0.4792
  279MPD2    H5 4220   0.341   0.712  17.513  2.7036  0.4941  1.3557
  279MPD2    N1 4221   0.116   0.547   0.303 -0.1094 -0.0277  0.4636
  279MPD2    H7 4222   0.108   0.465   0.362 -0.2095 -0.9321 -0.8124
  280TMC3    C1 4223   4.676   0.614   0.463 -0.1840  0.2030  0.2656
  280TMC3    C2 4224   4.580   0.532   0.405 -0.6124  0.8571  0.3507
  280TMC3    C3 4225   4.447   0.569   0.382  0.2548  0.2174 -0.0217
  280TMC3    C4 4226   4.628   0.729   0.511  0.1133  0.9626 -0.7959
  280TMC3    C5 4227   4.491   0.762   0.505  0.2694  0.2577  0.3077
  280TMC3    C6 4228   4.400   0.686   0.438  0.7826 -0.2670  0.6170
  280TMC3     C 4229   0.038   0.650   0.348  0.2872  0.0585  0.2615
  280TMC3     O 4230   0.029   0.763   0.302 -0.2397 -0.3099 -0.7742
  280TMC3     H 4231   4.618   0.461   0.333  1.6615  1.6521  0.7775
  280TMC3    H1 4232   4.692   0.814   0.532  0.2621  0.2026  1.8634
  280TMC3    H2 4233   4.294   0.705   0.432  0.4003 -2.8146 -1.1189
  280TMC3    C7 4234   4.458   0.899   0.540 -0.0298  0.5849  0.7562
  280TMC3    C8 4235   4.350   0.471   0.327  0.2307 -0.2697 -0.0026
  280TMC3    O1 4236   4.512   0.950   0.638 -0.2097 -0.3969 -0.2791
  280TMC3    O2 4237   4.234   0.504   0.321  0.2670  0.0433  0.6940
  281TMC3    C1 4238   3.394   1.219  12.759  0.7395  0.3740 -0.2599
  281TMC3    C2 4239   3.449   1.294  12.661 -0.1622  0.3412 -0.5669
  281TMC3    C3 4240   3.430   1.246  12.534  0.2093 -0.0879 -0.5585
  281TMC3    C4 4241   3.321   1.099  12.742 -0.8161 -0.0437  0.1084
  281TMC3    C5 4242   3.318   1.053  12.615 -0.0235 -0.2538  0.1860
  281TMC3    C6 4243   3.369   1.124  12.510 -0.2270  0.2072 -0.0717
  281TMC3     C 4244   3.386   1.261  12.899 -0.7645 -0.3388  0.5995
  281TMC3     O 4245   3.391   1.174  12.985 -0.2402 -0.3257 -0.5474
  281TMC3     H 4246   3.500   1.390  12.665  1.3974 -0.6147  2.5606
  281TMC3    H1 4247   3.262   1.053  12.820 -1.3747  1.2367  0.4462
  281TMC3    H2 4248   3.382   1.074  12.415 -2.0661 -1.1269  0.3857
  281TMC3    C7 4249   3.265   0.923  12.590 -0.0140 -0.3541 -0.2946
  281TMC3    C8 4250   3.480   1.324  12.416  0.2851 -0.6137 -0.3214
  281TMC3    O1 4251   3.239   0.899  12.474 -0.3155  0.1216  0.1980
  281TMC3    O2 4252   3.515   1.260  12.316 -0.2395 -0.4721  0.4730
  282MPD2     C 4253   0.891   2.128  15.036 -0.1008  0.9987  0.4127
  282MPD2    C1 4254   0.798   2.226  15.039  0.0934  0.5102  0.5157
  282MPD2    C2 4255   0.747   2.278  14.923 -0.5841  0.8634  0.5663
  282MPD2    C3 4256   0.789   2.235  14.799 -0.7328 -0.1499 -0.2217
  282MPD2    C4 4257   0.895   2.149  14.799 -0.2389  0.7069 -0.2920
  282MPD2    C5 4258   0.950   2.106  14.916 -0.5331  0.1540  0.8125
  282MPD2     H 4259   0.668   2.352  14.931  1.4689  3.2042 -0.6666
  282MPD2    H1 4260   0.934   2.100  14.711 -3.9971 -0.1782 -1.4858
  282MPD2    H2 4261   0.935   2.081  15.123  0.1730 -1.3479 -1.0129
  282MPD2    H3 4262   1.031   2.033  14.921 -0.9663 -0.4843 -1.4175
  282MPD2     N 4263   0.702   2.253  14.689 -0.3783 -0.5756 -0.2692
  282MPD2    H5 4264   0.621   2.307  14.717 -0.7912 -0.3016 -2.0127
  282MPD2    N1 4265   0.728   2.264  15.159 -0.9505  0.0607  0.0875
  282MPD2    H7 4266   0.640   2.314  15.149 -0.3140  1.2292  0.3802
  283TMC3    C1 4267   0.655   2.268  15.380 -0.5726  0.1210  0.3526
  283TMC3    C2 4268   0.616   2.397  15.364  0.2799  0.0541 -0.0671
  283TMC3    C3 4269   0.507   2.442  15.445  0.0977 -0.2841 -0.1793
  283TMC3    C4 4270   0.606   2.182  15.476  0.5649  0.7259  0.1061
  283TMC3    C5 4271   0.512   2.233  15.558  0.0702 -0.1804 -0.0610
  283TMC3    C6 4272   0.459   2.359  15.546  0.4381 -0.3393  0.1812
  283TMC3     C 4273   0.758   2.223  15.286  0.4102  0.1417 -0.3389
  283TMC3     O 4274   0.853   2.167  15.332 -0.0768  0.1073  0.7906
  283TMC3     H 4275   0.651   2.462  15.284  2.5076 -0.7581  0.2684
  283TMC3    H1 4276   0.651   2.083  15.476 -1.6659 -0.2760 -0.5667
  283TMC3    H2 4277   0.395   2.401  15.623  0.5394 -2.1193  1.2368
  283TMC3    C7 4278   0.465   2.143  15.668 -0.6344 -0.9963  0.5744
  283TMC3    C8 4279   0.465   2.579  15.444 -0.1693  0.1657 -0.4402
  283TMC3    O1 4280   0.412   2.211  15.754  0.0569 -0.0181  0.3990
  283TMC3    O2 4281   0.464   2.642  15.337 -0.3015 -0.0681 -0.1479
  284MPD2     C 4282   3.795   2.172  11.935 -0.6154 -0.3934 -0.9523
  284MPD2    C1 4283   3.870   2.083  11.865 -0.2869 -0.9102 -0.1084
  284MPD2    C2 4284   3.956   1.996  11.934  0.3124 -0.3010  0.2660
  284MPD2    C3 4285   3.956   1.991  12.069 -0.0548 -0.3137  0.4454
  284MPD2    C4 4286   3.873   2.072  12.141  0.5702 -0.4630  0.0146
  284MPD2    C5 4287   3.803   2.165  12.072 -1.0716 -0.2631  0.2152
  284MPD2     H 4288   4.038   1.951  11.879 -0.1176 -2.2592  1.2318
  284MPD2    H1 4289   3.879   2.080  12.249  0.6254  1.4288 -0.1299
  284MPD2    H2 4290   3.731   2.251  11.897  1.2913  1.8339  0.4689
  284MPD2    H3 4291   3.741   2.232  12.131 -0.3958  0.2055  0.3868
  284MPD2     N 4292   4.044   1.896  12.125 -0.2212 -0.8596  0.1270
  284MPD2    H5 4293   4.121   1.872  12.064  0.7719  1.3969  0.4712
  284MPD2    N1 4294   3.875   2.089  11.723 -0.0097  0.6223 -0.1147
  284MPD2    H7 4295   3.942   2.025  11.683 -0.7375 -0.8624  1.0189
  285TMC3    C1 4296   3.847   2.165  11.507  0.1536  0.4221  0.4782
  285TMC3    C2 4297   3.942   2.067  11.478  0.7075 -0.1723 -0.2801
  285TMC3    C3 4298   4.026   2.086  11.364  0.0587 -0.3035 -0.0307
  285TMC3    C4 4299   3.827   2.273  11.432  0.1346 -0.1476  0.4360
  285TMC3    C5 4300   3.909   2.282  11.320  0.8051  0.1715  0.1395
  285TMC3    C6 4301   4.009   2.192  11.283  0.1261  0.2742  0.9688
  285TMC3     C 4302   3.801   2.173  11.644 -0.5575 -0.1052 -0.3011
  285TMC3     O 4303   3.715   2.259  11.668 -0.2881  0.2999 -0.3961
  285TMC3     H 4304   3.941   1.970  11.528 -0.8365  0.8581  1.6406
  285TMC3    H1 4305   3.771   2.357  11.471  1.0824 -0.2031  1.9181
  285TMC3    H2 4306   4.061   2.206  11.189  1.6703 -1.0971  1.6104
  285TMC3    C7 4307   3.931   2.418  11.270 -0.4559 -0.3698  0.4009
  285TMC3    C8 4308   4.085   1.960  11.308 -0.4830  0.2553 -0.4015
  285TMC3    O1 4309   4.049   2.439  11.247  0.4645 -0.4950 -0.2289
  285TMC3    O2 4310   4.025   1.858  11.346 -0.5650 -0.1581 -0.0450
  286MPD2     C 4311   3.499   0.974   1.387 -0.4100 -0.3378 -0.6023
  286MPD2    C1 4312   3.563   0.965   1.265 -0.1262 -0.2455 -0.3962
  286MPD2    C2 4313   3.663   0.871   1.247 -0.2569 -0.0445 -0.2024
  286MPD2    C3 4314   3.694   0.779   1.345 -0.3469 -0.1349 -0.0155
  286MPD2    C4 4315   3.623   0.778   1.457  0.1429  0.0837  0.5711
  286MPD2    C5 4316   3.530   0.881   1.484  0.0488  0.2275 -0.0685
  286MPD2     H 4317   3.717   0.877   1.153 -1.2856 -1.0505 -0.8674
  286MPD2    H1 4318   3.659   0.712   1.536  0.9750 -0.2290 -0.0699
  286MPD2    H2 4319   3.416   1.038   1.413  0.8688  0.6393  1.0431
  286MPD2    H3 4320   3.473   0.887   1.577 -0.5348  1.2477 -0.4815
  286MPD2     N 4321   3.801   0.688   1.337 -0.2742  0.1944  0.9017
  286MPD2    H5 4322   3.790   0.602   1.390 -0.4953  0.0089  0.5522
  286MPD2    N1 4323   3.512   1.046   1.162 -0.1311  0.8917 -0.4576
  286MPD2    H7 4324   3.541   1.017   1.069 -0.2833 -1.2354  0.1485
  287TMC3    C1 4325   3.989   0.562   1.250  0.3279 -0.4293 -0.4273
  287TMC3    C2 4326   4.048   0.513   1.135  0.0466 -0.0058  0.5240
  287TMC3    C3 4327   4.133   0.408   1.139 -0.2146  0.2669 -0.3608
  287TMC3    C4 4328   3.999   0.504   1.373 -0.0815 -0.5049  0.0154
  287TMC3    C5 4329   4.084   0.398   1.375  0.1910 -0.5085  0.2075
  287TMC3    C6 4330   4.154   0.354   1.262  0.0347  1.0872 -0.0929
  287TMC3     C 4331   3.896   0.671   1.237 -1.0035  0.3395  0.2383
  287TMC3     O 4332   3.914   0.743   1.141 -0.3821  0.2437  0.2888
  287TMC3     H 4333   4.026   0.557   1.039  1.3759 -0.2947  0.0987
  287TMC3    H1 4334   3.971   0.573   1.452  2.1999 -0.5136  0.8440
  287TMC3    H2 4335   4.235   0.282   1.273  0.2155  1.3224  0.1172
  287TMC3    C7 4336   4.122   0.347   1.503  0.1207 -0.1412  0.0317
  287TMC3    C8 4337   4.167   0.338   1.013 -0.0979 -0.3414  0.1214
  287TMC3    O1 4338   4.223   0.282   1.514 -0.5389 -0.1395 -0.2248
  287TMC3    O2 4339   4.255   0.258   1.009 -0.3452 -0.0084  0.0266
  288TMC3    C1 4340   0.969   0.247  14.464  0.5516 -0.0131  0.5051
  288TMC3    C2 4341   0.942   0.228  14.601 -0.0740  0.4247  0.2940
  288TMC3    C3 4342   0.984   0.326  14.690  0.0186  0.2957 -0.0633
  288TMC3    C4 4343   1.009   0.366  14.413 -0.2193 -0.2361  0.6539
  288TMC3    C5 4344   1.031   0.478  14.505  0.3492 -0.8242 -0.2757
  288TMC3    C6 4345   1.033   0.443  14.643 -0.3697  0.0752  0.3629
  288TMC3     C 4346   0.952   0.134  14.364  0.1261  0.4333 -0.4836
  288TMC3     O 4347   0.871   0.050  14.398 -0.3803  0.1108 -0.4792
  288TMC3     H 4348   0.912   0.128  14.629  1.0428  0.2699  0.9203
  288TMC3    H1 4349   1.005   0.384  14.306  0.7017 -1.2386  0.4518
  288TMC3    H2 4350   1.077   0.517  14.709 -0.4341 -1.9343  2.6526
  288TMC3    C7 4351   1.147   0.559  14.468  0.7551 -0.1000  0.7550
  288TMC3    C8 4352   1.005   0.300  14.827 -0.0668  0.7535  0.2140
  288TMC3    O1 4353   1.235   0.589  14.552 -0.0939 -0.2303 -0.0280
  288TMC3    O2 4354   1.072   0.381  14.896 -0.8460  0.0183  0.8167
  289MPD2     C 4355   0.849   3.866  14.517 -0.5571 -0.7542  0.4711
  289MPD2    C1 4356   0.847   3.999  14.470 -0.0225 -0.2804  0.2900
  289MPD2    C2 4357   0.727   4.057  14.436 -0.4182 -0.3946  0.3369
  289MPD2    C3 4358   0.604   3.988  14.450  0.0695 -0.1140  1.1155
  289MPD2    C4 4359   0.610   3.858  14.496  0.2246 -0.0094  0.0442
  289MPD2    C5 4360   0.729   3.801  14.526  0.2887 -0.2161 -0.0624
  289MPD2     H 4361   0.720   4.162  14.412 -0.5484 -0.5472 -0.2951
  289MPD2    H1 4362   0.520   3.799  14.499  1.2484 -1.5007  1.3991
  289MPD2    H2 4363   0.949   3.836  14.545  0.8704  1.8195 -1.8138
  289MPD2    H3 4364   0.734   3.703  14.570 -0.8174  0.7209  2.1486
  289MPD2     N 4365   0.480   4.032  14.398  0.2192  0.1996 -0.0443
  289MPD2    H5 4366   0.399   3.975  14.420 -0.3235  0.8796 -0.2828
  289MPD2    N1 4367   0.970   4.068  14.452 -0.0476  0.3428 -0.5971
  289MPD2    H7 4368   1.054   4.020  14.482  0.1769  1.0472 -0.0919
  290TMC3    C1 4369   0.330   4.190  14.311  0.4989 -0.3639  0.0284
  290TMC3    C2 4370   0.308   4.325  14.295  0.3952 -0.5870  0.0714
  290TMC3    C3 4371   0.190   4.352  14.235  0.1083  0.5127  0.3350
  290TMC3    C4 4372   0.255   4.092  14.256 -0.0368  0.6663 -0.2879
  290TMC3    C5 4373   0.146   4.126  14.177 -0.0241  0.0314 -0.1164
  290TMC3    C6 4374   0.111   4.259  14.168 -0.4194  0.6642 -0.1837
  290TMC3     C 4375   0.465   4.156  14.351  0.4692  0.2341  0.3671
  290TMC3     O 4376   0.539   4.254  14.337 -0.7907 -0.3052 -0.0844
  290TMC3     H 4377   0.367   4.402  14.344 -1.1671  0.6709 -0.0271
  290TMC3    H1 4378   0.295   3.992  14.256  0.4315  0.8596  0.5581
  290TMC3    H2 4379   0.012   4.282  14.133 -1.7813 -2.3852  1.6329
  290TMC3    C7 4380   0.041   4.021  14.160 -0.2045  0.7425 -0.9309
  290TMC3    C8 4381   0.162   4.490  14.197  0.6501  0.1761 -0.6693
  290TMC3    O1 4382   4.670   4.058  14.099 -0.1616  0.4752 -0.1776
  290TMC3    O2 4383   0.072   4.500  14.112  0.4696 -0.1241 -0.6798
  291MPD2     C 4384   0.191   4.229   0.429  0.1400  0.5322 -0.1482
  291MPD2    C1 4385   0.308   4.165   0.398  0.7767  0.4226  0.1462
  291MPD2    C2 4386   0.426   4.235   0.370 -0.5929 -0.3972 -0.3150
  291MPD2    C3 4387   0.415   4.373   0.349  0.2267  0.3453  0.2657
  291MPD2    C4 4388   0.299   4.429   0.366 -0.7613  0.4102  0.5845
  291MPD2    C5 4389   0.189   4.360   0.403  0.1680 -0.0768  0.2846
  291MPD2     H 4390   0.521   4.185   0.358 -1.5148 -2.0566 -0.7026
  291MPD2    H1 4391   0.284   4.535   0.349  2.1485  0.6675 -0.4374
  291MPD2    H2 4392   0.107   4.173   0.469  0.1517  1.4422  1.1860
  291MPD2    H3 4393   0.098   4.415   0.424  0.2984  1.0704 -2.1436
  291MPD2     N 4394   0.519   4.457   0.301  0.0532 -0.9862 -0.0092
  291MPD2    H5 4395   0.483   4.547   0.271  0.7204 -0.6232  0.2590
  291MPD2    N1 4396   0.315   4.025   0.400 -0.0536  0.0941  0.0813
  291MPD2    H7 4397   0.407   3.986   0.422  1.4203  2.6565 -1.5692
  292TMC3    C1 4398   0.226   3.808   0.436  0.2722  0.2605  0.2052
  292TMC3    C2 4399   0.321   3.787   0.536 -0.3600 -0.3764  0.0216
  292TMC3    C3 4400   0.342   3.658   0.567 -0.2896  0.3102 -0.5263
  292TMC3    C4 4401   0.174   3.711   0.359 -0.4755  0.0711 -0.0017
  292TMC3    C5 4402   0.207   3.580   0.387 -0.3405 -0.1260  0.5707
  292TMC3    C6 4403   0.289   3.556   0.489 -0.4867 -0.0684  0.1455
  292TMC3     C 4404   0.206   3.939   0.390  0.1147  0.4988  0.2168
  292TMC3     O 4405   0.094   3.968   0.350  0.1185 -0.5586 -0.3782
  292TMC3     H 4406   0.364   3.874   0.585  2.4319 -1.2296 -0.9558
  292TMC3    H1 4407   0.118   3.730   0.269 -0.7711  1.3709  0.4591
  292TMC3    H2 4408   0.302   3.454   0.522  0.7677 -0.5404 -1.8017
  292TMC3    C7 4409   0.142   3.463   0.331 -0.5473  0.0999  0.1372
  292TMC3    C8 4410   0.361   3.624   0.708  0.4530  0.5955  0.4648
  292TMC3    O1 4411   0.202   3.358   0.346 -0.8199  0.0092  0.7898
  292TMC3    O2 4412   0.391   3.505   0.715 -0.0325 -0.0895  0.0540
  293MPD2     C 4413   2.127   0.950  12.471 -0.5846  0.4147 -0.2742
  293MPD2    C1 4414   2.038   0.892  12.556  0.6943 -0.4011 -0.2458
  293MPD2    C2 4415   2.072   0.890  12.693 -0.0797 -0.6036  0.3060
  293MPD2    C3 4416   2.189   0.942  12.739  0.4957 -0.1552  0.2742
  293MPD2    C4 4417   2.284   0.984  12.649 -0.1408 -0.3649 -0.4343
  293MPD2    C5 4418   2.253   0.989  12.518  0.2947  0.3895 -0.2385
  293MPD2     H 4419   2.007   0.836  12.761  0.8728  0.9778  2.4540
  293MPD2    H1 4420   2.372   1.041  12.675  0.0775 -0.2480 -1.4140
  293MPD2    H2 4421   2.097   0.956  12.367 -0.2159  1.5042 -0.3199
  293MPD2    H3 4422   2.323   1.035  12.450 -1.3430  0.2089 -2.0652
  293MPD2     N 4423   2.208   0.939  12.878 -0.9453  0.2432 -0.1940
  293MPD2    H5 4424   2.151   0.869  12.925  0.7930 -0.5903  0.6945
  293MPD2    N1 4425   1.912   0.846  12.498 -0.1873  0.3066 -0.5019
  293MPD2    H7 4426   1.896   0.848  12.398  0.8335  0.9726 -0.6562
  294TMC3    C1 4427   1.695   0.763  12.503 -0.5442 -0.0039 -0.4507
  294TMC3    C2 4428   1.619   0.670  12.569  0.0372  0.5331  0.2923
  294TMC3    C3 4429   1.517   0.607  12.495 -0.1488  0.2452  0.0970
  294TMC3    C4 4430   1.673   0.798  12.378 -0.6465 -0.5727  0.5571
  294TMC3    C5 4431   1.573   0.737  12.304 -0.0597 -0.1414 -0.4897
  294TMC3    C6 4432   1.491   0.641  12.364 -0.2362  0.6253 -0.5473
  294TMC3     C 4433   1.812   0.802  12.574 -0.0332 -0.4418 -0.1754
  294TMC3     O 4434   1.788   0.799  12.695 -0.0054  0.0233 -0.5244
  294TMC3     H 4435   1.637   0.643  12.673  0.6125  0.1899  0.1026
  294TMC3    H1 4436   1.721   0.886  12.336 -3.2697  0.8145  0.4480
  294TMC3    H2 4437   1.409   0.585  12.320  0.3780 -0.1180 -0.7575
  294TMC3    C7 4438   1.571   0.725  12.162  0.0337  0.3521  0.1179
  294TMC3    C8 4439   1.454   0.491  12.555  0.4670 -0.0025  0.1578
  294TMC3    O1 4440   1.465   0.695  12.109  0.8403  0.3095  0.1411
  294TMC3    O2 4441   1.453   0.501  12.675  0.1959 -0.8222 -0.3384
  295MPD2     C 4442   2.644   3.837  17.697  0.0527 -0.4808 -0.2864
  295MPD2    C1 4443   2.640   3.943   0.076  0.1529 -0.3873  1.1556
  295MPD2    C2 4444   2.526   3.972   0.154 -0.5208 -0.6560 -0.2356
  295MPD2    C3 4445   2.430   3.868   0.163 -0.3762 -0.1365  0.1272
  295MPD2    C4 4446   2.438   3.756   0.079 -0.4809  0.2922 -0.0962
  295MPD2    C5 4447   2.536   3.750  17.695 -0.2816  0.6693 -0.1678
  295MPD2     H 4448   2.520   4.057   0.221 -1.0858  0.1066 -1.2686
  295MPD2    H1 4449   2.362   3.679   0.085 -0.0796 -0.0097  1.1064
  295MPD2    H2 4450   2.726   3.809  17.632 -0.1164 -1.2876 -0.1476
  295MPD2    H3 4451   2.543   3.665  17.628  0.9053 -0.8071  1.8071
  295MPD2     N 4452   2.328   3.892   0.254 -0.3846  0.1062  0.3177
  295MPD2    H5 4453   2.319   3.985   0.294 -0.0715  0.1145  0.3629
  295MPD2    N1 4454   2.732   4.052   0.063  0.1106 -0.2287  0.1846
  295MPD2    H7 4455   2.707   4.134   0.118  3.5399  0.3125  0.9584
  296TMC3    C1 4456   2.140   3.853   0.404 -0.9284  0.3447  0.3175
  296TMC3    C2 4457   2.178   3.966   0.467 -0.0353  0.2049  0.3254
  296TMC3    C3 4458   2.128   3.986   0.591 -0.5010  0.1247 -0.4936
  296TMC3    C4 4459   2.046   3.763   0.445 -0.4903 -0.6491 -0.1289
  296TMC3    C5 4460   1.995   3.789   0.574 -0.7468 -0.5009  0.2579
  296TMC3    C6 4461   2.036   3.897   0.643 -0.1098 -0.3211 -0.4741
  296TMC3     C 4462   2.222   3.811   0.284  1.0613  0.0538  0.3964
  296TMC3     O 4463   2.193   3.694   0.258 -1.5330 -0.0559 -0.0843
  296TMC3     H 4464   2.241   4.044   0.425  0.5838 -0.3095  0.2929
  296TMC3    H1 4465   2.006   3.680   0.388 -1.3247 -0.6449  0.4442
  296TMC3    H2 4466   1.994   3.921   0.740  0.2289  1.1668 -0.6982
  296TMC3    C7 4467   1.858   3.752   0.602 -0.2864 -0.3246  0.4389
  296TMC3    C8 4468   2.095   4.122   0.628  0.4994 -0.0016 -0.2312
  296TMC3    O1 4469   1.782   3.837   0.652  0.2228 -0.3756  0.0287
  296TMC3    O2 4470   2.056   4.195   0.539  0.5506  0.1393 -0.0682
  297MPD2     C 4471   4.583   1.300  16.504 -0.1579 -0.2996  0.1641
  297MPD2    C1 4472   4.611   1.322  16.367 -0.8128 -1.1329 -0.2574
  297MPD2    C2 4473   4.701   1.417  16.330 -0.7876 -0.4180 -0.3247
  297MPD2    C3 4474   0.022   1.506  16.428 -0.3745 -0.1822 -0.1878
  297MPD2    C4 4475   4.721   1.479  16.560  0.1923 -0.0621  0.2588
  297MPD2    C5 4476   4.644   1.378  16.602  0.2292 -0.4209 -0.1671
  297MPD2     H 4477   4.709   1.440  16.225  0.1043  2.1938  0.3313
  297MPD2    H1 4478   0.024   1.558  16.628 -2.4762  0.7995  0.4427
  297MPD2    H2 4479   4.510   1.228  16.538 -1.5863  2.6149  3.2767
  297MPD2    H3 4480   4.623   1.373  16.709 -2.6225 -1.6375 -0.7753
  297MPD2     N 4481   0.102   1.621  16.403 -0.8215  0.3782 -0.3924
  297MPD2    H5 4482   0.121   1.694  16.472 -0.3096  1.0518 -1.2461
  297MPD2    N1 4483   4.525   1.259  16.265  0.3981  1.0662 -0.5406
  297MPD2    H7 4484   4.536   1.297  16.172  1.1069  1.4466 -0.2992
  298TMC3    C1 4485   4.337   1.167  16.157 -0.5279  0.6167 -0.2905
  298TMC3    C2 4486   4.414   1.162  16.046  0.0663  0.0658  0.9596
  298TMC3    C3 4487   4.356   1.206  15.931  0.2410  0.7745  0.0539
  298TMC3    C4 4488   4.209   1.218  16.162  0.3523  0.1958 -0.1199
  298TMC3    C5 4489   4.165   1.275  16.045 -0.4178 -0.6634 -0.0753
  298TMC3    C6 4490   4.232   1.264  15.925  0.0818  0.1245 -0.0464
  298TMC3     C 4491   4.409   1.183  16.282 -0.3244  0.5246  0.1812
  298TMC3     O 4492   4.348   1.142  16.383  0.2367 -0.8070  0.4712
  298TMC3     H 4493   4.515   1.123  16.053  0.4203  0.9253  0.6739
  298TMC3    H1 4494   4.155   1.209  16.255  0.4781 -0.9854 -0.1706
  298TMC3    H2 4495   4.199   1.316  15.835 -0.3642 -0.5333 -0.2614
  298TMC3    C7 4496   4.030   1.327  16.026 -0.5317 -0.7428 -0.0669
  298TMC3    C8 4497   4.443   1.207  15.815  0.0514 -0.6893  0.3677
  298TMC3    O1 4498   3.997   1.338  15.910  0.1910 -0.4041  0.1119
  298TMC3    O2 4499   4.560   1.170  15.828 -0.5561  0.7622  0.0928
  299MPD2     C 4500   0.395   1.108  10.769  0.2285  0.5847 -0.3806
  299MPD2    C1 4501   0.488   1.131  10.678 -0.1799 -0.0543 -0.7537
  299MPD2    C2 4502   0.459   1.116  10.545 -0.5079  0.0212  0.5698
  299MPD2    C3 4503   0.324   1.101  10.519 -0.1326 -0.5219  0.7331
  299MPD2    C4 4504   0.233   1.075  10.619 -0.1103 -0.1456 -0.1810
  299MPD2    C5 4505   0.268   1.075  10.745  0.1939 -0.8578  0.0216
  299MPD2     H 4506   0.534   1.120  10.466 -2.3552 -1.3411 -1.2394
  299MPD2    H1 4507   0.129   1.057  10.597 -0.4420 -0.2609  1.4407
  299MPD2    H2 4508   0.417   1.120  10.875 -1.2335 -2.9375  0.3206
  299MPD2    H3 4509   0.202   1.071  10.831 -0.9294 -0.6603 -0.8333
  299MPD2     N 4510   0.261   1.086  10.392 -0.8209  0.5302 -0.2593
  299MPD2    H5 4511   0.165   1.053  10.390  0.0773 -2.3250  2.0830
  299MPD2    N1 4512   0.619   1.157  10.732  0.0556 -0.5672  0.4428
  299MPD2    H7 4513   0.624   1.146  10.833 -0.8254 -2.0105  0.3354
  300TMC3    C1 4514   0.213   1.103  10.165 -0.1189  0.0562  0.5125
  300TMC3    C2 4515   0.249   1.139  10.039  0.0456  0.0949 -0.3037
  300TMC3    C3 4516   0.150   1.145   9.939  0.1466  0.0253  0.0323
  300TMC3    C4 4517   0.089   1.052  10.194 -0.2294 -0.0915 -0.1824
  300TMC3    C5 4518   4.719   1.051  10.095 -0.5456 -0.1609  0.5871
  300TMC3    C6 4519   0.021   1.095   9.964 -0.0739  0.0919 -0.5862
  300TMC3     C 4520   0.319   1.120  10.271  0.6795  0.5165  0.3511
  300TMC3     O 4521   0.425   1.179  10.249 -0.0447 -0.0970 -0.0806
  300TMC3     H 4522   0.345   1.189  10.027  0.5732 -0.6016  1.0294
  300TMC3    H1 4523   0.058   1.025  10.294  2.1232 -2.5736 -0.1309
  300TMC3    H2 4524   4.669   1.109   9.891 -1.0626  1.4578  0.7408
  300TMC3    C7 4525   4.586   1.007  10.122  0.6305 -0.1741  0.4866
  300TMC3    C8 4526   0.148   1.258   9.845 -1.3704  0.1655 -0.1778
  300TMC3    O1 4527   4.513   0.973  10.032  0.1999 -0.0605  0.3316
  300TMC3    O2 4528   0.043   1.273   9.784  0.0564  0.2519 -0.2409
  301MPD2     C 4529   1.555   1.989   1.305  0.6099 -0.9453  0.2959
  301MPD2    C1 4530   1.569   2.034   1.173  0.0466  0.0015 -0.6609
  301MPD2    C2 4531   1.695   2.024   1.111 -0.3716 -0.2117 -0.4786
  301MPD2    C3 4532   1.804   1.963   1.178 -0.1361  0.2467  0.2549
  301MPD2    C4 4533   1.788   1.930   1.311  0.0534 -0.0440 -0.0244
  301MPD2    C5 4534   1.666   1.934   1.366  0.3203  0.1253  0.5113
  301MPD2     H 4535   1.704   2.067   1.012 -0.3473 -0.6806 -0.6780
  301MPD2    H1 4536   1.877   1.884   1.351  0.0493 -1.1815 -1.3327
  301MPD2    H2 4537   1.461   1.992   1.357  0.0416 -1.2295 -0.7179
  301MPD2    H3 4538   1.648   1.892   1.465 -2.5747 -1.2836 -0.5916
  301MPD2     N 4539   1.929   1.930   1.117  0.2077 -0.2680 -0.0603
  301MPD2    H5 4540   1.994   1.877   1.175  0.4663 -0.0259 -0.1290
  301MPD2    N1 4541   1.462   2.094   1.094 -0.4173  0.5766  0.8203
  301MPD2    H7 4542   1.488   2.111   0.997 -0.2071 -1.7913  0.4684
  302TMC3    C1 4543   2.084   1.902   0.945 -1.0428 -0.3877 -1.1003
  302TMC3    C2 4544   2.147   1.791   1.014  0.3444  0.1953 -0.4553
  302TMC3    C3 4545   2.270   1.751   0.970  0.3280  0.0851  0.4461
  302TMC3    C4 4546   2.140   1.961   0.833 -0.4876  0.0621 -0.2930
  302TMC3    C5 4547   2.267   1.926   0.812  0.2172  0.1002  0.2752
  302TMC3    C6 4548   2.330   1.812   0.864  0.1847  0.1818  0.2353
  302TMC3     C 4549   1.964   1.966   0.991  0.5924 -0.0767  0.4620
  302TMC3     O 4550   1.901   2.036   0.909 -0.1013 -0.0383 -0.1898
  302TMC3     H 4551   2.090   1.741   1.091 -0.5690  0.7980 -0.7363
  302TMC3    H1 4552   2.090   2.043   0.784 -1.0427  0.0668  0.2827
  302TMC3    H2 4553   2.433   1.790   0.839  0.7285  1.7405  1.1474
  302TMC3    C7 4554   2.322   1.940   0.676 -0.2464 -0.1823  0.0955
  302TMC3    C8 4555   2.358   1.681   1.063  0.2166 -0.4382  0.4954
  302TMC3    O1 4556   2.441   1.921   0.655  0.8911 -0.4577 -0.5708
  302TMC3    O2 4557   2.475   1.720   1.055  1.4171  0.1155  0.4122
  303MPD2     C 4558   2.815   0.594  10.094 -0.1918 -0.0311 -0.0646
  303MPD2    C1 4559   2.695   0.526  10.073 -0.2903  0.1447 -0.0101
  303MPD2    C2 4560   2.650   0.512   9.939 -0.6551  0.4756 -0.3132
  303MPD2    C3 4561   2.715   0.562   9.832 -0.2076  0.0606 -0.4685
  303MPD2    C4 4562   2.840   0.629   9.862 -0.3431  0.8266 -0.6216
  303MPD2    C5 4563   2.889   0.643   9.989  0.3710 -0.3094 -0.4735
  303MPD2     H 4564   2.565   0.447   9.917 -0.7752  0.9406 -1.2192
  303MPD2    H1 4565   2.900   0.678   9.787  0.8791  1.5604  0.8299
  303MPD2    H2 4566   2.859   0.611  10.192 -1.6476  0.1703  0.5519
  303MPD2    H3 4567   2.979   0.697  10.016 -0.7268  1.1900  0.1663
  303MPD2     N 4568   2.666   0.563   9.698  0.3351  0.5697 -0.3637
  303MPD2    H5 4569   2.720   0.603   9.622  0.2538  0.9730 -0.2089
  303MPD2    N1 4570   2.632   0.466  10.189  0.6086  0.5411 -0.3393
  303MPD2    H7 4571   2.656   0.499  10.281  1.1402  2.1713 -1.0606
  304TMC3    C1 4572   2.475   0.332  10.310  0.3868  0.3708 -0.0510
  304TMC3    C2 4573   2.423   0.440  10.382 -0.4011  0.1754 -1.1062
  304TMC3    C3 4574   2.306   0.423  10.444  0.7429 -0.1358  0.6156
  304TMC3    C4 4575   2.427   0.200  10.315 -0.0018 -0.3313 -0.5989
  304TMC3    C5 4576   2.316   0.184  10.399 -0.2131  0.0256  0.0417
  304TMC3    C6 4577   2.251   0.296  10.451  0.2510  0.3930  0.2544
  304TMC3     C 4578   2.536   0.368  10.184 -0.3055 -0.2487 -0.4771
  304TMC3     O 4579   2.492   0.296  10.097  0.3323  0.4263 -0.2462
  304TMC3     H 4580   2.453   0.541  10.357  0.6738  1.2045  4.2556
  304TMC3    H1 4581   2.479   0.117  10.270 -0.5755 -1.3659  0.6387
  304TMC3    H2 4582   2.163   0.282  10.513  0.2919  1.8396  0.6442
  304TMC3    C7 4583   2.221   0.080  10.352 -0.9857 -0.0616 -0.4899
  304TMC3    C8 4584   2.207   0.499  10.382  0.1128 -0.3456  0.4058
  304TMC3    O1 4585   2.103   0.106  10.358 -0.6446  0.1628 -0.1681
  304TMC3    O2 4586   2.237   0.611  10.347 -0.1061 -0.0100 -0.0769
  305MPD2     C 4587   0.511   2.589  14.178  0.0254  0.2612  0.7857
  305MPD2    C1 4588   0.637   2.530  14.173  0.4235 -0.0909 -0.1031
  305MPD2    C2 4589   0.690   2.492  14.050  0.2375  0.5796 -0.1516
  305MPD2    C3 4590   0.614   2.501  13.933  0.4337 -0.4057  0.4836
  305MPD2    C4 4591   0.482   2.539  13.947  0.2810 -0.8725 -0.0585
  305MPD2    C5 4592   0.445   2.590  14.066  0.5696 -0.1599 -0.1099
  305MPD2     H 4593   0.795   2.465  14.046  0.0932 -0.1586  0.9788
  305MPD2    H1 4594   0.409   2.547  13.868  0.1331  1.1719  0.2791
  305MPD2    H2 4595   0.463   2.625  14.268 -0.6740  0.4594  0.3386
  305MPD2    H3 4596   0.343   2.624  14.069  0.8851  0.7288  0.4382
  305MPD2     N 4597   0.667   2.471  13.810 -0.3077  0.2739  0.0134
  305MPD2    H5 4598   0.597   2.472  13.736 -0.8676  1.6184  0.5710
  305MPD2    N1 4599   0.717   2.519  14.297 -0.7458  0.7315  0.2884
  305MPD2    H7 4600   0.674   2.551  14.384 -2.0039 -0.9437  0.3012
  306TMC3    C1 4601   0.900   2.495  14.444 -0.6691  0.3733  0.1850
  306TMC3    C2 4602   0.992   2.404  14.487 -0.1817  0.7816 -0.3065
  306TMC3    C3 4603   1.051   2.417  14.608 -0.3397  0.0904  0.6119
  306TMC3    C4 4604   0.853   2.588  14.531  0.1396 -0.1649 -0.1617
  306TMC3    C5 4605   0.900   2.591  14.656  0.2271 -0.0938 -1.0652
  306TMC3    C6 4606   1.008   2.511  14.702  0.1582 -0.0588  0.0302
  306TMC3     C 4607   0.852   2.487  14.312  0.0162  0.3391  0.2370
  306TMC3     O 4608   0.926   2.458  14.222 -0.0899  0.3394  0.1811
  306TMC3     H 4609   1.025   2.330  14.414  1.2995  1.4996 -0.3611
  306TMC3    H1 4610   0.770   2.652  14.505  0.4463  0.3832  0.2109
  306TMC3    H2 4611   1.051   2.529  14.799  0.5924  0.9108 -0.3407
  306TMC3    C7 4612   0.836   2.668  14.756  0.3307  0.3544  0.0065
  306TMC3    C8 4613   1.156   2.319  14.643 -0.2046 -0.1561 -0.7050
  306TMC3    O1 4614   0.714   2.675  14.756  0.5336 -0.2975  0.2834
  306TMC3    O2 4615   1.177   2.242  14.548  0.1280  0.7686  0.1501
  307MPD2     C 4616   3.273   0.070   0.878  0.0797 -0.0711  0.0486
  307MPD2    C1 4617   3.215   0.182   0.829  0.0326  0.0480 -0.0883
  307MPD2    C2 4618   3.099   0.219   0.884  0.0865  0.1687  0.6753
  307MPD2    C3 4619   3.037   0.143   0.975  0.6507 -0.4502 -0.1366
  307MPD2    C4 4620   3.097   0.030   1.024 -0.1267 -0.3376  0.5905
  307MPD2    C5 4621   3.217   4.718   0.972  0.3050  0.1936  0.1091
  307MPD2     H 4622   3.046   0.302   0.837 -0.1703 -0.0848  0.5113
  307MPD2    H1 4623   3.048   4.697   1.101  2.1187 -0.8665  1.6179
  307MPD2    H2 4624   3.379   0.051   0.864  0.8794  2.6161  2.4624
  307MPD2    H3 4625   3.270   4.641   1.027  0.3440 -0.7396 -1.2536
  307MPD2     N 4626   2.906   0.174   1.020  0.5244 -0.3016  0.1731
  307MPD2    H5 4627   2.859   0.095   1.063  1.9977 -1.7127 -0.8135
  307MPD2    N1 4628   3.274   0.270   0.734 -0.2448 -0.4611 -0.7778
  307MPD2    H7 4629   3.230   0.360   0.722 -1.3539 -1.2174 -2.4027
  308TMC3    C1 4630   2.495   0.165   1.045  0.6992 -0.0763 -0.9294
  308TMC3    C2 4631   2.433   0.268   1.106  0.0116  0.5699 -0.4252
  308TMC3    C3 4632   2.502   0.381   1.129  0.9420 -0.8394 -0.7735
  308TMC3    C4 4633   2.630   0.162   1.016 -0.2339 -0.1675  0.3003
  308TMC3    C5 4634   2.698   0.276   1.046 -0.4847 -0.7841 -0.6928
  308TMC3    C6 4635   2.635   0.389   1.083  0.6339  0.7519  0.3393
  308TMC3     C 4636   2.417   0.084   0.957  0.9770 -0.4197 -0.2104
  308TMC3     O 4637   2.471   4.710   0.912 -0.4295  0.0639 -0.3783
  308TMC3     H 4638   2.327   0.267   1.132  0.8070  1.6722  2.8574
  308TMC3    H1 4639   2.675   0.074   0.972  0.2489  0.7615 -1.0691
  308TMC3    H2 4640   2.695   0.477   1.101  0.6995  0.9453 -0.8430
  308TMC3    C7 4641   2.829   0.288   0.995  0.1918 -0.2998  0.5324
  308TMC3    C8 4642   2.423   0.494   1.096 -0.4569  1.1152  0.3266
  308TMC3    O1 4643   2.881   0.401   0.977  0.1649  0.3285 -0.2529
  308TMC3    O2 4644   2.305   0.483   1.122  0.1581  0.6975  0.0859
  309MPD2     C 4645   2.459   1.477  17.151 -0.1488 -0.0575 -0.0865
  309MPD2    C1 4646   2.368   1.439  17.054  0.0625 -0.5060 -0.1615
  309MPD2    C2 4647   2.250   1.378  17.101 -0.6321  0.7172 -0.2937
  309MPD2    C3 4648   2.232   1.334  17.233 -0.6975 -0.2789  0.2690
  309MPD2    C4 4649   2.325   1.374  17.322  1.0763  0.0184  0.3562
  309MPD2    C5 4650   2.442   1.435  17.279  0.1033  0.6482  0.2968
  309MPD2     H 4651   2.168   1.357  17.033 -1.2355  1.8221  0.0926
  309MPD2    H1 4652   2.317   1.363  17.430 -0.5655 -1.2626  0.0996
  309MPD2    H2 4653   2.547   1.538  17.136 -0.6669  0.6877 -0.0673
  309MPD2    H3 4654   2.501   1.470  17.363 -3.0399  1.2904  2.2253
  309MPD2     N 4655   2.114   1.259  17.266  0.3507  0.2831 -0.5392
  309MPD2    H5 4656   2.053   1.236  17.189  0.3603 -5.1388  1.0567
  309MPD2    N1 4657   2.394   1.446  16.916  0.4926 -0.0247  0.5892
  309MPD2    H7 4658   2.314   1.424  16.858  0.9772 -0.4662  0.0855
  310TMC3    C1 4659   2.524   1.450  16.723 -0.1809 -0.3334  0.3613
  310TMC3    C2 4660   2.417   1.480  16.639 -0.0653 -0.5947  0.0102
  310TMC3    C3 4661   2.427   1.431  16.509  0.6308 -0.5405  0.0798
  310TMC3    C4 4662   2.635   1.382  16.682  0.0656 -0.1873 -0.1547
  310TMC3    C5 4663   2.646   1.362  16.546 -0.1047 -0.3931  0.0626
  310TMC3    C6 4664   2.546   1.382  16.458 -0.0072  0.3350 -0.2397
  310TMC3     C 4665   2.518   1.463  16.865 -0.0799  0.2210 -0.4945
  310TMC3     O 4666   2.627   1.465  16.922 -0.1079 -0.3135  0.4431
  310TMC3     H 4667   2.332   1.532  16.683  0.8371  1.3501 -0.5519
  310TMC3    H1 4668   2.716   1.363  16.752 -1.0725  0.7805  1.4501
  310TMC3    H2 4669   2.540   1.355  16.353  1.2178  1.1546 -0.5224
  310TMC3    C7 4670   2.763   1.294  16.495  0.6431 -0.4117 -0.5489
  310TMC3    C8 4671   2.317   1.456  16.417  0.4485  0.4894  0.0170
  310TMC3    O1 4672   2.823   1.217  16.572  0.4797 -0.1652  0.5982
  310TMC3    O2 4673   2.347   1.452  16.297 -0.4051  0.3788  0.0879
  311MPD2     C 4674   4.659   2.260  12.918 -0.2255  0.7224 -0.4992
  311MPD2    C1 4675   4.628   2.394  12.936  0.2456  0.0143  0.1826
  311MPD2    C2 4676   4.493   2.422  12.947  0.4026  0.0799 -0.2951
  311MPD2    C3 4677   4.392   2.338  12.921 -0.1070 -0.6658  0.6344
  311MPD2    C4 4678   4.428   2.210  12.892 -0.7592  0.4299  0.0264
  311MPD2    C5 4679   4.557   2.172  12.899  0.7518  0.5040  0.8006
  311MPD2     H 4680   4.472   2.526  12.971  0.7414  0.5484 -2.0158
  311MPD2    H1 4681   4.355   2.133  12.870  0.0518  0.1060 -1.5664
  311MPD2    H2 4682   0.031   2.216  12.917 -0.6477 -0.1779 -2.4129
  311MPD2    H3 4683   4.581   2.070  12.869 -0.6454 -0.2385  2.1976
  311MPD2     N 4684   4.255   2.378  12.931  0.2545  0.1019  0.4872
  311MPD2    H5 4685   4.236   2.476  12.950  2.5975  0.7229 -0.3857
  311MPD2    N1 4686   0.006   2.495  12.935  0.5075 -0.2830  0.1102
  311MPD2    H7 4687   4.701   2.591  12.935  0.1968 -0.3905 -2.1707
  312TMC3    C1 4688   4.019   2.372  12.925  0.5313 -1.0231  0.3470
  312TMC3    C2 4689   3.917   2.348  12.839  0.6226  0.1935 -0.1772
  312TMC3    C3 4690   3.790   2.387  12.882  0.0811  0.1858 -0.2988
  312TMC3    C4 4691   4.004   2.435  13.047 -0.0292  0.3824  0.3713
  312TMC3    C5 4692   3.879   2.467  13.083  0.2451  0.2060 -0.1006
  312TMC3    C6 4693   3.769   2.453  13.005  0.5174  0.0795  0.0856
  312TMC3     C 4694   4.149   2.317  12.879  1.1320 -0.6068  0.0695
  312TMC3     O 4695   4.140   2.210  12.817 -0.2828  0.4544  0.7934
  312TMC3     H 4696   3.925   2.286  12.750  0.3316 -1.1946  0.7653
  312TMC3    H1 4697   4.096   2.454  13.101 -0.9244 -0.9435  2.3712
  312TMC3    H2 4698   3.668   2.458  13.043  1.4794  2.6554  2.2695
  312TMC3    C7 4699   3.861   2.509  13.224  0.2625  0.6033  0.2803
  312TMC3    C8 4700   3.676   2.385  12.795 -0.3186  1.0287  0.1246
  312TMC3    O1 4701   3.751   2.557  13.255 -0.6024  0.1927 -0.1615
  312TMC3    O2 4702   3.655   2.290  12.721 -0.2234  0.1183 -0.4740
  313MPD2     C 4703   4.583   1.427  10.174 -1.1298  0.1860 -0.4977
  313MPD2    C1 4704   4.468   1.424  10.251 -0.3556  0.7268  0.1328
  313MPD2    C2 4705   4.359   1.353  10.204  0.1039  0.5828 -0.0680
  313MPD2    C3 4706   4.353   1.295  10.076 -0.1590 -0.1756 -0.2972
  313MPD2    C4 4707   4.459   1.320   9.993 -0.9598  0.4337  0.4354
  313MPD2    C5 4708   4.572   1.377  10.048 -0.5865 -0.7724  0.0277
  313MPD2     H 4709   4.277   1.348  10.275 -0.4385 -1.3586 -0.8316
  313MPD2    H1 4710   4.485   1.280   9.896 -0.1428  1.1374  0.3611
  313MPD2    H2 4711   4.681   1.461  10.202 -0.8175 -0.8464 -0.3161
  313MPD2    H3 4712   4.661   1.394   9.990  0.1431  4.1223  2.6255
  313MPD2     N 4713   4.237   1.219  10.050  0.3811  0.3474  0.1005
  313MPD2    H5 4714   4.186   1.182  10.130  0.6266  1.3136  0.7141
  313MPD2    N1 4715   4.464   1.466  10.387  0.1019  0.2083 -0.2381
  313MPD2    H7 4716   4.379   1.435  10.433 -0.6432  1.5202 -0.7470
  314TMC3    C1 4717   4.495   1.603  10.581 -0.1464 -0.4905  0.0526
  314TMC3    C2 4718   4.566   1.706  10.641 -0.3735 -0.1332  0.1219
  314TMC3    C3 4719   4.503   1.796  10.714  0.5290 -0.6433 -0.0803
  314TMC3    C4 4720   4.361   1.599  10.590  0.2585  0.2920 -0.8887
  314TMC3    C5 4721   4.298   1.686  10.682  0.5522 -0.2986  0.7656
  314TMC3    C6 4722   4.370   1.792  10.735 -0.2959 -0.7750  0.4232
  314TMC3     C 4723   4.551   1.548  10.459  0.6069 -0.5815  1.0386
  314TMC3     O 4724   4.661   1.592  10.424 -0.1424  0.6736 -0.0769
  314TMC3     H 4725   4.667   1.732  10.611 -0.8403 -0.3052 -1.5934
  314TMC3    H1 4726   4.300   1.525  10.538 -1.3457  0.5861  0.5493
  314TMC3    H2 4727   4.317   1.867  10.792  2.2203  1.8134 -0.6569
  314TMC3    C7 4728   4.181   1.743  10.611 -0.1064 -0.3062  0.4167
  314TMC3    C8 4729   4.561   1.904  10.786  0.6806 -0.0987  0.1000
  314TMC3    O1 4730   4.075   1.735  10.669 -0.1402 -0.2206  0.0596
  314TMC3    O2 4731   4.477   1.978  10.834 -0.5631  0.2421  0.6037
  315MPD2     C 4732   3.525   0.876  17.611  0.6494 -0.4699  0.0620
  315MPD2    C1 4733   3.635   0.874  17.698  0.0487 -0.3153 -0.0465
  315MPD2    C2 4734   3.716   0.982  17.701 -0.1296 -0.4868  0.3442
  315MPD2    C3 4735   3.687   1.092  17.627 -0.0319  0.1440 -0.2627
  315MPD2    C4 4736   3.589   1.094  17.531  0.1868  0.1872  0.7897
  315MPD2    C5 4737   3.504   0.986  17.528  0.1658 -0.0560  0.6156
  315MPD2     H 4738   3.802   0.994   0.059 -0.9988  0.4240  1.3323
  315MPD2    H1 4739   3.565   1.165  17.453 -0.7214  0.2707  1.1458
  315MPD2    H2 4740   3.466   0.786  17.602 -1.0905  0.6149  0.6733
  315MPD2    H3 4741   3.431   0.978  17.448 -1.8282 -2.4498  2.6724
  315MPD2     N 4742   3.784   1.193  17.632 -0.4865 -0.1956  0.1018
  315MPD2    H5 4743   3.870   1.166  17.679  1.4338  1.4304 -2.4916
  315MPD2    N1 4744   3.657   0.769   0.081 -0.3023 -0.5697 -0.5420
  315MPD2    H7 4745   3.749   0.776   0.124  0.0827  0.6492 -1.5779
  316TMC3    C1 4746   3.902   1.384  17.571 -0.3043  0.3012  0.0170
  316TMC3    C2 4747   3.990   1.351  17.673 -0.5681  0.0621  0.3736
  316TMC3    C3 4748   4.107   1.420  17.675 -0.0542  0.0608  0.2617
  316TMC3    C4 4749   3.930   1.475  17.472  0.3482  0.1312  0.1606
  316TMC3    C5 4750   4.055   1.529  17.468 -0.3450 -0.2195  0.2013
  316TMC3    C6 4751   4.143   1.506  17.575 -1.3124  0.3984 -0.2090
  316TMC3     C 4752   3.776   1.312  17.558  0.4324  0.3137 -0.6439
  316TMC3     O 4753   3.699   1.344  17.467 -0.1431  0.1993 -0.1924
  316TMC3     H 4754   3.961   1.287   0.047 -1.8623 -1.4982 -1.3190
  316TMC3    H1 4755   3.848   1.502  17.406 -0.6742 -1.9736  0.5670
  316TMC3    H2 4756   4.236   1.562  17.580 -0.3086 -1.4680  2.1366
  316TMC3    C7 4757   4.094   1.623  17.362  0.4641  0.5677 -0.9945
  316TMC3    C8 4758   4.183   1.417   0.089 -0.4416 -0.4639  0.2593
  316TMC3    O1 4759   4.184   1.701  17.386 -0.2383 -0.3798  0.0360
  316TMC3    O2 4760   4.254   1.514   0.120  0.3604 -0.5424 -0.3434
  317MPD2     C 4761   1.197   3.979  12.258  0.1333  0.3674  0.2455
  317MPD2    C1 4762   1.325   3.947  12.236  0.9132  0.6279 -0.7043
  317MPD2    C2 4763   1.385   3.867  12.330  0.6543 -0.3980  0.3812
  317MPD2    C3 4764   1.321   3.853  12.455  0.1942  0.4674  0.6970
  317MPD2    C4 4765   1.189   3.884  12.477 -0.0681  0.5016 -0.0858
  317MPD2    C5 4766   1.134   3.954  12.378  0.0293  0.0227 -1.3970
  317MPD2     H 4767   1.484   3.833  12.301 -0.3315 -2.3518 -0.6910
  317MPD2    H1 4768   1.131   3.867  12.567  3.3507  0.6363  2.1240
  317MPD2    H2 4769   1.134   4.014  12.177 -0.5413 -2.4827 -0.4540
  317MPD2    H3 4770   1.030   3.986  12.378  0.1743  0.5293 -0.0852
  317MPD2     N 4771   1.397   3.795  12.558 -0.1225  0.1480 -0.0824
  317MPD2    H5 4772   1.483   3.747  12.536 -0.0687  0.7361 -1.1313
  317MPD2    N1 4773   1.395   3.979  12.115 -0.1636  0.4550 -0.6957
  317MPD2    H7 4774   1.494   3.955  12.113 -0.8057 -2.0140 -1.5906
  318TMC3    C1 4775   1.471   3.742  12.773  0.5508 -0.6391 -1.2113
  318TMC3    C2 4776   1.439   3.656  12.878  0.1394 -0.5953 -0.2162
  318TMC3    C3 4777   1.542   3.578  12.922 -1.0197 -0.3393 -0.5263
  318TMC3    C4 4778   1.600   3.771  12.724 -0.7968 -0.4811  0.1720
  318TMC3    C5 4779   1.699   3.704  12.787  0.6113 -0.6639 -0.8442
  318TMC3    C6 4780   1.671   3.610  12.884  1.1452 -0.5065 -0.0500
  318TMC3     C 4781   1.365   3.796  12.690 -0.3186 -0.1963 -0.6425
  318TMC3     O 4782   1.259   3.811  12.754 -0.0186  0.5289 -0.2050
  318TMC3     H 4783   1.334   3.630  12.887  0.8389 -3.0606  0.7242
  318TMC3    H1 4784   1.621   3.851  12.654  0.6566 -3.0570 -2.2872
  318TMC3    H2 4785   1.757   3.565  12.932  3.0982  2.6693 -0.4894
  318TMC3    C7 4786   1.836   3.757  12.769 -0.7238  0.1320 -0.1669
  318TMC3    C8 4787   1.522   3.486  13.032  0.5538  0.0973  0.3994
  318TMC3    O1 4788   1.848   3.824  12.664  0.4229  0.1092 -0.0753
  318TMC3    O2 4789   1.617   3.412  13.050 -0.4411 -0.2708 -0.2063
  319MPD2     C 4790   2.409   1.064  16.389  0.3850 -0.3086 -0.0258
  319MPD2    C1 4791   2.316   1.031  16.487  0.0993  0.4126 -0.2425
  319MPD2    C2 4792   2.179   1.036  16.460 -0.0287 -0.2516 -0.0406
  319MPD2    C3 4793   2.138   1.038  16.331 -0.2229  0.5686 -0.2788
  319MPD2    C4 4794   2.225   1.088  16.240 -0.0308  0.1590  0.4934
  319MPD2    C5 4795   2.357   1.103  16.271  0.2684 -0.4640 -0.0575
  319MPD2     H 4796   2.103   1.032  16.537  0.1797  0.2284  0.1851
  319MPD2    H1 4797   2.196   1.117  16.139  0.3354 -0.5384  0.1874
  319MPD2    H2 4798   2.513   1.078  16.415  0.6276 -2.2613  0.0722
  319MPD2    H3 4799   2.427   1.134  16.193 -1.3035 -0.9129 -1.6355
  319MPD2     N 4800   2.010   1.010  16.283 -0.1737  0.4977  0.0664
  319MPD2    H5 4801   1.995   1.013  16.183  2.9212  2.3599 -0.3805
  319MPD2    N1 4802   2.356   1.021  16.622 -0.2697  0.8075  0.4292
  319MPD2    H7 4803   2.283   1.026  16.692 -0.8417  0.1084 -0.1197
  320TMC3    C1 4804   1.798   0.910  16.283  0.2331 -0.0616 -0.2626
  320TMC3    C2 4805   1.774   0.935  16.151 -0.5618  0.4775 -0.6102
  320TMC3    C3 4806   1.647   0.889  16.106 -0.1857 -0.5473  0.3202
  320TMC3    C4 4807   1.709   0.834  16.350  0.1009  0.5784  0.2285
  320TMC3    C5 4808   1.592   0.792  16.301  0.0490  0.4273 -0.0299
  320TMC3    C6 4809   1.548   0.827  16.183 -0.3318 -1.6139 -0.0761
  320TMC3     C 4810   1.916   0.951  16.361 -0.0961  0.3113  0.0755
  320TMC3     O 4811   1.917   0.921  16.479 -0.4994 -0.2623  0.3688
  320TMC3     H 4812   1.839   0.990  16.084  0.5598  0.4401  0.4359
  320TMC3    H1 4813   1.732   0.807  16.452  3.6151  2.4385 -0.0690
  320TMC3    H2 4814   1.448   0.802  16.149 -0.1136 -0.4562 -1.5392
  320TMC3    C7 4815   1.499   0.708  16.384  0.0262 -0.9489 -0.3633
  320TMC3    C8 4816   1.599   0.943  15.980  0.3655  0.0772  0.3267
  320TMC3    O1 4817   1.491   0.721  16.502  0.1454 -0.4660 -0.0528
  320TMC3    O2 4818   1.633   1.055  15.957 -0.3788 -0.1076  0.2218
  321TMC3    C1 4819   2.505   1.048  16.816 -0.4733 -0.4361 -0.2422
  321TMC3    C2 4820   2.400   1.082  16.900 -0.0924 -0.3644  0.4447
  321TMC3    C3 4821   2.431   1.109  17.032 -0.4331  0.4715 -0.7104
  321TMC3    C4 4822   2.628   1.034  16.871  1.3258  0.5287  0.5154
  321TMC3    C5 4823   2.660   1.082  16.990  0.4140  0.0789  0.7754
  321TMC3    C6 4824   2.562   1.127  17.070  0.1325  0.1900 -0.1440
  321TMC3     C 4825   2.489   1.019  16.670  0.3295  0.5987  0.4152
  321TMC3     O 4826   2.590   1.002  16.601 -0.2006 -0.5305 -0.1451
  321TMC3     H 4827   2.300   1.112  16.872 -0.7182  0.1589  3.2098
  321TMC3    H1 4828   2.703   0.984  16.810  0.4006  0.5961 -0.6721
  321TMC3    H2 4829   2.574   1.201  17.149  1.7975 -0.7373  0.4718
  321TMC3    C7 4830   2.765   1.010  17.060  0.3575  0.3296 -0.2998
  321TMC3    C8 4831   2.355   1.037  17.130  0.2653  0.1272 -0.4620
  321TMC3    O1 4832   2.864   0.972  16.998 -0.6978 -0.4397 -0.7307
  321TMC3    O2 4833   2.428   1.007  17.223 -0.2373 -0.2141 -0.3662
  322MPD2     C 4834   0.660   1.947  13.607  0.2438 -0.3920  0.5178
  322MPD2    C1 4835   0.731   1.865  13.693  0.0303  0.1313  0.7252
  322MPD2    C2 4836   0.755   1.730  13.658  0.0726 -0.0897 -0.2794
  322MPD2    C3 4837   0.734   1.689  13.530 -1.0375 -0.3757 -1.1208
  322MPD2    C4 4838   0.679   1.777  13.439  0.2920  0.3547 -0.2470
  322MPD2    C5 4839   0.645   1.898  13.482  0.0837 -0.0082 -0.6902
  322MPD2     H 4840   0.793   1.669  13.739 -0.1065  1.5011  0.9968
  322MPD2    H1 4841   0.653   1.737  13.342 -1.5907 -0.3820  0.5627
  322MPD2    H2 4842   0.617   2.044  13.628  1.3804  0.1379  0.3995
  322MPD2    H3 4843   0.591   1.956  13.409 -0.1635  0.2327 -0.3106
  322MPD2     N 4844   0.779   1.557  13.495  0.2437  0.3214  0.0612
  322MPD2    H5 4845   0.797   1.494  13.573 -2.1685 -1.5023 -0.8459
  322MPD2    N1 4846   0.781   1.906  13.824  0.4855 -0.7153  0.6261
  322MPD2    H7 4847   0.829   1.836  13.881  1.0356 -1.4080 -0.7013
  323TMC3    C1 4848   0.861   2.048  13.982 -0.0910 -0.7659 -0.0139
  323TMC3    C2 4849   0.937   2.163  13.991 -0.8842  0.6897 -0.0583
  323TMC3    C3 4850   0.998   2.204  14.108 -0.1927  0.1786 -0.2785
  323TMC3    C4 4851   0.845   1.974  14.095  0.3123 -0.0172  0.0815
  323TMC3    C5 4852   0.914   2.008  14.206 -0.6746 -0.4014 -0.3135
  323TMC3    C6 4853   0.990   2.121  14.221 -0.2363 -0.1244  0.3862
  323TMC3     C 4854   0.782   2.035  13.866 -0.2206  0.1432 -0.1911
  323TMC3     O 4855   0.763   2.132  13.795  0.2972 -0.4623  0.4242
  323TMC3     H 4856   0.959   2.210  13.896 -1.2047  0.6056 -0.1725
  323TMC3    H1 4857   0.782   1.885  14.096 -0.2006  0.3485  1.4676
  323TMC3    H2 4858   1.057   2.147  14.302 -0.8430  0.6528  0.6443
  323TMC3    C7 4859   0.969   1.902  14.281  0.8034  0.5567 -0.1513
  323TMC3    C8 4860   1.118   2.292  14.104 -0.5818  0.2585  0.6493
  323TMC3    O1 4861   0.989   1.799  14.217  0.2815 -0.5526  0.2125
  323TMC3    O2 4862   1.203   2.274  14.189 -0.3744  0.7168  0.2051
  324MPD2     C 4863   3.006   3.619  14.546  0.4502  0.0212 -0.3031
  324MPD2    C1 4864   3.045   3.593  14.674 -0.4294 -0.0166 -0.1896
  324MPD2    C2 4865   2.948   3.580  14.771  0.2504 -0.3695 -0.2042
  324MPD2    C3 4866   2.810   3.602  14.738  0.2984 -1.3075  0.0634
  324MPD2    C4 4867   2.775   3.636  14.606 -0.0491 -0.6886 -0.1767
  324MPD2    C5 4868   2.876   3.643  14.508 -0.6971 -0.7161  0.2473
  324MPD2     H 4869   2.960   3.558  14.876  1.9931  2.2468  0.1306
  324MPD2    H1 4870   2.671   3.657  14.583  0.1416  0.7932  0.3133
  324MPD2    H2 4871   3.082   3.628  14.469  0.2737 -1.4903 -0.6656
  324MPD2    H3 4872   2.858   3.663  14.403 -2.4078  1.8753  1.0303
  324MPD2     N 4873   2.708   3.571  14.840  0.0886 -0.0622 -0.3600
  324MPD2    H5 4874   2.742   3.514  14.917  0.0269 -1.0132 -1.0417
  324MPD2    N1 4875   3.183   3.581  14.698  0.8975 -0.8032 -0.4363
  324MPD2    H7 4876   3.237   3.576  14.612  0.9977  1.5177 -0.5124
  325TMC3    C1 4877   2.483   3.566  14.929 -0.3019 -0.3175  0.5892
  325TMC3    C2 4878   2.451   3.437  14.902  0.1646 -0.9251 -0.3476
  325TMC3    C3 4879   2.320   3.406  14.906  0.4118  0.1750  0.7439
  325TMC3    C4 4880   2.398   3.661  14.973 -0.3301 -0.9401  0.4857
  325TMC3    C5 4881   2.263   3.631  14.969  0.6608 -0.5222  0.4896
  325TMC3    C6 4882   2.229   3.502  14.945 -0.8856  0.1182  1.1744
  325TMC3     C 4883   2.576   3.620  14.833  0.5096  0.2473  0.4280
  325TMC3     O 4884   2.522   3.704  14.764  0.2922  0.0419 -0.6562
  325TMC3     H 4885   2.530   3.369  14.873 -1.0209 -2.8770  0.9636
  325TMC3    H1 4886   2.437   3.761  14.985 -1.2767 -0.7491  1.9819
  325TMC3    H2 4887   2.126   3.470  14.943 -0.5522 -0.9734  1.3526
  325TMC3    C7 4888   2.196   3.727  14.889  0.2419 -0.4628 -0.6691
  325TMC3    C8 4889   2.282   3.324  14.795 -0.5652  0.4678 -0.2320
  325TMC3    O1 4890   2.260   3.831  14.871  0.0895 -0.1865 -0.0219
  325TMC3    O2 4891   2.369   3.294  14.717  0.5424  0.0125  0.1763
  326MPD2     C 4892   3.554   4.659  10.902 -0.6945  0.2516 -0.0311
  326MPD2    C1 4893   3.567   4.524  10.869  0.1474 -0.5344  0.5893
  326MPD2    C2 4894   3.695   4.466  10.895  0.3682 -0.5465 -0.3158
  326MPD2    C3 4895   3.800   4.540  10.954  0.6219 -0.0084  0.0282
  326MPD2    C4 4896   3.784   4.672  10.999  0.7590  0.1153  0.5706
  326MPD2    C5 4897   3.660   4.724  10.962  0.3121 -0.3409  0.4550
  326MPD2     H 4898   3.718   4.371  10.849  0.3186  0.3467 -2.1762
  326MPD2    H1 4899   3.860   0.001  11.052  0.8584  0.5757 -0.0530
  326MPD2    H2 4900   3.462   4.714  10.888 -0.5373  1.0376  1.9821
  326MPD2    H3 4901   3.635   0.099  10.989  1.1191 -0.2048  0.7123
  326MPD2     N 4902   3.933   4.491  10.970  0.1752  0.5928  0.0121
  326MPD2    H5 4903   3.993   4.549  11.028  1.9580  0.3607 -1.5893
  326MPD2    N1 4904   3.457   4.449  10.815 -0.0345 -0.1313 -0.3679
  326MPD2    H7 4905   3.474   4.352  10.791  0.6369  0.2209 -1.3159
  327TMC3    C1 4906   3.241   4.422  10.721 -0.0464  0.1567 -0.4815
  327TMC3    C2 4907   3.152   4.473  10.629 -0.1192  0.1171  0.6004
  327TMC3    C3 4908   3.063   4.388  10.568  0.0359  0.6477 -0.2251
  327TMC3    C4 4909   3.237   4.290  10.753 -0.4607  1.1034  0.2454
  327TMC3    C5 4910   3.142   4.206  10.693  0.3639  0.0318 -0.1055
  327TMC3    C6 4911   3.054   4.251  10.600 -0.1148 -0.4619  0.6257
  327TMC3     C 4912   3.336   4.512  10.788  0.1719  0.5822 -0.4688
  327TMC3     O 4913   3.299   4.630  10.781 -0.1166 -0.5375  0.4130
  327TMC3     H 4914   3.138   4.579  10.608  1.1059  0.2733  0.5756
  327TMC3    H1 4915   3.281   4.252  10.844 -2.0454 -2.2222 -0.3515
  327TMC3    H2 4916   2.986   4.179  10.556 -0.8426 -0.4480  1.7272
  327TMC3    C7 4917   3.101   4.086  10.753 -0.3681  0.3111 -0.4791
  327TMC3    C8 4918   3.048   4.429  10.431  0.0334 -0.2523 -0.0503
  327TMC3    O1 4919   2.986   4.056  10.749 -0.1877 -0.1555  0.3161
  327TMC3    O2 4920   3.101   4.536  10.401  0.2969 -0.0596  0.1517
  328MPD2     C 4921   1.348   3.494  16.795 -0.3110  0.3123 -0.3922
  328MPD2    C1 4922   1.320   3.584  16.894 -0.9246  0.3588 -0.1787
  328MPD2    C2 4923   1.334   3.721  16.870  0.1761  0.0580 -0.2587
  328MPD2    C3 4924   1.387   3.767  16.749  0.1694 -0.3631  0.0140
  328MPD2    C4 4925   1.420   3.673  16.654  0.5483 -0.3700  0.6531
  328MPD2    C5 4926   1.410   3.535  16.678  1.0058 -0.4166 -0.1538
  328MPD2     H 4927   1.305   3.797  16.942  2.6260  1.1249 -0.3839
  328MPD2    H1 4928   1.419   3.703  16.550  0.0090  0.5368  0.9190
  328MPD2    H2 4929   1.317   3.391  16.810 -0.1567  0.2836 -0.2701
  328MPD2    H3 4930   1.416   3.465  16.595  2.1933 -1.4218  0.7894
  328MPD2     N 4931   1.369   3.905  16.726 -0.5936  0.0378 -0.4156
  328MPD2    H5 4932   1.347   3.959  16.808  0.2586 -0.6158  0.2456
  328MPD2    N1 4933   1.281   3.536  17.020  0.3470 -0.6446 -0.4409
  328MPD2    H7 4934   1.247   3.440  17.021  0.0566 -0.5383 -0.0692
  329TMC3    C1 4935   1.202   3.569  17.225 -0.5289  0.1217 -0.3192
  329TMC3    C2 4936   1.127   3.674  17.272  0.8194 -0.8589 -0.0262
  329TMC3    C3 4937   1.005   3.647  17.338 -0.0890 -0.0125  0.4347
  329TMC3    C4 4938   1.177   3.441  17.252 -0.7281  0.1387 -0.5365
  329TMC3    C5 4939   1.055   3.420  17.311  0.2431 -0.7473  0.0403
  329TMC3    C6 4940   0.965   3.520  17.344  0.3092 -0.2827  0.1780
  329TMC3     C 4941   1.294   3.612  17.135  0.3845  0.0178  0.4612
  329TMC3     O 4942   1.347   3.719  17.156 -0.1675 -0.4092  0.1832
  329TMC3     H 4943   1.161   3.776  17.259  1.4489 -1.2650 -1.5298
  329TMC3    H1 4944   1.252   3.367  17.230  0.0902  0.6751  0.4256
  329TMC3    H2 4945   0.864   3.502  17.380 -0.4976  1.7016 -1.1543
  329TMC3    C7 4946   1.030   3.280  17.349 -0.7250  0.0298 -0.1163
  329TMC3    C8 4947   0.906   3.740  17.326 -1.0513  0.2043  0.1796
  329TMC3    O1 4948   1.083   3.192  17.281  0.0733  0.6555 -0.2496
  329TMC3    O2 4949   0.816   3.707  17.250 -0.3329  0.3407 -0.3651
  330TMC3    C1 4950   4.300   2.661  10.235 -0.0735 -0.9378 -0.1090
  330TMC3    C2 4951   4.353   2.628  10.112  0.0135 -0.2367  0.2448
  330TMC3    C3 4952   4.461   2.537  10.112 -0.1909 -0.0841  0.2139
  330TMC3    C4 4953   4.361   2.613  10.353 -0.7884 -0.3164  0.3205
  330TMC3    C5 4954   4.467   2.530  10.342 -0.4377  0.1141  0.3220
  330TMC3    C6 4955   4.514   2.485  10.227 -0.7434 -0.2124  0.9073
  330TMC3     C 4956   4.210   2.772  10.256 -0.1895 -0.3079 -0.0867
  330TMC3     O 4957   4.213   2.836  10.358  0.0999 -0.1854  0.6384
  330TMC3     H 4958   4.326   2.672  10.017 -1.3080 -0.7719  0.3628
  330TMC3    H1 4959   4.324   2.643  10.450 -0.5723 -0.2336  0.3776
  330TMC3    H2 4960   4.597   2.417  10.216  0.0771  1.1955 -1.4404
  330TMC3    C7 4961   4.548   2.512  10.463 -0.3957  0.6610  1.0475
  330TMC3    C8 4962   4.512   2.481   9.989 -0.4184 -0.4927 -1.0120
  330TMC3    O1 4963   4.496   2.537  10.574 -0.1072 -0.4298  0.5681
  330TMC3    O2 4964   4.617   2.419   9.997 -0.0034 -0.2986 -0.3765
  331MPD2     C 4965   1.576   2.805  12.714  0.0986 -0.5162  0.1677
  331MPD2    C1 4966   1.677   2.816  12.623 -0.7657 -0.2615 -0.4604
  331MPD2    C2 4967   1.720   2.702  12.558 -0.0999 -0.0767 -0.0786
  331MPD2    C3 4968   1.680   2.581  12.586  0.0133  0.2247  0.5002
  331MPD2    C4 4969   1.564   2.569  12.659 -0.1173  0.2439 -0.7645
  331MPD2    C5 4970   1.518   2.678  12.727 -0.5801 -0.6794  0.0063
  331MPD2     H 4971   1.787   2.717  12.474 -1.1731 -0.5294 -0.9995
  331MPD2    H1 4972   1.529   2.472  12.693 -0.4892  0.4190 -0.6529
  331MPD2    H2 4973   1.533   2.883  12.776 -0.9940 -0.9499 -0.0377
  331MPD2    H3 4974   1.435   2.660  12.794  0.5268 -0.0584  1.5393
  331MPD2     N 4975   1.737   2.467  12.522  0.6097  0.5773  0.2729
  331MPD2    H5 4976   1.824   2.482  12.472  1.2057  2.0654  1.7629
  331MPD2    N1 4977   1.730   2.942  12.585 -0.1864  0.2050  0.3685
  331MPD2    H7 4978   1.683   3.028  12.610 -2.4917 -0.7795 -0.4828
  332TMC3    C1 4979   1.758   2.257  12.429 -0.2953 -0.1262  0.8554
  332TMC3    C2 4980   1.801   2.332  12.322 -1.1713 -0.5463  0.3769
  332TMC3    C3 4981   1.909   2.295  12.250  0.3496  0.0177 -0.1026
  332TMC3    C4 4982   1.839   2.157  12.480 -0.5900 -0.1951 -0.5378
  332TMC3    C5 4983   1.965   2.151  12.422  0.4545 -0.3872  0.6191
  332TMC3    C6 4984   2.000   2.202  12.298 -0.3792 -0.3428 -0.2006
  332TMC3     C 4985   1.692   2.336  12.532 -0.7718 -0.1182  0.6655
  332TMC3     O 4986   1.623   2.276  12.614  0.5150 -0.7533 -0.1359
  332TMC3     H 4987   1.734   2.404  12.276 -1.2863 -0.3597  0.8336
  332TMC3    H1 4988   1.811   2.110  12.574 -1.2429 -0.0775 -0.6738
  332TMC3    H2 4989   2.103   2.214  12.268 -0.0561 -0.2393  0.9288
  332TMC3    C7 4990   2.073   2.098  12.508 -0.3377 -0.1224 -0.5343
  332TMC3    C8 4991   1.967   2.393  12.171  0.0121 -0.6510 -0.5359
  332TMC3    O1 4992   2.034   2.062  12.622 -0.0244  0.5485 -0.4896
  332TMC3    O2 4993   2.072   2.437  12.221 -0.3722  0.8375  0.2218
  333MPD2     C 4994   1.981   2.271  11.172  0.1709  0.1337  0.2042
  333MPD2    C1 4995   2.116   2.246  11.212  0.3002 -0.2278  0.5463
  333MPD2    C2 4996   2.140   2.164  11.324 -0.3100  0.0854  0.5172
  333MPD2    C3 4997   2.035   2.124  11.401 -0.2780  0.2595  0.5101
  333MPD2    C4 4998   1.904   2.161  11.369  0.0151  0.3932  0.1965
  333MPD2    C5 4999   1.877   2.221  11.247 -0.3167 -0.0165  0.5304
  333MPD2     H 5000   2.239   2.147  11.365 -0.2334 -0.3329  0.1555
  333MPD2    H1 5001   1.814   2.147  11.428 -1.2293 -3.5087 -2.5561
  333MPD2    H2 5002   1.963   2.306  11.072  0.1739  2.4707  1.0293
  333MPD2    H3 5003   1.775   2.245  11.217  0.1625  1.4311  0.1136
  333MPD2     N 5004   2.056   2.073  11.534 -0.2975  0.2477 -0.1678
  333MPD2    H5 5005   2.150   2.042  11.554  0.1979 -0.1358 -3.0932
  333MPD2    N1 5006   2.218   2.303  11.128 -0.5552 -0.6880  0.0392
  333MPD2    H7 5007   2.192   2.355  11.045  0.6657  0.8154  0.5962
  334TMC3    C1 5008   2.437   2.352  11.043 -0.1987  0.1053 -0.0953
  334TMC3    C2 5009   2.563   2.296  11.037 -0.0073  0.6126  0.2447
  334TMC3    C3 5010   2.673   2.367  10.984 -0.2507 -0.2968  0.0366
  334TMC3    C4 5011   2.425   2.482  11.005 -0.3447 -0.1026  0.1440
  334TMC3    C5 5012   2.531   2.561  10.972  0.1037 -0.2752  0.2495
  334TMC3    C6 5013   2.657   2.503  10.965 -0.5564  0.5925 -0.0689
  334TMC3     C 5014   2.355   2.292  11.145  0.2537 -0.1775  0.5761
  334TMC3     O 5015   2.416   2.237  11.238  0.3300  0.1151  0.1562
  334TMC3     H 5016   2.573   2.190  11.059  0.4468  0.6974  0.4531
  334TMC3    H1 5017   2.332   2.525  11.040 -0.0900  1.8649 -1.5994
  334TMC3    H2 5018   2.737   2.569  10.936 -0.4489  1.1546  1.4927
  334TMC3    C7 5019   2.528   2.706  10.996  0.0721 -0.1555  0.1564
  334TMC3    C8 5020   2.754   2.291  10.895  0.3142 -0.5304 -1.0880
  334TMC3    O1 5021   2.636   2.761  11.015  0.6665  0.3896 -0.0081
  334TMC3    O2 5022   2.709   2.196  10.836  0.0535 -0.6672  0.0140
  335TMC3    C1 5023   2.146   4.242  17.606  0.1963  0.5221 -0.1790
  335TMC3    C2 5024   2.056   4.257  17.506 -0.2282 -0.0805  1.1145
  335TMC3    C3 5025   2.110   4.313  17.392 -0.1405  0.0194  0.4612
  335TMC3    C4 5026   2.275   4.286  17.606 -0.3386 -0.1575  0.3688
  335TMC3    C5 5027   2.322   4.348  17.498 -0.0282  0.0030  0.0822
  335TMC3    C6 5028   2.238   4.358  17.391 -0.2773  0.2290  0.2946
  335TMC3     C 5029   2.094   4.172   0.014  0.1855 -0.3494  0.3808
  335TMC3     O 5030   2.154   4.171   0.119  0.1416 -0.6505  0.0899
  335TMC3     H 5031   1.949   4.243  17.516  0.0008 -2.7098 -0.2778
  335TMC3    H1 5032   2.336   4.249  17.688  0.5366  0.6326  0.0683
  335TMC3    H2 5033   2.275   4.412  17.305  3.5239 -0.8586  1.1941
  335TMC3    C7 5034   2.461   4.344  17.469 -0.0678 -0.6130 -0.2463
  335TMC3    C8 5035   2.036   4.306  17.265  0.1996  0.0751 -0.2033
  335TMC3    O1 5036   2.497   4.436  17.397  0.0515  0.0929 -0.3221
  335TMC3    O2 5037   2.073   4.387  17.180 -0.0689 -0.2602  0.0303
  336MPD2     C 5038   1.217   2.037  16.110  0.0871 -0.5582  0.4341
  336MPD2    C1 5039   1.320   2.016  16.021 -0.4795 -0.6070 -0.6200
  336MPD2    C2 5040   1.400   1.901  16.025  0.5663 -1.1331 -0.2980
  336MPD2    C3 5041   1.381   1.800  16.118  0.4162  0.1801 -1.0574
  336MPD2    C4 5042   1.279   1.823  16.205  0.0695  0.1029  0.2791
  336MPD2    C5 5043   1.198   1.935  16.199 -0.1809 -0.5132 -0.2259
  336MPD2     H 5044   1.475   1.907  15.947 -0.8151 -0.1882 -1.5678
  336MPD2    H1 5045   1.257   1.745  16.277  1.0545  0.6071  1.1299
  336MPD2    H2 5046   1.156   2.126  16.119  1.2556  0.3810 -0.9896
  336MPD2    H3 5047   1.116   1.942  16.268  0.4710  1.6097  0.3343
  336MPD2     N 5048   1.467   1.684  16.125  0.1946  0.3731  0.6341
  336MPD2    H5 5049   1.433   1.610  16.186  0.1519 -0.4715 -0.4252
  336MPD2    N1 5050   1.338   2.107  15.913  0.0563  0.8538  0.2294
  336MPD2    H7 5051   1.398   2.068  15.841  0.9163  0.5770  1.1140
  337TMC3    C1 5052   1.249   2.258  15.751 -0.5966 -0.8583  0.2246
  337TMC3    C2 5053   1.256   2.149  15.666  0.2894 -0.4151  0.7464
  337TMC3    C3 5054   1.155   2.126  15.583  0.1646 -0.1152 -0.3861
  337TMC3    C4 5055   1.151   2.354  15.743  0.1214 -0.0871 -0.5217
  337TMC3    C5 5056   1.042   2.321  15.667 -0.3802  0.0380 -0.1391
  337TMC3    C6 5057   1.044   2.210  15.586 -0.8676 -0.3743  0.2209
  337TMC3     C 5058   1.275   2.231  15.893  0.4041  0.5728 -0.0489
  337TMC3     O 5059   1.228   2.302  15.982 -0.6396 -0.2860  0.3318
  337TMC3     H 5060   1.333   2.073  15.672  1.8033  0.9886 -0.5972
  337TMC3    H1 5061   1.152   2.431  15.819 -0.2375 -0.2013 -0.4027
  337TMC3    H2 5062   0.971   2.209  15.506 -0.7777  1.1502  0.1262
  337TMC3    C7 5063   0.910   2.370  15.695  0.4566  0.7255 -0.4239
  337TMC3    C8 5064   1.136   1.989  15.540 -0.0386  0.5124 -0.1230
  337TMC3    O1 5065   0.819   2.330  15.625  0.2234  0.1037  0.0170
  337TMC3    O2 5066   1.191   1.908  15.614 -0.1159 -0.2681  0.7189
  338MPD2     C 5067   1.581   0.812   1.076 -0.0152  0.1545 -0.6844
  338MPD2    C1 5068   1.545   0.832   0.946 -0.7199  0.6274  0.4917
  338MPD2    C2 5069   1.432   0.910   0.921 -0.0446 -0.2598  0.0624
  338MPD2    C3 5070   1.357   0.956   1.025  0.0498  0.0280 -0.1397
  338MPD2    C4 5071   1.385   0.929   1.158 -0.6505  0.3430 -0.1074
  338MPD2    C5 5072   1.504   0.862   1.178  0.3502  0.5450  0.5137
  338MPD2     H 5073   1.390   0.926   0.822 -0.2326 -0.2539  0.1439
  338MPD2    H1 5074   1.323   0.950   1.244 -0.1920  1.0189  0.0600
  338MPD2    H2 5075   1.660   0.746   1.110 -0.1029 -0.1250 -1.0265
  338MPD2    H3 5076   1.525   0.845   1.283 -0.9221 -1.4130  0.4576
  338MPD2     N 5077   1.242   1.022   0.985  0.1063  0.1638 -0.1563
  338MPD2    H5 5078   1.237   1.019   0.884 -3.7903  0.7244  0.0189
  338MPD2    N1 5079   1.601   0.774   0.827  0.6664  0.0373 -0.2744
  338MPD2    H7 5080   1.547   0.781   0.741 -1.0685  1.1601  0.9360
  339TMC3    C1 5081   1.028   1.109   0.989  0.2516 -0.1746  0.0915
  339TMC3    C2 5082   0.933   1.028   1.038  0.4101  0.3203  0.4037
  339TMC3    C3 5083   0.854   0.957   0.941 -0.6339  0.2360 -0.0873
  339TMC3    C4 5084   1.047   1.115   0.855  0.1263  0.0450  0.4737
  339TMC3    C5 5085   0.971   1.047   0.762 -0.3678  0.1170 -0.0158
  339TMC3    C6 5086   0.878   0.965   0.806 -1.0881  0.2473  0.1195
  339TMC3     C 5087   1.146   1.088   1.065  0.0047  0.2786 -0.3534
  339TMC3     O 5088   1.145   1.096   1.188  0.3540 -0.9654 -0.0970
  339TMC3     H 5089   0.915   1.011   1.144 -1.9879  0.3552  0.0100
  339TMC3    H1 5090   1.123   1.177   0.809 -1.5991  1.1303 -0.9521
  339TMC3    H2 5091   0.825   0.904   0.734 -0.8607 -1.1428  1.1233
  339TMC3    C7 5092   1.059   1.009   0.659 -0.3808 -0.1751  0.3470
  339TMC3    C8 5093   0.772   0.845   0.994 -0.2462 -0.2886 -1.0616
  339TMC3    O1 5094   1.167   0.977   0.699  0.1122 -0.0391  0.6313
  339TMC3    O2 5095   0.676   0.824   0.923 -0.2256 -0.0898  0.6849
  340MPD2     C 5096   2.572   3.506   9.241 -0.6290 -0.1145 -0.5276
  340MPD2    C1 5097   2.522   3.424   9.342 -0.6541 -0.3852 -0.1079
  340MPD2    C2 5098   2.475   3.487   9.464  0.2283 -0.0489  0.3795
  340MPD2    C3 5099   2.468   3.621   9.477 -0.1657  0.4926 -0.4334
  340MPD2    C4 5100   2.522   3.696   9.377 -0.0861 -0.4826 -1.1224
  340MPD2    C5 5101   2.564   3.639   9.258 -0.1549  0.0801 -0.5125
  340MPD2     H 5102   2.441   3.421   9.544 -0.2601 -2.3512 -1.7264
  340MPD2    H1 5103   2.532   3.804   9.378  0.2616 -0.5092 -1.4769
  340MPD2    H2 5104   2.635   3.469   9.160 -1.7644  1.8974 -2.3165
  340MPD2    H3 5105   2.597   3.703   9.177 -0.1778  1.6986  0.7298
  340MPD2     N 5106   2.418   3.691   9.594  0.1492  0.5620 -0.6725
  340MPD2    H5 5107   2.448   3.785   9.617 -0.8030  1.0911 -1.5546
  340MPD2    N1 5108   2.525   3.283   9.336 -0.1220 -0.1299 -0.7895
  340MPD2    H7 5109   2.586   3.246   9.264  1.2173 -0.1666  0.3567
  341TMC3    C1 5110   2.499   3.059   9.419  0.5229 -0.4230 -0.3651
  341TMC3    C2 5111   2.417   2.961   9.464 -0.0470  0.1573  0.4810
  341TMC3    C3 5112   2.460   2.841   9.489 -0.0985 -0.0945  0.5067
  341TMC3    C4 5113   2.636   3.034   9.398  0.0795  0.3324 -0.6179
  341TMC3    C5 5114   2.670   2.902   9.412 -0.3894 -0.7339 -0.7371
  341TMC3    C6 5115   2.587   2.804   9.456 -0.7838 -0.0964 -0.1387
  341TMC3     C 5116   2.453   3.195   9.417 -0.3141 -0.5195  0.3076
  341TMC3     O 5117   2.360   3.214   9.493 -0.0368 -0.2451 -0.1166
  341TMC3     H 5118   2.315   2.982   9.493  0.4241 -0.4950  2.5625
  341TMC3    H1 5119   2.699   3.119   9.373 -0.9473  0.9486 -1.1312
  341TMC3    H2 5120   2.623   2.702   9.457 -1.7036 -0.4156  1.6261
  341TMC3    C7 5121   2.811   2.875   9.391  0.5393  0.0972 -0.1737
  341TMC3    C8 5122   2.369   2.740   9.540 -0.5693 -0.3292 -0.5414
  341TMC3    O1 5123   2.851   2.772   9.450  0.1890  0.1487 -0.7227
  341TMC3    O2 5124   2.254   2.752   9.492 -0.4383 -0.1881 -0.0434
  342MPD2     C 5125   4.547   2.046   0.085  0.0129  0.1004 -0.1507
  342MPD2    C1 5126   4.635   2.064  17.688 -0.1888 -0.4169 -0.1649
  342MPD2    C2 5127   4.664   2.189  17.642  0.2879  0.3281 -0.0435
  342MPD2    C3 5128   4.608   2.303  17.691 -0.2431  0.4155 -0.5909
  342MPD2    C4 5129   4.523   2.286   0.094 -0.6354 -0.4402  0.8340
  342MPD2    C5 5130   4.493   2.160   0.143  0.4041  0.3826 -0.1369
  342MPD2     H 5131   0.001   2.198  17.554 -0.8831  2.1027 -0.7215
  342MPD2    H1 5132   4.461   2.361   0.142  0.9450  1.4727 -0.1334
  342MPD2    H2 5133   4.535   1.947   0.128  1.3388  0.3650  0.7960
  342MPD2    H3 5134   4.422   2.151   0.224  0.2476  1.2243 -0.1794
  342MPD2     N 5135   4.654   2.436  17.663 -1.0750  0.4592  0.2522
  342MPD2    H5 5136   4.607   2.518  17.700 -0.8877 -0.0050  1.5088
  342MPD2    N1 5137   4.702   1.958  17.617 -0.0943 -0.0751 -0.3967
  342MPD2    H7 5138   0.060   1.983  17.568 -1.2131 -0.4158 -2.5023
  343TMC3    C1 5139   0.058   1.746  17.561 -0.3026 -0.5273  0.7795
  343TMC3    C2 5140   0.161   1.811  17.502  0.1091 -0.0896  0.0026
  343TMC3    C3 5141   0.206   1.757  17.380  0.0984  0.4157  0.1809
  343TMC3    C4 5142   0.007   1.626  17.516  0.5079  0.6135  0.5445
  343TMC3    C5 5143   0.053   1.583  17.395 -0.8817  0.7640  0.2163
  343TMC3    C6 5144   0.160   1.640  17.327  0.9250 -0.6163 -0.4224
  343TMC3     C 5145   4.682   1.824  17.631  0.1718  0.6321  0.0080
  343TMC3     O 5146   4.587   1.762  17.677  0.3189 -0.3454 -0.4735
  343TMC3     H 5147   0.220   1.880  17.561  0.8059  0.1488 -0.9678
  343TMC3    H1 5148   4.644   1.580  17.557  2.2545 -3.7688 -0.5446
  343TMC3    H2 5149   0.195   1.582  17.242  0.8250  2.4494 -2.5607
  343TMC3    C7 5150   0.015   1.451  17.352 -0.2383 -0.0729 -0.4564
  343TMC3    C8 5151   0.323   1.827  17.323  0.4396  0.1549  0.3259
  343TMC3    O1 5152   0.005   1.427  17.233  0.3018 -0.0746 -0.4804
  343TMC3    O2 5153   0.341   1.943  17.355  0.0184  0.0794 -0.5211
  344MPD2     C 5154   1.381   1.527  10.543  0.5229  0.2778 -0.2811
  344MPD2    C1 5155   1.255   1.510  10.484  0.5633  0.3591  0.8648
  344MPD2    C2 5156   1.237   1.574  10.365  0.1593 -0.2256 -0.0683
  344MPD2    C3 5157   1.335   1.661  10.313 -0.0114 -0.1665  0.6283
  344MPD2    C4 5158   1.455   1.686  10.381  0.2742  0.6898 -0.6022
  344MPD2    C5 5159   1.475   1.610  10.496  0.2317 -0.1409 -0.3821
  344MPD2     H 5160   1.147   1.562  10.305 -0.2111 -0.7730  0.5867
  344MPD2    H1 5161   1.531   1.756  10.349 -0.0739  2.0702  1.5315
  344MPD2    H2 5162   1.418   1.476  10.631  2.0217 -0.7333 -1.5065
  344MPD2    H3 5163   1.565   1.619  10.556  0.5617 -1.3059 -0.7012
  344MPD2     N 5164   1.309   1.742  10.198 -0.0382  0.3409 -0.2060
  344MPD2    H5 5165   1.381   1.814  10.189 -0.6413  0.8592 -0.8958
  344MPD2    N1 5166   1.154   1.435  10.551 -0.2587 -0.0298  0.5632
  344MPD2    H7 5167   1.064   1.427  10.505  0.6592  0.5352 -1.3586
  345TMC3    C1 5168   1.217   1.866  10.033 -0.0636 -0.3848  0.3538
  345TMC3    C2 5169   1.338   1.935  10.028  0.0468  0.2802  0.0051
  345TMC3    C3 5170   1.340   2.060   9.976 -0.1884 -0.3653 -0.7308
  345TMC3    C4 5171   1.100   1.930  10.002  0.6546 -0.3215 -0.1512
  345TMC3    C5 5172   1.112   2.065   9.972  0.1190  0.2121 -0.4259
  345TMC3    C6 5173   1.228   2.133   9.943  0.1654  0.0753 -0.5132
  345TMC3     C 5174   1.203   1.754  10.112 -0.5660  0.8632 -0.0029
  345TMC3     O 5175   1.102   1.685  10.101 -0.2096  0.8520 -0.4800
  345TMC3     H 5176   1.430   1.877  10.029 -1.8228 -2.6628  1.3391
  345TMC3    H1 5177   1.009   1.872  10.010 -0.6956  1.6903 -0.9024
  345TMC3    H2 5178   1.220   2.237   9.915  1.3923  0.3653  0.2221
  345TMC3    C7 5179   0.995   2.141   9.984 -0.0749 -1.1582 -0.5782
  345TMC3    C8 5180   1.467   2.126   9.969  0.5502  0.1343  0.0191
  345TMC3    O1 5181   0.998   2.241  10.053  0.2257 -0.4471 -0.0854
  345TMC3    O2 5182   1.555   2.094  10.048 -0.1637 -0.1959 -0.1998
  346MPD2     C 5183   1.648   3.027  13.726 -0.1411  0.8419 -0.5146
  346MPD2    C1 5184   1.655   3.164  13.712  0.0603  1.0175 -0.2250
  346MPD2    C2 5185   1.605   3.250  13.810 -0.7034 -0.9536  0.6646
  346MPD2    C3 5186   1.560   3.191  13.924  0.5662 -0.2238  0.4796
  346MPD2    C4 5187   1.553   3.054  13.935  0.8858 -0.5655  0.0107
  346MPD2    C5 5188   1.591   2.971  13.837 -1.1210  0.1075 -0.1068
  346MPD2     H 5189   1.594   3.357  13.803  0.3164 -1.1511 -3.9780
  346MPD2    H1 5190   1.493   3.002  14.010  1.2931  0.1483  0.8364
  346MPD2    H2 5191   1.663   2.953  13.648 -0.2059 -2.0539  2.2167
  346MPD2    H3 5192   1.556   2.868  13.839  0.2114 -0.3607 -0.6701
  346MPD2     N 5193   1.521   3.282  14.024  0.5405 -0.2164  0.2504
  346MPD2    H5 5194   1.528   3.380  13.998 -0.8691 -0.4146 -0.9024
  346MPD2    N1 5195   1.703   3.227  13.596 -0.1431  0.4828 -0.2300
  346MPD2    H7 5196   1.713   3.328  13.604 -0.8243  0.4103  1.5445
  347TMC3    C1 5197   1.505   3.360  14.240 -0.2122  0.1163  0.5363
  347TMC3    C2 5198   1.611   3.396  14.323  0.1374 -0.2058  0.2743
  347TMC3    C3 5199   1.598   3.516  14.387 -0.7092 -0.1613  0.0990
  347TMC3    C4 5200   1.396   3.438  14.220  0.6802 -0.1861  0.8862
  347TMC3    C5 5201   1.390   3.558  14.287  0.4653 -0.0455 -1.1735
  347TMC3    C6 5202   1.487   3.596  14.380  0.6060  0.5028 -0.3622
  347TMC3     C 5203   1.532   3.250  14.158  0.3290  0.0896 -0.8890
  347TMC3     O 5204   1.581   3.150  14.205 -0.0369 -0.8619 -0.5617
  347TMC3     H 5205   1.697   3.331  14.335 -0.2066 -0.6541  0.2810
  347TMC3    H1 5206   1.318   3.409  14.151  0.6717  3.2161 -0.5547
  347TMC3    H2 5207   1.477   3.692  14.428  1.8436  1.2459 -1.5707
  347TMC3    C7 5208   1.288   3.657  14.261  0.6830 -0.1849  0.3037
  347TMC3    C8 5209   1.717   3.558  14.467 -0.0266  0.1441 -0.3718
  347TMC3    O1 5210   1.248   3.726  14.353  0.1831 -0.1951  0.2587
  347TMC3    O2 5211   1.785   3.463  14.506 -0.1377  0.4872  0.4283
  348MPD2     C 5212   4.559   3.185  12.167  0.8381  0.1804  0.3799
  348MPD2    C1 5213   4.528   3.115  12.052  0.2115 -0.1922 -0.0104
  348MPD2    C2 5214   4.510   3.194  11.939 -0.2490 -0.2825  0.5936
  348MPD2    C3 5215   4.503   3.333  11.937 -0.2458 -0.1571  0.2559
  348MPD2    C4 5216   4.548   3.398  12.050  0.2324 -0.1736 -0.3168
  348MPD2    C5 5217   4.584   3.325  12.164  0.5303 -0.2498  0.3488
  348MPD2     H 5218   4.484   3.153  11.842 -0.0946 -1.1321  0.9207
  348MPD2    H1 5219   4.555   3.505  12.062 -0.0819 -0.2699  0.7652
  348MPD2    H2 5220   4.583   3.136  12.261  1.0480  1.2518  0.8911
  348MPD2    H3 5221   4.616   3.376  12.254  0.5778  0.5375 -0.1173
  348MPD2     N 5222   4.474   3.400  11.816  0.5195 -0.6709  0.2331
  348MPD2    H5 5223   4.436   3.345  11.739 -0.5662 -1.7461  1.5609
  348MPD2    N1 5224   4.527   2.973  12.052  0.0805  0.1639 -0.4010
  348MPD2    H7 5225   4.523   2.928  11.961  0.4333  2.1902 -1.4197
  349TMC3    C1 5226   4.574   2.747  12.093  0.0678  0.1479 -0.0292
  349TMC3    C2 5227   4.666   2.680  12.171  0.2729  0.1067  0.2982
  349TMC3    C3 5228   0.033   2.603  12.103 -0.2175 -0.4963 -0.0964
  349TMC3    C4 5229   4.562   2.731  11.957  0.0938  0.5061  0.1006
  349TMC3    C5 5230   4.644   2.638  11.902  0.3313  0.4141  0.2437
  349TMC3    C6 5231   0.016   2.575  11.967  0.1577 -0.2062  0.3669
  349TMC3     C 5232   4.552   2.879  12.151  0.1986 -0.0858  0.1714
  349TMC3     O 5233   4.563   2.901  12.270  0.4298  0.1563  0.5443
  349TMC3     H 5234   4.686   2.713  12.273  1.1091  2.0825 -0.5068
  349TMC3    H1 5235   4.474   2.765  11.903 -2.3909 -3.7271  1.4394
  349TMC3    H2 5236   0.081   2.506  11.913 -0.9132 -2.1605  1.5769
  349TMC3    C7 5237   4.670   2.686  11.767 -0.0217  0.0474  0.4436
  349TMC3    C8 5238   0.106   2.513  12.190 -0.0531 -0.4789  0.3168
  349TMC3    O1 5239   4.592   2.652  11.681 -0.0619  0.0276  0.1992
  349TMC3    O2 5240   0.060   2.496  12.302  0.6960 -0.1797 -0.3052
  350MPD2     C 5241   3.330   0.872   9.587  0.0663  0.0272  0.1001
  350MPD2    C1 5242   3.404   0.753   9.594 -0.4077 -0.1172  0.9215
  350MPD2    C2 5243   3.529   0.756   9.649  0.2821  0.1690 -0.1379
  350MPD2    C3 5244   3.591   0.878   9.687 -0.0625  0.3388 -0.0306
  350MPD2    C4 5245   3.522   0.998   9.678 -0.5284 -0.2116  0.0320
  350MPD2    C5 5246   3.391   0.989   9.637 -0.3189  0.2362  0.2624
  350MPD2     H 5247   3.584   0.663   9.663 -3.4746 -1.9835  0.3491
  350MPD2    H1 5248   3.562   1.093   9.709  0.9811 -1.0358  0.6295
  350MPD2    H2 5249   3.229   0.879   9.550  0.8779 -0.4336 -2.1674
  350MPD2    H3 5250   3.324   1.074   9.637  1.7450  1.8588  0.9406
  350MPD2     N 5251   3.726   0.873   9.728  0.4506 -0.4091  0.1039
  350MPD2    H5 5252   3.777   0.785   9.736 -2.2579 -2.0121 -0.2195
  350MPD2    N1 5253   3.354   0.622   9.561  0.3243 -0.8471  0.0570
  350MPD2    H7 5254   3.421   0.546   9.559  1.8557  0.4847  0.0411
  351TMC3    C1 5255   3.185   0.455   9.509 -0.0744  0.1764  0.5984
  351TMC3    C2 5256   3.265   0.374   9.430  0.6957  0.0505  0.2487
  351TMC3    C3 5257   3.204   0.263   9.370 -0.0557  0.8780  0.1762
  351TMC3    C4 5258   3.054   0.426   9.533 -0.3213 -0.0941 -0.0518
  351TMC3    C5 5259   3.003   0.314   9.473 -0.6570 -0.5371 -0.2065
  351TMC3    C6 5260   3.074   0.232   9.391  1.2682  1.1322 -0.8904
  351TMC3     C 5261   3.219   0.598   9.539 -0.1571 -0.4510  0.5011
  351TMC3     O 5262   3.127   0.676   9.552  0.0201  0.0259  0.3491
  351TMC3     H 5263   3.363   0.410   9.399  1.0004 -0.5608  0.5090
  351TMC3    H1 5264   3.005   0.493   9.603 -1.6523  0.7676 -1.7989
  351TMC3    H2 5265   3.027   0.142   9.351 -1.1419  1.7895  0.4478
  351TMC3    C7 5266   2.872   0.268   9.527 -0.2481 -0.2739  0.3140
  351TMC3    C8 5267   3.277   0.204   9.255 -0.5030 -0.0971 -0.3491
  351TMC3    O1 5268   2.834   0.315   9.631 -0.4903 -0.0609  0.2094
  351TMC3    O2 5269   3.397   0.225   9.230 -0.6236  0.1711 -0.8132
  352MPD2     C 5270   1.335   2.788   0.512  0.3311 -0.4254  0.5054
  352MPD2    C1 5271   1.266   2.815   0.634  0.0774  0.1453 -0.0420
  352MPD2    C2 5272   1.230   2.702   0.716 -0.1239 -0.1826 -0.0734
  352MPD2    C3 5273   1.287   2.578   0.694 -0.6084 -0.3928 -0.1446
  352MPD2    C4 5274   1.369   2.553   0.582 -0.1972  0.3684  0.9676
  352MPD2    C5 5275   1.381   2.655   0.488  0.8179 -0.0995  0.0133
  352MPD2     H 5276   1.170   2.721   0.804  5.1983 -1.9658  3.8982
  352MPD2    H1 5277   1.409   2.454   0.560  0.5487  1.6579 -3.6012
  352MPD2    H2 5278   1.356   2.866   0.440 -0.3458 -0.9855 -0.2999
  352MPD2    H3 5279   1.433   2.630   0.396 -0.1539  2.5845 -1.2693
  352MPD2     N 5280   1.265   2.466   0.772  0.1628 -0.9560  0.1888
  352MPD2    H5 5281   1.321   2.383   0.756  1.9532 -0.2303  2.7177
  352MPD2    N1 5282   1.245   2.953   0.669  0.7916  0.4736 -0.4263
  352MPD2    H7 5283   1.294   3.016   0.606  0.1437  3.0109  1.6228
  353TMC3    C1 5284   1.155   2.307   0.892  0.1765  0.8007 -0.7807
  353TMC3    C2 5285   1.197   2.260   1.017  0.3686 -0.7423 -0.0563
  353TMC3    C3 5286   1.242   2.133   1.021 -0.5452  0.1718 -0.1304
  353TMC3    C4 5287   1.173   2.242   0.772  0.4328 -0.6287 -0.0811
  353TMC3    C5 5288   1.231   2.117   0.787  0.0318  1.0901  0.0534
  353TMC3    C6 5289   1.265   2.062   0.910 -0.4260  0.3364  0.2743
  353TMC3     C 5290   1.172   2.448   0.868 -0.1192  0.0754 -0.4549
  353TMC3     O 5291   1.100   2.533   0.923  0.4955  0.1435  0.6694
  353TMC3     H 5292   1.177   2.314   1.109  1.8639 -0.5036  0.1203
  353TMC3    H1 5293   1.130   2.276   0.679 -1.4315 -1.5469  0.4556
  353TMC3    H2 5294   1.322   1.970   0.921 -0.8054  0.0849  0.1813
  353TMC3    C7 5295   1.258   2.048   0.666  0.1373  0.2279  0.1980
  353TMC3    C8 5296   1.331   2.103   1.136  0.1751  0.0778  0.1013
  353TMC3    O1 5297   1.247   2.107   0.563  0.0767  0.2242 -0.5379
  353TMC3    O2 5298   1.274   2.089   1.243 -0.4871  0.6166 -0.0807
  354TMC3    C1 5299   3.987   4.243  13.378  0.9997 -0.2455  0.2579
  354TMC3    C2 5300   3.919   4.355  13.341  0.1813 -0.1483 -0.7604
  354TMC3    C3 5301   3.929   4.396  13.206  0.4058 -0.2860 -0.0941
  354TMC3    C4 5302   4.056   4.161  13.290  0.4518 -0.1260 -0.3614
  354TMC3    C5 5303   4.057   4.206  13.163 -0.4253 -0.5608 -0.7274
  354TMC3    C6 5304   4.006   4.322  13.115 -0.6097 -0.8407 -1.0003
  354TMC3     C 5305   3.974   4.193  13.515  0.5891  0.1063 -0.4514
  354TMC3     O 5306   3.901   4.255  13.590 -0.1260  0.1047 -0.6860
  354TMC3     H 5307   3.854   4.405  13.412  0.8175 -0.0379 -0.2540
  354TMC3    H1 5308   4.108   4.072  13.323  0.4014 -0.2634 -0.6587
  354TMC3    H2 5309   3.992   4.349  13.011 -0.8974  1.0098 -0.4822
  354TMC3    C7 5310   4.139   4.133  13.067 -0.0310 -0.0476 -0.1697
  354TMC3    C8 5311   3.889   4.528  13.162 -0.6276 -0.6135 -0.0569
  354TMC3    O1 5312   4.180   4.023  13.104  0.2758 -0.4195 -0.3274
  354TMC3    O2 5313   3.912   4.554  13.043 -0.0073  0.3793  0.3995
  355MPD2     C 5314   4.160   0.179  11.405 -0.1410 -0.0563 -0.3349
  355MPD2    C1 5315   4.157   0.310  11.451 -0.5661 -1.2246  0.3813
  355MPD2    C2 5316   4.259   0.342  11.548 -0.0120  0.2779  0.5927
  355MPD2    C3 5317   4.347   0.248  11.589 -0.0734 -0.3802  0.4131
  355MPD2    C4 5318   4.354   0.131  11.523 -0.1936 -0.3615 -0.3857
  355MPD2    C5 5319   4.258   0.088  11.440  0.2112  0.2796  0.3517
  355MPD2     H 5320   4.262   0.448  11.573  1.5121  0.5853 -0.9259
  355MPD2    H1 5321   4.438   0.065  11.543  0.8710  0.9617 -0.4907
  355MPD2    H2 5322   4.075   0.155  11.342 -2.1625  1.8846  1.6800
  355MPD2    H3 5323   4.254   4.719  11.389  0.8592  1.3343 -1.6717
  355MPD2     N 5324   4.449   0.282  11.679 -0.5651  0.1947  0.3947
  355MPD2    H5 5325   4.520   0.212  11.698 -0.3898  0.2074 -0.2173
  355MPD2    N1 5326   4.072   0.408  11.393 -0.2409  0.1534  0.4885
  355MPD2    H7 5327   4.015   0.377  11.315  2.0911 -1.7643 -0.4616
  356TMC3    C1 5328   4.578   0.409  11.837 -0.4733 -0.4569 -0.1898
  356TMC3    C2 5329   4.673   0.438  11.746  0.7021  0.0536  0.1922
  356TMC3    C3 5330   0.022   0.551  11.765  0.5866  0.1260 -0.0388
  356TMC3    C4 5331   4.558   0.491  11.944 -0.1985 -0.0124  0.1684
  356TMC3    C5 5332   4.635   0.602  11.960 -0.6514 -0.0460  0.5411
  356TMC3    C6 5333   0.002   0.637  11.867 -0.4934  0.1895 -0.2635
  356TMC3     C 5334   4.453   0.390  11.765  0.1439 -0.0039  0.1047
  356TMC3     O 5335   4.356   0.462  11.795  0.1269  0.7883  0.3535
  356TMC3     H 5336   4.684   0.385  11.652  0.6088 -1.5731  1.0957
  356TMC3    H1 5337   4.474   0.468  12.008  1.5925 -3.8877  1.1050
  356TMC3    H2 5338   0.036   0.740  11.862 -1.5542  0.5097 -0.9986
  356TMC3    C7 5339   4.655   0.650  12.096  0.0936  0.0947 -0.3452
  356TMC3    C8 5340   0.106   0.589  11.652 -0.2595  0.4190  0.0660
  356TMC3    O1 5341   4.558   0.637  12.168  0.4167  0.4765 -0.2014
  356TMC3    O2 5342   0.089   0.534  11.540  0.2551  0.1263  0.5445
  357MPD2     C 5343   3.597   0.294   1.017  0.2929  0.4313  0.2861
  357MPD2    C1 5344   3.689   0.266   1.113  0.9173  0.0536  0.1030
  357MPD2    C2 5345   3.682   0.324   1.241  0.2578 -0.5101 -0.7361
  357MPD2    C3 5346   3.581   0.409   1.280 -0.3864  0.8834 -0.3076
  357MPD2    C4 5347   3.494   0.441   1.180 -0.3929 -0.2438 -0.0475
  357MPD2    C5 5348   3.501   0.383   1.057  0.0705  0.0654 -0.1562
  357MPD2     H 5349   3.748   0.293   1.321  0.3582  0.4228 -0.4556
  357MPD2    H1 5350   3.402   0.490   1.208  0.7978  1.7255  0.4083
  357MPD2    H2 5351   3.595   0.241   0.923 -3.6233  0.4549  0.3555
  357MPD2    H3 5352   3.424   0.414   0.987 -0.9771 -0.1611  0.8904
  357MPD2     N 5353   3.550   0.437   1.410  0.5659 -0.7624  0.3838
  357MPD2    H5 5354   3.455   0.473   1.420  1.1284  0.9146 -0.1969
  357MPD2    N1 5355   3.787   0.169   1.070  0.0779 -0.0341  0.2343
  357MPD2    H7 5356   3.769   0.136   0.976 -1.7183  0.1425  0.5020
  358TMC3    C1 5357   3.983   0.029   1.083 -0.1119 -0.1182 -0.2021
  358TMC3    C2 5358   3.935   4.668   0.983 -0.1098 -0.2410 -0.7859
  358TMC3    C3 5359   4.013   4.552   0.954 -0.8201  0.2273  0.7674
  358TMC3    C4 5360   4.109   0.009   1.137 -0.3896 -0.1797 -0.1762
  358TMC3    C5 5361   4.190   4.635   1.089  0.5082  0.1632 -0.1803
  358TMC3    C6 5362   4.138   4.533   1.015  0.0850  0.1695 -0.1748
  358TMC3     C 5363   3.897   0.133   1.146  0.8179 -0.7517 -0.6428
  358TMC3     O 5364   3.906   0.139   1.266  0.0503 -0.4060 -0.4266
  358TMC3     H 5365   3.831   4.677   0.953 -0.7261  0.4947  1.6277
  358TMC3    H1 5366   4.142   0.082   1.209 -1.5910  0.0816  0.1016
  358TMC3    H2 5367   4.206   4.458   0.977  0.7415  0.6905 -0.0282
  358TMC3    C7 5368   4.315   4.622   1.161 -0.5172 -0.1656 -0.1088
  358TMC3    C8 5369   3.951   4.465   0.865  0.5708 -0.2942 -0.5388
  358TMC3    O1 5370   4.398   4.552   1.103  0.0230  0.1692  0.3652
  358TMC3    O2 5371   3.859   4.519   0.807 -0.0213  0.7392 -0.2535
  359MPD2     C 5372   3.678   4.311  11.965  0.2474  0.0082  0.0654
  359MPD2    C1 5373   3.759   4.231  12.042  0.3582  0.5516 -0.1807
  359MPD2    C2 5374   3.714   4.177  12.163 -0.1446 -1.1452 -0.0292
  359MPD2    C3 5375   3.583   4.191  12.197 -0.3383 -0.1954 -0.4263
  359MPD2    C4 5376   3.497   4.247  12.108 -0.0898 -0.1506  0.3120
  359MPD2    C5 5377   3.546   4.310  11.999 -0.5768 -0.7123  0.1505
  359MPD2     H 5378   3.780   4.108  12.215  0.2376 -1.5051 -0.9979
  359MPD2    H1 5379   3.391   4.251  12.129 -0.2168 -0.2065 -0.3151
  359MPD2    H2 5380   3.700   4.366  11.874 -0.5000  1.8556  1.0075
  359MPD2    H3 5381   3.470   4.349  11.933 -0.6946 -0.4090  0.4592
  359MPD2     N 5382   3.529   4.120  12.306 -0.0793 -0.0290 -0.1902
  359MPD2    H5 5383   3.428   4.123  12.312 -0.0630 -2.1264  0.9859
  359MPD2    N1 5384   3.896   4.196  12.007 -0.0755 -0.3338  0.2577
  359MPD2    H7 5385   3.952   4.127  12.055  1.5129  0.4043 -0.5297
  360TMC3    C1 5386   4.103   4.216  11.907 -0.2311 -0.1540 -0.1305
  360TMC3    C2 5387   4.197   4.306  11.855  0.0231 -0.7433  0.3783
  360TMC3    C3 5388   4.321   4.257  11.820 -0.2641  0.0009  0.3634
  360TMC3    C4 5389   4.138   4.088  11.948  0.4410  0.3645 -0.4494
  360TMC3    C5 5390   4.261   4.044  11.911  0.1289  0.1162 -0.6770
  360TMC3    C6 5391   4.356   4.126  11.856  0.5297 -0.3802  0.7870
  360TMC3     C 5392   3.962   4.268  11.914  0.3107  0.1734  0.0458
  360TMC3     O 5393   3.938   4.371  11.850 -0.2584 -0.0237  0.1149
  360TMC3     H 5394   4.148   4.398  11.826  1.4270 -0.0290  0.3235
  360TMC3    H1 5395   4.062   4.013  11.964 -1.0123  1.5616 -1.7926
  360TMC3    H2 5396   4.452   4.078  11.843 -0.1366 -1.7182  0.7855
  360TMC3    C7 5397   4.257   3.924  11.831  0.0980 -0.0128 -0.3056
  360TMC3    C8 5398   4.403   4.341  11.733  0.2868  0.3414 -0.4251
  360TMC3    O1 5399   4.291   3.939  11.716 -0.3674  0.1441 -0.1072
  360TMC3    O2 5400   4.346   4.440  11.684  0.8058  0.4161 -0.6104
  361MPD2     C 5401   1.105   2.509  16.529  0.2340 -0.2139  0.7207
  361MPD2    C1 5402   1.065   2.535  16.654 -0.1310 -0.0288 -0.7575
  361MPD2    C2 5403   1.120   2.466  16.759  0.1125 -0.3457 -0.2522
  361MPD2    C3 5404   1.216   2.373  16.732 -0.4153 -0.3967  0.0137
  361MPD2    C4 5405   1.251   2.339  16.607 -0.4082  0.1708 -0.8295
  361MPD2    C5 5406   1.195   2.415  16.505 -0.0423 -0.1223  0.2652
  361MPD2     H 5407   1.097   2.493  16.862 -0.9733  1.6189 -1.0281
  361MPD2    H1 5408   1.312   2.253  16.580  0.6607  0.9381 -0.8348
  361MPD2    H2 5409   1.066   2.563  16.444  0.1754  1.5761  1.8861
  361MPD2    H3 5410   1.226   2.395  16.403 -1.3039  1.1114 -0.3544
  361MPD2     N 5411   1.274   2.292  16.837  0.8802  0.3617  0.8479
  361MPD2    H5 5412   1.338   2.222  16.801  1.2997  1.4454 -0.5552
  361MPD2    N1 5413   0.963   2.627  16.665  0.0970  0.8046 -0.1001
  361MPD2    H7 5414   0.935   2.678  16.581 -2.0688  0.8137  0.6195
  362TMC3    C1 5415   0.796   2.752  16.745  0.0998 -0.5081 -1.0727
  362TMC3    C2 5416   0.699   2.767  16.839 -0.2275 -0.2713 -0.3277
  362TMC3    C3 5417   0.578   2.825  16.810 -0.1710 -0.5218  0.6036
  362TMC3    C4 5418   0.786   2.815  16.617  0.3233  0.5563  0.7542
  362TMC3    C5 5419   0.667   2.876  16.597 -0.0367 -0.7304 -0.6945
  362TMC3    C6 5420   0.558   2.878  16.683 -0.5475 -0.2752  0.7482
  362TMC3     C 5421   0.901   2.661  16.780 -0.0605  0.0934  0.3334
  362TMC3     O 5422   0.902   2.605  16.890 -0.3844 -0.3893  0.2499
  362TMC3     H 5423   0.707   2.728  16.940  0.9954 -0.0349 -0.3324
  362TMC3    H1 5424   0.858   2.808  16.536 -2.2303 -0.3476 -1.4254
  362TMC3    H2 5425   0.458   2.913  16.661 -0.4756  0.0879  0.9990
  362TMC3    C7 5426   0.647   2.937  16.465 -0.2631 -0.1163  0.5859
  362TMC3    C8 5427   0.475   2.799  16.896  0.1572 -0.7177  0.4677
  362TMC3    O1 5428   0.748   2.980  16.409  0.0055  0.0608 -0.1130
  362TMC3    O2 5429   0.462   2.683  16.934 -0.2308  0.2717 -0.2529
  363TMC3    C1 5430   3.673   4.674   8.733 -0.1844 -0.0092 -0.1366
  363TMC3    C2 5431   3.750   4.683   8.841  0.0157  0.1837  0.2834
  363TMC3    C3 5432   3.713   0.045   8.939 -0.1302  0.6239 -0.1126
  363TMC3    C4 5433   3.558   0.022   8.712 -0.2023  0.5412  0.0608
  363TMC3    C5 5434   3.521   0.093   8.815  0.1808  0.1486  0.3131
  363TMC3    C6 5435   3.594   0.117   8.925 -0.0098  0.8746  0.2601
  363TMC3     C 5436   3.735   4.619   8.613  0.1192  0.2829  0.4056
  363TMC3     O 5437   3.856   4.612   8.602 -0.5450 -0.8267  0.0018
  363TMC3     H 5438   3.845   4.632   8.834 -0.2245 -0.3889  1.2139
  363TMC3    H1 5439   3.500   0.011   8.621  1.5705  1.3396 -1.1664
  363TMC3    H2 5440   3.553   0.176   9.006 -0.8754  0.5592  0.0600
  363TMC3    C7 5441   3.414   0.183   8.785 -0.1125 -0.4234  0.0871
  363TMC3    C8 5442   3.798   0.065   9.056  0.2738  0.1485  0.2954
  363TMC3    O1 5443   3.417   0.297   8.825  0.1369  0.6346 -0.4303
  363TMC3    O2 5444   3.777   0.157   9.133 -0.1864 -0.0407 -0.3711
  364MPD2     C 5445   2.920   4.362   9.946  0.4324 -0.8088 -0.6777
  364MPD2    C1 5446   2.950   4.482  10.006 -0.0454  0.5515  0.6795
  364MPD2    C2 5447   2.978   4.482  10.143  0.2027  0.9777  0.3500
  364MPD2    C3 5448   2.962   4.357  10.214 -0.5800  0.2541  0.1262
  364MPD2    C4 5449   2.928   4.242  10.146  0.0010  0.5143  0.1689
  364MPD2    C5 5450   2.906   4.240  10.016 -0.6325  0.4705  0.7771
  364MPD2     H 5451   3.007   4.568  10.203 -0.9005  0.9480  0.9112
  364MPD2    H1 5452   2.920   4.150  10.204  0.0306  1.6566  1.9627
  364MPD2    H2 5453   2.889   4.357   9.842 -1.3439 -3.2684 -0.0290
  364MPD2    H3 5454   2.877   4.148   9.968 -0.6984  1.2697 -0.7117
  364MPD2     N 5455   2.989   4.340  10.349  0.1517  0.2453  0.0720
  364MPD2    H5 5456   2.956   4.254  10.392 -1.5612  0.8666 -0.0126
  364MPD2    N1 5457   2.933   4.600   9.929 -0.0603  0.6456  0.0925
  364MPD2    H7 5458   2.912   4.585   9.831 -0.9873  0.7709  0.2695
  365TMC3    C1 5459   2.987   0.097   9.867  0.2947  0.5083  0.2464
  365TMC3    C2 5460   3.082   0.052   9.781 -0.0715 -0.1545  0.0536
  365TMC3    C3 5461   3.189   0.139   9.762 -0.0955  0.3656  0.5218
  365TMC3    C4 5462   2.986   0.221   9.912  0.1200 -0.3193  0.2015
  365TMC3    C5 5463   3.093   0.309   9.887  0.6570  0.5173  0.0113
  365TMC3    C6 5464   3.199   0.264   9.816 -0.0638 -0.0978  0.4219
  365TMC3     C 5465   2.954   0.004   9.977  0.2490  0.5272  0.4512
  365TMC3     O 5466   2.970   0.047  10.090  0.2066  0.2179 -0.2734
  365TMC3     H 5467   3.077   4.672   9.761 -1.8894 -0.3266  1.4688
  365TMC3    H1 5468   2.900   0.254   9.969 -0.8544  0.4474 -1.7148
  365TMC3    H2 5469   3.296   0.311   9.804  0.1298 -0.1416  1.7884
  365TMC3    C7 5470   3.123   0.405   9.997 -0.6436 -0.3157  0.2315
  365TMC3    C8 5471   3.315   0.073   9.734 -0.9431 -0.4376 -0.1853
  365TMC3    O1 5472   3.211   0.489   9.978  0.2998 -0.0374  0.2204
  365TMC3    O2 5473   3.414   0.121   9.683  0.0369  0.3181  0.5949
  366MPD2     C 5474   1.059   0.964  15.237  0.6986  0.3310  0.8349
  366MPD2    C1 5475   1.176   1.005  15.160  0.4679 -0.5675 -0.2963
  366MPD2    C2 5476   1.296   0.935  15.172 -0.4447 -0.4993 -0.5959
  366MPD2    C3 5477   1.315   0.845  15.278  0.0121 -0.4155 -0.3154
  366MPD2    C4 5478   1.207   0.815  15.358 -0.0958  0.0930  0.4404
  366MPD2    C5 5479   1.081   0.862  15.332 -0.1083  0.1310  0.3675
  366MPD2     H 5480   1.386   0.957  15.116  0.4082 -1.5862  0.3434
  366MPD2    H1 5481   1.205   0.749  15.444 -1.4428 -0.0566  0.2913
  366MPD2    H2 5482   0.967   1.023  15.231 -0.8277 -1.9788  1.4807
  366MPD2    H3 5483   0.997   0.823  15.389 -0.0377 -0.3241  0.1615
  366MPD2     N 5484   1.436   0.774  15.282 -0.8149 -0.5013  0.4114
  366MPD2    H5 5485   1.502   0.788  15.206 -1.7642 -0.4892 -0.4023
  366MPD2    N1 5486   1.169   1.115  15.071  0.5052  0.1887  0.4060
  366MPD2    H7 5487   1.258   1.138  15.028  0.3824 -0.1537 -0.0402
  367TMC3    C1 5488   1.136   1.327  14.998  0.0631  0.0043 -0.4061
  367TMC3    C2 5489   1.236   1.373  15.064 -0.0128  0.1182  0.0634
  367TMC3    C3 5490   1.258   1.505  15.078  0.8486  0.1154 -0.1897
  367TMC3    C4 5491   1.051   1.413  14.939 -0.4642 -0.5676 -1.3272
  367TMC3    C5 5492   1.069   1.552  14.943  0.1207  0.0647 -0.6714
  367TMC3    C6 5493   1.175   1.599  15.012 -0.0419 -0.6369 -0.6836
  367TMC3     C 5494   1.074   1.209  15.054  0.1187 -0.6458 -1.1023
  367TMC3     O 5495   0.959   1.213  15.089 -0.2369 -0.4888  0.6924
  367TMC3     H 5496   1.310   1.311  15.114  0.7236  0.9394  0.0057
  367TMC3    H1 5497   0.962   1.369  14.896 -1.2305  0.3910 -0.7435
  367TMC3    H2 5498   1.210   1.702  15.010  0.4617 -0.7560  2.3841
  367TMC3    C7 5499   0.975   1.646  14.885  0.1704 -0.0647 -0.5545
  367TMC3    C8 5500   1.351   1.552  15.178 -0.6687  0.3249 -0.2065
  367TMC3    O1 5501   0.965   1.757  14.936 -0.0127 -0.4171  0.2739
  367TMC3    O2 5502   1.396   1.462  15.247  0.6803  0.9403  0.2694
  368MPD2     C 5503   3.152   2.959  13.287 -0.1923 -0.6310  0.1303
  368MPD2    C1 5504   3.105   2.990  13.166 -0.4490  0.1139  0.2225
  368MPD2    C2 5505   3.186   3.012  13.057 -0.6870 -0.2032 -0.6675
  368MPD2    C3 5506   3.319   2.984  13.065  0.1754 -0.1979 -0.5394
  368MPD2    C4 5507   3.366   2.937  13.188  0.3093 -0.2054 -0.2779
  368MPD2    C5 5508   3.284   2.927  13.302 -0.0418 -0.1291  0.1239
  368MPD2     H 5509   3.140   3.040  12.963 -1.7314 -1.6603 -0.5986
  368MPD2    H1 5510   3.463   2.889  13.198  1.0701  1.4327  0.3550
  368MPD2    H2 5511   3.086   2.960  13.373 -0.1318  0.0903  0.1644
  368MPD2    H3 5512   3.329   2.899  13.397 -2.0094  1.4833  1.5289
  368MPD2     N 5513   3.408   3.009  12.951 -0.3518  1.1326  0.2725
  368MPD2    H5 5514   3.506   2.986  12.961 -0.5693 -0.0322 -0.3055
  368MPD2    N1 5515   2.973   3.012  13.139 -0.0755  0.4752  0.1455
  368MPD2    H7 5516   2.948   3.039  13.045 -1.2602 -1.9951 -0.2411
  369TMC3    C1 5517   2.744   3.023  13.154  0.5449 -0.4562 -0.5077
  369TMC3    C2 5518   2.769   3.087  13.034  0.6807  0.0750  0.2947
  369TMC3    C3 5519   2.659   3.081  12.949 -0.5551 -0.3202 -0.0190
  369TMC3    C4 5520   2.635   2.957  13.195  0.0759  0.5585 -0.4381
  369TMC3    C5 5521   2.537   2.948  13.101 -0.8522 -0.8305 -0.7644
  369TMC3    C6 5522   2.546   3.014  12.984 -0.5108  0.2880 -0.1193
  369TMC3     C 5523   2.870   2.992  13.226  0.0202 -0.2659 -0.3562
  369TMC3     O 5524   2.868   2.926  13.331  0.2291  0.0737  0.3701
  369TMC3     H 5525   2.835   3.172  13.023  0.2527  0.6628  2.2112
  369TMC3    H1 5526   2.629   2.906  13.291 -2.3432  1.5995 -0.0362
  369TMC3    H2 5527   2.471   3.000  12.907 -2.6504  1.8171  1.6884
  369TMC3    C7 5528   2.403   2.912  13.142 -0.1647  0.8042  0.0458
  369TMC3    C8 5529   2.672   3.149  12.819 -0.2376  0.5323  1.0548
  369TMC3    O1 5530   2.316   2.927  13.058  0.2410  0.0790  0.6801
  369TMC3    O2 5531   2.573   3.187  12.752 -0.7396  0.5489 -0.4020
  370TMC3    C1 5532   2.367   4.003  16.212 -0.7489 -0.2154 -0.6009
  370TMC3    C2 5533   2.267   3.914  16.257  0.1924 -0.4463  0.5313
  370TMC3    C3 5534   2.261   3.785  16.209 -0.3287  0.6033 -0.1601
  370TMC3    C4 5535   2.457   3.958  16.120 -0.2658 -0.3248 -0.5437
  370TMC3    C5 5536   2.448   3.825  16.081  0.1143 -0.1327  0.4997
  370TMC3    C6 5537   2.351   3.735  16.112 -0.6375  0.0000 -0.0767
  370TMC3     C 5538   2.405   4.112  16.297  0.4089 -0.5911 -0.3258
  370TMC3     O 5539   2.344   4.108  16.405  0.2704  0.5725 -0.9424
  370TMC3     H 5540   2.192   3.950  16.326 -1.7721  0.7800 -2.2684
  370TMC3    H1 5541   2.535   4.024  16.084 -0.5958 -0.0250 -0.7089
  370TMC3    H2 5542   2.350   3.632  16.077 -1.4385 -0.2964  0.8116
  370TMC3    C7 5543   2.529   3.786  15.964 -0.8551 -0.3932 -0.7226
  370TMC3    C8 5544   2.194   3.681  16.283 -0.1178  0.0444  0.3484
  370TMC3    O1 5545   2.554   3.876  15.883  0.4394 -0.5071  0.5400
  370TMC3    O2 5546   2.189   3.564  16.245 -0.0834  0.2935 -0.2288
  371TMC3    C1 5547   3.466   1.841  15.499  0.4827 -0.5221  0.2394
  371TMC3    C2 5548   3.350   1.895  15.537 -0.2066 -0.5467 -0.4184
  371TMC3    C3 5549   3.348   2.030  15.568 -0.7925 -0.1839  0.1904
  371TMC3    C4 5550   3.571   1.920  15.460  0.2995 -1.1173 -0.0489
  371TMC3    C5 5551   3.564   2.058  15.479 -0.2265  0.0140 -0.1007
  371TMC3    C6 5552   3.450   2.121  15.530  0.2696 -0.4877 -0.3163
  371TMC3     C 5553   3.470   1.703  15.451 -0.0550  0.3444  0.3778
  371TMC3     O 5554   3.525   1.691  15.344  0.2982 -0.3784  0.1273
  371TMC3     H 5555   3.261   1.835  15.552 -0.2437 -0.9460 -2.2841
  371TMC3    H1 5556   3.657   1.871  15.415  0.2733  0.2857 -1.6472
  371TMC3    H2 5557   3.445   2.226  15.555  0.0838 -0.4984 -0.3141
  371TMC3    C7 5558   3.684   2.150  15.461 -0.0166 -0.0838  0.6536
  371TMC3    C8 5559   3.219   2.079  15.603  0.3284 -0.2208  0.0310
  371TMC3    O1 5560   3.675   2.256  15.519 -0.2024 -0.3498  0.0468
  371TMC3    O2 5561   3.124   2.013  15.564  0.0047  0.1432  0.6311
  372MPD2     C 5562   2.679   3.244  13.386 -0.9994  0.4359  0.1519
  372MPD2    C1 5563   2.802   3.217  13.440  0.6185  0.9931  0.5341
  372MPD2    C2 5564   2.804   3.142  13.556 -0.7214 -0.1867  0.3862
  372MPD2    C3 5565   2.694   3.072  13.597 -0.3988 -0.0373 -0.3252
  372MPD2    C4 5566   2.567   3.091  13.540  0.2489 -0.5739  0.0747
  372MPD2    C5 5567   2.565   3.180  13.437  0.7692  0.0615 -0.3976
  372MPD2     H 5568   2.900   3.131  13.606 -0.3921  0.5495 -0.0815
  372MPD2    H1 5569   2.476   3.042  13.574  0.7549 -1.8679 -0.4372
  372MPD2    H2 5570   2.656   3.297  13.294 -0.0137  0.0861 -0.2888
  372MPD2    H3 5571   2.468   3.199  13.392  1.5428  0.3384 -1.9412
  372MPD2     N 5572   2.724   2.971  13.698  0.2907  0.2746  0.1407
  372MPD2    H5 5573   2.816   2.972  13.741 -1.2634 -0.2872  3.4344
  372MPD2    N1 5574   2.917   3.284  13.393  0.2236 -1.0080 -0.0039
  372MPD2    H7 5575   3.004   3.267  13.442  0.1100 -0.2753  0.4510
  373TMC3    C1 5576   2.684   2.786  13.851  0.3156  0.1374 -0.1126
  373TMC3    C2 5577   2.734   2.849  13.966 -0.3322 -0.6833 -0.2562
  373TMC3    C3 5578   2.831   2.781  14.029 -0.3606 -0.3448  0.6024
  373TMC3    C4 5579   2.731   2.663  13.809 -0.7895 -1.1159  0.5268
  373TMC3    C5 5580   2.828   2.598  13.872  0.7373  0.3057 -0.5759
  373TMC3    C6 5581   2.890   2.661  13.979  0.6857 -0.5403  0.7672
  373TMC3     C 5582   2.637   2.877  13.743 -0.8550  0.2052  0.0651
  373TMC3     O 5583   2.522   2.855  13.706  0.6677  0.2138 -0.1284
  373TMC3     H 5584   2.696   2.947  13.992 -0.6000 -1.7310  3.3083
  373TMC3    H1 5585   2.671   2.610  13.736 -1.3475  0.7061 -0.3296
  373TMC3    H2 5586   2.971   2.617  14.035  0.5205 -0.2366  1.2417
  373TMC3    C7 5587   2.888   2.492  13.791 -0.4907 -0.4730 -0.1148
  373TMC3    C8 5588   2.904   2.844  14.140 -0.7522  0.1378 -0.2979
  373TMC3    O1 5589   2.826   2.456  13.695 -0.0251 -0.1136 -0.4487
  373TMC3    O2 5590   3.015   2.796  14.172  0.1430 -0.2828  0.5504
  374TMC3    C1 5591   4.112   2.265  10.313 -0.3022 -0.2358 -0.1082
  374TMC3    C2 5592   4.042   2.347  10.231 -0.3803  0.4027 -0.4372
  374TMC3    C3 5593   3.929   2.406  10.285 -0.3278  0.0349  0.5401
  374TMC3    C4 5594   4.077   2.218  10.442  0.7138  0.5722  0.5894
  374TMC3    C5 5595   3.962   2.274  10.478  0.5467  0.0215  0.0486
  374TMC3    C6 5596   3.881   2.358  10.400 -0.0643  0.4772  0.0755
  374TMC3     C 5597   4.251   2.244  10.266  0.0401  0.0788  0.3154
  374TMC3     O 5598   4.277   2.267  10.150 -0.4180  0.1987  0.3896
  374TMC3     H 5599   4.072   2.378  10.132 -1.5458 -2.3575 -1.6684
  374TMC3    H1 5600   4.126   2.143  10.503  1.0663  1.5218  1.4716
  374TMC3    H2 5601   3.785   2.404  10.424 -1.2571 -2.2525  0.5422
  374TMC3    C7 5602   3.891   2.226  10.594 -0.2066  0.8356 -0.1962
  374TMC3    C8 5603   3.854   2.509  10.221  0.0324 -1.0714  0.2103
  374TMC3    O1 5604   3.772   2.213  10.588 -0.6982  0.2268  0.1790
  374TMC3    O2 5605   3.838   2.510  10.102  0.4582 -0.1476 -0.1348
  375MPD2     C 5606   3.747   4.506  17.098  0.1100  0.4837 -0.2783
  375MPD2    C1 5607   3.645   4.429  17.064  0.2573  0.3112 -0.0284
  375MPD2    C2 5608   3.667   4.309  16.994  0.3808  0.3768  0.5724
  375MPD2    C3 5609   3.794   4.260  16.969 -0.4461  0.1461 -0.0713
  375MPD2    C4 5610   3.899   4.345  17.000 -0.2197  0.3815  0.1868
  375MPD2    C5 5611   3.875   4.467  17.065 -0.2664  0.1237 -0.9341
  375MPD2     H 5612   3.580   4.261  16.950  0.0073  0.3703  1.3016
  375MPD2    H1 5613   4.004   4.328  16.983  0.0267 -0.2121  2.2498
  375MPD2    H2 5614   3.734   4.596  17.157 -2.0906  0.6000 -0.9377
  375MPD2    H3 5615   3.958   4.528  17.100 -0.7628 -1.2580  2.7005
  375MPD2     N 5616   3.822   4.131  16.914  0.3582  0.1581  0.3413
  375MPD2    H5 5617   3.917   4.096  16.911  1.0626  1.9632  1.1135
  375MPD2    N1 5618   3.513   4.465  17.099 -0.2012  0.4054  0.2984
  375MPD2    H7 5619   3.441   4.396  17.079  3.3319 -2.9785 -0.8753
  376TMC3    C1 5620   3.785   3.947  16.766 -0.7468 -0.5204 -0.0253
  376TMC3    C2 5621   3.902   3.893  16.813  0.3624 -0.3986  0.4616
  376TMC3    C3 5622   3.951   3.788  16.741  0.4561 -0.3939  0.3622
  376TMC3    C4 5623   3.726   3.915  16.645  0.4691 -0.2417 -0.4731
  376TMC3    C5 5624   3.797   3.827  16.565  0.4869  0.4522  0.3548
  376TMC3    C6 5625   3.896   3.750  16.624 -0.1235 -0.8342  0.2265
  376TMC3     C 5626   3.732   4.056  16.845  0.8508  0.1503 -0.4654
  376TMC3     O 5627   3.611   4.066  16.823  0.1825  0.6884  0.0254
  376TMC3     H 5628   3.959   3.921  16.900  0.8930 -0.8849  0.2713
  376TMC3    H1 5629   3.635   3.964  16.611  0.7322  0.8737  0.3985
  376TMC3    H2 5630   3.942   3.663  16.579 -1.7017 -1.2425 -0.5909
  376TMC3    C7 5631   3.771   3.827  16.427 -0.6729 -0.0852 -0.7267
  376TMC3    C8 5632   4.088   3.762  16.756  0.0777  0.8036 -0.0020
  376TMC3    O1 5633   3.683   3.898  16.379 -0.6757  0.0365 -0.1645
  376TMC3    O2 5634   4.170   3.855  16.757  0.5457 -0.3384 -0.1789
  377MPD2     C 5635   1.184   3.562  12.317  0.0956 -0.3071  0.8604
  377MPD2    C1 5636   1.287   3.522  12.389  0.2776 -0.0099  0.2293
  377MPD2    C2 5637   1.265   3.490  12.521  0.3783  0.6137 -0.6537
  377MPD2    C3 5638   1.139   3.507  12.577 -0.5880 -0.2248 -0.3397
  377MPD2    C4 5639   1.030   3.554  12.501 -0.2662 -0.5952  0.2739
  377MPD2    C5 5640   1.059   3.582  12.368  0.0243 -0.0872 -0.5516
  377MPD2     H 5641   1.352   3.460  12.577  0.0096  0.4990 -0.1408
  377MPD2    H1 5642   0.932   3.575  12.542  0.0110 -1.2326  1.2892
  377MPD2    H2 5643   1.193   3.597  12.214  3.4070 -0.8096  0.9936
  377MPD2    H3 5644   0.976   3.612  12.305 -0.9034 -0.1652  0.6438
  377MPD2     N 5645   1.107   3.466  12.708  0.2566  0.1958 -0.1828
  377MPD2    H5 5646   1.009   3.480  12.726 -0.0262 -0.4121 -1.2589
  377MPD2    N1 5647   1.413   3.523  12.325  0.4594  0.3314  0.4568
  377MPD2    H7 5648   1.416   3.566  12.233  0.2637  0.1756  0.3790
  378TMC3    C1 5649   1.756   3.612  12.120  0.2210  0.2005  0.4214
  378TMC3    C2 5650   1.632   3.587  12.176 -0.0031 -0.0501  0.7592
  378TMC3    C3 5651   1.641   3.531  12.308 -0.2235 -0.2484 -0.5236
  378TMC3    C4 5652   1.877   3.596  12.181 -0.1933  0.0740 -0.2552
  378TMC3    C5 5653   1.881   3.540  12.304  0.4512 -0.3290  0.2415
  378TMC3    C6 5654   1.766   3.517  12.371 -0.5360  0.4907  0.5653
  378TMC3     C 5655   1.762   3.661  11.983 -0.3257 -0.0797 -0.2751
  378TMC3     O 5656   1.655   3.707  11.940  0.2251  0.4572 -0.1359
  378TMC3     H 5657   1.540   3.598  12.121  0.8099  1.2548 -0.3527
  378TMC3    H1 5658   1.968   3.625  12.131  1.6402 -0.0875  2.9720
  378TMC3    H2 5659   1.763   3.462  12.464  1.6376  0.0098  0.3458
  378TMC3    C7 5660   2.007   3.502  12.368  0.2531 -0.6388  0.1336
  378TMC3    C8 5661   1.531   3.506  12.392  0.5493  0.1707  0.0045
  378TMC3    O1 5662   2.009   3.462  12.485  0.0103 -0.1362 -0.6756
  378TMC3    O2 5663   1.555   3.474  12.508 -0.2103 -0.9689 -0.3622
  379MPD2     C 5664   1.880   1.690  16.283 -0.2420  0.4084  0.3102
  379MPD2    C1 5665   1.988   1.660  16.205 -0.4885  0.2317 -0.3029
  379MPD2    C2 5666   2.100   1.609  16.277  0.3862  1.0519  0.2844
  379MPD2    C3 5667   2.101   1.576  16.409  0.1890 -0.2860 -0.2097
  379MPD2    C4 5668   1.987   1.611  16.476 -0.1686  0.2435 -0.2827
  379MPD2    C5 5669   1.885   1.672  16.415  0.4717 -0.5809  0.4885
  379MPD2     H 5670   2.189   1.589  16.218  0.1128  0.5352  0.0487
  379MPD2    H1 5671   1.976   1.587  16.581 -1.1817 -3.2024 -1.1727
  379MPD2    H2 5672   1.783   1.729  16.254 -0.2990 -0.3687 -0.5354
  379MPD2    H3 5673   1.804   1.712  16.475  1.7640  2.2311  0.3881
  379MPD2     N 5674   2.210   1.517  16.475 -0.4181 -0.0321  0.3706
  379MPD2    H5 5675   2.196   1.512  16.575  2.8421 -0.3211  0.8239
  379MPD2    N1 5676   1.978   1.671  16.062 -0.1082 -1.2931 -0.1896
  379MPD2    H7 5677   1.888   1.702  16.027  1.4517  1.1738 -2.0235
  380TMC3    C1 5678   2.036   1.640  15.837 -0.4620 -0.7593  0.0825
  380TMC3    C2 5679   2.102   1.551  15.754  0.5968  0.1635 -0.7468
  380TMC3    C3 5680   2.035   1.517  15.630 -0.1933  0.3672 -0.2353
  380TMC3    C4 5681   1.920   1.702  15.807 -0.7889 -0.1625  0.0446
  380TMC3    C5 5682   1.864   1.674  15.686 -0.4138 -0.2925 -0.5566
  380TMC3    C6 5683   1.915   1.580  15.600  0.0569  0.2506 -0.1081
  380TMC3     C 5684   2.083   1.641  15.978 -0.1280 -0.1397  0.2873
  380TMC3     O 5685   2.198   1.602  16.004  0.0826  0.1901 -0.9759
  380TMC3     H 5686   2.199   1.509  15.779 -0.0059 -1.5017 -1.1547
  380TMC3    H1 5687   1.882   1.780  15.872 -3.5793 -1.7462  0.3207
  380TMC3    H2 5688   1.864   1.562  15.506 -0.8581  0.7525  0.2946
  380TMC3    C7 5689   1.762   1.772  15.640  0.2282 -0.0092 -0.1498
  380TMC3    C8 5690   2.110   1.468  15.510 -0.1094  0.7459 -0.0089
  380TMC3    O1 5691   1.754   1.880  15.700 -0.1226  0.2001 -0.1180
  380TMC3    O2 5692   2.043   1.435  15.413  0.7611  0.2228  0.0149
  381TMC3    C1 5693   2.213   3.013  15.956  0.0297 -0.1339  0.0010
  381TMC3    C2 5694   2.312   3.105  15.984 -0.1358  0.1314 -0.0583
  381TMC3    C3 5695   2.276   3.192  16.082 -0.2100 -0.0303  0.6329
  381TMC3    C4 5696   2.091   3.016  16.013  0.4645 -0.4992 -0.0702
  381TMC3    C5 5697   2.064   3.108  16.106 -0.3667 -0.0401 -0.0547
  381TMC3    C6 5698   2.156   3.203  16.143 -0.2201  0.0288  0.0562
  381TMC3     C 5699   2.248   2.887  15.895 -0.1924 -0.1944 -0.1394
  381TMC3     O 5700   2.174   2.791  15.913  0.4387 -0.2026  0.0382
  381TMC3     H 5701   2.411   3.107  15.940 -0.3676 -1.5673 -0.6558
  381TMC3    H1 5702   2.017   2.940  15.988 -1.0350  0.8425  0.3142
  381TMC3    H2 5703   2.139   3.271  16.226  2.9606  0.4716  0.3313
  381TMC3    C7 5704   1.933   3.078  16.179  0.1297 -0.5255 -0.7713
  381TMC3    C8 5705   2.387   3.274  16.120  0.4145  0.1634 -0.2547
  381TMC3    O1 5706   1.861   2.982  16.135 -0.4266  0.3729 -0.1177
  381TMC3    O2 5707   2.470   3.305  16.035 -0.2017  1.1905 -0.0049
  382MPD2     C 5708   1.503   0.327  17.063  0.0088  0.0509  0.5336
  382MPD2    C1 5709   1.443   0.329  17.185 -0.0263  0.2917  0.2355
  382MPD2    C2 5710   1.410   0.209  17.247  0.5053  0.2756  0.4826
  382MPD2    C3 5711   1.433   0.092  17.192  0.4130 -0.2223 -0.2579
  382MPD2    C4 5712   1.489   0.092  17.064  0.8807  0.2800  0.6127
  382MPD2    C5 5713   1.521   0.209  16.996  0.4174  0.1991 -0.7413
  382MPD2     H 5714   1.372   0.218  17.348 -1.8580  0.8597 -0.4551
  382MPD2    H1 5715   1.507   0.005  17.002  0.5269 -0.2436  1.2367
  382MPD2    H2 5716   1.514   0.418  17.005  1.7410 -0.7086 -0.3166
  382MPD2    H3 5717   1.555   0.208  16.893  0.1119 -1.5168 -0.8402
  382MPD2     N 5718   1.400   4.693  17.251 -0.2517 -0.3195 -0.2800
  382MPD2    H5 5719   1.424   4.613  17.194 -0.5576  0.6110 -1.7046
  382MPD2    N1 5720   1.411   0.445  17.256 -0.0250  0.1846  0.5521
  382MPD2    H7 5721   1.364   0.432  17.345 -2.9041  0.8895 -0.8684
  383TMC3    C1 5722   1.277   4.538  17.376  0.2194  0.4308 -0.4426
  383TMC3    C2 5723   1.241   4.457  17.268  0.2076  0.2318  0.1331
  383TMC3    C3 5724   1.173   4.343  17.292 -0.9484  0.6575 -0.7427
  383TMC3    C4 5725   1.247   4.503  17.508  0.1114 -0.1069  0.1663
  383TMC3    C5 5726   1.183   4.385  17.521  0.8636 -0.8043 -0.5016
  383TMC3    C6 5727   1.149   4.297  17.421  0.0567 -0.4298  0.3455
  383TMC3     C 5728   1.319   4.676  17.356 -0.2141  0.0450 -0.1939
  383TMC3     O 5729   1.269   0.025  17.438 -0.2291 -0.5926 -0.0461
  383TMC3     H 5730   1.249   4.491  17.165 -1.5435  1.5111  0.4025
  383TMC3    H1 5731   1.293   4.557  17.590 -1.1360 -1.8998  2.0687
  383TMC3    H2 5732   1.087   4.210  17.433 -1.3029  0.4667 -0.1972
  383TMC3    C7 5733   1.146   4.348  17.653 -0.0732 -0.3258  0.1414
  383TMC3    C8 5734   1.097   4.296  17.188 -0.2153  0.1375  0.1496
  383TMC3    O1 5735   1.134   4.228  17.676 -0.4664  0.6349  0.3101
  383TMC3    O2 5736   1.046   4.379  17.114 -0.4056 -0.1691 -0.5099
  384MPD2     C 5737   3.164   1.224  11.878  0.2949  0.2003  0.2282
  384MPD2    C1 5738   3.125   1.141  11.980 -0.6675  0.7025 -0.9206
  384MPD2    C2 5739   3.064   1.024  11.953 -0.3152 -0.3145  0.9166
  384MPD2    C3 5740   3.070   0.980  11.824  0.2061  0.2640  0.4588
  384MPD2    C4 5741   3.113   1.062  11.720  0.5301  0.4320 -0.7391
  384MPD2    C5 5742   3.155   1.182  11.750 -0.0832  0.2704 -0.2255
  384MPD2     H 5743   3.026   0.966  12.037 -1.4754 -0.9815 -0.0760
  384MPD2    H1 5744   3.108   1.033  11.616  2.1862 -0.8017 -0.4784
  384MPD2    H2 5745   3.193   1.328  11.890 -1.9574  0.8677 -0.1309
  384MPD2    H3 5746   3.197   1.245  11.672  0.8664 -0.5335 -0.3603
  384MPD2     N 5747   3.040   0.845  11.803  0.1530  0.3616 -0.0469
  384MPD2    H5 5748   3.009   0.803  11.890  0.2285  1.3088  0.4353
  384MPD2    N1 5749   3.115   1.184  12.110 -0.3930 -0.5154 -0.3089
  384MPD2    H7 5750   3.072   1.109  12.164  0.3821  0.9999  2.4150
  385TMC3    C1 5751   2.994   0.639  11.714 -1.4145  0.4369 -0.1742
  385TMC3    C2 5752   2.880   0.603  11.639 -0.5613 -0.2587 -0.4375
  385TMC3    C3 5753   2.771   0.557  11.712  0.2017  0.9820  0.2259
  385TMC3    C4 5754   2.998   0.615  11.849  0.7420 -0.0355  0.1944
  385TMC3    C5 5755   2.889   0.567  11.912 -0.0314  0.0670 -0.2053
  385TMC3    C6 5756   2.774   0.554  11.849  0.7325 -0.1400  0.8251
  385TMC3     C 5757   3.040   0.776  11.683 -0.1435 -0.0840 -0.0091
  385TMC3     O 5758   3.028   0.819  11.570  0.5839 -0.4919  0.4437
  385TMC3     H 5759   2.875   0.634  11.536  1.5049  1.1834 -0.0925
  385TMC3    H1 5760   3.092   0.619  11.902  0.1018 -4.5717  1.7266
  385TMC3    H2 5761   2.694   0.504  11.903  1.2626 -0.5295  1.2560
  385TMC3    C7 5762   2.886   0.619  12.044  0.9635 -0.2377  0.3782
  385TMC3    C8 5763   2.647   0.503  11.650 -0.7813  0.3628 -0.0170
  385TMC3    O1 5764   2.968   0.707  12.064 -0.6451  0.1445  0.1344
  385TMC3    O2 5765   2.548   0.506  11.723  0.5055 -0.4967 -0.1686
  386TMC3    C1 5766   3.634   3.732  11.877  0.1645 -0.2670  0.1568
  386TMC3    C2 5767   3.595   3.694  11.746 -0.0974 -0.5968 -0.2999
  386TMC3    C3 5768   3.490   3.765  11.691  1.0694  0.2355  1.0005
  386TMC3    C4 5769   3.584   3.843  11.941  0.2849  0.3955 -0.2374
  386TMC3    C5 5770   3.485   3.921  11.876 -0.1650  0.7497  0.1202
  386TMC3    C6 5771   3.435   3.881  11.750 -0.3685  0.2628 -0.2077
  386TMC3     C 5772   3.713   3.642  11.961  0.2305 -0.2351 -0.0381
  386TMC3     O 5773   3.776   3.694  12.052 -0.6021  0.2848  0.8493
  386TMC3     H 5774   3.633   3.603  11.701  1.6876  0.9442 -1.8822
  386TMC3    H1 5775   3.616   3.871  12.041 -0.2435 -2.1729  0.6346
  386TMC3    H2 5776   3.360   3.932  11.690 -0.7139 -2.3722 -2.0028
  386TMC3    C7 5777   3.383   3.980  11.966 -1.4282  0.1587  0.3980
  386TMC3    C8 5778   3.405   3.711  11.585  0.2626  0.0380 -0.2103
  386TMC3    O1 5779   3.362   3.912  12.069 -0.2721  0.1806  0.0919
  386TMC3    O2 5780   3.298   3.760  11.565 -0.2108  0.1725  0.3358
  387MPD2     C 5781   0.197   3.453   9.757 -0.5113 -0.3419  0.7607
  387MPD2    C1 5782   0.277   3.460   9.872  0.4156  0.0136  0.0062
  387MPD2    C2 5783   0.308   3.337   9.934 -0.8047 -0.1527  0.5817
  387MPD2    C3 5784   0.251   3.222   9.887  0.5357  0.5359  0.5528
  387MPD2    C4 5785   0.174   3.214   9.773  0.1518  0.6977 -0.4864
  387MPD2    C5 5786   0.147   3.331   9.711 -0.4465  0.4112  1.0116
  387MPD2     H 5787   0.374   3.335  10.019  2.1162  2.6661 -1.6386
  387MPD2    H1 5788   0.149   3.118   9.729 -1.7773  1.9816 -2.1813
  387MPD2    H2 5789   0.173   3.538   9.693 -1.5621 -2.5525 -1.7628
  387MPD2    H3 5790   0.109   3.337   9.610  1.6576  2.4369  0.3423
  387MPD2     N 5791   0.316   3.106   9.947  0.9180  0.3141  0.4592
  387MPD2    H5 5792   0.382   3.136  10.017  0.3636 -2.4654  2.1720
  387MPD2    N1 5793   0.317   3.580   9.932  0.1409 -0.0886  0.1668
  387MPD2    H7 5794   0.348   3.567  10.027  1.2057 -2.6811 -0.5291
  388TMC3    C1 5795   0.397   3.798   9.936 -0.3033 -0.2841 -0.3149
  388TMC3    C2 5796   0.421   3.906   9.855  0.3930  0.0288  0.3814
  388TMC3    C3 5797   0.546   3.967   9.862 -0.1192  0.0940 -0.4978
  388TMC3    C4 5798   0.504   3.737  10.002  0.1546 -0.3308 -0.2707
  388TMC3    C5 5799   0.628   3.792   9.988  0.2789  0.3898 -0.5799
  388TMC3    C6 5800   0.651   3.906   9.924  0.1924  0.3322 -0.1488
  388TMC3     C 5801   0.307   3.706   9.876  0.5068  0.6308  0.1677
  388TMC3     O 5802   0.256   3.733   9.768 -0.2143  0.0447 -0.0110
  388TMC3     H 5803   0.334   3.951   9.807  0.3541  0.1885  0.6009
  388TMC3    H1 5804   0.493   3.657  10.074  0.3553  0.0540  0.1864
  388TMC3    H2 5805   0.753   3.940   9.908 -0.5815  3.3051  1.0637
  388TMC3    C7 5806   0.739   3.716  10.022 -0.0250 -0.1344  0.6197
  388TMC3    C8 5807   0.551   4.111   9.829 -0.4809 -0.6984  0.3000
  388TMC3    O1 5808   0.836   3.769  10.073 -0.0582 -0.0781  0.3480
  388TMC3    O2 5809   0.464   4.146   9.753 -0.2093  1.1023 -0.5466
  389MPD2     C 5810   0.654   1.934  10.953  0.2214 -0.2008  0.7266
  389MPD2    C1 5811   0.563   1.870  10.870 -0.8209 -0.3996  0.1805
  389MPD2    C2 5812   0.475   1.781  10.932 -0.3184  0.8530  0.0944
  389MPD2    C3 5813   0.483   1.758  11.069  0.3848  0.2610 -0.6543
  389MPD2    C4 5814   0.578   1.818  11.152  0.0050 -0.0076 -0.4029
  389MPD2    C5 5815   0.670   1.897  11.089  0.3455  1.1330  0.4010
  389MPD2     H 5816   0.398   1.728  10.875 -0.3408  0.4435  0.5016
  389MPD2    H1 5817   0.592   1.800  11.258 -1.8922 -2.8579 -0.6438
  389MPD2    H2 5818   0.725   2.007  10.916 -0.7741  1.7021  2.5185
  389MPD2    H3 5819   0.742   1.961  11.140  0.3821  2.0941 -0.8510
  389MPD2     N 5820   0.386   1.682  11.139  0.1428 -0.0634  0.3212
  389MPD2    H5 5821   0.399   1.666  11.238 -0.0258  0.7639  0.4784
  389MPD2    N1 5822   0.573   1.888  10.732 -0.0750  0.4189  0.4730
  389MPD2    H7 5823   0.636   1.961  10.702 -0.8249  1.8155  2.2634
  390TMC3    C1 5824   0.165   1.613  11.201 -0.6291 -0.4334  0.6653
  390TMC3    C2 5825   0.070   1.514  11.187 -0.2653 -0.1384 -0.4939
  390TMC3    C3 5826   4.698   1.502  11.286  0.3510 -0.0953 -0.0536
  390TMC3    C4 5827   0.170   1.690  11.313  0.2778  0.4493  0.0616
  390TMC3    C5 5828   0.069   1.682  11.407  0.3543  0.4383  0.1406
  390TMC3    C6 5829   4.696   1.583  11.395 -0.6850 -0.4056 -0.5420
  390TMC3     C 5830   0.266   1.628  11.087  0.2101  0.6623 -0.1671
  390TMC3     O 5831   0.231   1.607  10.973 -0.3419  0.2070  0.0995
  390TMC3     H 5832   0.073   1.455  11.097 -4.6273 -0.2980 -0.5313
  390TMC3    H1 5833   0.251   1.759  11.336  0.8064 -0.5023  1.0829
  390TMC3    H2 5834   4.622   1.571  11.473  0.2444  3.1940  0.9175
  390TMC3    C7 5835   0.076   1.779  11.514 -0.1155 -0.7227  0.2800
  390TMC3    C8 5836   4.582   1.436  11.251  0.4024  0.4606  0.2824
  390TMC3    O1 5837   0.127   1.888  11.480 -0.0745  0.2568  0.1780
  390TMC3    O2 5838   4.593   1.335  11.180  0.1451 -0.0307 -0.2078
  391MPD2     C 5839   3.922   3.274  11.474 -0.2435  0.3463  1.1040
  391MPD2    C1 5840   4.012   3.339  11.391  0.0832 -0.6043 -0.1618
  391MPD2    C2 5841   3.978   3.354  11.261  0.2459 -0.0897 -0.3696
  391MPD2    C3 5842   3.869   3.292  11.201 -0.0007  0.3578 -0.7061
  391MPD2    C4 5843   3.782   3.216  11.283  0.5220  0.1548  0.1397
  391MPD2    C5 5844   3.812   3.218  11.424  0.3705 -0.1560  0.1381
  391MPD2     H 5845   4.033   3.422  11.197 -0.6816  3.2737  2.3844
  391MPD2    H1 5846   3.698   3.162  11.241  2.4000 -0.9873 -2.1596
  391MPD2    H2 5847   3.949   3.258  11.578  1.8455  0.0554  0.5128
  391MPD2    H3 5848   3.748   3.172  11.499 -0.3646  1.3082  0.4083
  391MPD2     N 5849   3.857   3.303  11.063 -0.0362  0.2654  0.0500
  391MPD2    H5 5850   3.934   3.353  11.020 -0.2405 -0.6296 -1.3694
  391MPD2    N1 5851   4.131   3.395  11.452 -0.1127 -0.0435 -0.1027
  391MPD2    H7 5852   4.162   3.363  11.543 -0.6650  2.8482  1.1044
  392TMC3    C1 5853   3.767   3.284  10.849 -0.6351 -0.2516  0.0969
  392TMC3    C2 5854   3.731   3.184  10.764  0.8872 -0.1931 -0.2139
  392TMC3    C3 5855   3.747   3.206  10.628  0.3262 -0.4213 -0.2476
  392TMC3    C4 5856   3.826   3.402  10.799  0.4139  0.0730  0.3533
  392TMC3    C5 5857   3.842   3.413  10.662 -0.0769 -0.3248 -0.2605
  392TMC3    C6 5858   3.813   3.313  10.580 -0.2240  0.0547 -0.3386
  392TMC3     C 5859   3.751   3.265  10.990 -0.2124 -0.3198 -0.2730
  392TMC3     O 5860   3.666   3.181  11.020 -0.0116  0.2514 -0.1209
  392TMC3     H 5861   3.693   3.095  10.812 -1.0359  1.3384  1.1259
  392TMC3    H1 5862   3.858   3.483  10.864 -1.7907 -0.4509  2.1005
  392TMC3    H2 5863   3.846   3.318  10.477 -0.9175 -0.1272 -0.5672
  392TMC3    C7 5864   3.914   3.524  10.610  0.7004 -0.0665 -0.2762
  392TMC3    C8 5865   3.764   3.076  10.557 -0.0630 -0.5314 -0.4138
  392TMC3    O1 5866   3.969   3.598  10.689  0.4691 -0.0448  0.0279
  392TMC3    O2 5867   3.762   2.976  10.630  0.3636 -0.1180 -0.8300
  393TMC3    C1 5868   3.454   1.522  10.583  0.5429 -0.1269 -0.5679
  393TMC3    C2 5869   3.319   1.526  10.603 -0.0741 -0.7972  0.5845
  393TMC3    C3 5870   3.255   1.409  10.581  0.0459 -0.2622  0.7322
  393TMC3    C4 5871   3.526   1.416  10.554 -0.3677  1.1064  0.4142
  393TMC3    C5 5872   3.456   1.301  10.539 -0.2811  0.7869  0.0389
  393TMC3    C6 5873   3.319   1.294  10.545 -0.4202 -0.1919 -0.6765
  393TMC3     C 5874   3.490   1.622  10.481  0.2355  0.4101 -0.2150
  393TMC3     O 5875   3.406   1.707  10.465  0.4109  0.5301  0.1963
  393TMC3     H 5876   3.275   1.622  10.627 -0.8568 -1.4880  1.9700
  393TMC3    H1 5877   3.634   1.412  10.564 -0.1505  1.1833 -1.9618
  393TMC3    H2 5878   3.259   1.212  10.505 -0.4130 -0.9699  0.9255
  393TMC3    C7 5879   3.532   1.191  10.478  0.1910  0.0990 -1.4379
  393TMC3    C8 5880   3.108   1.414  10.583  0.4981 -0.3631 -0.6273
  393TMC3    O1 5881   3.646   1.216  10.440  0.7057  0.5538 -0.2548
  393TMC3    O2 5882   3.064   1.528  10.605  0.3291 -0.2807 -0.2206
  394TMC3    C1 5883   0.521   1.882  10.507 -0.1504 -0.7095  0.6091
  394TMC3    C2 5884   0.417   1.890  10.425 -0.2083  0.7423 -0.3260
  394TMC3    C3 5885   0.453   1.871  10.289  0.5297 -0.1889 -0.2918
  394TMC3    C4 5886   0.649   1.854  10.467  0.2056 -0.4683 -0.5725
  394TMC3    C5 5887   0.684   1.837  10.334 -0.5787  0.1339  0.0456
  394TMC3    C6 5888   0.583   1.848  10.245 -0.2615  0.2385 -0.4326
  394TMC3     C 5889   0.483   1.842  10.645 -0.2884  0.7394  0.3556
  394TMC3     O 5890   0.385   1.770  10.653  0.3011 -0.1354  0.5290
  394TMC3     H 5891   0.312   1.894  10.451 -0.2605 -0.6240 -0.3178
  394TMC3    H1 5892   0.722   1.853  10.548  1.4059  0.7532 -1.6536
  394TMC3    H2 5893   0.587   1.848  10.136  3.1559 -1.8047 -0.3280
  394TMC3    C7 5894   0.815   1.892  10.288 -0.0594  0.2752  0.7025
  394TMC3    C8 5895   0.346   1.854  10.197  0.5771  0.4109  0.5926
  394TMC3    O1 5896   0.822   1.930  10.172  0.8746 -0.2847  0.0968
  394TMC3    O2 5897   0.245   1.917  10.221 -0.1624  0.1557  0.4831
  395TMC3    C1 5898   4.571   3.484  15.015 -0.2329  0.2009  0.0224
  395TMC3    C2 5899   4.570   3.399  14.904 -0.3309  0.2782 -0.0637
  395TMC3    C3 5900   4.650   3.440  14.798  0.5552 -0.8483 -0.7458
  395TMC3    C4 5901   4.664   3.587  15.025 -0.0542 -0.0269  0.0671
  395TMC3    C5 5902   0.022   3.605  14.921  0.5848 -0.2966  0.0467
  395TMC3    C6 5903   0.022   3.538  14.803  0.2963 -0.2905  0.6989
  395TMC3     C 5904   4.486   3.456  15.133 -0.3760  0.1435  0.1746
  395TMC3     O 5905   4.446   3.552  15.195  0.1571  0.5153 -0.0124
  395TMC3     H 5906   4.488   3.330  14.889  1.8503 -2.7763  2.0210
  395TMC3    H1 5907   4.663   3.649  15.114  0.8775  0.7401 -0.4584
  395TMC3    H2 5908   0.086   3.559  14.718 -1.4634 -0.5025 -0.6771
  395TMC3    C7 5909   0.115   3.719  14.950  0.0045 -0.0317 -0.0421
  395TMC3    C8 5910   4.599   3.419  14.664  0.5197  0.1411 -0.3520
  395TMC3    O1 5911   0.071   3.812  15.019 -0.1532 -0.2403 -0.1659
  395TMC3    O2 5912   4.608   3.506  14.582  0.2977 -0.1941  0.2888
  396MPD2     C 5913   4.587   4.549  16.954 -0.3048 -0.0686  0.3722
  396MPD2    C1 5914   4.683   4.624  17.022 -0.5021  0.0716 -1.1579
  396MPD2    C2 5915   0.010   0.008  16.958  0.1241 -0.5633 -0.4266
  396MPD2    C3 5916   4.704   0.030  16.823  0.1078  0.1402 -0.1380
  396MPD2    C4 5917   4.603   4.683  16.763 -0.5674  0.4446  0.2291
  396MPD2    C5 5918   4.538   4.579  16.826  0.3038  0.1335 -0.6640
  396MPD2     H 5919   0.085   0.064  17.013  0.6670 -1.1687 -0.5446
  396MPD2    H1 5920   4.569   4.690  16.660 -0.9595 -0.5871  0.2943
  396MPD2    H2 5921   4.541   4.467  17.009 -0.3417  1.0535  2.0021
  396MPD2    H3 5922   4.458   4.522  16.782  0.1724 -1.3632  1.4882
  396MPD2     N 5923   0.037   0.137  16.745  0.3172  0.0187 -0.4360
  396MPD2    H5 5924   0.111   0.190  16.790  0.1368 -1.0182  1.1061
  396MPD2    N1 5925   4.714   4.592  17.158  0.7277  0.1743 -0.6933
  396MPD2    H7 5926   4.670   4.509  17.195 -1.4971  1.3576 -0.6394
  397TMC3    C1 5927   0.125   4.575  17.346  0.1364  0.4814 -0.1864
  397TMC3    C2 5928   0.239   4.522  17.285  0.2275 -0.0010  0.1481
  397TMC3    C3 5929   0.242   4.386  17.248 -0.8234  0.1860  0.3309
  397TMC3    C4 5930   0.027   4.493  17.383 -0.1163 -0.0419  0.0297
  397TMC3    C5 5931   0.050   4.353  17.378 -0.4003 -0.6249  0.2619
  397TMC3    C6 5932   0.152   4.299  17.297 -0.2480 -0.3526 -0.8073
  397TMC3     C 5933   0.080   4.659  17.240  0.2676  0.0931 -0.2599
  397TMC3     O 5934   0.148   0.029  17.215  0.1653  0.3113 -0.7061
  397TMC3     H 5935   0.303   4.599  17.244 -1.5486  0.8651 -0.9983
  397TMC3    H1 5936   4.658   4.525  17.425 -0.8727 -1.2452 -0.7703
  397TMC3    H2 5937   0.145   4.194  17.269  1.6846  0.0860 -2.9338
  397TMC3    C7 5938   4.673   4.264  17.417 -0.5287 -0.2595 -0.4549
  397TMC3    C8 5939   0.268   4.370  17.105 -0.8648  0.4114 -0.4625
  397TMC3    O1 5940   4.656   4.161  17.356  0.0396  0.2164  0.1602
  397TMC3    O2 5941   0.184   4.298  17.053 -0.4017  0.1095  0.2019
  398MPD2     C 5942   2.139   1.087   0.081 -0.2268  0.5065  0.1706
  398MPD2    C1 5943   2.181   1.000   0.187  0.0474  0.2456 -0.7630
  398MPD2    C2 5944   2.280   1.038   0.271 -0.1596  0.5418  0.5296
  398MPD2    C3 5945   2.325   1.163   0.273 -0.5441  0.1402  0.0538
  398MPD2    C4 5946   2.280   1.251   0.183 -0.5034  0.4860  0.5881
  398MPD2    C5 5947   2.193   1.209   0.081 -0.3602  0.2067  0.0159
  398MPD2     H 5948   2.324   0.975   0.347 -0.6134 -0.5628 -0.1230
  398MPD2    H1 5949   2.316   1.353   0.184 -1.9613  0.9939  1.8538
  398MPD2    H2 5950   2.052   1.073   0.018 -1.8270  0.4957  2.3967
  398MPD2    H3 5951   2.154   1.285   0.014  0.2237  1.1852  0.7702
  398MPD2     N 5952   2.426   1.190   0.372 -0.3410  0.5449 -0.8150
  398MPD2    H5 5953   2.446   1.115   0.438 -0.0008  2.3337  1.1155
  398MPD2    N1 5954   2.125   0.874   0.211  0.1162  0.0391 -0.1585
  398MPD2    H7 5955   2.180   0.818   0.276 -0.0299  2.2564  1.8413
  399TMC3    C1 5956   2.003   0.683   0.199  0.1322  1.0681 -0.7317
  399TMC3    C2 5957   2.040   0.661   0.330  0.5181  0.0040  0.4957
  399TMC3    C3 5958   2.053   0.526   0.366  0.3342  0.2541  0.6936
  399TMC3    C4 5959   1.975   0.589   0.109 -0.3823 -0.2683  0.4707
  399TMC3    C5 5960   1.980   0.457   0.153  1.1020 -0.1256  0.1542
  399TMC3    C6 5961   2.026   0.426   0.279 -0.1521  0.5899 -0.7204
  399TMC3     C 5962   2.021   0.815   0.147 -0.3854  0.4737 -0.6270
  399TMC3     O 5963   1.969   0.845   0.038 -0.7146  0.4228  0.1465
  399TMC3     H 5964   2.051   0.743   0.400 -2.8259  0.9755 -0.1598
  399TMC3    H1 5965   1.963   0.611   0.004 -0.5016  0.2913  0.6057
  399TMC3    H2 5966   2.040   0.325   0.314  2.8948  1.4400  0.4571
  399TMC3    C7 5967   1.896   0.354   0.086 -0.0907 -0.0739  0.4867
  399TMC3    C8 5968   2.123   0.505   0.488  0.1591 -0.9731 -0.7985
  399TMC3    O1 5969   1.862   0.259   0.151 -0.3513  0.0581  0.4182
  399TMC3    O2 5970   2.123   0.601   0.563 -0.4954  0.0312 -0.2667
  400TMC3    C1 5971   1.292   4.098  16.629 -0.5684 -0.5219 -0.4237
  400TMC3    C2 5972   1.168   4.078  16.579  0.5078  0.0438  0.1445
  400TMC3    C3 5973   1.072   4.165  16.626 -0.0669 -0.9352  0.1565
  400TMC3    C4 5974   1.322   4.181  16.731 -0.4449 -0.5202  0.1875
  400TMC3    C5 5975   1.225   4.270  16.775  0.3205 -0.4398 -0.0952
  400TMC3    C6 5976   1.098   4.256  16.724  0.1099 -0.1553  0.4564
  400TMC3     C 5977   1.372   3.976  16.607 -0.0650  0.2995  0.3345
  400TMC3     O 5978   1.378   3.939  16.490  0.1765  0.1778 -0.3259
  400TMC3     H 5979   1.161   4.009  16.496  1.4778 -0.4766  0.5016
  400TMC3    H1 5980   1.423   4.175  16.770 -0.4590 -0.1027  0.2892
  400TMC3    H2 5981   1.023   4.334  16.724 -0.3255 -0.5870 -0.8321
  400TMC3    C7 5982   1.270   4.405  16.793  0.0651 -0.6940  0.1397
  400TMC3    C8 5983   0.944   4.164  16.555  0.1441  0.1797 -0.1677
  400TMC3    O1 5984   1.375   4.436  16.733 -0.1341  0.1977 -0.2434
  400TMC3    O2 5985   0.884   4.268  16.538  0.2505 -0.6635  0.0643
  401MPD2     C 5986   4.377   3.019   1.079  0.8091 -0.0614 -0.9427
  401MPD2    C1 5987   4.473   2.929   1.117  0.7651 -0.0952  0.4184
  401MPD2    C2 5988   4.475   2.803   1.061  0.1824 -0.1338 -0.2425
  401MPD2    C3 5989   4.381   2.767   0.966 -0.6007 -0.0943 -0.2271
  401MPD2    C4 5990   4.292   2.855   0.922 -0.0262 -0.1905 -0.0226
  401MPD2    C5 5991   4.290   2.981   0.976 -0.1228 -0.6826  0.2988
  401MPD2     H 5992   4.554   2.738   1.098  0.6515  0.1371 -0.7670
  401MPD2    H1 5993   4.222   2.830   0.843 -0.4320 -0.7845  0.5218
  401MPD2    H2 5994   4.368   3.118   1.121  1.8333  0.2449 -1.4616
  401MPD2    H3 5995   4.210   3.048   0.946  0.9865  0.6481  0.3209
  401MPD2     N 5996   4.390   2.629   0.918  0.4499  0.7985 -0.2168
  401MPD2    H5 5997   4.453   2.561   0.960 -1.2979  0.0051  1.1059
  401MPD2    N1 5998   4.574   2.960   1.211 -0.2676 -0.1432 -0.2295
  401MPD2    H7 5999   4.649   2.893   1.228 -0.0305  0.2247  0.1702
  402TMC3    C1 6000   4.320   2.435   0.812 -0.7856 -0.0496 -0.5086
  402TMC3    C2 6001   4.339   2.361   0.930 -0.4551 -0.2701  0.3085
  402TMC3    C3 6002   4.319   2.228   0.924  0.1196 -0.0192  0.3889
  402TMC3    C4 6003   4.279   2.371   0.693  0.1282 -0.0404  0.1723
  402TMC3    C5 6004   4.278   2.234   0.692 -0.2996 -0.2675  0.2204
  402TMC3    C6 6005   4.295   2.164   0.805 -0.2308  0.6653  0.2202
  402TMC3     C 6006   4.323   2.589   0.808  0.9158  0.6239  0.1184
  402TMC3     O 6007   4.265   2.655   0.720  0.0022  0.0858 -0.1596
  402TMC3     H 6008   4.352   2.410   1.025  0.3764 -1.4003  0.7773
  402TMC3    H1 6009   4.251   2.431   0.607  0.6754 -1.8372 -1.2740
  402TMC3    H2 6010   4.284   2.057   0.805 -2.3736  0.8814  1.5665
  402TMC3    C7 6011   4.232   2.162   0.572  0.1026 -0.1518  0.2578
  402TMC3    C8 6012   4.334   2.148   1.037  0.9466  0.2113  0.1817
  402TMC3    O1 6013   4.190   2.054   0.605  0.5490 -0.3953  0.2073
  402TMC3    O2 6014   4.374   2.032   1.022  0.7468  0.4383  0.3355
  403MPD2     C 6015   2.507   1.493  13.389 -0.8050 -0.1200 -0.2628
  403MPD2    C1 6016   2.534   1.362  13.419  0.6521 -0.3447 -0.1772
  403MPD2    C2 6017   2.616   1.333  13.527  0.3807  1.0320 -0.3487
  403MPD2    C3 6018   2.680   1.432  13.595 -0.0599 -0.8911 -0.1292
  403MPD2    C4 6019   2.647   1.565  13.566  0.0627  0.0950  0.1042
  403MPD2    C5 6020   2.565   1.591  13.463  0.3887  0.6882  0.0681
  403MPD2     H 6021   2.637   1.231  13.557  1.4736  1.1858 -0.5945
  403MPD2    H1 6022   2.673   1.652  13.624  0.1436 -0.0644  0.3075
  403MPD2    H2 6023   2.438   1.522  13.310  1.3006  1.8245 -1.4043
  403MPD2    H3 6024   2.546   1.695  13.438 -0.3513  1.0389  2.0079
  403MPD2     N 6025   2.769   1.393  13.702 -0.0349 -0.2961  0.6094
  403MPD2    H5 6026   2.780   1.293  13.714  1.9965 -0.1306  0.1121
  403MPD2    N1 6027   2.469   1.253  13.349  0.1332 -0.8564 -0.9294
  403MPD2    H7 6028   2.411   1.273  13.268 -0.2916  2.8063  0.3140
  404TMC3    C1 6029   2.377   1.047  13.306 -0.1842  0.6945 -0.1507
  404TMC3    C2 6030   2.332   0.930  13.354  0.1194 -0.5477  0.0764
  404TMC3    C3 6031   2.272   0.846  13.262 -0.2420  0.0251 -0.2050
  404TMC3    C4 6032   2.382   1.078  13.168 -0.3396  0.3788  0.0279
  404TMC3    C5 6033   2.318   0.991  13.086 -0.3557  0.3102  0.0126
  404TMC3    C6 6034   2.262   0.878  13.131 -0.0516  0.0783 -0.2297
  404TMC3     C 6035   2.456   1.126  13.394 -0.3343  0.0215 -0.3039
  404TMC3     O 6036   2.489   1.069  13.499 -0.1582  0.0384 -0.3627
  404TMC3     H 6037   2.332   0.906  13.460  1.4563 -1.2816 -0.0975
  404TMC3    H1 6038   2.430   1.165  13.127 -1.9311  2.1442  1.9103
  404TMC3    H2 6039   2.221   0.800  13.068 -0.5851  0.9441 -0.9492
  404TMC3    C7 6040   2.298   1.013  12.946 -0.7877 -0.2886 -0.1770
  404TMC3    C8 6041   2.287   0.703  13.293 -0.3960  0.2515  0.0941
  404TMC3    O1 6042   2.349   1.117  12.907  0.0991 -0.1002  0.5433
  404TMC3    O2 6043   2.321   0.627  13.201 -0.2463  0.4385  0.6038
  405MPD2     C 6044   2.842   1.624  15.080  0.4104 -0.6672  0.2897
  405MPD2    C1 6045   2.828   1.560  14.963  0.1779 -0.5923 -0.1802
  405MPD2    C2 6046   2.841   1.630  14.845 -0.3459 -0.3482  0.0842
  405MPD2    C3 6047   2.847   1.764  14.846  0.7679 -0.2718 -0.1897
  405MPD2    C4 6048   2.871   1.834  14.963 -0.0726 -0.0625  0.1782
  405MPD2    C5 6049   2.863   1.762  15.078  0.5641  0.1125  0.1792
  405MPD2     H 6050   2.813   1.587  14.749  2.6254 -1.6432 -0.1851
  405MPD2    H1 6051   2.880   1.942  14.960 -0.7461  0.0026  0.3635
  405MPD2    H2 6052   2.834   1.567  15.172  0.2030 -0.2351  0.5416
  405MPD2    H3 6053   2.891   1.810  15.172 -0.6813 -0.2647  0.7483
  405MPD2     N 6054   2.832   1.833  14.722 -0.4888 -0.3977 -0.3481
  405MPD2    H5 6055   2.791   1.771  14.653  0.0500 -2.3433  1.0776
  405MPD2    N1 6056   2.810   1.420  14.961  0.1706  0.1269  0.2968
  405MPD2    H7 6057   2.811   1.379  15.054 -0.2270 -1.0511 -0.2172
  406TMC3    C1 6058   2.651   2.094  14.428 -0.0139  0.7839 -0.1351
  406TMC3    C2 6059   2.654   2.007  14.324  0.0953 -0.3575  0.3414
  406TMC3    C3 6060   2.737   1.900  14.340  0.0322  0.1421 -0.6837
  406TMC3    C4 6061   2.734   2.098  14.531 -0.3590 -0.3605 -0.0341
  406TMC3    C5 6062   2.811   1.988  14.545 -0.2496  0.3356  0.2971
  406TMC3    C6 6063   2.821   1.890  14.448  0.4154 -0.0830 -0.1763
  406TMC3     C 6064   2.537   2.173  14.442  0.5285 -0.0711  0.1478
  406TMC3     O 6065   2.553   2.280  14.504  0.1100 -0.0158 -0.6691
  406TMC3     H 6066   2.573   2.005  14.251 -0.9262  0.4187  1.4653
  406TMC3    H1 6067   2.719   2.164  14.617 -1.1427 -0.9694  0.2980
  406TMC3    H2 6068   2.880   1.801  14.464 -0.1119 -0.1282  1.5020
  406TMC3    C7 6069   2.853   1.964  14.679 -0.6708  0.1223  0.1217
  406TMC3    C8 6070   2.703   1.779  14.262 -0.7840 -0.4078 -0.6929
  406TMC3    O1 6071   2.867   2.063  14.752 -0.1055  0.4146  0.2440
  406TMC3    O2 6072   2.636   1.796  14.158  0.1814 -0.3448  0.4823
  407MPD2     C 6073   4.477   2.880   9.751  0.3842  0.0705  0.0738
  407MPD2    C1 6074   4.611   2.899   9.780 -0.4712 -0.3626 -0.1624
  407MPD2    C2 6075   4.638   2.984   9.880  0.2595 -0.6017 -0.5999
  407MPD2    C3 6076   4.543   3.068   9.937  0.6064 -0.4689  0.4860
  407MPD2    C4 6077   4.415   3.069   9.886 -0.0154 -0.3848  0.6401
  407MPD2    C5 6078   4.385   2.965   9.804  0.2447 -0.0241  0.3708
  407MPD2     H 6079   0.013   3.005   9.910  0.4537 -1.9082 -0.3382
  407MPD2    H1 6080   4.339   3.139   9.918 -0.8435 -0.3629 -1.3729
  407MPD2    H2 6081   4.439   2.798   9.691  2.0732  1.0519 -2.3677
  407MPD2    H3 6082   4.282   2.967   9.768  1.5822  3.3821 -3.2532
  407MPD2     N 6083   4.580   3.179  10.015 -0.5896 -0.4228  0.3739
  407MPD2    H5 6084   4.502   3.242  10.033 -0.9264 -1.5004  2.6748
  407MPD2    N1 6085   4.714   2.836   9.709 -0.0137  0.6086  0.0187
  407MPD2    H7 6086   0.081   2.854   9.741  1.1202 -3.2468 -1.1720
  408TMC3    C1 6087   0.100   2.748   9.531 -0.3229  0.3499 -0.2090
  408TMC3    C2 6088   0.212   2.822   9.559 -0.6600  0.2922 -0.7552
  408TMC3    C3 6089   0.329   2.771   9.520  0.6385  0.4420  0.3002
  408TMC3    C4 6090   0.103   2.633   9.456 -0.5929  0.4861 -0.0538
  408TMC3    C5 6091   0.235   2.596   9.420  0.2762  0.1760  0.2530
  408TMC3    C6 6092   0.345   2.662   9.449 -0.0499  0.5710 -0.1351
  408TMC3     C 6093   4.692   2.775   9.590 -0.2606 -0.5395  0.0432
  408TMC3     O 6094   4.589   2.763   9.522 -0.0444  0.3612 -0.2254
  408TMC3     H 6095   0.204   2.917   9.611  0.9300 -0.0002  0.0148
  408TMC3    H1 6096   0.015   2.577   9.425  1.1199 -2.1197 -0.1762
  408TMC3    H2 6097   0.444   2.638   9.414 -0.2727 -0.0448 -0.3609
  408TMC3    C7 6098   0.257   2.462   9.371 -0.1103  0.5777 -0.2403
  408TMC3    C8 6099   0.445   2.856   9.527 -0.0682 -0.3188 -0.2871
  408TMC3    O1 6100   0.367   2.414   9.383  0.1893  0.2047  0.3875
  408TMC3    O2 6101   0.556   2.804   9.513 -0.0482  0.3056  0.2300
  409MPD2     C 6102   4.505   3.885  16.839 -0.3471 -0.7397  0.3994
  409MPD2    C1 6103   4.622   3.831  16.889  0.4784 -0.5908  0.0902
  409MPD2    C2 6104   0.023   3.883  16.848  0.1283 -0.2026 -0.7851
  409MPD2    C3 6105   0.029   4.001  16.780 -0.3545  0.2102  0.6835
  409MPD2    C4 6106   4.638   4.057  16.723  0.3500  0.4996  0.6200
  409MPD2    C5 6107   4.516   3.994  16.755  0.1514 -0.1424 -0.5419
  409MPD2     H 6108   0.112   3.834  16.885  1.7791  2.1496 -1.6492
  409MPD2    H1 6109   4.636   4.149  16.666  1.0929 -0.9369 -1.6879
  409MPD2    H2 6110   4.404   3.848  16.858 -0.2639 -2.1958 -2.0181
  409MPD2    H3 6111   4.427   4.044  16.717  0.6639  0.6817 -0.6528
  409MPD2     N 6112   0.148   4.063  16.749 -0.0443  0.4354  0.1607
  409MPD2    H5 6113   0.144   4.156  16.707  2.1934  0.7502  0.6903
  409MPD2    N1 6114   4.620   3.706  16.966 -0.0753  0.0996  0.3691
  409MPD2    H7 6115   4.707   3.656  16.979 -0.5486 -0.7072  0.4508
  410TMC3    C1 6116   0.373   4.105  16.732  0.4661  0.0195  0.0401
  410TMC3    C2 6117   0.493   4.120  16.797 -0.5684 -0.4137 -0.3502
  410TMC3    C3 6118   0.586   4.218  16.765 -0.5097  0.5061 -0.0711
  410TMC3    C4 6119   0.344   4.196  16.635  0.1312  0.4449 -0.4077
  410TMC3    C5 6120   0.435   4.300  16.609  0.5542 -0.1750 -0.6877
  410TMC3    C6 6121   0.551   4.321  16.679  0.6933 -0.2426  0.4119
  410TMC3     C 6122   0.273   4.019  16.786 -0.4090  0.0823 -1.0242
  410TMC3     O 6123   0.308   3.926  16.859  0.2726  0.1012 -0.0037
  410TMC3     H 6124   0.503   4.056  16.884  0.2412  0.5412  0.2661
  410TMC3    H1 6125   0.254   4.178  16.577  0.2231 -0.5647 -0.2505
  410TMC3    H2 6126   0.636   4.373  16.637  1.5678 -0.9760  1.2872
  410TMC3    C7 6127   0.435   4.355  16.477 -0.9891  0.1488 -0.1521
  410TMC3    C8 6128   0.722   4.203  16.819  0.3786 -0.5773  0.1464
  410TMC3    O1 6129   0.369   4.281  16.399 -0.3705 -0.0112 -0.6440
  410TMC3    O2 6130   0.780   4.308  16.840  0.0832 -0.0793  0.4803
  411MPD2     C 6131   0.001   4.462  14.575  0.4024 -0.5400  0.4441
  411MPD2    C1 6132   4.689   4.569  14.495  0.0148  0.7024 -0.5436
  411MPD2    C2 6133   4.610   4.548  14.380 -0.3244  0.1811 -0.0815
  411MPD2    C3 6134   4.569   4.419  14.352 -0.0243 -0.2393 -0.0262
  411MPD2    C4 6135   4.581   4.320  14.441 -0.9242 -0.0934 -0.0455
  411MPD2    C5 6136   4.667   4.340  14.544  0.7179 -0.2952 -0.1644
  411MPD2     H 6137   4.578   4.627  14.313  0.6791  1.8186  1.3720
  411MPD2    H1 6138   4.551   4.218  14.422 -1.4766 -0.0741  0.7209
  411MPD2    H2 6139   0.059   4.462  14.666 -2.4011 -1.2300  2.2222
  411MPD2    H3 6140   4.688   4.246  14.593 -2.4817  0.4692  2.6700
  411MPD2     N 6141   4.501   4.381  14.230  0.1862 -0.1618  0.9882
  411MPD2    H5 6142   4.481   4.283  14.213  0.3705 -0.2258  1.1458
  411MPD2    N1 6143   4.723   4.703  14.518  0.4004  0.5581 -0.1393
  411MPD2    H7 6144   4.687   0.044  14.451  0.0195 -0.3244 -0.8336
  412TMC3    C1 6145   4.400   4.405  14.016 -0.7312  0.6654  0.2102
  412TMC3    C2 6146   4.293   4.473  13.964 -0.2297 -0.4123  0.0337
  412TMC3    C3 6147   4.224   4.403  13.871 -0.4820 -0.5025 -0.2038
  412TMC3    C4 6148   4.430   4.275  13.984 -0.5463 -0.2111  0.1159
  412TMC3    C5 6149   4.343   4.200  13.911  0.2369 -0.1609  0.3761
  412TMC3    C6 6150   4.238   4.265  13.850  0.1475 -0.2457  0.0357
  412TMC3     C 6151   4.471   4.468  14.123  0.7208  0.2285  0.0861
  412TMC3     O 6152   4.478   4.592  14.115 -0.2796  0.1934 -0.5307
  412TMC3     H 6153   4.279   4.574  14.001  0.7850 -0.3960  0.3840
  412TMC3    H1 6154   4.520   4.229  14.023 -2.4090 -3.5559  0.4704
  412TMC3    H2 6155   4.169   4.202  13.796 -0.4000  0.1149  0.3147
  412TMC3    C7 6156   4.406   4.117  13.809 -0.2670  0.4939  0.0187
  412TMC3    C8 6157   4.191   4.470  13.749 -0.0790  0.3064  0.5158
  412TMC3    O1 6158   4.367   4.144  13.700  0.2899 -0.1058  0.4111
  412TMC3    O2 6159   4.118   4.566  13.746  0.5836 -0.1104  0.3144
  413MPD2     C 6160   1.889   3.110  15.677 -0.8045  0.4038  0.0387
  413MPD2    C1 6161   1.849   3.029  15.569 -0.1551  0.1318  0.3138
  413MPD2    C2 6162   1.940   2.957  15.494  0.1441  0.1857 -0.3428
  413MPD2    C3 6163   2.075   2.971  15.514 -0.3112  0.7266  0.3687
  413MPD2    C4 6164   2.113   3.060  15.609  0.1465 -0.5301 -0.0555
  413MPD2    C5 6165   2.025   3.118  15.692 -0.0963  0.4655  0.8142
  413MPD2     H 6166   1.905   2.884  15.422 -1.8183 -1.2643  2.0899
  413MPD2    H1 6167   2.219   3.075  15.624  0.2210 -3.1491  2.1012
  413MPD2    H2 6168   1.820   3.175  15.730 -1.8388 -1.6853  1.2449
  413MPD2    H3 6169   2.055   3.195  15.762 -2.7649  0.4919  1.9707
  413MPD2     N 6170   2.171   2.898  15.436 -0.6146 -0.0604 -0.3882
  413MPD2    H5 6171   2.141   2.824  15.373 -1.8743  1.2031 -1.2811
  413MPD2    N1 6172   1.711   3.023  15.545 -0.5129 -0.7581  0.2365
  413MPD2    H7 6173   1.660   3.072  15.617 -0.7792  1.1496 -1.2487
  414TMC3    C1 6174   2.383   2.819  15.344 -0.4438  0.4822  0.5182
  414TMC3    C2 6175   2.319   2.706  15.292  0.2174  0.7248 -0.1212
  414TMC3    C3 6176   2.361   2.646  15.177  0.2880  0.6499 -0.0499
  414TMC3    C4 6177   2.488   2.875  15.285 -1.3604  0.2687  0.4605
  414TMC3    C5 6178   2.533   2.814  15.166 -0.3986  0.1223  0.3549
  414TMC3    C6 6179   2.464   2.704  15.113  0.3054 -0.0179 -0.6183
  414TMC3     C 6180   2.308   2.898  15.445 -0.0049 -0.5930 -0.2187
  414TMC3     O 6181   2.383   2.976  15.500 -0.4629  0.1472  0.3312
  414TMC3     H 6182   2.249   2.643  15.346  1.1275  1.8538  2.3842
  414TMC3    H1 6183   2.540   2.955  15.338 -2.2445  2.0408 -1.3603
  414TMC3    H2 6184   2.487   2.661  15.016 -0.3142 -1.1402 -0.2704
  414TMC3    C7 6185   2.672   2.837  15.122 -0.4152 -0.2495  0.3585
  414TMC3    C8 6186   2.355   2.504  15.162 -0.1652  0.4895 -0.7036
  414TMC3    O1 6187   2.734   2.928  15.174  0.4470 -0.3630  0.4226
  414TMC3    O2 6188   2.256   2.441  15.149  1.0283  0.6929 -0.2549
  415TMC3    C1 6189   2.532   0.509   9.516 -0.7539 -0.4605 -0.0473
  415TMC3    C2 6190   2.642   0.503   9.435  0.0937  0.8254  0.3414
  415TMC3    C3 6191   2.630   0.484   9.302  0.5113 -1.1037 -0.5208
  415TMC3    C4 6192   2.414   0.467   9.468 -0.2246  0.2129  0.7069
  415TMC3    C5 6193   2.405   0.433   9.334 -0.4025  0.5989 -0.4947
  415TMC3    C6 6194   2.516   0.433   9.255  0.1105  0.3084  0.0191
  415TMC3     C 6195   2.541   0.509   9.658 -0.1236 -1.2306 -0.3779
  415TMC3     O 6196   2.445   0.466   9.727  0.1531 -0.3340 -0.4038
  415TMC3     H 6197   2.742   0.521   9.473  0.5118  1.8616 -1.2611
  415TMC3    H1 6198   2.325   0.489   9.527  1.2858 -0.0351  3.0870
  415TMC3    H2 6199   2.513   0.393   9.154 -0.9295 -0.6934  0.4378
  415TMC3    C7 6200   2.297   0.349   9.282 -0.0890 -0.0947  0.4681
  415TMC3    C8 6201   2.758   0.482   9.228  0.6974  0.1245 -0.2869
  415TMC3    O1 6202   2.289   0.340   9.163 -0.1367  0.1935  0.3243
  415TMC3    O2 6203   2.744   0.417   9.122 -0.0956  0.5196 -0.8111
  416MPD2     C 6204   4.290   4.381  11.352  0.4085 -0.1939  0.6155
  416MPD2    C1 6205   4.152   4.404  11.379 -0.7684 -0.6141  0.1483
  416MPD2    C2 6206   4.060   4.318  11.323  0.1979  0.3861 -0.0242
  416MPD2    C3 6207   4.094   4.209  11.248  0.2261 -1.0013  0.2486
  416MPD2    C4 6208   4.226   4.198  11.202  0.3597  0.7440  0.9532
  416MPD2    C5 6209   4.322   4.284  11.256 -0.5906  0.8969 -0.3166
  416MPD2     H 6210   3.955   4.331  11.346  0.2566  1.7593 -0.5325
  416MPD2    H1 6211   4.261   4.119  11.135  0.0410  1.9631 -0.6380
  416MPD2    H2 6212   4.366   4.427  11.414 -1.7086  0.6697  2.5831
  416MPD2    H3 6213   4.427   4.274  11.234 -0.7087 -1.3640  0.1132
  416MPD2     N 6214   3.990   4.117  11.230 -0.7000  0.0719 -0.2327
  416MPD2    H5 6215   3.895   4.147  11.249 -0.4110 -0.7761  2.5656
  416MPD2    N1 6216   4.121   4.506  11.478 -0.3972 -0.1558  0.5451
  416MPD2    H7 6217   4.197   4.557  11.522  0.6397 -0.3613 -0.9855
  417TMC3    C1 6218   3.994   4.646  11.599 -0.5973  0.0969  0.4738
  417TMC3    C2 6219   4.089   4.654  11.691  0.0103 -0.2494 -0.5299
  417TMC3    C3 6220   4.089   0.040  11.772 -0.2687  0.1006 -0.5442
  417TMC3    C4 6221   3.900   0.017  11.576 -0.0293 -0.0617 -0.2478
  417TMC3    C5 6222   3.913   0.132  11.652  0.0505  0.1013 -0.1383
  417TMC3    C6 6223   4.008   0.154  11.749  0.8685  0.4391 -0.3943
  417TMC3     C 6224   3.986   4.543  11.505  0.3197 -0.4561  0.2859
  417TMC3     O 6225   3.874   4.501  11.474 -0.2544  0.1327 -0.0831
  417TMC3     H 6226   4.161   4.574  11.705  0.0907  0.2559  2.1083
  417TMC3    H1 6227   3.824   0.004  11.500  1.1961  0.7983 -1.6042
  417TMC3    H2 6228   4.029   0.247  11.800 -1.3507  1.0802 -0.6572
  417TMC3    C7 6229   3.844   0.249  11.595 -0.2457 -0.8710  0.3565
  417TMC3    C8 6230   4.204   0.068  11.853  0.5707  0.3862 -0.5245
  417TMC3    O1 6231   3.791   0.230  11.488  0.7065  0.4563  0.1046
  417TMC3    O2 6232   4.304   0.007  11.828  1.1537 -0.0039  0.2477
  418TMC3    C1 6233   2.819   1.245   0.515 -0.0734 -0.4358  0.1346
  418TMC3    C2 6234   2.722   1.307   0.445 -0.6957 -0.0145  0.8967
  418TMC3    C3 6235   2.596   1.295   0.494  0.6264 -0.0016 -0.1946
  418TMC3    C4 6236   2.789   1.149   0.607  0.6125  0.2214 -0.1400
  418TMC3    C5 6237   2.661   1.132   0.653 -0.2654  0.3069  0.9354
  418TMC3    C6 6238   2.562   1.207   0.595 -0.0599 -1.1293  0.3830
  418TMC3     C 6239   2.936   1.212   0.428  1.1485  0.1833  0.4795
  418TMC3     O 6240   2.990   1.307   0.371 -0.6396  0.3750  0.3971
  418TMC3     H 6241   2.737   1.370   0.358  3.1676  0.4212  1.8720
  418TMC3    H1 6242   2.873   1.095   0.649 -0.7653 -1.8328  0.0056
  418TMC3    H2 6243   2.459   1.202   0.626 -0.1168  0.1075  0.3950
  418TMC3    C7 6244   2.630   1.029   0.756  0.2888  0.4201  0.1594
  418TMC3    C8 6245   2.497   1.305   0.386  0.1854 -0.1069  0.1324
  418TMC3    O1 6246   2.720   0.948   0.782  0.6321  0.4037  0.2981
  418TMC3    O2 6247   2.523   1.384   0.292 -0.1128 -0.2817  0.6516
  419MPD2     C 6248   0.824   4.095  12.265  0.4432 -0.0004  0.7457
  419MPD2    C1 6249   0.883   4.210  12.317  0.0380  0.2524  0.6912
  419MPD2    C2 6250   0.856   4.230  12.445 -0.1090 -0.5790 -0.3241
  419MPD2    C3 6251   0.775   4.151  12.525 -0.6469 -0.4736  0.0886
  419MPD2    C4 6252   0.740   4.020  12.475 -0.1341 -0.2766  0.1406
  419MPD2    C5 6253   0.764   4.003  12.340  0.5128 -0.2967  0.9852
  419MPD2     H 6254   0.904   4.317  12.488  1.4219 -0.8117 -1.5627
  419MPD2    H1 6255   0.692   3.948  12.540  0.0844  0.0342  0.6491
  419MPD2    H2 6256   0.832   4.080  12.158  4.0023  0.3840  0.9548
  419MPD2    H3 6257   0.732   3.913  12.288 -0.2767 -0.0482  1.0457
  419MPD2     N 6258   0.752   4.195  12.658 -0.7977  0.5004  0.5328
  419MPD2    H5 6259   0.782   4.291  12.673 -0.2497  0.7839 -2.5335
  419MPD2    N1 6260   0.954   4.313  12.249 -0.1313  0.7231 -0.2371
  419MPD2    H7 6261   0.984   4.394  12.302  0.8636  0.7991 -0.9221
  420TMC3    C1 6262   0.696   4.207  12.890 -0.0992 -0.1136  0.1008
  420TMC3    C2 6263   0.681   4.344  12.875 -0.1925  0.4455 -0.6717
  420TMC3    C3 6264   0.689   4.410  12.999  0.0746  0.0178  0.0102
  420TMC3    C4 6265   0.729   4.139  13.007 -0.1089 -0.5333 -0.2016
  420TMC3    C5 6266   0.718   4.212  13.119 -0.2341 -0.0174  0.4989
  420TMC3    C6 6267   0.695   4.350  13.119  0.3018  0.5470  0.0639
  420TMC3     C 6268   0.701   4.129  12.767 -0.4565  0.1894  0.3770
  420TMC3     O 6269   0.659   4.017  12.771 -0.1838 -0.2086  0.1250
  420TMC3     H 6270   0.654   4.392  12.782  0.2274  3.0540  0.5405
  420TMC3    H1 6271   0.743   4.031  13.009  1.9972 -0.2450  0.0190
  420TMC3    H2 6272   0.722   4.414  13.202  1.3495  0.6734 -0.3828
  420TMC3    C7 6273   0.750   4.154  13.247  0.0070  0.3744 -0.1816
  420TMC3    C8 6274   0.662   4.559  12.993 -0.1690 -0.4972 -0.3940
  420TMC3    O1 6275   0.849   4.081  13.257  0.6777  0.5313 -0.0852
  420TMC3    O2 6276   0.689   4.617  12.890 -0.6475  0.5509  0.3506
  421TMC3    C1 6277   2.892   1.387  13.889 -0.2203 -0.6605 -0.6033
  421TMC3    C2 6278   2.904   1.442  14.012 -0.1609  0.3461 -0.3969
  421TMC3    C3 6279   2.899   1.360  14.124  0.0824 -0.6823  0.1735
  421TMC3    C4 6280   2.895   1.253  13.867  0.1459 -0.0214  0.0270
  421TMC3    C5 6281   2.906   1.174  13.979  0.5836  0.1324 -0.2770
  421TMC3    C6 6282   2.897   1.227  14.105  0.2408  0.1417 -0.7618
  421TMC3     C 6283   2.836   1.473  13.790 -0.1552 -0.4848  0.2665
  421TMC3     O 6284   2.834   1.592  13.801 -0.2936 -0.2337 -0.1120
  421TMC3     H 6285   2.909   1.550  14.014  0.0680  0.2668  2.8143
  421TMC3    H1 6286   2.924   1.204  13.774 -2.3465 -1.7629  0.1965
  421TMC3    H2 6287   2.905   1.168  14.196 -1.2004  1.7829  0.4184
  421TMC3    C7 6288   2.963   1.041  13.964 -0.5597 -0.4848 -1.1550
  421TMC3    C8 6289   2.952   1.409  14.241 -0.0212 -0.1311 -0.5624
  421TMC3    O1 6290   3.055   1.024  13.884 -0.0590  0.1743  0.0835
  421TMC3    O2 6291   2.949   1.339  14.342  0.2795  0.0785 -0.3431
  422TMC3    C1 6292   0.398   2.702  12.812 -0.0611  0.2900  0.5546
  422TMC3    C2 6293   0.380   2.808  12.896  0.2578 -0.1622  0.2733
  422TMC3    C3 6294   0.287   2.800  12.995 -0.5144  0.2827  0.2596
  422TMC3    C4 6295   0.328   2.589  12.819 -0.7606  0.2823 -0.5720
  422TMC3    C5 6296   0.225   2.587  12.908 -0.4882 -0.2754 -0.0509
  422TMC3    C6 6297   0.210   2.686  13.008  0.0624 -0.5339 -0.6107
  422TMC3     C 6298   0.504   2.724  12.713  1.1006  0.3869  0.5082
  422TMC3     O 6299   0.599   2.800  12.724  0.6027 -0.3272  0.6114
  422TMC3     H 6300   0.446   2.894  12.893  0.7877 -0.5780 -0.0094
  422TMC3    H1 6301   0.347   2.504  12.754 -1.4381 -0.3283  0.0201
  422TMC3    H2 6302   0.120   2.670  13.066  0.9920  0.5492  1.1547
  422TMC3    C7 6303   0.140   2.468  12.917  0.0011 -0.4169 -0.0532
  422TMC3    C8 6304   0.302   2.899  13.103  0.6084 -0.6625 -0.0730
  422TMC3    O1 6305   0.200   2.367  12.891  0.0536 -0.0470  0.3318
  422TMC3    O2 6306   0.337   3.007  13.064 -0.1018 -0.5977 -0.0105
  423MPD2     C 6307   1.379   3.563   0.367  0.1961  1.0453  0.6069
  423MPD2    C1 6308   1.342   3.431   0.362  0.3379 -0.3535  0.2651
  423MPD2    C2 6309   1.417   3.348   0.279  0.2094 -0.5948  0.5010
  423MPD2    C3 6310   1.505   3.394   0.187  0.5998 -0.1387  0.9387
  423MPD2    C4 6311   1.525   3.531   0.185  0.1174  0.2012  0.2653
  423MPD2    C5 6312   1.473   3.613   0.282 -0.0211  0.6256  0.6258
  423MPD2     H 6313   1.388   3.245   0.268  2.0073 -1.0952  0.4191
  423MPD2    H1 6314   1.581   3.578   0.104  1.2148 -0.5911  0.5766
  423MPD2    H2 6315   1.338   3.626   0.445 -1.3944  1.3149 -0.4489
  423MPD2    H3 6316   1.512   3.714   0.289  0.3194  0.5134  0.3250
  423MPD2     N 6317   1.579   3.314   0.104  0.7493 -0.8299  0.1679
  423MPD2    H5 6318   1.649   3.371   0.058 -0.5069 -0.5495 -1.3924
  423MPD2    N1 6319   1.263   3.371   0.460 -0.3899 -0.3378  0.4912
  423MPD2    H7 6320   1.254   3.270   0.456 -0.5525 -0.2668 -0.8667
  424TMC3    C1 6321   1.148   3.347   0.672 -0.6813 -0.2751 -0.0894
  424TMC3    C2 6322   1.160   3.214   0.653  0.0665 -0.7224  0.1071
  424TMC3    C3 6323   1.132   3.137   0.768 -0.3431 -0.7597 -0.0231
  424TMC3    C4 6324   1.128   3.409   0.794  0.5771  0.1201 -0.2375
  424TMC3    C5 6325   1.093   3.326   0.894 -0.0386 -0.1394 -0.2540
  424TMC3    C6 6326   1.091   3.193   0.881  0.0651 -0.2938  0.5642
  424TMC3     C 6327   1.194   3.435   0.565  0.4648  0.2213 -0.0785
  424TMC3     O 6328   1.176   3.555   0.590  0.1054  0.1038  0.0431
  424TMC3     H 6329   1.190   3.166   0.560  0.1232  1.3791 -0.9587
  424TMC3    H1 6330   1.141   3.516   0.806  0.4079  0.2192 -0.9453
  424TMC3    H2 6331   1.055   3.133   0.965  1.3840 -1.3089  0.3988
  424TMC3    C7 6332   1.052   3.385   1.019  0.6186 -0.1118 -0.7190
  424TMC3    C8 6333   1.162   2.991   0.772 -0.2563  0.3284 -0.5323
  424TMC3    O1 6334   1.014   3.502   1.017  0.2660  0.5334 -0.1759
  424TMC3    O2 6335   1.118   2.931   0.871 -0.3274 -0.7180  0.1930
  425MPD2     C 6336   0.770   2.691  17.183 -0.2722 -0.0905  1.1921
  425MPD2    C1 6337   0.679   2.593  17.164 -0.5166  0.0943 -0.0135
  425MPD2    C2 6338   0.564   2.603  17.239  0.4348 -0.7497 -0.3054
  425MPD2    C3 6339   0.540   2.712  17.325 -0.7204  0.1420 -0.1224
  425MPD2    C4 6340   0.627   2.820  17.325 -0.2309 -0.2086 -0.0571
  425MPD2    C5 6341   0.739   2.802  17.257 -0.3365 -0.0880 -0.7148
  425MPD2     H 6342   0.484   2.532  17.225 -1.3039  1.3352 -0.9938
  425MPD2    H1 6343   0.609   2.917  17.370  0.2430  0.1780 -0.7137
  425MPD2    H2 6344   0.869   2.688  17.139 -1.4279  1.7940 -1.4911
  425MPD2    H3 6345   0.817   2.878  17.255 -0.7774  0.3578 -1.1964
  425MPD2     N 6346   0.435   2.704  17.420 -0.4002  0.3145  0.1408
  425MPD2    H5 6347   0.376   2.621  17.413 -2.1463  1.5525  0.2139
  425MPD2    N1 6348   0.706   2.487  17.076  0.0905 -0.1789  0.1768
  425MPD2    H7 6349   0.783   2.496  17.010  0.5854  0.5184  0.8609
  426TMC3    C1 6350   0.718   2.280  16.972  0.2140  0.6687 -0.9035
  426TMC3    C2 6351   0.649   2.190  16.899 -0.2447 -0.9631  0.0266
  426TMC3    C3 6352   0.716   2.096  16.825  0.3440  0.0598  0.0435
  426TMC3    C4 6353   0.855   2.272  16.990 -0.4150  0.4650 -0.3784
  426TMC3    C5 6354   0.920   2.162  16.929 -0.1765  0.3092 -0.4809
  426TMC3    C6 6355   0.848   2.087  16.838 -0.6809 -0.0625 -0.6037
  426TMC3     C 6356   0.641   2.363  17.061  0.0544 -0.4701  0.0905
  426TMC3     O 6357   0.531   2.328  17.099 -0.4332 -0.4035 -0.2896
  426TMC3     H 6358   0.543   2.202  16.879 -0.5493 -1.4771  1.3459
  426TMC3    H1 6359   0.911   2.332  17.061  1.8478  0.2618 -1.9964
  426TMC3    H2 6360   0.894   1.995  16.802 -0.1451 -0.2105  0.4803
  426TMC3    C7 6361   1.018   2.086  17.004  0.2836  0.1650  0.2015
  426TMC3    C8 6362   0.660   2.001  16.725 -0.9218  0.1419  0.6659
  426TMC3    O1 6363   1.081   2.002  16.940  0.0629  0.0900  0.3153
  426TMC3    O2 6364   0.718   1.983  16.621 -0.0689 -0.4972  0.1808
  427MPD2     C 6365   4.120   0.005  14.852 -0.7955 -0.1305  0.2426
  427MPD2    C1 6366   4.096   0.043  14.983  0.4589  0.4240 -0.5395
  427MPD2    C2 6367   3.976   0.099  15.010 -0.5894  0.1357  0.0533
  427MPD2    C3 6368   3.878   0.131  14.913  0.0754  0.4350  0.2461
  427MPD2    C4 6369   3.912   0.104  14.784  0.2934  0.2120  0.4579
  427MPD2    C5 6370   4.022   0.031  14.759 -0.3198 -0.0437 -0.0133
  427MPD2     H 6371   3.963   0.141  15.109  1.5931 -1.2745  0.9554
  427MPD2    H1 6372   3.851   0.130  14.699 -2.6692  0.1593  2.5730
  427MPD2    H2 6373   4.208   4.683  14.813  0.3544  0.9578  1.4881
  427MPD2    H3 6374   4.041   4.722  14.659 -0.1857  0.8941 -0.3140
  427MPD2     N 6375   3.752   0.181  14.938  0.2275 -0.5924  0.0243
  427MPD2    H5 6376   3.687   0.191  14.860  1.4866  0.1699 -0.9216
  427MPD2    N1 6377   4.185   0.034  15.088  0.0348 -0.3124 -0.0835
  427MPD2    H7 6378   4.155   0.068  15.179  0.6491 -0.3348  0.1231
  428TMC3    C1 6379   4.360   4.675  15.217  0.1899  0.1826 -0.4272
  428TMC3    C2 6380   4.287   4.598  15.298  0.3864  0.1686  0.3199
  428TMC3    C3 6381   4.352   4.511  15.387 -0.2343  0.3102  0.9233
  428TMC3    C4 6382   4.496   4.657  15.211 -0.0571 -0.6183 -0.6972
  428TMC3    C5 6383   4.557   4.566  15.289  0.0675  0.2085  0.1652
  428TMC3    C6 6384   4.494   4.494  15.383  0.0450 -0.7197  0.1020
  428TMC3     C 6385   4.310   4.710  15.085  0.8857  0.4753  0.1852
  428TMC3     O 6386   4.379   4.674  14.987 -0.8286 -0.1059 -0.1088
  428TMC3     H 6387   4.179   4.598  15.305  0.3182  0.3996 -0.7470
  428TMC3    H1 6388   4.558   4.691  15.129  1.1802 -1.0505  0.0718
  428TMC3    H2 6389   4.543   4.436  15.461 -3.5356 -4.2903 -0.2972
  428TMC3    C7 6390   4.700   4.573  15.315  0.4784  0.1097 -0.2206
  428TMC3    C8 6391   4.273   4.474  15.498  0.2958 -0.1904  1.3792
  428TMC3    O1 6392   0.007   4.549  15.429 -0.1370 -0.7520 -0.5953
  428TMC3    O2 6393   4.210   4.570  15.547 -0.2755  0.2064  0.3804
  429MPD2     C 6394   0.221   4.652  17.673 -0.2404  0.2724 -0.4215
  429MPD2    C1 6395   0.308   4.567  17.608 -0.2180 -0.5150  0.6617
  429MPD2    C2 6396   0.402   4.617  17.520 -0.5156 -0.4033 -1.1232
  429MPD2    C3 6397   0.400   0.025  17.489 -0.4709 -0.4011  0.1224
  429MPD2    C4 6398   0.303   0.108  17.543  0.4102 -0.3705  0.1621
  429MPD2    C5 6399   0.218   0.058  17.636 -0.3218  0.0578 -0.6154
  429MPD2     H 6400   0.479   4.554  17.479 -1.7737 -2.1518 -0.7832
  429MPD2    H1 6401   0.295   0.214  17.522  0.5441 -0.3965 -0.0144
  429MPD2    H2 6402   0.152   4.632   0.047  1.0178  1.0249  0.8351
  429MPD2    H3 6403   0.142   0.120  17.683 -0.8949 -0.4507 -0.8689
  429MPD2     N 6404   0.488   0.071  17.398  0.7479 -0.1509 -0.1287
  429MPD2    H5 6405   0.548   4.726  17.358 -0.2275 -0.4538 -1.0456
  429MPD2    N1 6406   0.305   4.423  17.624  0.3607 -0.3734 -0.0373
  429MPD2    H7 6407   0.374   4.370  17.572 -0.4181  0.1660 -1.6003
  430TMC3    C1 6408   0.603   0.220  17.261 -0.1034 -0.0388 -0.2645
  430TMC3    C2 6409   0.605   0.350  17.201 -0.1437 -0.0776 -0.0749
  430TMC3    C3 6410   0.723   0.405  17.155 -0.2875 -0.3892 -0.0831
  430TMC3    C4 6411   0.719   0.148  17.274 -0.7637 -0.4495  0.2553
  430TMC3    C5 6412   0.838   0.206  17.222 -0.1853 -1.0845  0.2541
  430TMC3    C6 6413   0.837   0.327  17.157 -0.1097 -0.2387  0.2912
  430TMC3     C 6414   0.482   0.190  17.333  0.5775  0.8284 -0.5334
  430TMC3     O 6415   0.407   0.284  17.341 -0.1837  0.1628  0.1731
  430TMC3     H 6416   0.513   0.407  17.198  0.2102  0.5086  0.3667
  430TMC3    H1 6417   0.732   0.053  17.326  2.2528  0.8159  1.7865
  430TMC3    H2 6418   0.923   0.376  17.113 -1.0936  1.0041 -0.2668
  430TMC3    C7 6419   0.926   0.111  17.157 -0.3564 -0.7191  0.5368
  430TMC3    C8 6420   0.721   0.494  17.046  0.2496  0.3462 -0.3879
  430TMC3    O1 6421   0.904   4.720  17.175 -0.0542 -0.0481 -0.1575
  430TMC3    O2 6422   0.802   0.483  16.954  0.2687 -0.2483 -0.0869
  431MPD2     C 6423   1.333   0.235  12.633 -0.3274  0.0762 -0.4341
  431MPD2    C1 6424   1.377   0.263  12.511 -0.1723 -0.1996 -0.6488
  431MPD2    C2 6425   1.355   0.173  12.410  0.3943 -0.0523  0.0016
  431MPD2    C3 6426   1.286   0.056  12.425  0.0546  0.1586 -0.0895
  431MPD2    C4 6427   1.245   0.027  12.555 -0.0506 -0.9788 -0.3745
  431MPD2    C5 6428   1.264   0.114  12.655  1.3684 -0.1707  0.6867
  431MPD2     H 6429   1.391   0.202  12.312  2.1187 -3.3865 -0.3348
  431MPD2    H1 6430   1.187   4.664  12.575 -1.9664  0.4532  0.4223
  431MPD2    H2 6431   1.332   0.305  12.716  0.5771 -0.0913 -0.2849
  431MPD2    H3 6432   1.222   0.089  12.752  1.4994 -3.2755 -0.0439
  431MPD2     N 6433   1.255   4.693  12.325  0.6807 -0.0828  0.3460
  431MPD2    H5 6434   1.195   4.613  12.346  0.6611 -0.5600 -1.5080
  431MPD2    N1 6435   1.429   0.382  12.472 -0.2303  0.0789  0.5302
  431MPD2    H7 6436   1.460   0.400  12.377 -3.4236  0.5704 -0.4308
  432TMC3    C1 6437   1.237   4.598  12.119  0.5577  0.6576 -0.8476
  432TMC3    C2 6438   1.264   4.600  11.983 -1.1286  0.3597  0.5341
  432TMC3    C3 6439   1.217   4.504  11.898 -0.7194  0.4334  0.6624
  432TMC3    C4 6440   1.150   4.503  12.172  0.1626  0.6678 -0.5221
  432TMC3    C5 6441   1.088   4.421  12.081 -0.5823  0.0270 -0.2357
  432TMC3    C6 6442   1.126   4.415  11.949 -0.5839 -0.7239 -0.3666
  432TMC3     C 6443   1.300   4.707  12.194  0.0409 -0.3196 -0.0078
  432TMC3     O 6444   1.349   0.077  12.141  0.1073 -0.1966 -0.5525
  432TMC3     H 6445   1.353   4.654  11.954  0.3685 -2.8203 -0.7573
  432TMC3    H1 6446   1.116   4.502  12.274  0.5408  2.4304 -0.3747
  432TMC3    H2 6447   1.083   4.342  11.881  0.3097 -1.3381 -0.2879
  432TMC3    C7 6448   1.001   4.307  12.120  0.6966 -0.2491  0.3481
  432TMC3    C8 6449   1.260   4.483  11.762 -0.1286  0.1552  1.1881
  432TMC3    O1 6450   0.966   4.224  12.041  0.1345 -0.0938 -0.2934
  432TMC3    O2 6451   1.218   4.386  11.702  0.3992 -0.3013  0.9835
  433MPD2     C 6452   0.158   3.665  10.660  1.4055  1.0249 -0.1619
  433MPD2    C1 6453   0.169   3.601  10.776 -0.9495  0.2051 -0.7120
  433MPD2    C2 6454   0.198   3.675  10.887  0.2037  0.0687  0.6936
  433MPD2    C3 6455   0.229   3.806  10.892  0.2579  0.0034 -0.1662
  433MPD2    C4 6456   0.215   3.865  10.768  0.4531 -0.5671  0.3533
  433MPD2    C5 6457   0.177   3.803  10.656  0.1407 -0.3340  0.4184
  433MPD2     H 6458   0.202   3.618  10.979 -1.4231 -0.2634  0.5735
  433MPD2    H1 6459   0.236   3.971  10.767  1.0187 -0.6770  0.5367
  433MPD2    H2 6460   0.162   3.614  10.564 -1.4096  0.0270  0.2603
  433MPD2    H3 6461   0.155   3.848  10.560  2.2922  0.9362  0.5138
  433MPD2     N 6462   0.263   3.863  11.017  0.4817  0.5343  0.1598
  433MPD2    H5 6463   0.282   3.796  11.091  1.4578  2.1219  1.3364
  433MPD2    N1 6464   0.142   3.463  10.783  0.1030 -0.3876  0.1172
  433MPD2    H7 6465   0.159   3.423  10.875 -1.3639 -0.0732  0.5128
  434TMC3    C1 6466   0.053   3.245  10.744  0.1267 -0.1565  0.8306
  434TMC3    C2 6467   0.142   3.193  10.842 -0.4628 -0.2527 -0.2842
  434TMC3    C3 6468   0.184   3.061  10.825  0.2964 -0.1567  0.0474
  434TMC3    C4 6469   0.003   3.155  10.653 -0.2337  0.1329  0.5621
  434TMC3    C5 6470   0.042   3.030  10.636 -0.3305 -0.2411 -0.0686
  434TMC3    C6 6471   0.141   2.987  10.718 -0.2844  0.1826  0.0796
  434TMC3     C 6472   0.096   3.370  10.688  0.5978  0.1519  0.2889
  434TMC3     O 6473   0.084   3.387  10.568  0.0916 -0.1431  0.0255
  434TMC3     H 6474   0.200   3.259  10.906  1.3648 -0.6299 -1.5589
  434TMC3    H1 6475   4.678   3.186  10.563  1.1613 -1.6862 -0.8482
  434TMC3    H2 6476   0.169   2.882  10.721  1.2183  0.5563 -0.6886
  434TMC3    C7 6477   4.715   2.958  10.526 -0.5060  0.3523 -0.3458
  434TMC3    C8 6478   0.293   3.019  10.904  0.7282  0.2530 -0.2994
  434TMC3    O1 6479   4.605   2.995  10.486 -0.0768  0.3209  0.2937
  434TMC3    O2 6480   0.279   3.061  11.018 -0.5994  0.2436 -0.1150
  435MPD2     C 6481   2.912   4.105  15.618  0.0468 -0.3788 -0.7338
  435MPD2    C1 6482   2.815   4.054  15.700 -0.3203 -0.6245 -0.3223
  435MPD2    C2 6483   2.850   3.963  15.797 -0.0734  0.1624  0.4974
  435MPD2    C3 6484   2.976   3.907  15.799  1.3647  0.2862  0.1645
  435MPD2    C4 6485   3.071   3.965  15.712  0.5245 -1.0446  0.1525
  435MPD2    C5 6486   3.042   4.065  15.625  0.2422  0.5689 -0.5331
  435MPD2     H 6487   2.780   3.934  15.875 -3.5489  0.2154 -2.6370
  435MPD2    H1 6488   3.175   3.937  15.708  1.2598  1.8379 -1.1958
  435MPD2    H2 6489   2.881   4.179  15.545  0.9177  1.7186  1.0119
  435MPD2    H3 6490   3.112   4.100  15.550 -2.4267  0.8890 -2.8916
  435MPD2     N 6491   3.000   3.806  15.894 -0.4853  0.0425  0.1991
  435MPD2    H5 6492   2.930   3.787  15.965  2.6234  0.6162  3.4348
  435MPD2    N1 6493   2.681   4.096  15.706 -0.0196  0.5754  0.9366
  435MPD2    H7 6494   2.621   4.040  15.766  1.3732  0.2611  2.0240
  436TMC3    C1 6495   2.305   4.161  15.789  0.4191  0.0440  0.1368
  436TMC3    C2 6496   2.418   4.131  15.726  0.0987  0.0917 -0.2111
  436TMC3    C3 6497   2.496   4.231  15.678  0.0563  0.2218  0.5017
  436TMC3    C4 6498   2.258   4.286  15.797 -0.3270 -0.3056 -0.2174
  436TMC3    C5 6499   2.328   4.387  15.731  0.1830  0.5346 -0.6860
  436TMC3    C6 6500   2.455   4.366  15.678  0.5141  0.0757 -0.2260
  436TMC3     C 6501   2.234   4.046  15.846 -0.1345 -0.4800 -0.1985
  436TMC3     O 6502   2.252   3.935  15.794 -0.4740 -0.0365  0.5224
  436TMC3     H 6503   2.446   4.026  15.730 -0.5398 -0.1453 -1.9708
  436TMC3    H1 6504   2.157   4.303  15.833  0.2930  1.4575  0.6949
  436TMC3    H2 6505   2.512   4.448  15.637  0.0793  0.0584 -0.8751
  436TMC3    C7 6506   2.265   4.515  15.713  0.5931 -1.0518  0.2365
  436TMC3    C8 6507   2.635   4.214  15.647 -0.1568 -0.6678  0.1748
  436TMC3    O1 6508   2.208   4.567  15.804  0.2388 -0.2608 -0.0130
  436TMC3    O2 6509   2.699   4.302  15.587 -0.2291  0.0350  0.2285
  437TMC3    C1 6510   1.009   1.077  12.528 -0.3604  0.1305  0.5749
  437TMC3    C2 6511   0.930   1.188  12.531 -0.4884 -0.0289  0.2716
  437TMC3    C3 6512   0.929   1.269  12.420  0.3560 -0.2095 -0.1453
  437TMC3    C4 6513   1.066   1.035  12.413  0.7173 -0.4983 -0.1910
  437TMC3    C5 6514   1.052   1.112  12.305 -0.4281  0.3770  0.0688
  437TMC3    C6 6515   0.980   1.226  12.295  0.8256  0.0899  0.1439
  437TMC3     C 6516   0.992   0.982  12.631  0.1253  0.1678  0.0411
  437TMC3     O 6517   0.879   0.993  12.684  0.0464  0.0865  0.0814
  437TMC3     H 6518   0.879   1.230  12.617  1.6946 -0.5183  1.8001
  437TMC3    H1 6519   1.112   0.937  12.407 -0.1775 -0.9466  0.2124
  437TMC3    H2 6520   0.978   1.286  12.205  1.2146 -1.6828 -1.0420
  437TMC3    C7 6521   1.160   1.103  12.206  0.0402 -0.0144  0.4497
  437TMC3    C8 6522   0.875   1.401  12.438 -0.1052 -0.5360 -0.5799
  437TMC3    O1 6523   1.155   1.173  12.108  0.2728 -0.0682 -0.6921
  437TMC3    O2 6524   0.868   1.453  12.549  0.0205  0.0561 -0.2611
  438MPD2     C 6525   3.027   1.505  16.535  0.0927 -0.3913 -0.2689
  438MPD2    C1 6526   3.102   1.441  16.628 -0.0275 -0.4560  0.1843
  438MPD2    C2 6527   3.071   1.453  16.767 -0.2444  0.1717  0.9806
  438MPD2    C3 6528   2.961   1.528  16.805  0.3202 -0.4949  0.2695
  438MPD2    C4 6529   2.896   1.606  16.712  0.4209 -0.3598 -0.6017
  438MPD2    C5 6530   2.929   1.595  16.576  0.5038 -0.6615  0.5886
  438MPD2     H 6531   3.129   1.389  16.833 -0.9719 -1.1628  0.3189
  438MPD2    H1 6532   2.803   1.661  16.727  0.1167 -0.6149 -1.5492
  438MPD2    H2 6533   3.026   1.477  16.430 -0.1902 -1.8251  0.1119
  438MPD2    H3 6534   2.870   1.648  16.503  0.2969 -0.1198  1.1485
  438MPD2     N 6535   2.916   1.537  16.933  0.2885  0.1193  1.1259
  438MPD2    H5 6536   2.844   1.605  16.953 -0.3204  0.0749 -0.9717
  438MPD2    N1 6537   3.212   1.361  16.594  0.5447  0.0659  0.3538
  438MPD2    H7 6538   3.257   1.318  16.674 -1.1109  0.0917  1.3080
  439TMC3    C1 6539   3.385   1.272  16.476 -0.0511  0.3011 -0.0330
  439TMC3    C2 6540   3.419   1.214  16.355  0.4927  0.3245  0.3400
  439TMC3    C3 6541   3.536   1.135  16.356  0.2778  0.0947 -0.7471
  439TMC3    C4 6542   3.456   1.255  16.591 -0.0846  0.8298 -0.0146
  439TMC3    C5 6543   3.551   1.154  16.586 -0.1927  0.8691  1.2306
  439TMC3    C6 6544   3.582   1.088  16.473  0.2847  0.6717 -0.7018
  439TMC3     C 6545   3.272   1.352  16.471 -0.9673 -0.0619 -0.2020
  439TMC3     O 6546   3.238   1.394  16.363 -0.4692  0.3238  0.4975
  439TMC3     H 6547   3.374   1.252  16.265 -0.4087  1.6897  1.3631
  439TMC3    H1 6548   3.443   1.316  16.679  1.7261  3.7335 -1.7502
  439TMC3    H2 6549   3.661   1.013  16.466 -0.1924  0.1030 -0.0081
  439TMC3    C7 6550   3.644   1.149  16.695  0.8863 -0.4752 -0.2711
  439TMC3    C8 6551   3.612   1.099  16.238  0.8078 -0.9160  0.5420
  439TMC3    O1 6552   3.760   1.124  16.670 -0.0957  0.2202 -0.0700
  439TMC3    O2 6553   3.722   1.049  16.253  0.6175  0.7293 -0.2652
  440MPD2     C 6554   1.796   2.034  15.340 -0.2933  0.1136  0.1657
  440MPD2    C1 6555   1.759   2.085  15.214  0.4708 -0.0523  1.1014
  440MPD2    C2 6556   1.799   2.020  15.099  0.9439  0.0665  0.3371
  440MPD2    C3 6557   1.873   1.902  15.104 -1.2496 -0.3681  0.2117
  440MPD2    C4 6558   1.915   1.857  15.222  0.3024 -0.2564  0.2233
  440MPD2    C5 6559   1.872   1.922  15.336  1.0807  0.1791  0.8526
  440MPD2     H 6560   1.760   2.047  15.002  1.0522  1.8538  0.7838
  440MPD2    H1 6561   1.965   1.762  15.238  1.1915  0.0919 -0.4679
  440MPD2    H2 6562   1.767   2.068  15.438 -0.8799 -0.6068  0.2414
  440MPD2    H3 6563   1.908   1.885  15.432  0.6556  0.8205  1.2570
  440MPD2     N 6564   1.934   1.843  14.992  0.5320 -0.1548  0.0174
  440MPD2    H5 6565   1.992   1.764  15.019 -0.3716 -1.6118 -2.3208
  440MPD2    N1 6566   1.697   2.209  15.201  0.3294 -0.7714 -0.1066
  440MPD2    H7 6567   1.696   2.245  15.106 -0.7191  1.2790  0.6618
  441TMC3    C1 6568   2.050   1.827  14.800  0.1426  0.9544 -0.3324
  441TMC3    C2 6569   2.158   1.905  14.786  0.2839  0.0634 -0.5294
  441TMC3    C3 6570   2.281   1.847  14.798  0.3820  0.0763  0.2117
  441TMC3    C4 6571   2.063   1.699  14.839  0.0897  0.5654  0.4637
  441TMC3    C5 6572   2.190   1.638  14.861  0.6939  0.4960 -0.2598
  441TMC3    C6 6573   2.302   1.719  14.831  0.4260  0.5788  0.0116
  441TMC3     C 6574   1.940   1.890  14.865  0.4895 -1.0096 -0.0710
  441TMC3     O 6575   1.898   1.996  14.824  0.0320  0.0427  0.2684
  441TMC3     H 6576   2.143   2.012  14.787 -0.4735 -0.0611  0.8429
  441TMC3    H1 6577   1.979   1.633  14.857  0.4651  0.1437  0.6836
  441TMC3    H2 6578   2.402   1.681  14.848  1.4845  3.3881  0.1762
  441TMC3    C7 6579   2.192   1.575  14.989  0.1276 -0.6909 -0.2013
  441TMC3    C8 6580   2.390   1.940  14.823  0.5922 -0.0514 -0.4433
  441TMC3    O1 6581   2.094   1.598  15.060  0.3890 -0.6587 -0.0869
  441TMC3    O2 6582   2.496   1.884  14.801 -0.3326 -0.2069 -0.3270
  442MPD2     C 6583   0.549   2.460  16.659 -0.0882  0.6876 -0.3512
  442MPD2    C1 6584   0.439   2.387  16.707  0.1290  0.3413  0.0796
  442MPD2    C2 6585   0.403   2.278  16.627 -0.2308  0.4938 -0.0810
  442MPD2    C3 6586   0.482   2.237  16.529 -0.1602 -0.1251 -0.2505
  442MPD2    C4 6587   0.589   2.311  16.488 -0.6528  0.6040 -0.6111
  442MPD2    C5 6588   0.615   2.434  16.540 -0.0513 -1.0972  0.9074
  442MPD2     H 6589   0.322   2.214  16.661  0.1843  0.6398  1.1947
  442MPD2    H1 6590   0.655   2.276  16.409  3.0045  1.5896  1.9817
  442MPD2    H2 6591   0.587   2.544  16.716 -0.9890 -1.1770  2.9852
  442MPD2    H3 6592   0.701   2.497  16.518 -0.3598 -0.5138  1.3820
  442MPD2     N 6593   0.455   2.128  16.444  0.4914 -0.1441 -0.0112
  442MPD2    H5 6594   0.532   2.104  16.383 -0.7588  0.7646 -1.9465
  442MPD2    N1 6595   0.378   2.426  16.829  0.1272 -0.0219 -0.0575
  442MPD2    H7 6596   0.419   2.503  16.882 -0.4723 -0.2228  0.7028
  443TMC3    C1 6597   0.211   2.436  16.975  0.8075 -0.1235 -0.8327
  443TMC3    C2 6598   0.153   2.541  16.906  0.7637  0.5599  0.1318
  443TMC3    C3 6599   0.024   2.577  16.915  0.2789  0.4564  0.1934
  443TMC3    C4 6600   0.133   2.372  17.065  0.1029  0.8358  0.5877
  443TMC3    C5 6601   4.726   2.414  17.085 -0.4572  0.0100  0.1933
  443TMC3    C6 6602   4.674   2.517  17.015 -0.1431  0.2555 -0.3918
  443TMC3     C 6603   0.295   2.349  16.899  0.5724  0.0897 -0.2735
  443TMC3     O 6604   0.283   2.227  16.900  0.3997  0.3969  0.3514
  443TMC3     H 6605   0.199   2.577  16.815  1.4239  0.5284  0.4577
  443TMC3    H1 6606   0.173   2.296  17.131  0.5721 -0.1318 -0.8331
  443TMC3    H2 6607   4.566   2.531  17.016  0.0155  1.5453 -1.3178
  443TMC3    C7 6608   4.638   2.358  17.182 -0.3733 -0.4043  0.2819
  443TMC3    C8 6609   4.683   2.549  16.794  0.9385  0.2288 -0.4749
  443TMC3    O1 6610   4.537   2.427  17.207  0.2184 -0.1527 -0.2917
  443TMC3    O2 6611   4.602   2.460  16.795 -0.1838  0.1167  0.0425
  444MPD2     C 6612   0.593   1.892  17.217 -0.3031  0.4423 -0.0440
  444MPD2    C1 6613   0.513   1.794  17.174 -0.1934 -1.2737  0.4892
  444MPD2    C2 6614   0.569   1.705  17.077 -0.8497  0.0533  0.1816
  444MPD2    C3 6615   0.699   1.727  17.025  0.3273 -0.0089  0.2218
  444MPD2    C4 6616   0.767   1.831  17.062  0.5684 -0.0058  0.0089
  444MPD2    C5 6617   0.722   1.909  17.163 -0.1921 -0.0091 -0.0062
  444MPD2     H 6618   0.501   1.630  17.037  1.0744 -1.2402 -0.6902
  444MPD2    H1 6619   0.870   1.838  17.029  0.4027  1.2679 -0.2321
  444MPD2    H2 6620   0.565   1.965  17.292 -1.6154  0.4177 -0.5145
  444MPD2    H3 6621   0.791   1.980  17.206  0.2844 -0.4661 -0.0094
  444MPD2     N 6622   0.748   1.635  16.923 -0.0217 -0.2251 -0.0351
  444MPD2    H5 6623   0.695   1.548  16.919  0.2076 -0.3901  0.5102
  444MPD2    N1 6624   0.389   1.758  17.223 -0.0930 -0.3234 -0.7117
  444MPD2    H7 6625   0.360   1.667  17.189 -0.9087 -0.5453  0.5548
  445TMC3    C1 6626   0.877   1.521  16.771 -0.2875  0.3979  0.3003
  445TMC3    C2 6627   0.773   1.438  16.736 -0.2507  0.3568 -0.3762
  445TMC3    C3 6628   0.809   1.311  16.697 -0.4500 -0.2463 -0.3998
  445TMC3    C4 6629   1.008   1.489  16.754  0.1381 -0.0328  0.2827
  445TMC3    C5 6630   1.032   1.361  16.714  0.1035  0.8035 -0.0713
  445TMC3    C6 6631   0.937   1.268  16.683  0.8242  0.1236  0.8758
  445TMC3     C 6632   0.860   1.646  16.843 -0.6796  0.3434 -0.2669
  445TMC3     O 6633   0.948   1.731  16.833  0.2161 -0.0677  0.4233
  445TMC3     H 6634   0.670   1.472  16.741 -0.4432 -0.3082  0.2581
  445TMC3    H1 6635   1.086   1.553  16.794 -2.7253  1.7028  3.0501
  445TMC3    H2 6636   0.966   1.166  16.657 -0.0427 -0.0528  0.6169
  445TMC3    C7 6637   1.167   1.342  16.685 -0.6671 -0.7689 -0.2450
  445TMC3    C8 6638   0.705   1.223  16.647 -0.4577  0.3575  0.7365
  445TMC3    O1 6639   1.244   1.435  16.680  0.2644 -0.4401  0.2719
  445TMC3    O2 6640   0.735   1.138  16.565 -0.5182  0.0578  0.2369
  446MPD2     C 6641   0.261   2.882  11.543  0.0994  0.5728  0.0937
  446MPD2    C1 6642   0.221   2.899  11.412  0.0699 -0.1789  0.0729
  446MPD2    C2 6643   0.283   3.000  11.342 -0.3078  0.2018 -0.2130
  446MPD2    C3 6644   0.392   3.076  11.388 -0.5489 -0.0872 -0.4717
  446MPD2    C4 6645   0.411   3.067  11.521  0.2317  0.8032 -0.1398
  446MPD2    C5 6646   0.351   2.969  11.597  0.5087  0.2172  0.7282
  446MPD2     H 6647   0.256   3.004  11.237  0.1431  1.5553 -0.2691
  446MPD2    H1 6648   0.460   3.143  11.580 -1.3479 -0.7188  3.1202
  446MPD2    H2 6649   0.227   2.789  11.589  0.9620  0.1091 -0.2119
  446MPD2    H3 6650   0.375   2.969  11.703  1.6473 -0.7912  0.4732
  446MPD2     N 6651   0.446   3.178  11.308 -1.0249  0.9015 -0.2257
  446MPD2    H5 6652   0.416   3.182  11.211 -1.3611  0.7590 -0.1294
  446MPD2    N1 6653   0.137   2.817  11.336 -0.4203  0.3193 -0.3166
  446MPD2    H7 6654   0.103   2.857  11.249 -0.7708  1.2763  0.2719
  447TMC3    C1 6655   0.576   3.336  11.225 -0.4859  0.1677  0.9735
  447TMC3    C2 6656   0.526   3.305  11.099  0.5497 -0.2277 -0.4989
  447TMC3    C3 6657   0.610   3.311  10.992  0.0088 -0.7349  0.3515
  447TMC3    C4 6658   0.703   3.380  11.232  0.5484 -0.4449  0.3752
  447TMC3    C5 6659   0.784   3.380  11.125 -0.1971 -0.0760 -0.0440
  447TMC3    C6 6660   0.740   3.352  11.001 -0.5125 -0.1353 -0.9317
  447TMC3     C 6661   0.526   3.277  11.346 -0.0722  0.9102 -0.4342
  447TMC3     O 6662   0.589   3.296  11.452  0.0279 -0.1172  0.5707
  447TMC3     H 6663   0.422   3.283  11.082  0.5951 -1.5247  0.8241
  447TMC3    H1 6664   0.743   3.386  11.333 -0.6340 -2.6315  1.0002
  447TMC3    H2 6665   0.811   3.363  10.920  0.2563  0.0011 -0.2409
  447TMC3    C7 6666   0.926   3.411  11.132 -0.2400 -0.2951  0.5286
  447TMC3    C8 6667   0.548   3.309  10.860 -0.5020 -0.1713 -0.6754
  447TMC3    O1 6668   0.994   3.378  11.038  0.5380 -0.3268  0.2436
  447TMC3    O2 6669   0.427   3.320  10.855  0.2935  0.2511 -0.1322
  448TMC3    C1 6670   3.369   2.926  16.731 -0.0645  0.0193  0.0099
  448TMC3    C2 6671   3.395   2.805  16.673  0.0175 -0.4165 -0.2064
  448TMC3    C3 6672   3.498   2.732  16.720  0.6868  0.5217 -0.5568
  448TMC3    C4 6673   3.456   2.988  16.811  0.5500  0.4641  0.1241
  448TMC3    C5 6674   3.563   2.911  16.859 -0.1562 -0.0549 -1.3888
  448TMC3    C6 6675   3.591   2.783  16.813 -0.1130 -0.6247 -0.5315
  448TMC3     C 6676   3.264   3.000  16.667  0.2962  0.1438 -0.0459
  448TMC3     O 6677   3.187   2.935  16.597  0.1946 -0.1173  0.3012
  448TMC3     H 6678   3.320   2.763  16.606  0.1430  1.8481 -1.7562
  448TMC3    H1 6679   3.436   3.086  16.853  0.9489  1.3424 -1.7182
  448TMC3    H2 6680   3.669   2.719  16.854 -0.1604 -0.0628  0.4266
  448TMC3    C7 6681   3.615   2.950  16.990 -0.3508  0.4217  0.2263
  448TMC3    C8 6682   3.522   2.595  16.681  0.6016  0.3690 -0.6630
  448TMC3    O1 6683   3.592   3.066  17.021  0.9258 -0.0951  0.0235
  448TMC3    O2 6684   3.587   2.516  16.744 -0.3635 -0.3176  0.1505
  449MPD2     C 6685   0.345   1.236  13.946  0.1040  0.4930  0.0551
  449MPD2    C1 6686   0.225   1.289  13.896  0.6688  0.0477 -0.2375
  449MPD2    C2 6687   0.122   1.203  13.868  0.0897  0.7703  0.3170
  449MPD2    C3 6688   0.134   1.067  13.892 -0.0404  0.3112  0.1306
  449MPD2    C4 6689   0.256   1.018  13.936  0.3994  0.2864 -0.2368
  449MPD2    C5 6690   0.359   1.101  13.970  0.7299 -0.1114 -0.8853
  449MPD2     H 6691   0.032   1.237  13.819  1.4432  3.1820 -0.5189
  449MPD2    H1 6692   0.276   0.914  13.960  0.2893  0.1306 -0.8372
  449MPD2    H2 6693   0.429   1.300  13.972  0.4712 -0.4918  1.3448
  449MPD2    H3 6694   0.457   1.060  13.989  0.4131 -0.3664  0.1717
  449MPD2     N 6695   0.013   0.986  13.862  0.1205 -0.0394  0.7132
  449MPD2    H5 6696   4.662   1.036  13.820  0.5806 -1.0137 -1.3228
  449MPD2    N1 6697   0.209   1.420  13.855 -0.1299  0.1240 -0.9528
  449MPD2    H7 6698   0.116   1.442  13.822 -1.1975 -2.5138  0.3042
  450TMC3    C1 6699   0.244   1.638  13.778 -0.6409  0.2454  0.1197
  450TMC3    C2 6700   0.302   1.662  13.660 -0.3508  0.1895 -0.6797
  450TMC3    C3 6701   0.228   1.705  13.552  0.3266  0.2349  0.1389
  450TMC3    C4 6702   0.111   1.643  13.788 -0.3895 -0.3422  0.2667
  450TMC3    C5 6703   0.035   1.664  13.670  0.3926 -0.8406  0.5303
  450TMC3    C6 6704   0.098   1.709  13.558  0.5421 -0.0483 -0.0650
  450TMC3     C 6705   0.307   1.518  13.842  1.3047  0.6035 -0.0202
  450TMC3     O 6706   0.426   1.500  13.843  0.3174 -0.1169 -0.2079
  450TMC3     H 6707   0.410   1.654  13.649 -0.0738  1.1701  1.3790
  450TMC3    H1 6708   0.066   1.612  13.881 -1.1738 -2.1079 -0.7097
  450TMC3    H2 6709   0.039   1.729  13.470  0.1480 -0.0888  0.1866
  450TMC3    C7 6710   4.662   1.557  13.666 -0.4508  0.0697 -0.1788
  450TMC3    C8 6711   0.290   1.747  13.432  0.1408  0.9819  0.0858
  450TMC3    O1 6712   4.692   1.449  13.719 -0.3088 -0.0947  0.0580
  450TMC3    O2 6713   0.239   1.836  13.360  0.2157 -0.1147 -0.2273
  451MPD2     C 6714   1.313   4.377   1.650 -0.2240 -0.3523 -0.1175
  451MPD2    C1 6715   1.272   4.434   1.531  0.7756  0.1773  0.9344
  451MPD2    C2 6716   1.299   4.374   1.408  0.4119 -0.0339 -0.6352
  451MPD2    C3 6717   1.385   4.264   1.408 -0.2610 -0.0685 -0.3327
  451MPD2    C4 6718   1.446   4.222   1.528  0.5976  0.2576  0.1667
  451MPD2    C5 6719   1.400   4.272   1.644  0.7774  0.2186  0.1665
  451MPD2     H 6720   1.253   4.400   1.313  1.4967  1.0235 -0.8701
  451MPD2    H1 6721   1.529   4.153   1.535  1.4237  1.0997 -1.3252
  451MPD2    H2 6722   1.269   4.418   1.740  0.4753  0.0231  0.0544
  451MPD2    H3 6723   1.424   4.224   1.737 -2.1158 -2.6528 -0.5575
  451MPD2     N 6724   1.417   4.190   1.295 -0.4814 -0.2175  0.6168
  451MPD2    H5 6725   1.475   4.107   1.303 -0.4991 -0.4073 -1.2559
  451MPD2    N1 6726   1.196   4.557   1.531  0.0372  0.2643 -0.4727
  451MPD2    H7 6727   1.157   4.593   1.617  0.6189  0.1924 -0.1790
  452TMC3    C1 6728   1.424   4.109   1.076  1.0133 -0.2749  0.4251
  452TMC3    C2 6729   1.415   3.975   1.120 -0.3226 -0.1271  0.1319
  452TMC3    C3 6730   1.413   3.879   1.021 -0.7496  0.7252 -0.0420
  452TMC3    C4 6731   1.434   4.145   0.945  0.8691 -0.1131  0.2996
  452TMC3    C5 6732   1.425   4.051   0.851 -0.2344  0.3624  0.1848
  452TMC3    C6 6733   1.415   3.916   0.885 -0.4863  0.6235  0.0635
  452TMC3     C 6734   1.391   4.218   1.165 -0.1221 -0.2269  0.1584
  452TMC3     O 6735   1.347   4.319   1.115 -0.0501 -0.0035 -0.7509
  452TMC3     H 6736   1.389   3.945   1.221  3.3072 -0.1524  1.0564
  452TMC3    H1 6737   1.417   4.248   0.916  1.2133  0.1069  0.8691
  452TMC3    H2 6738   1.398   3.831   0.820  0.2410  1.6330 -1.4336
  452TMC3    C7 6739   1.414   4.080   0.712  0.4442  0.0851  0.2291
  452TMC3    C8 6740   1.425   3.740   1.062  0.6324  0.1847  0.7553
  452TMC3    O1 6741   1.464   4.182   0.666 -0.0613 -0.1036  0.4299
  452TMC3    O2 6742   1.472   3.671   0.974 -0.2386  0.2316 -0.1548
  453TMC3    C1 6743   2.522   2.277  11.939  0.0210  0.5236 -0.6811
  453TMC3    C2 6744   2.427   2.228  12.019  0.3505  0.1609 -0.2273
  453TMC3    C3 6745   2.332   2.140  11.972 -0.6689 -1.0492 -0.1421
  453TMC3    C4 6746   2.539   2.234  11.807  0.4402  0.3911  0.4364
  453TMC3    C5 6747   2.433   2.162  11.754 -0.0915 -0.3299  0.2999
  453TMC3    C6 6748   2.334   2.113  11.836 -0.2599 -0.5630 -0.6789
  453TMC3     C 6749   2.635   2.323  12.012 -0.0000 -0.9336 -0.0997
  453TMC3     O 6750   2.740   2.312  11.952  0.1513 -0.0011  0.3521
  453TMC3     H 6751   2.434   2.243  12.126 -1.9068  2.3703 -0.3785
  453TMC3    H1 6752   2.628   2.260  11.752  0.1131  1.8497  0.6036
  453TMC3    H2 6753   2.260   2.045  11.797  0.6022 -1.8108 -0.1443
  453TMC3    C7 6754   2.440   2.096  11.622  0.1312 -0.1953 -0.3524
  453TMC3    C8 6755   2.298   2.049  12.071 -0.2054 -0.6198  0.4469
  453TMC3    O1 6756   2.342   2.025  11.595 -0.4101 -0.0428  0.1166
  453TMC3    O2 6757   2.274   2.096  12.181  0.4529  0.2861 -0.2257
  454MPD2     C 6758   1.408   1.296  16.008  0.2400 -0.3949 -0.2061
  454MPD2    C1 6759   1.322   1.407  15.995 -0.7769  0.1741 -0.5723
  454MPD2    C2 6760   1.232   1.424  16.090 -0.2917  0.2826  0.4184
  454MPD2    C3 6761   1.216   1.323  16.191 -0.9972  0.4636  0.1874
  454MPD2    C4 6762   1.301   1.216  16.200  0.1508  0.0027  0.2908
  454MPD2    C5 6763   1.405   1.210  16.111  0.4100  0.7714  0.1906
  454MPD2     H 6764   1.156   1.502  16.091 -0.3812  0.1960  0.3976
  454MPD2    H1 6765   1.297   1.141  16.278 -0.4746 -0.8059 -0.5228
  454MPD2    H2 6766   1.481   1.275  15.931  0.1779 -2.9516  0.4491
  454MPD2    H3 6767   1.474   1.128  16.123 -0.7829 -0.4015 -0.9101
  454MPD2     N 6768   1.112   1.332  16.280 -0.0042 -0.3724 -0.0189
  454MPD2    H5 6769   1.084   1.248  16.331  2.2437 -1.1261 -0.0387
  454MPD2    N1 6770   1.317   1.497  15.886 -0.2814  0.9048  0.7098
  454MPD2    H7 6771   1.250   1.572  15.898  0.8025  1.7116  1.6572
  455TMC3    C1 6772   0.909   1.416  16.353 -0.3008 -0.4974 -0.0289
  455TMC3    C2 6773   0.825   1.525  16.374  0.1031 -0.2504  0.5396
  455TMC3    C3 6774   0.695   1.513  16.343 -0.1784 -0.0109 -0.5210
  455TMC3    C4 6775   0.853   1.295  16.310 -0.1738  0.0619 -0.7350
  455TMC3    C5 6776   0.721   1.292  16.274  0.7796 -0.0439  0.1310
  455TMC3    C6 6777   0.642   1.401  16.285  0.8592  0.1206 -0.4695
  455TMC3     C 6778   1.047   1.445  16.314  0.6857 -0.1014 -0.7280
  455TMC3     O 6779   1.086   1.559  16.298 -0.2962 -0.3784 -0.0466
  455TMC3     H 6780   0.870   1.609  16.426 -1.3600  0.2177  1.0505
  455TMC3    H1 6781   0.909   1.208  16.275 -0.6655  0.4845 -2.5438
  455TMC3    H2 6782   0.538   1.397  16.255  0.5254 -1.1417  0.8729
  455TMC3    C7 6783   0.677   1.164  16.223 -0.8081 -0.6073  0.8540
  455TMC3    C8 6784   0.611   1.626  16.377  0.1481  0.4189  0.0944
  455TMC3    O1 6785   0.591   1.152  16.140 -0.4274  0.0579  0.0426
  455TMC3    O2 6786   0.673   1.736  16.365 -0.0158  0.7337 -0.0591
  456MPD2     C 6787   3.752   1.420  16.027 -0.0319 -0.0494 -0.2891
  456MPD2    C1 6788   3.837   1.436  16.137  0.0122  0.3908  0.3387
  456MPD2    C2 6789   3.780   1.481  16.252  0.2850  0.3167  0.2071
  456MPD2    C3 6790   3.646   1.508  16.264  0.3801  0.2078  0.1371
  456MPD2    C4 6791   3.559   1.492  16.153  1.1493  0.3874 -1.2171
  456MPD2    C5 6792   3.617   1.455  16.035 -0.1868  0.4055 -0.2864
  456MPD2     H 6793   3.854   1.477  16.331  3.4151  0.4113 -2.7190
  456MPD2    H1 6794   3.453   1.513  16.156  0.9821 -0.5447 -0.3331
  456MPD2    H2 6795   3.780   1.374  15.933  0.4310 -0.2853 -0.0355
  456MPD2    H3 6796   3.554   1.430  15.950  0.3820 -0.6707 -0.3880
  456MPD2     N 6797   3.605   1.556  16.392 -0.7709 -0.3538  0.1100
  456MPD2    H5 6798   3.659   1.547  16.477  1.7655 -0.8074 -1.5510
  456MPD2    N1 6799   3.972   1.378  16.141  0.0864 -0.1813  0.0753
  456MPD2    H7 6800   4.012   1.374  16.234  0.3248  1.4908  0.0503
  457TMC3    C1 6801   3.499   1.682  16.543  0.5831  0.2925  0.0229
  457TMC3    C2 6802   3.495   1.821  16.530  0.0601 -0.4704  0.4965
  457TMC3    C3 6803   3.559   1.907  16.616 -0.2780 -0.0196 -0.5069
  457TMC3    C4 6804   3.586   1.639  16.636  0.5364 -0.4782  0.3026
  457TMC3    C5 6805   3.633   1.719  16.735 -0.4087  0.2466  0.5789
  457TMC3    C6 6806   3.630   1.853  16.717  0.0145 -1.1423 -0.4417
  457TMC3     C 6807   3.487   1.619  16.412  1.0141 -0.1434 -0.7498
  457TMC3     O 6808   3.400   1.653  16.336 -0.2867 -0.6106  0.4618
  457TMC3     H 6809   3.433   1.860  16.449 -1.1407 -0.0765  1.5941
  457TMC3    H1 6810   3.598   1.536  16.665  1.9265 -0.3903  0.0706
  457TMC3    H2 6811   3.682   1.918  16.786 -2.4051 -0.7562  0.9997
  457TMC3    C7 6812   3.726   1.667  16.828 -0.0328  0.5756  0.7601
  457TMC3    C8 6813   3.553   2.052  16.604  0.1690 -0.3389 -0.0463
  457TMC3    O1 6814   3.683   1.585  16.905 -0.1023  0.1786  0.2535
  457TMC3    O2 6815   3.593   2.119  16.701  0.1015  0.3554 -0.3968
  458MPD2     C 6816   1.671   1.165  12.152 -0.0266  0.4171 -0.2673
  458MPD2    C1 6817   1.642   1.133  12.283  0.2550 -0.4123 -0.5935
  458MPD2    C2 6818   1.509   1.105  12.317 -0.4591 -0.4947  0.3578
  458MPD2    C3 6819   1.407   1.103  12.222 -0.3163 -0.4582 -1.0319
  458MPD2    C4 6820   1.433   1.137  12.093  0.6385 -0.5378  0.7095
  458MPD2    C5 6821   1.564   1.176  12.067 -0.0388  0.4071 -0.3880
  458MPD2     H 6822   1.480   1.117  12.420 -0.3203  2.1893  0.0951
  458MPD2    H1 6823   1.355   1.144  12.019  0.6351  1.6890  0.9404
  458MPD2    H2 6824   1.773   1.189  12.126 -0.2925  0.8019 -0.9507
  458MPD2    H3 6825   1.571   1.214  11.965  2.0362  0.5991 -0.1720
  458MPD2     N 6826   1.281   1.076  12.266  0.0433 -0.5004  0.4373
  458MPD2    H5 6827   1.282   1.047  12.363 -2.4901  0.7078  0.8351
  458MPD2    N1 6828   1.750   1.141  12.376 -0.3380 -0.7112  0.3729
  458MPD2    H7 6829   1.834   1.167  12.326 -0.6794  1.6263  1.0326
  459TMC3    C1 6830   1.846   1.173  12.593 -0.3460  0.3181 -0.4384
  459TMC3    C2 6831   1.953   1.243  12.541 -0.1759 -0.0873 -0.2074
  459TMC3    C3 6832   2.040   1.290  12.640  0.1618 -0.1006  0.1935
  459TMC3    C4 6833   1.828   1.143  12.728  0.7424 -0.2409 -0.1636
  459TMC3    C5 6834   1.933   1.178  12.814 -0.0584 -0.6552  0.3876
  459TMC3    C6 6835   2.037   1.255  12.775 -0.1753 -0.6132  0.3724
  459TMC3     C 6836   1.737   1.128  12.510  0.9818 -0.0532  0.9726
  459TMC3     O 6837   1.640   1.084  12.573  0.1713 -0.3024 -0.6052
  459TMC3     H 6838   1.979   1.259  12.437 -1.0266  1.2735 -0.1975
  459TMC3    H1 6839   1.738   1.089  12.757  1.4742  0.3898  3.3413
  459TMC3    H2 6840   2.123   1.283  12.834  0.2427 -0.4442 -0.3218
  459TMC3    C7 6841   1.920   1.130  12.949  0.5756 -0.0059 -0.3872
  459TMC3    C8 6842   2.167   1.347  12.593 -0.3005  0.4512  0.1825
  459TMC3    O1 6843   1.835   1.045  12.975  0.6438  0.8299 -0.4967
  459TMC3    O2 6844   2.210   1.310  12.482  0.2419 -0.0179  0.3429
  460MPD2     C 6845   0.711   3.328  10.527 -0.3168 -0.0015 -0.2792
  460MPD2    C1 6846   0.606   3.319  10.615  0.0301  0.5830 -0.0014
  460MPD2    C2 6847   0.473   3.327  10.572 -0.5357  0.5876 -0.6538
  460MPD2    C3 6848   0.450   3.376  10.444  0.8263 -0.0058  0.4556
  460MPD2    C4 6849   0.560   3.391  10.364  0.2664 -0.4425  0.3964
  460MPD2    C5 6850   0.687   3.359  10.397  0.4640  0.0194  0.0325
  460MPD2     H 6851   0.385   3.325  10.635 -0.6799 -0.8481 -0.9128
  460MPD2    H1 6852   0.545   3.446  10.272 -1.0626 -1.1822  0.1705
  460MPD2    H2 6853   0.810   3.312  10.568  0.6356  0.4266 -2.4272
  460MPD2    H3 6854   0.766   3.364  10.324  0.5341  0.7907  0.1683
  460MPD2     N 6855   0.317   3.409  10.410 -0.3352 -0.3580 -0.2403
  460MPD2    H5 6856   0.245   3.393  10.481  0.2323  0.8682  0.6151
  460MPD2    N1 6857   0.640   3.307  10.755 -0.1593 -0.4926 -0.5801
  460MPD2    H7 6858   0.734   3.287  10.787  0.0521  0.4334 -0.5973
  461TMC3    C1 6859   0.140   3.465  10.273  0.2854  0.2883  0.1089
  461TMC3    C2 6860   0.079   3.342  10.248  0.2477  0.3188  0.1252
  461TMC3    C3 6861   4.713   3.330  10.148 -0.2359 -0.0004  0.4604
  461TMC3    C4 6862   0.112   3.568  10.191 -0.0904 -0.0932  1.1659
  461TMC3    C5 6863   0.022   3.551  10.082  0.8509  0.0634  0.1817
  461TMC3    C6 6864   4.689   3.427  10.062 -0.6600  0.3164 -0.0884
  461TMC3     C 6865   0.282   3.463  10.291  0.1485  0.0761 -0.9782
  461TMC3     O 6866   0.354   3.508  10.199  0.1841 -0.5678 -0.2941
  461TMC3     H 6867   0.114   3.262  10.312 -0.1005  0.4454  0.4811
  461TMC3    H1 6868   0.172   3.658  10.201  2.3258 -1.4824 -1.1108
  461TMC3    H2 6869   4.641   3.411   9.966 -1.2190 -4.3823  1.0039
  461TMC3    C7 6870   4.706   3.653   9.990  0.2748  0.4050  0.2564
  461TMC3    C8 6871   4.687   3.196  10.101  0.4243  0.1936 -0.5859
  461TMC3    O1 6872   4.627   3.623   9.901  0.0486 -0.1717 -0.2971
  461TMC3    O2 6873   0.042   3.116  10.151 -0.3821  0.2796 -0.3631
  462TMC3    C1 6874   0.699   4.688   0.047 -0.2442  0.7011  0.5591
  462TMC3    C2 6875   0.748   4.626  17.644 -0.2436 -0.4834  0.1283
  462TMC3    C3 6876   0.786   4.495  17.658  0.3173 -0.3805 -0.0063
  462TMC3    C4 6877   0.681   4.635   0.166  0.0636 -0.1640  0.2924
  462TMC3    C5 6878   0.719   4.503   0.178  0.0098  0.2687 -0.1756
  462TMC3    C6 6879   0.782   4.436   0.074 -0.7004  0.0877  0.4957
  462TMC3     C 6880   0.692   0.099   0.031 -0.1038 -0.4185 -0.3907
  462TMC3     O 6881   0.610   0.161   0.098 -0.5280 -0.1587  0.0032
  462TMC3     H 6882   0.752   4.674  17.547 -0.2723 -0.4349  0.1508
  462TMC3    H1 6883   0.660   4.691   0.256  2.8048 -0.2060  0.9861
  462TMC3    H2 6884   0.797   4.329   0.085 -0.0430  0.2525  1.1646
  462TMC3    C7 6885   0.653   4.423   0.279  0.3462 -0.2477  0.0158
  462TMC3    C8 6886   0.766   4.422  17.530  0.6841  0.4315  1.1183
  462TMC3    O1 6887   0.710   4.320   0.310 -0.3793  0.0841  0.3454
  462TMC3    O2 6888   0.706   4.477  17.440  0.1599 -0.1331 -0.5410
  463MPD2     C 6889   1.365   2.351   1.369 -0.1332  0.1272  0.0558
  463MPD2    C1 6890   1.282   2.454   1.333  0.1433  0.0021 -0.6082
  463MPD2    C2 6891   1.336   2.548   1.247 -0.4085  0.0335 -0.1166
  463MPD2    C3 6892   1.464   2.541   1.194 -0.6154  0.2846 -0.5653
  463MPD2    C4 6893   1.542   2.431   1.229 -0.2433  0.4975 -0.4531
  463MPD2    C5 6894   1.489   2.336   1.318 -0.8109 -0.3563 -0.3090
  463MPD2     H 6895   1.268   2.632   1.231  1.3276  1.4174 -0.2002
  463MPD2    H1 6896   1.637   2.408   1.184 -0.2037  0.1749 -0.2002
  463MPD2    H2 6897   1.329   2.275   1.437 -0.1969 -0.4971 -0.6760
  463MPD2    H3 6898   1.551   2.256   1.354 -1.8060 -0.5570  0.9743
  463MPD2     N 6899   1.526   2.624   1.097 -0.3640  0.0510 -0.3589
  463MPD2    H5 6900   1.622   2.604   1.071 -1.1613 -1.9027 -1.7708
  463MPD2    N1 6901   1.153   2.484   1.394 -0.3432 -0.0925  0.1031
  463MPD2    H7 6902   1.096   2.554   1.347  0.7964 -0.2190 -1.4471
  464TMC3    C1 6903   0.965   2.474   1.533  0.0412  0.8212 -0.4165
  464TMC3    C2 6904   0.911   2.577   1.456  0.7773  0.1788  0.4585
  464TMC3    C3 6905   0.800   2.643   1.500 -0.0116 -1.0150  0.0473
  464TMC3    C4 6906   0.899   2.441   1.646  0.2109  0.3493  0.5742
  464TMC3    C5 6907   0.783   2.503   1.689  0.1667  0.2802 -0.0217
  464TMC3    C6 6908   0.735   2.610   1.618  0.5847 -0.4765 -0.5183
  464TMC3     C 6909   1.092   2.424   1.505 -0.5956  0.4167 -0.0992
  464TMC3     O 6910   1.136   2.335   1.582 -0.2347 -0.0617  0.3753
  464TMC3     H 6911   0.951   2.603   1.358 -2.8134  0.1198 -1.0131
  464TMC3    H1 6912   0.931   2.363   1.714  0.0897  0.0319  0.2656
  464TMC3    H2 6913   0.641   2.659   1.643  1.6027  0.4907  1.4076
  464TMC3    C7 6914   0.685   2.447   1.790  0.0454 -0.3115 -0.8365
  464TMC3    C8 6915   0.759   2.758   1.422 -0.3519  0.1146 -0.4679
  464TMC3    O1 6916   0.607   2.519   1.843 -0.2393 -0.0236 -0.4537
  464TMC3    O2 6917   0.829   2.783   1.321  0.3517  0.7392 -0.0562
  465MPD2     C 6918   3.159   1.921  16.388  0.2607 -0.3642 -0.3930
  465MPD2    C1 6919   3.111   2.048  16.424 -0.2067  0.0053  0.5950
  465MPD2    C2 6920   3.045   2.122  16.323 -0.1700 -0.0954 -1.1290
  465MPD2    C3 6921   3.024   2.070  16.199 -0.0360 -0.7064  0.7396
  465MPD2    C4 6922   3.079   1.946  16.161 -0.4849 -0.8828  0.5800
  465MPD2    C5 6923   3.142   1.870  16.258  0.3035  0.0869  0.7048
  465MPD2     H 6924   2.994   2.215  16.344 -0.2084 -0.9599  2.5107
  465MPD2    H1 6925   3.067   1.903  16.062  1.1013  0.4262 -0.1796
  465MPD2    H2 6926   3.220   1.860  16.454 -1.3558 -1.8272 -0.2496
  465MPD2    H3 6927   3.185   1.777  16.222  0.1823  0.1067  0.5080
  465MPD2     N 6928   2.956   2.151  16.105 -0.2032 -0.6814  0.5465
  465MPD2    H5 6929   2.936   2.247  16.130  0.2322  0.0115 -1.7814
  465MPD2    N1 6930   3.131   2.108  16.548 -0.3821  0.2183  0.3806
  465MPD2    H7 6931   3.097   2.202  16.566 -0.2031  0.0140  1.7403
  466TMC3    C1 6932   2.629   2.276  15.824 -0.4273  0.4175  0.1271
  466TMC3    C2 6933   2.627   2.397  15.884 -0.1005  0.1736  0.1542
  466TMC3    C3 6934   2.743   2.445  15.946  0.5380  0.0506 -0.7379
  466TMC3    C4 6935   2.742   2.195  15.835 -0.0896  0.5141 -0.3219
  466TMC3    C5 6936   2.850   2.232  15.911 -0.5030  0.5910 -0.0052
  466TMC3    C6 6937   2.848   2.359  15.967  0.5576  0.7054 -0.8345
  466TMC3     C 6938   2.518   2.199  15.872 -0.1230 -0.4724  0.5206
  466TMC3     O 6939   2.546   2.108  15.952  0.1168  0.7782  0.0876
  466TMC3     H 6940   2.537   2.457  15.872  0.4827  0.6953 -1.5000
  466TMC3    H1 6941   2.729   2.096  15.793 -1.1225  0.0763  1.0620
  466TMC3    H2 6942   2.935   2.398  16.018  0.4283 -1.1439  0.7865
  466TMC3    C7 6943   2.927   2.128  15.970 -0.0946 -0.3314 -0.5748
  466TMC3    C8 6944   2.739   2.573  15.997  0.6927 -0.2789  0.1756
  466TMC3    O1 6945   2.956   2.033  15.903 -0.1049 -0.3179 -0.6982
  466TMC3    O2 6946   2.846   2.609  16.042  0.2237  0.1577  0.2358
  467TMC3    C1 6947   3.323   0.399  13.404  0.9346 -0.3454 -0.2220
  467TMC3    C2 6948   3.334   0.445  13.277 -0.7556 -0.3655 -0.2922
  467TMC3    C3 6949   3.275   0.389  13.165  1.0591  0.2904 -1.1305
  467TMC3    C4 6950   3.253   0.276  13.416 -0.3905 -0.1545 -0.2317
  467TMC3    C5 6951   3.194   0.228  13.310 -0.2449 -0.4883  0.5381
  467TMC3    C6 6952   3.200   0.276  13.187 -0.3623  0.2859  0.0788
  467TMC3     C 6953   3.431   0.428  13.496  0.2285 -0.1339  0.4069
  467TMC3     O 6954   3.468   0.341  13.575 -0.0850 -0.9841 -0.3400
  467TMC3     H 6955   3.390   0.537  13.265 -0.1174 -0.7626 -0.3740
  467TMC3    H1 6956   3.265   0.225  13.511  1.2277  2.4755  0.9812
  467TMC3    H2 6957   3.147   0.218  13.112 -0.0429 -0.3805  0.3601
  467TMC3    C7 6958   3.164   0.082  13.320  0.1049  0.0537 -0.1613
  467TMC3    C8 6959   3.254   0.482  13.052 -0.1989  0.4294  0.4540
  467TMC3    O1 6960   3.209   0.012  13.232  0.2440  0.5699  0.2292
  467TMC3    O2 6961   3.235   0.597  13.092  0.2812 -0.1557 -0.1564
  468MPD2     C 6962   2.288   3.149  10.954  0.4678  1.3479  0.4846
  468MPD2    C1 6963   2.416   3.122  11.001 -0.2818  0.2690  0.0538
  468MPD2    C2 6964   2.450   2.990  11.003  0.5981 -0.6809  0.4439
  468MPD2    C3 6965   2.371   2.887  10.953 -0.5272  0.0351  0.0178
  468MPD2    C4 6966   2.248   2.919  10.899 -0.6071 -0.0082 -0.2057
  468MPD2    C5 6967   2.212   3.049  10.901  0.6977 -0.4032 -0.2977
  468MPD2     H 6968   2.545   2.964  11.049  1.1630  0.2405 -0.1857
  468MPD2    H1 6969   2.183   2.842  10.857 -0.8266 -1.0749  2.0946
  468MPD2    H2 6970   2.240   3.245  10.946  1.1410  1.4367 -2.4352
  468MPD2    H3 6971   2.110   3.073  10.871 -0.3178 -2.8889  1.1430
  468MPD2     N 6972   2.412   2.757  10.952 -0.0681 -0.2723  0.0864
  468MPD2    H5 6973   2.340   2.690  10.927 -1.9431  1.8646 -0.1638
  468MPD2    N1 6974   2.512   3.208  11.058  0.3555  0.1460  0.0935
  468MPD2    H7 6975   2.599   3.161  11.081 -1.2329 -1.6104  2.6155
  469TMC3    C1 6976   2.604   3.423  11.124  0.8937  0.7718 -0.9854
  469TMC3    C2 6977   2.724   3.371  11.169 -0.1431 -0.3262 -0.7869
  469TMC3    C3 6978   2.828   3.462  11.200  0.1498  0.9435 -0.8640
  469TMC3    C4 6979   2.586   3.562  11.111 -0.2934 -0.3426  0.6603
  469TMC3    C5 6980   2.688   3.636  11.151 -0.1621  0.2625  0.3058
  469TMC3    C6 6981   2.815   3.592  11.183  0.5063  0.0400  0.5217
  469TMC3     C 6982   2.488   3.346  11.072 -0.6795  0.0652 -0.1390
  469TMC3     O 6983   2.390   3.407  11.027  0.2431 -0.5590  0.1190
  469TMC3     H 6984   2.737   3.265  11.186 -0.9605 -0.4907 -1.1862
  469TMC3    H1 6985   2.491   3.600  11.077  0.5386  0.2661 -0.9531
  469TMC3    H2 6986   2.906   3.651  11.187  1.4803 -1.4310  0.2853
  469TMC3    C7 6987   2.690   3.779  11.114  0.5765  0.3850 -0.0065
  469TMC3    C8 6988   2.957   3.395  11.216  0.2665  0.1652  0.5037
  469TMC3    O1 6989   2.606   3.815  11.033  0.0760  0.1191  0.2937
  469TMC3    O2 6990   2.968   3.283  11.164 -0.3510 -0.5458 -0.5980
  470TMC3    C1 6991   0.013   4.088   0.743  0.3643 -0.1367  0.5488
  470TMC3    C2 6992   4.702   4.216   0.729 -0.6099 -0.1452  0.5730
  470TMC3    C3 6993   0.073   4.308   0.738  0.0847 -0.9029 -0.2255
  470TMC3    C4 6994   0.145   4.044   0.762  0.1853 -0.2616  0.7009
  470TMC3    C5 6995   0.238   4.146   0.772 -0.7090 -0.2813  0.1532
  470TMC3    C6 6996   0.203   4.276   0.761 -0.4259 -0.6077 -0.8340
  470TMC3     C 6997   4.655   3.995   0.670  0.2218 -0.1449  0.1673
  470TMC3     O 6998   4.579   4.046   0.588 -0.3821  0.1883 -0.1305
  470TMC3     H 6999   4.599   4.245   0.713 -0.8068 -0.0484  2.0229
  470TMC3    H1 7000   0.185   3.944   0.757 -1.1328 -0.6944 -1.0522
  470TMC3    H2 7001   0.279   4.353   0.757 -1.9012  0.7815 -2.0358
  470TMC3    C7 7002   0.369   4.109   0.804  0.0354 -0.1611 -0.3581
  470TMC3    C8 7003   0.031   4.442   0.761 -0.1012 -0.4646  0.1723
  470TMC3    O1 7004   0.405   3.996   0.767  0.7096  0.6050 -0.5029
  470TMC3    O2 7005   0.116   4.511   0.815 -0.2085 -0.0441 -0.1574
  471MPD2     C 7006   0.432   0.768  16.741 -0.6783 -0.0788  0.0184
  471MPD2    C1 7007   0.521   0.668  16.714  0.2619  0.4320  0.2312
  471MPD2    C2 7008   0.572   0.612  16.827  0.5449  0.2908  0.5946
  471MPD2    C3 7009   0.550   0.653  16.955 -1.2340  0.4059 -0.0444
  471MPD2    C4 7010   0.468   0.753  16.977 -0.4975  0.4438  0.3449
  471MPD2    C5 7011   0.405   0.812  16.868  0.1250 -0.8129  0.0086
  471MPD2     H 7012   0.649   0.537  16.810 -0.6831 -0.5358 -1.3046
  471MPD2    H1 7013   0.453   0.787  17.079  0.0678 -1.3639  1.0239
  471MPD2    H2 7014   0.379   0.827  16.666 -1.5820  1.8247  2.1448
  471MPD2    H3 7015   0.345   0.900  16.887  1.6552  0.6393 -1.9740
  471MPD2     N 7016   0.611   0.587  17.063  0.1349  0.3125  0.2292
  471MPD2    H5 7017   0.579   0.607  17.157  1.2107 -0.1041  0.6882
  471MPD2    N1 7018   0.551   0.615  16.593  0.0016 -0.9107 -0.1866
  471MPD2    H7 7019   0.624   0.545  16.589  1.5183  0.6572  0.2753
  472TMC3    C1 7020   0.532   0.546  16.370  1.2256  0.3882  0.5476
  472TMC3    C2 7021   0.516   0.589  16.244  0.4504  0.4183  0.8358
  472TMC3    C3 7022   0.559   0.521  16.136 -0.1534  0.1605  0.1665
  472TMC3    C4 7023   0.602   0.433  16.397 -0.4499  0.1006  0.0836
  472TMC3    C5 7024   0.648   0.363  16.288 -0.2328  0.2163  0.1379
  472TMC3    C6 7025   0.628   0.405  16.164  0.3721 -0.2448  0.3092
  472TMC3     C 7026   0.491   0.645  16.471  1.2394  0.8173  0.6900
  472TMC3     O 7027   0.416   0.734  16.439  0.2060 -0.7968  0.7703
  472TMC3     H 7028   0.463   0.683  16.233 -0.6866 -0.2506  0.5903
  472TMC3    H1 7029   0.601   0.386  16.494 -1.5217 -2.2079 -1.0432
  472TMC3    H2 7030   0.659   0.353  16.074  2.0502  0.6445  0.3795
  472TMC3    C7 7031   0.668   0.225  16.317  0.6152 -0.3987 -0.8733
  472TMC3    C8 7032   0.452   0.488  16.042  0.3566 -0.7376 -0.3419
  472TMC3    O1 7033   0.703   0.195  16.430  0.0283 -0.1982  0.5169
  472TMC3    O2 7034   0.445   0.548  15.936 -0.1431  0.7289 -0.1918
  473MPD2     C 7035   0.011   2.495  13.966 -0.0590  0.1363 -0.3228
  473MPD2    C1 7036   0.008   2.620  13.913  1.0022 -0.3575 -0.0895
  473MPD2    C2 7037   0.044   2.727  13.990 -0.5244  0.2949 -0.1539
  473MPD2    C3 7038   0.097   2.710  14.120 -0.1900 -0.4869 -0.0713
  473MPD2    C4 7039   0.096   2.583  14.172 -0.0733  0.6868  0.4785
  473MPD2    C5 7040   0.051   2.480  14.098 -0.0548  1.0031 -0.2765
  473MPD2     H 7041   0.037   2.827  13.949 -0.8713  0.3785  0.1131
  473MPD2    H1 7042   0.150   2.548  14.260 -1.7666 -1.5516  0.6402
  473MPD2    H2 7043   4.701   2.405  13.918  0.2837 -0.5223  0.6521
  473MPD2    H3 7044   0.059   2.379  14.135 -1.6449  1.8119  2.2590
  473MPD2     N 7045   0.148   2.809  14.203  0.2123 -0.3002 -0.0676
  473MPD2    H5 7046   0.182   2.771  14.290  2.1691 -0.5819 -0.9534
  473MPD2    N1 7047   4.686   2.647  13.786  0.7716  0.3326 -0.3102
  473MPD2    H7 7048   4.708   2.735  13.741  1.1985 -0.8351 -2.4194
  474TMC3    C1 7049   0.177   3.037  14.294 -0.4692 -0.0169  0.2948
  474TMC3    C2 7050   0.131   3.167  14.291  0.3600 -0.5505  0.6729
  474TMC3    C3 7051   0.163   3.250  14.395  0.5356 -0.1516 -1.2726
  474TMC3    C4 7052   0.256   2.996  14.393  0.6714 -0.1201 -0.4296
  474TMC3    C5 7053   0.284   3.085  14.497  0.3173  0.0924  0.1952
  474TMC3    C6 7054   0.227   3.210  14.500 -0.2380  0.7217  0.5338
  474TMC3     C 7055   0.133   2.947  14.192  0.0189  0.9202 -0.6583
  474TMC3     O 7056   0.057   2.998  14.109 -0.3895  0.1969 -1.0305
  474TMC3     H 7057   0.083   3.215  14.206  2.2335 -3.1264 -1.8359
  474TMC3    H1 7058   0.306   2.901  14.382  0.8714 -0.0047 -0.5023
  474TMC3    H2 7059   0.266   3.278  14.574 -0.6379  0.9595  0.5234
  474TMC3    C7 7060   0.395   3.067  14.590  0.1038  0.4530  0.7094
  474TMC3    C8 7061   0.131   3.390  14.375 -0.3489 -0.3509 -0.5466
  474TMC3    O1 7062   0.383   3.122  14.699  0.2289  0.3951  0.2144
  474TMC3    O2 7063   0.191   3.469  14.450  0.3986 -0.2806 -0.6707
  475MPD2     C 7064   3.628   0.710  10.334 -0.6538 -0.0730  0.0293
  475MPD2    C1 7065   3.690   0.835  10.297  0.2613  0.3128  0.0492
  475MPD2    C2 7066   3.641   0.955  10.344 -0.3472 -0.4668 -0.6383
  475MPD2    C3 7067   3.527   0.948  10.428  0.2467 -0.8890 -0.0672
  475MPD2    C4 7068   3.461   0.834  10.453 -0.4778 -0.2034  0.1920
  475MPD2    C5 7069   3.514   0.716  10.411  0.2095  0.3637  0.5413
  475MPD2     H 7070   3.690   1.044  10.306  0.2005 -0.0310  1.0735
  475MPD2    H1 7071   3.378   0.831  10.522 -0.8504 -0.9318 -0.2914
  475MPD2    H2 7072   3.673   0.615  10.307  1.7697  0.8293  0.8648
  475MPD2    H3 7073   3.468   0.622  10.437  0.6785  0.0881  0.3783
  475MPD2     N 7074   3.468   1.067  10.480 -0.5284 -0.0960 -0.0237
  475MPD2    H5 7075   3.370   1.063  10.508 -0.6450  1.6460 -0.2194
  475MPD2    N1 7076   3.802   0.827  10.206 -0.0189 -0.4800  0.3744
  475MPD2    H7 7077   3.815   0.740  10.155 -2.2718 -2.2162  2.7684
  476TMC3    C1 7078   3.959   0.922  10.047 -0.0014 -0.3081  0.9426
  476TMC3    C2 7079   3.888   0.895   9.941 -0.3861 -0.2453  0.2119
  476TMC3    C3 7080   3.924   0.959   9.825 -0.1504  0.3841  0.3160
  476TMC3    C4 7081   4.060   1.012  10.044 -0.3707  0.0236 -0.3380
  476TMC3    C5 7082   4.092   1.081   9.931  0.2853  1.1218  0.9231
  476TMC3    C6 7083   4.027   1.047   9.807  0.1799 -0.0405 -0.2276
  476TMC3     C 7084   3.890   0.927  10.178 -0.8748 -0.4206  0.1319
  476TMC3     O 7085   3.912   1.033  10.240 -0.1241 -0.2889 -0.1896
  476TMC3     H 7086   3.800   0.834   9.959 -0.2816 -0.4972 -0.1195
  476TMC3    H1 7087   4.113   1.030  10.137 -1.2599 -3.0786  0.7520
  476TMC3    H2 7088   4.051   1.096   9.713  1.3435 -1.3578 -0.6103
  476TMC3    C7 7089   4.203   1.178   9.926  0.0083  0.5296 -0.9788
  476TMC3    C8 7090   3.810   0.986   9.739  0.3885  0.3325  0.5055
  476TMC3    O1 7091   4.243   1.213   9.817 -0.2193 -0.7875  0.1545
  476TMC3    O2 7092   3.778   1.103   9.723  0.3615  0.6511  0.2694
  477MPD2     C 7093   0.831   2.449  11.597  0.3734  0.1729 -0.4485
  477MPD2    C1 7094   0.818   2.545  11.693 -0.2330 -0.5080  0.2206
  477MPD2    C2 7095   0.866   2.514  11.822 -0.1120 -0.1513 -0.3460
  477MPD2    C3 7096   0.925   2.389  11.849  0.0035 -0.4672  0.0756
  477MPD2    C4 7097   0.944   2.303  11.741 -0.0644 -0.1150  0.5817
  477MPD2    C5 7098   0.903   2.337  11.620  0.5491  0.5237  0.4995
  477MPD2     H 7099   0.863   2.586  11.903  0.5072  0.5864 -0.9808
  477MPD2    H1 7100   0.976   2.201  11.759  1.6181  1.0520  4.1226
  477MPD2    H2 7101   0.805   2.474  11.494  0.7556  0.8643 -0.3774
  477MPD2    H3 7102   0.932   2.270  11.539  0.2545  3.3362 -1.9131
  477MPD2     N 7103   0.968   2.360  11.973  0.2417 -0.2526 -0.1158
  477MPD2    H5 7104   0.951   2.428  12.046 -1.8455 -2.3752  1.3886
  477MPD2    N1 7105   0.777   2.678  11.653  0.0329  0.2420  0.1837
  477MPD2    H7 7106   0.756   2.695  11.556 -1.0830 -1.8506  0.0634
  478TMC3    C1 7107   0.760   2.918  11.657  0.1242 -0.3937  0.3480
  478TMC3    C2 7108   0.801   3.034  11.726 -0.7717 -0.6423  0.1320
  478TMC3    C3 7109   0.835   3.138  11.655  0.0784  0.0131 -0.0650
  478TMC3    C4 7110   0.738   2.916  11.518  0.2200 -0.1500  0.0458
  478TMC3    C5 7111   0.773   3.028  11.449  0.5679  0.5199 -0.1342
  478TMC3    C6 7112   0.822   3.136  11.515 -0.2571  0.4465  0.4420
  478TMC3     C 7113   0.777   2.790  11.729  0.7845  0.3464 -0.0191
  478TMC3     O 7114   0.789   2.802  11.850  0.2491 -0.0826 -0.2509
  478TMC3     H 7115   0.809   3.036  11.834 -0.2123  0.1189  0.0750
  478TMC3    H1 7116   0.706   2.829  11.463  0.8890  0.2690 -0.9974
  478TMC3    H2 7117   0.879   3.208  11.458 -0.8889 -0.2856 -1.1057
  478TMC3    C7 7118   0.786   3.028  11.302 -0.3692 -0.4470 -0.2884
  478TMC3    C8 7119   0.828   3.267  11.726  0.2799  0.2097 -0.4664
  478TMC3    O1 7120   0.881   3.091  11.257 -0.6082 -0.7670  0.2057
  478TMC3    O2 7121   0.856   3.272  11.844  0.6729 -0.2471 -0.1602
  479MPD2     C 7122   0.219   0.051  15.149  0.4630 -0.0428  0.1794
  479MPD2    C1 7123   0.178   4.696  15.247 -0.8123  0.2199  0.1829
  479MPD2    C2 7124   0.245   4.699  15.368  0.7327  0.3248  0.4895
  479MPD2    C3 7125   0.355   0.061  15.380  0.2094 -0.0250  0.2488
  479MPD2    C4 7126   0.402   0.136  15.276  0.2693 -0.1432 -0.3777
  479MPD2    C5 7127   0.329   0.132  15.157 -1.0680 -0.2166  0.2388
  479MPD2     H 7128   0.224   4.629  15.448 -1.7371  0.9175  0.3658
  479MPD2    H1 7129   0.496   0.189  15.282  0.0972  0.1269 -0.0674
  479MPD2    H2 7130   0.159   0.060  15.060 -0.0987  2.4172  0.7968
  479MPD2    H3 7131   0.362   0.186  15.069 -0.8253 -1.5875 -0.5247
  479MPD2     N 7132   0.432   0.068  15.509  0.1920 -0.1411 -0.0959
  479MPD2    H5 7133   0.529   0.099  15.501  0.0206  0.2845 -0.5203
  479MPD2    N1 7134   0.051   4.629  15.219 -0.0944 -0.3055  0.0838
  479MPD2    H7 7135   0.009   4.643  15.127 -0.5060  0.9116  0.4460
  480TMC3    C1 7136   0.085   4.642  15.807  0.4194 -0.4806 -0.0330
  480TMC3    C2 7137   4.717   4.706  15.735 -0.2518  0.0610  0.7219
  480TMC3    C3 7138   0.033   0.073  15.644  0.0024 -0.6967 -0.1103
  480TMC3    C4 7139   0.219   4.651  15.768 -0.6391  0.0501  0.1411
  480TMC3    C5 7140   0.253   0.012  15.666  0.3100  0.2774 -0.3330
  480TMC3    C6 7141   0.165   0.096  15.604 -0.3477 -0.1459 -0.3877
  480TMC3     C 7142   0.056   4.529  15.894 -1.4393 -0.2346  0.3587
  480TMC3     O 7143   0.152   4.479  15.950 -0.0031  0.4270  0.6325
  480TMC3     H 7144   4.612   4.692  15.759  0.2273  0.5064  3.0107
  480TMC3    H1 7145   0.299   4.587  15.804  0.9835  1.1702 -1.5131
  480TMC3    H2 7146   0.188   0.181  15.539 -1.2459  0.1750 -0.2811
  480TMC3    C7 7147   0.396   0.020  15.636 -0.2761 -0.4199  0.8646
  480TMC3    C8 7148   4.652   0.128  15.556  0.6910  0.8616  0.1735
  480TMC3    O1 7149   0.480   4.705  15.717 -0.0167  0.0077 -0.3635
  480TMC3    O2 7150   4.537   0.127  15.594 -0.4872  0.4840  0.1832
  481MPD2     C 7151   1.556   4.326  14.295 -0.5739 -0.1439  0.2180
  481MPD2    C1 7152   1.499   4.201  14.296  0.6651  0.2203  0.2520
  481MPD2    C2 7153   1.527   4.113  14.402 -0.0979  0.1168  0.2124
  481MPD2    C3 7154   1.604   4.159  14.514 -1.0634  0.3408 -0.1994
  481MPD2    C4 7155   1.655   4.286  14.512 -0.9799 -0.2905 -0.5313
  481MPD2    C5 7156   1.637   4.361  14.398 -0.1517 -0.2317  0.7966
  481MPD2     H 7157   1.485   4.013  14.405 -0.3774  0.1909 -1.2904
  481MPD2    H1 7158   1.714   4.331  14.592  0.4878  0.4139 -2.0173
  481MPD2    H2 7159   1.527   4.400  14.222  1.1497 -0.8193 -1.1456
  481MPD2    H3 7160   1.666   4.466  14.399 -2.9126  0.5107  3.0618
  481MPD2     N 7161   1.624   4.085  14.638  0.0754 -0.3792 -0.3910
  481MPD2    H5 7162   1.694   4.121  14.702 -0.8054  0.5458  0.0546
  481MPD2    N1 7163   1.421   4.161  14.186 -0.2897 -0.4389  0.0899
  481MPD2    H7 7164   1.397   4.232  14.118  0.3450  2.0610  2.5089
  482TMC3    C1 7165   1.331   4.026  14.014 -0.3915  1.2063 -0.8874
  482TMC3    C2 7166   1.377   3.934  13.926  0.3612  0.5502  0.2876
  482TMC3    C3 7167   1.323   3.938  13.802  0.5108 -0.6368 -0.9489
  482TMC3    C4 7168   1.236   4.124  13.984  0.5605  0.0306 -0.1897
  482TMC3    C5 7169   1.184   4.123  13.856 -0.8550 -0.2386 -0.4807
  482TMC3    C6 7170   1.232   4.033  13.759  0.8752 -0.0303  0.4803
  482TMC3     C 7171   1.398   4.028  14.146  0.1433  0.0297  0.4192
  482TMC3     O 7172   1.457   3.926  14.180  0.3372 -0.1853  0.2403
  482TMC3     H 7173   1.459   3.867  13.949  0.5034  0.9253  0.8771
  482TMC3    H1 7174   1.201   4.197  14.055 -1.4214 -0.4498 -0.6612
  482TMC3    H2 7175   1.186   4.033  13.661 -0.7783  2.6781  1.2247
  482TMC3    C7 7176   1.047   4.178  13.838  0.2542 -0.4349 -0.3710
  482TMC3    C8 7177   1.393   3.857  13.706 -0.0564  0.5875 -0.0409
  482TMC3    O1 7178   0.988   4.198  13.947  0.1327 -0.2587  0.0709
  482TMC3    O2 7179   1.445   3.750  13.738  0.4446  0.0865 -0.4257
  483TMC3    C1 7180   4.724   3.112   1.318  0.5844  0.5955 -0.2303
  483TMC3    C2 7181   0.052   3.215   1.247 -0.8022  0.2361 -0.1584
  483TMC3    C3 7182   0.188   3.207   1.217 -0.0063  0.9143 -0.5762
  483TMC3    C4 7183   0.074   3.004   1.334  0.0745  0.4142  0.0668
  483TMC3    C5 7184   0.201   3.004   1.297  0.1220 -0.3644 -0.3618
  483TMC3    C6 7185   0.264   3.101   1.229 -0.6070 -0.6863  0.5832
  483TMC3     C 7186   4.592   3.093   1.255 -0.2200  0.4304 -0.6440
  483TMC3     O 7187   4.530   3.197   1.255 -0.1607  0.2721  0.0003
  483TMC3     H 7188   4.726   3.309   1.233 -0.4572  0.6692  1.4736
  483TMC3    H1 7189   0.040   2.913   1.382  0.3092  0.2718 -0.0347
  483TMC3    H2 7190   0.351   3.086   1.165 -0.9458  0.0884 -0.0577
  483TMC3    C7 7191   0.272   2.889   1.337  0.0669  0.1308 -0.2277
  483TMC3    C8 7192   0.231   3.305   1.122  0.5594 -0.9162 -0.4661
  483TMC3    O1 7193   0.342   2.836   1.254  0.1729  0.2948 -0.4640
  483TMC3    O2 7194   0.234   3.276   1.003  0.3280  0.3836 -0.1158
  484MPD2     C 7195   2.373   1.634  12.690 -0.2558 -0.0994  0.1999
  484MPD2    C1 7196   2.344   1.507  12.649  1.3839  0.2790 -0.1353
  484MPD2    C2 7197   2.442   1.440  12.585  0.5249 -0.5125 -0.1222
  484MPD2    C3 7198   2.562   1.491  12.559 -0.2804  0.1492 -0.2827
  484MPD2    C4 7199   2.599   1.617  12.607 -0.1664 -0.7276 -0.9356
  484MPD2    C5 7200   2.500   1.694  12.664  0.3541 -0.4469 -0.4444
  484MPD2     H 7201   2.418   1.340  12.551  1.7910 -1.2370  1.0951
  484MPD2    H1 7202   2.701   1.654  12.609 -0.7841  1.0499 -2.4199
  484MPD2    H2 7203   2.300   1.694  12.743  0.6069  1.4314 -0.3350
  484MPD2    H3 7204   2.530   1.791  12.704 -1.5338 -0.5993  1.2958
  484MPD2     N 7205   2.660   1.401  12.508 -0.5699 -0.1498  0.3777
  484MPD2    H5 7206   2.634   1.303  12.505  0.7821 -0.5311  1.1506
  484MPD2    N1 7207   2.207   1.456  12.662 -0.1114 -0.1140  0.1670
  484MPD2    H7 7208   2.148   1.489  12.738  0.8327 -0.2048  0.9346
  485TMC3    C1 7209   2.877   1.332  12.404 -0.6150  0.3965 -0.1031
  485TMC3    C2 7210   2.867   1.201  12.447  0.0530  0.1808  0.3145
  485TMC3    C3 7211   2.978   1.123  12.418 -0.4470  0.6037 -0.2203
  485TMC3    C4 7212   2.987   1.385  12.333  0.4439  0.3678  0.0291
  485TMC3    C5 7213   3.093   1.302  12.298 -0.1270  0.0532 -0.1211
  485TMC3    C6 7214   3.082   1.169  12.341 -0.1373  0.2687 -0.4084
  485TMC3     C 7215   2.787   1.434  12.465 -0.5491  0.2777 -0.7391
  485TMC3     O 7216   2.835   1.544  12.447 -0.1076 -0.1290 -0.0376
  485TMC3     H 7217   2.771   1.167  12.484 -0.1309  0.9920  0.5752
  485TMC3    H1 7218   2.991   1.485  12.292 -0.5255 -0.4171 -1.9593
  485TMC3    H2 7219   3.167   1.103  12.338 -0.3779  0.0650 -2.7905
  485TMC3    C7 7220   3.144   1.305  12.167 -0.0616 -0.3598  0.2053
  485TMC3    C8 7221   2.951   0.986  12.378  0.2809 -0.1701  0.3604
  485TMC3    O1 7222   3.180   1.406  12.105 -0.1338  0.2596  0.6429
  485TMC3    O2 7223   2.994   0.964  12.263  0.0153 -0.0576 -0.1258
  486MPD2     C 7224   4.334   0.062  12.810 -0.7166  0.7502 -0.1651
  486MPD2    C1 7225   4.393   0.133  12.715 -0.0652  0.8690 -0.6073
  486MPD2    C2 7226   4.423   0.265  12.742 -0.4143 -0.5173  0.8468
  486MPD2    C3 7227   4.394   0.328  12.864 -0.0360 -0.3479  0.3636
  486MPD2    C4 7228   4.348   0.248  12.961  0.4083  0.0891  0.3163
  486MPD2    C5 7229   4.311   0.118  12.936  0.4682 -0.1067 -0.1759
  486MPD2     H 7230   4.468   0.321  12.661 -2.2815 -0.3933 -0.0980
  486MPD2    H1 7231   4.311   0.288  13.055 -1.1381 -0.0204 -0.2538
  486MPD2    H2 7232   4.307   4.685  12.792 -3.7491  1.4442  0.3213
  486MPD2    H3 7233   4.258   0.064  13.013  1.4194 -1.9474 -0.8047
  486MPD2     N 7234   4.422   0.463  12.882  0.3340 -0.3872  0.2524
  486MPD2    H5 7235   4.458   0.502  12.795  0.4925 -0.3585  0.3314
  486MPD2    N1 7236   4.418   0.067  12.594 -1.0048  0.5133 -0.3702
  486MPD2    H7 7237   4.371   4.704  12.581  0.5677 -0.4203  0.3697
  487TMC3    C1 7238   4.518   4.726  12.392  0.2404  0.0273 -0.0097
  487TMC3    C2 7239   4.428   4.623  12.408  0.2703 -0.4062 -0.3998
  487TMC3    C3 7240   4.474   4.497  12.424  0.2091 -0.0656 -0.5115
  487TMC3    C4 7241   4.654   4.710  12.382 -0.4405  0.1429 -0.0157
  487TMC3    C5 7242   4.705   4.580  12.403 -0.2277 -0.9250 -0.6508
  487TMC3    C6 7243   4.613   4.477  12.433 -0.0490  0.3542 -0.0723
  487TMC3     C 7244   4.495   0.107  12.493 -0.1891 -0.3846 -0.2737
  487TMC3     O 7245   4.566   0.200  12.486 -0.3978  0.3386  0.3587
  487TMC3     H 7246   4.322   4.646  12.401  0.3392  0.2538  0.8041
  487TMC3    H1 7247   4.706   0.078  12.379  1.9996 -1.1717  1.3373
  487TMC3    H2 7248   4.656   4.378  12.418  0.8296  0.5805  0.9501
  487TMC3    C7 7249   0.113   4.578  12.465 -0.1772  0.6656  0.1959
  487TMC3    C8 7250   4.401   4.424  12.539 -0.1539 -0.6399 -0.4948
  487TMC3    O1 7251   0.173   4.683  12.452  0.0122 -0.1255  0.8392
  487TMC3    O2 7252   4.329   4.493  12.604 -0.1065 -0.8023  0.5271
  488MPD2     C 7253   4.289   1.558  16.397 -0.4335  0.0501  0.4080
  488MPD2    C1 7254   4.378   1.642  16.466 -1.7308  0.2649  0.1731
  488MPD2    C2 7255   4.403   1.630  16.599 -0.4048 -0.1200  0.0939
  488MPD2    C3 7256   4.328   1.540  16.668 -0.0059  0.3661 -0.9139
  488MPD2    C4 7257   4.235   1.458  16.607  0.7421 -0.2363 -0.0221
  488MPD2    C5 7258   4.214   1.468  16.472  0.0608  0.0071 -0.4897
  488MPD2     H 7259   4.482   1.687  16.646  0.6567 -0.5633 -1.1529
  488MPD2    H1 7260   4.182   1.383  16.664 -1.0886  1.5637  0.6509
  488MPD2    H2 7261   4.279   1.569  16.290 -1.7306  0.5250  0.5793
  488MPD2    H3 7262   4.146   1.395  16.430 -1.4029  0.4017  1.1646
  488MPD2     N 7263   4.361   1.514  16.799  0.2621 -0.1216 -0.3961
  488MPD2    H5 7264   4.428   1.583  16.832 -0.2936  0.3085 -0.1560
  488MPD2    N1 7265   4.464   1.735  16.406  0.0629  0.4160 -0.1711
  488MPD2    H7 7266   4.515   1.785  16.479  1.4271 -0.9148 -0.2327
  489TMC3    C1 7267   4.364   1.443  17.026 -0.5363  0.4751 -0.2057
  489TMC3    C2 7268   4.441   1.556  17.060 -0.1330  0.5084 -0.0825
  489TMC3    C3 7269   4.454   1.585  17.189 -0.1609  0.8264 -0.8814
  489TMC3    C4 7270   4.312   1.361  17.124 -0.0635 -0.6151  0.4917
  489TMC3    C5 7271   4.327   1.402  17.253  0.5738  0.4802  0.0014
  489TMC3    C6 7272   4.409   1.508  17.286 -0.1010  0.4204  0.5675
  489TMC3     C 7273   4.312   1.417  16.888 -0.5066  0.1164  0.0127
  489TMC3     O 7274   4.246   1.314  16.875 -0.3135 -0.3899  0.4278
  489TMC3     H 7275   4.483   1.621  16.985 -1.0724  1.0350 -0.1574
  489TMC3    H1 7276   4.257   1.273  17.095 -0.1629 -0.3913 -0.0061
  489TMC3    H2 7277   4.433   1.519  17.391  1.3481  0.3686  0.2396
  489TMC3    C7 7278   4.302   1.296  17.348  0.5080  0.5887 -0.2684
  489TMC3    C8 7279   4.513   1.716  17.217 -0.3291 -0.8492  0.4499
  489TMC3    O1 7280   4.372   1.294  17.446  0.4492 -1.2565 -0.0425
  489TMC3    O2 7281   4.609   1.753  17.150 -0.2103  0.1713 -0.0121
  490MPD2     C 7282   0.593   1.511  17.393 -0.3309 -0.5193 -0.2993
  490MPD2    C1 7283   0.553   1.441  17.504 -0.4008 -0.7082 -0.2981
  490MPD2    C2 7284   0.625   1.453  17.620  0.2454  0.5428 -0.7087
  490MPD2    C3 7285   0.733   1.538  17.629 -0.5093  0.3626  0.5201
  490MPD2    C4 7286   0.756   1.618  17.519  0.4841 -0.2372 -0.5211
  490MPD2    C5 7287   0.694   1.603  17.405 -0.0303  0.6693  0.1893
  490MPD2     H 7288   0.597   1.407   0.006  2.3827 -1.9995 -1.3239
  490MPD2    H1 7289   0.838   1.689  17.519  0.3053 -0.0302 -1.5338
  490MPD2    H2 7290   0.540   1.480  17.303 -0.6104 -1.1867  0.0956
  490MPD2    H3 7291   0.727   1.667  17.323 -0.1687  1.3412  0.6518
  490MPD2     N 7292   0.831   1.548   0.027  0.0964  0.1382  0.9237
  490MPD2    H5 7293   0.907   1.614   0.013  1.6147 -1.7236  0.2747
  490MPD2    N1 7294   0.446   1.344  17.511 -0.5536  0.2050 -0.5726
  490MPD2    H7 7295   0.456   1.287  17.595  2.0976  1.4374 -0.0636
  491TMC3    C1 7296   0.309   1.166  17.413 -1.0858 -0.0214 -0.0412
  491TMC3    C2 7297   0.340   1.087  17.516 -0.5357 -0.3943 -0.2327
  491TMC3    C3 7298   0.324   0.952  17.508 -0.4151  0.7639 -0.1576
  491TMC3    C4 7299   0.251   1.120  17.298 -0.3388  0.4691  0.0292
  491TMC3    C5 7300   0.234   0.981  17.292  0.5710  0.0909  0.5170
  491TMC3    C6 7301   0.270   0.898  17.394 -0.2165 -0.0537  0.3742
  491TMC3     C 7302   0.359   1.304  17.409  0.3842  0.5982 -0.1044
  491TMC3     O 7303   0.337   1.362  17.307 -0.2439 -0.1207 -0.0396
  491TMC3     H 7304   0.365   1.133  17.611  0.1921 -0.9723 -0.1364
  491TMC3    H1 7305   0.236   1.188  17.215 -0.9716 -1.0849 -1.1346
  491TMC3    H2 7306   0.248   0.792  17.382 -1.1161  0.0018  1.5937
  491TMC3    C7 7307   0.180   0.925  17.170 -0.2471 -0.6761  0.2381
  491TMC3    C8 7308   0.300   0.875  17.629 -0.0302 -0.1457 -0.1431
  491TMC3    O1 7309   0.188   0.803  17.162 -0.1865  0.4519  0.3020
  491TMC3    O2 7310   0.295   0.934   0.023  0.3446  0.1158 -0.0533
  492MPD2     C 7311   1.113   1.460  11.334  0.0526  0.3179  0.0262
  492MPD2    C1 7312   1.040   1.350  11.288  0.1555  0.2431 -1.2638
  492MPD2    C2 7313   0.998   1.253  11.377 -0.4111  0.5061 -0.4156
  492MPD2    C3 7314   1.026   1.263  11.513 -0.1963  0.1842  0.1452
  492MPD2    C4 7315   1.092   1.376  11.559 -0.2379  0.3291 -0.6296
  492MPD2    C5 7316   1.134   1.472  11.472 -0.2793 -0.5010  0.4169
  492MPD2     H 7317   0.938   1.175  11.331  2.4799 -1.3674 -0.9565
  492MPD2    H1 7318   1.106   1.389  11.665  0.1530 -0.1840 -0.6141
  492MPD2    H2 7319   1.149   1.540  11.269 -0.9080  1.8465  1.3569
  492MPD2    H3 7320   1.180   1.566  11.500 -1.0995  1.1462 -3.7543
  492MPD2     N 7321   0.986   1.158  11.607 -0.6925 -0.6231 -0.1646
  492MPD2    H5 7322   1.019   1.177  11.701  0.4285 -0.1956 -0.6401
  492MPD2    N1 7323   1.035   1.339  11.147 -0.0995 -0.6462 -0.8071
  492MPD2    H7 7324   1.065   1.422  11.097  1.9940 -1.0551 -0.1977
  493TMC3    C1 7325   0.953   1.249  10.933 -0.3195  0.0612  0.7516
  493TMC3    C2 7326   1.061   1.306  10.867 -0.3061  0.9868  0.4394
  493TMC3    C3 7327   1.047   1.330  10.732  0.1225  0.3441 -0.1873
  493TMC3    C4 7328   0.843   1.200  10.865  0.1942 -0.3678  0.2287
  493TMC3    C5 7329   0.849   1.210  10.727 -0.1144 -0.0489  0.5660
  493TMC3    C6 7330   0.950   1.273  10.655 -0.1280 -0.0227  1.1726
  493TMC3     C 7331   0.958   1.240  11.079 -0.2099 -0.3763  0.4512
  493TMC3     O 7332   0.878   1.158  11.120 -0.4074 -0.3178 -0.1228
  493TMC3     H 7333   1.139   1.343  10.931  1.8420 -1.5469 -0.7385
  493TMC3    H1 7334   0.758   1.165  10.923 -0.8813  1.2079 -0.3963
  493TMC3    H2 7335   0.954   1.273  10.547 -0.4713  0.5126  1.1587
  493TMC3    C7 7336   0.728   1.193  10.652 -0.6435  0.0304  0.1077
  493TMC3    C8 7337   1.173   1.376  10.675  0.5380 -0.1196 -0.2587
  493TMC3    O1 7338   0.733   1.205  10.528 -0.5893 -0.1611  0.4273
  493TMC3    O2 7339   1.275   1.358  10.746 -0.0761 -0.2065 -0.1176
  494TMC3    C1 7340   1.179   2.984   0.166  0.4332 -0.6082  0.5196
  494TMC3    C2 7341   1.231   2.862   0.144 -0.0178  0.4251  1.2334
  494TMC3    C3 7342   1.262   2.830   0.015 -0.2139 -0.4100  0.4060
  494TMC3    C4 7343   1.172   3.080   0.075  0.6201  0.5779  0.3520
  494TMC3    C5 7344   1.212   3.049  17.655 -0.1608 -0.2609  0.0872
  494TMC3    C6 7345   1.252   2.920  17.625 -0.0954  0.3814 -0.4335
  494TMC3     C 7346   1.103   3.012   0.290  0.2094 -0.5239 -0.7435
  494TMC3     O 7347   1.088   3.133   0.312  0.7058  0.2704 -1.3012
  494TMC3     H 7348   1.237   2.788   0.223  0.6090 -0.1636  0.6364
  494TMC3    H1 7349   1.133   3.178   0.103 -2.6702 -0.2997 -1.1260
  494TMC3    H2 7350   1.298   2.906  17.528  1.4136 -1.2362  0.4983
  494TMC3    C7 7351   1.262   3.155  17.565  1.2634 -0.2667 -1.5906
  494TMC3    C8 7352   1.318   2.699  17.699  0.0904 -0.0854  0.1367
  494TMC3    O1 7353   1.323   3.125  17.461  0.2755 -0.2334  0.3896
  494TMC3    O2 7354   1.366   2.638   0.085  0.2146 -0.0303  0.1518
  495TMC3    C1 7355   0.094   0.163  14.630 -0.2870 -0.1648 -0.5854
  495TMC3    C2 7356   0.034   0.246  14.540  0.0072  0.5687 -0.6842
  495TMC3    C3 7357   4.679   0.342  14.590  0.8680 -0.2232  0.6023
  495TMC3    C4 7358   0.113   0.204  14.766 -0.6003  0.3931  0.3963
  495TMC3    C5 7359   0.047   0.319  14.797  0.7197  0.6639  0.0141
  495TMC3    C6 7360   4.679   0.370  14.719  0.2254  0.2251 -0.4207
  495TMC3     C 7361   0.090   0.022  14.613  0.5541 -0.3822 -0.7113
  495TMC3     O 7362   0.155   4.683  14.696 -0.5578 -0.1854  0.5323
  495TMC3     H 7363   0.038   0.223  14.434  0.2363 -0.1735 -0.5187
  495TMC3    H1 7364   0.169   0.139  14.832  0.9774  0.4765 -0.8592
  495TMC3    H2 7365   4.624   0.457  14.755 -1.7825 -0.2075 -2.4762
  495TMC3    C7 7366   0.025   0.332  14.935  0.3105  0.5349 -0.3041
  495TMC3    C8 7367   4.564   0.370  14.505 -0.5674  0.0123  0.1457
  495TMC3    O1 7368   0.130   0.329  15.001 -0.3988 -0.3776  0.5756
  495TMC3    O2 7369   4.458   0.335  14.554  0.2255  0.4704 -0.2239
  496MPD2     C 7370   1.996   0.502  14.887  0.3445 -0.5012 -0.1513
  496MPD2    C1 7371   2.061   0.470  15.006  0.1722  0.3868  0.5103
  496MPD2    C2 7372   1.992   0.417  15.114 -0.0940 -0.1519 -0.3694
  496MPD2    C3 7373   1.851   0.416  15.109 -0.2567  0.1949 -1.0892
  496MPD2    C4 7374   1.789   0.441  14.989 -0.0014  0.1994  0.5186
  496MPD2    C5 7375   1.857   0.491  14.881 -0.2523 -0.1108 -0.6383
  496MPD2     H 7376   2.038   0.387  15.207 -1.5233  1.6865  0.9264
  496MPD2    H1 7377   1.685   0.418  14.970 -0.4041  3.7207 -1.4945
  496MPD2    H2 7378   2.047   0.529  14.796  1.2317 -1.2225  0.1289
  496MPD2    H3 7379   1.805   0.516  14.789  0.7305  0.5082 -1.0254
  496MPD2     N 7380   1.781   0.346  15.211 -0.4779 -0.4658 -0.4115
  496MPD2    H5 7381   1.695   0.295  15.192 -0.2853  0.0624 -2.6915
  496MPD2    N1 7382   2.205   0.460  15.003 -0.4535  0.3419 -0.2432
  496MPD2    H7 7383   2.248   0.490  14.916 -0.8177  1.1720 -0.1423
  497TMC3    C1 7384   1.757   0.272  15.432 -0.3419 -0.5818 -0.4854
  497TMC3    C2 7385   1.746   0.147  15.387 -0.2485 -0.4553  0.7363
  497TMC3    C3 7386   1.743   0.046  15.479  0.1617 -0.2320 -0.0128
  497TMC3    C4 7387   1.761   0.301  15.570  0.2564  0.1006 -0.3420
  497TMC3    C5 7388   1.749   0.199  15.659 -0.4171 -0.0764 -0.1562
  497TMC3    C6 7389   1.738   0.069  15.617 -0.6093 -0.4607 -0.2540
  497TMC3     C 7390   1.818   0.360  15.342 -0.2154 -0.1478 -1.0775
  497TMC3     O 7391   1.886   0.450  15.384  0.3034 -0.6038  0.2362
  497TMC3     H 7392   1.763   0.117  15.284 -2.0105  1.3697 -0.0824
  497TMC3    H1 7393   1.756   0.403  15.606  0.2627 -0.2201  0.5553
  497TMC3    H2 7394   1.750   4.714  15.687  0.4568 -0.9382 -0.9864
  497TMC3    C7 7395   1.716   0.229  15.795  0.3110 -0.3890 -0.7204
  497TMC3    C8 7396   1.736   4.637  15.430  0.4104 -0.1357 -0.2142
  497TMC3    O1 7397   1.627   0.160  15.851 -0.0629  0.6638 -0.0161
  497TMC3    O2 7398   1.763   4.611  15.316 -0.3978 -0.1764 -0.5875
  498MPD2     C 7399   3.227   0.618   9.083  0.3317  0.5119 -0.1184
  498MPD2    C1 7400   3.179   0.706   9.179  0.1927  0.0609  0.7991
  498MPD2    C2 7401   3.062   0.678   9.240 -0.0902 -0.0792 -0.6447
  498MPD2    C3 7402   2.979   0.572   9.203  0.3535 -0.1555 -0.0478
  498MPD2    C4 7403   3.027   0.485   9.110 -0.0709 -0.1026  0.4957
  498MPD2    C5 7404   3.145   0.511   9.046 -0.1511  0.2763 -0.5942
  498MPD2     H 7405   3.021   0.738   9.321  1.9510 -2.2901  2.0173
  498MPD2    H1 7406   2.963   0.408   9.070 -2.5926  1.2490  1.9695
  498MPD2    H2 7407   3.322   0.639   9.035  0.0415 -2.2431 -1.8805
  498MPD2    H3 7408   3.181   0.437   8.976  0.8807 -0.6717  0.9413
  498MPD2     N 7409   2.855   0.564   9.272  0.0861 -0.3027  0.0856
  498MPD2    H5 7410   2.835   0.637   9.340  0.2209 -1.8567  1.7878
  498MPD2    N1 7411   3.253   0.813   9.234 -0.7533 -0.3012 -0.1623
  498MPD2    H7 7412   3.210   0.867   9.308 -0.2569 -0.7098  0.4226
  499TMC3    C1 7413   3.428   0.966   9.271  0.6500 -0.8381  0.1159
  499TMC3    C2 7414   3.562   0.990   9.285 -0.4834  0.2790  0.2602
  499TMC3    C3 7415   3.596   1.115   9.332  0.6842  0.2326  0.3219
  499TMC3    C4 7416   3.330   1.061   9.289 -0.5442 -0.1891  0.6191
  499TMC3    C5 7417   3.376   1.187   9.325  0.3112  0.5736 -0.3623
  499TMC3    C6 7418   3.504   1.210   9.363  0.0631  0.4128 -0.5651
  499TMC3     C 7419   3.387   0.835   9.214 -0.4065  0.1619  0.3751
  499TMC3     O 7420   3.476   0.768   9.163 -0.0880 -0.0210  0.6433
  499TMC3     H 7421   3.628   0.905   9.270 -0.7233  0.3007 -0.9293
  499TMC3    H1 7422   3.230   1.047   9.250 -0.7838 -0.0799  1.2014
  499TMC3    H2 7423   3.531   1.295   9.425 -1.8163 -0.5494  1.5688
  499TMC3    C7 7424   3.286   1.257   9.411 -0.7712 -0.0741  0.0069
  499TMC3    C8 7425   3.739   1.153   9.341 -0.1453  0.1326 -0.5531
  499TMC3    O1 7426   3.188   1.205   9.463 -0.1358 -0.4291 -0.1253
  499TMC3    O2 7427   3.754   1.272   9.367 -0.4983 -0.0960 -0.1223
  500MPD2     C 7428   0.328   2.001   9.739 -0.0376 -0.2392  0.2972
  500MPD2    C1 7429   0.251   2.074   9.827 -0.1502  0.1501  0.3848
  500MPD2    C2 7430   0.116   2.086   9.814 -0.6250 -0.2175 -0.2873
  500MPD2    C3 7431   0.047   2.029   9.712 -0.2218 -1.0470  0.1732
  500MPD2    C4 7432   0.122   1.967   9.617  0.1498 -0.4521  0.4901
  500MPD2    C5 7433   0.259   1.948   9.629 -0.2285 -0.3858  0.1439
  500MPD2     H 7434   0.077   2.138   9.901 -0.6308  2.1404 -1.7012
  500MPD2    H1 7435   0.072   1.920   9.533 -0.6077  2.8522 -0.9178
  500MPD2    H2 7436   0.434   1.983   9.753  0.0451 -1.1573 -1.5304
  500MPD2    H3 7437   0.311   1.894   9.550  3.3021  0.3941  1.9412
  500MPD2     N 7438   4.630   2.050   9.699  0.3127  0.1620  0.6266
  500MPD2    H5 7439   4.589   2.018   9.611  0.9700 -0.2106  0.4539
  500MPD2    N1 7440   0.314   2.131   9.940  0.5088  0.0351  0.1213
  500MPD2    H7 7441   0.250   2.186   9.997  1.4849 -0.8344  2.0288
  501TMC3    C1 7442   0.485   2.214  10.082  0.5682  1.0072 -0.2976
  501TMC3    C2 7443   0.411   2.332  10.091  0.0869  0.3113  0.3450
  501TMC3    C3 7444   0.472   2.437  10.162 -0.0966  0.3213  0.3073
  501TMC3    C4 7445   0.598   2.200  10.162 -0.3714 -0.3279  0.3477
  501TMC3    C5 7446   0.638   2.296  10.245  1.0040 -0.2426 -0.2448
  501TMC3    C6 7447   0.581   2.418  10.244  0.1891  0.6301  0.2650
  501TMC3     C 7448   0.451   2.118   9.975 -0.3372 -0.9252 -0.2619
  501TMC3     O 7449   0.533   2.039   9.934 -0.4992 -0.0535  0.2836
  501TMC3     H 7450   0.336   2.356  10.017 -0.6768  0.1446  1.0720
  501TMC3    H1 7451   0.646   2.103  10.155 -1.3039 -0.7426 -0.2191
  501TMC3    H2 7452   0.621   2.502  10.298 -0.2222  0.2098  1.2303
  501TMC3    C7 7453   0.741   2.268  10.348 -0.1229  0.8216 -0.6587
  501TMC3    C8 7454   0.401   2.559  10.194 -0.1138  0.0269 -0.5026
  501TMC3    O1 7455   0.748   2.161  10.402 -0.1866  0.3725 -0.5778
  501TMC3    O2 7456   0.450   2.634  10.272 -0.3225 -0.8488 -0.7362
  502TMC3    C1 7457   4.004   0.914  14.811 -0.6329  0.2904 -0.9816
  502TMC3    C2 7458   3.931   1.016  14.751  0.4779  0.1252  0.2606
  502TMC3    C3 7459   3.795   1.027  14.775  0.1988  0.0460  0.7128
  502TMC3    C4 7460   3.939   0.827  14.894 -0.5849  0.4855 -0.0673
  502TMC3    C5 7461   3.803   0.842  14.915 -0.3049 -0.1328  0.0183
  502TMC3    C6 7462   3.728   0.938  14.854 -0.5014  0.0680 -0.1940
  502TMC3     C 7463   4.138   0.954  14.861 -0.4337 -0.0063 -0.5457
  502TMC3     O 7464   4.205   1.019  14.783 -0.1023  0.6751 -0.1345
  502TMC3     H 7465   3.983   1.092  14.694  1.2458  0.6906  1.7112
  502TMC3    H1 7466   3.990   0.748  14.949  2.6943  1.3159 -1.9227
  502TMC3    H2 7467   3.626   0.963  14.879 -0.3280 -0.1162  0.6994
  502TMC3    C7 7468   3.765   0.819  15.052  0.5877  0.4812  0.4526
  502TMC3    C8 7469   3.734   1.155  14.779  0.2269 -0.6553  0.0491
  502TMC3    O1 7470   3.857   0.834  15.133  0.0309 -1.0830  0.7054
  502TMC3    O2 7471   3.612   1.163  14.763 -0.2225 -0.0152  0.8262
  503MPD2     C 7472   1.499   1.599  16.915 -0.5900 -0.4999  0.5166
  503MPD2    C1 7473   1.521   1.644  17.043 -0.8055  0.2496 -0.2742
  503MPD2    C2 7474   1.586   1.556  17.132  0.4075 -0.0087 -0.6761
  503MPD2    C3 7475   1.609   1.429  17.091 -0.1827 -0.6148  0.1082
  503MPD2    C4 7476   1.587   1.387  16.957  1.0023  0.7863 -0.0035
  503MPD2    C5 7477   1.531   1.476  16.875  0.7687 -0.4246 -0.2800
  503MPD2     H 7478   1.611   1.588  17.232  0.6768 -0.2230 -0.6739
  503MPD2    H1 7479   1.640   1.300  16.919 -3.2468 -2.1413  0.8699
  503MPD2    H2 7480   1.449   1.661  16.842  0.1072  0.2057  0.6420
  503MPD2    H3 7481   1.518   1.451  16.770 -1.4101 -0.8122  0.0646
  503MPD2     N 7482   1.653   1.344  17.186 -0.7892 -0.0698  0.4325
  503MPD2    H5 7483   1.685   1.391  17.270 -1.0391 -0.5855  0.8191
  503MPD2    N1 7484   1.492   1.776  17.086 -0.1063 -0.1388  0.0546
  503MPD2    H7 7485   1.502   1.801  17.184 -1.9397  0.2469  0.1421
  504TMC3    C1 7486   1.748   1.159  17.278 -0.1282  0.5312 -0.6511
  504TMC3    C2 7487   1.729   1.033  17.325 -0.2056 -0.8358  0.4185
  504TMC3    C3 7488   1.815   0.969  17.409 -0.4314  0.0330  0.8297
  504TMC3    C4 7489   1.863   1.230  17.313  0.8351 -0.2556  0.2067
  504TMC3    C5 7490   1.955   1.155  17.382  0.2458 -0.4279 -0.1987
  504TMC3    C6 7491   1.929   1.035  17.447  0.0779  0.0080 -0.5170
  504TMC3     C 7492   1.670   1.209  17.172  0.0584 -0.6939 -0.6782
  504TMC3     O 7493   1.611   1.128  17.099 -0.0398  0.1060 -0.3492
  504TMC3     H 7494   1.647   0.982  17.275 -0.3241 -0.8080  0.5869
  504TMC3    H1 7495   1.883   1.332  17.281  2.6842 -1.4450 -2.4755
  504TMC3    H2 7496   2.009   0.984  17.498 -0.1877  0.5011  0.3972
  504TMC3    C7 7497   2.089   1.197  17.384 -0.1790  0.2076  0.2561
  504TMC3    C8 7498   1.791   0.823  17.423  0.7322 -0.1170 -0.4624
  504TMC3    O1 7499   2.169   1.166  17.468 -0.0531  0.2210 -0.1726
  504TMC3    O2 7500   1.727   0.767  17.335 -0.1922  0.0544 -0.3202
  505MPD2     C 7501   1.890   0.475   9.988 -0.0755  0.1080  0.0790
  505MPD2    C1 7502   1.866   0.358  10.059 -0.2600  0.2975  0.2807
  505MPD2    C2 7503   1.932   0.347  10.176  0.7272  0.6593  0.0866
  505MPD2    C3 7504   2.024   0.444  10.225 -0.1091 -0.2918  0.1742
  505MPD2    C4 7505   2.030   0.564  10.153  0.7098 -0.2973  0.2274
  505MPD2    C5 7506   1.959   0.577  10.035 -0.1175 -0.9132 -0.1594
  505MPD2     H 7507   1.927   0.256  10.235 -0.9878  1.0556  0.5380
  505MPD2    H1 7508   2.076   0.653  10.194  0.5771 -1.2204  2.4099
  505MPD2    H2 7509   1.839   0.493   9.894  1.4597 -0.4057 -0.8598
  505MPD2    H3 7510   1.959   0.672   9.981  1.9632  0.5728  2.4681
  505MPD2     N 7511   2.105   0.415  10.333  1.0741  0.3023 -0.0995
  505MPD2    H5 7512   2.099   0.315  10.347 -1.8130  0.3296 -1.2021
  505MPD2    N1 7513   1.793   0.250   9.998  0.1291  0.4628 -0.3864
  505MPD2    H7 7514   1.756   0.274   9.907  2.5994  1.2711 -1.1569
  506TMC3    C1 7515   1.738   0.029   9.950 -0.4714  0.1323 -0.4491
  506TMC3    C2 7516   1.764   0.042   9.810  0.5330  0.7365 -0.3479
  506TMC3    C3 7517   1.756   4.657   9.741  0.5350  0.3804 -0.9439
  506TMC3    C4 7518   1.701   4.638  10.002  1.0218  0.0733 -0.0464
  506TMC3    C5 7519   1.730   4.529   9.927  0.1342 -0.4458  0.1959
  506TMC3    C6 7520   1.738   4.532   9.792 -0.0637 -0.2460 -0.1172
  506TMC3     C 7521   1.770   0.125  10.050  0.1793  0.5465  0.8537
  506TMC3     O 7522   1.816   0.082  10.155 -0.2459  0.5846 -0.5439
  506TMC3     H 7523   1.793   0.136   9.765 -0.2269  0.4024 -1.5038
  506TMC3    H1 7524   1.685   4.627  10.108 -2.2486 -0.3309 -0.6073
  506TMC3    H2 7525   1.764   4.448   9.729 -0.1524 -0.0229 -0.4482
  506TMC3    C7 7526   1.826   4.443   9.981 -0.5191  0.3182 -0.1803
  506TMC3    C8 7527   1.788   4.662   9.598  0.8302 -0.5536  0.4213
  506TMC3    O1 7528   1.861   4.341   9.916 -0.3669  0.7039 -0.3721
  506TMC3    O2 7529   1.726   4.589   9.521  0.4779  0.4854  0.2804
  507TMC3    C1 7530   2.491   1.176  14.921  0.7398  0.1207  0.7467
  507TMC3    C2 7531   2.474   1.127  14.797  0.3330  0.5692  0.2253
  507TMC3    C3 7532   2.580   1.112  14.716 -0.4528  0.1858 -0.6470
  507TMC3    C4 7533   2.610   1.232  14.963 -0.3051 -0.0441  0.4523
  507TMC3    C5 7534   2.721   1.219  14.880  0.2024  0.2348 -0.4613
  507TMC3    C6 7535   2.700   1.153  14.762 -0.4042 -0.5297 -0.4927
  507TMC3     C 7536   2.380   1.176  15.019  0.7397 -0.9046  0.0364
  507TMC3     O 7537   2.420   1.140  15.128  0.0488  0.5967  0.1051
  507TMC3     H 7538   2.379   1.083  14.767  1.6145 -0.8600 -1.7639
  507TMC3    H1 7539   2.625   1.290  15.053 -2.1014 -0.4927  1.0329
  507TMC3    H2 7540   2.781   1.150  14.691 -0.5559 -2.6552 -0.5756
  507TMC3    C7 7541   2.788   1.346  14.852 -0.3899 -0.5590  0.0113
  507TMC3    C8 7542   2.544   1.165  14.589 -0.3638 -0.1649 -0.5574
  507TMC3    O1 7543   2.807   1.377  14.734  0.1442 -0.2164  0.6424
  507TMC3    O2 7544   2.446   1.112  14.537  0.2782 -0.0012  0.3668
  508MPD2     C 7545   3.907   3.623  16.171 -0.4541  0.0526 -0.0121
  508MPD2    C1 7546   3.868   3.740  16.229  0.3935 -0.6311  0.7383
  508MPD2    C2 7547   3.843   3.844  16.147  0.1157 -0.1234 -0.9704
  508MPD2    C3 7548   3.856   3.844  16.008 -0.4868 -0.6081 -0.2752
  508MPD2    C4 7549   3.887   3.719  15.950 -0.4179  0.2600  0.3220
  508MPD2    C5 7550   3.914   3.606  16.034 -0.2148  0.5303 -0.4905
  508MPD2     H 7551   3.812   3.939  16.190  1.0616 -1.7348  3.3232
  508MPD2    H1 7552   3.903   3.708  15.844 -1.8140 -0.1579  0.1542
  508MPD2    H2 7553   3.927   3.533  16.228  0.2568  0.9552  1.1660
  508MPD2    H3 7554   3.924   3.509  15.986  1.6219 -0.0561  1.1294
  508MPD2     N 7555   3.844   3.959  15.929 -0.5430 -0.7350  0.4763
  508MPD2    H5 7556   3.836   4.052  15.967 -2.0673  0.2010 -2.1536
  508MPD2    N1 7557   3.862   3.750  16.367  0.2040 -0.0132 -0.2902
  508MPD2    H7 7558   3.908   3.678  16.421  0.3973 -0.0485 -0.5003
  509TMC3    C1 7559   3.690   4.245  15.667 -0.1988  0.7486  0.3810
  509TMC3    C2 7560   3.745   4.250  15.539 -0.1607 -0.1822 -0.7031
  509TMC3    C3 7561   3.863   4.189  15.515  0.6638  0.3231  0.4593
  509TMC3    C4 7562   3.733   4.163  15.765  0.2942 -0.7188 -0.0427
  509TMC3    C5 7563   3.846   4.088  15.732 -0.3529  0.4935  0.8839
  509TMC3    C6 7564   3.916   4.106  15.612  0.3759 -0.5365 -0.4843
  509TMC3     C 7565   3.602   4.355  15.711  0.8769 -0.4654  0.6135
  509TMC3     O 7566   3.558   4.346  15.828 -0.2263 -0.1502 -0.3944
  509TMC3     H 7567   3.699   4.299  15.453 -1.0399  0.9663  0.4244
  509TMC3    H1 7568   3.694   4.153  15.865 -0.0710  0.3700 -0.0804
  509TMC3    H2 7569   4.008   4.052  15.592 -0.6779 -1.2247 -3.5203
  509TMC3    C7 7570   3.863   3.959  15.791  0.2719 -0.2970 -0.2273
  509TMC3    C8 7571   3.920   4.179  15.382 -0.0846 -0.4747  0.2643
  509TMC3    O1 7572   3.889   3.872  15.709 -0.4224  0.1856 -0.3064
  509TMC3    O2 7573   3.984   4.075  15.369 -0.2117  0.0051 -0.3256
  510MPD2     C 7574   1.720   0.715  14.501  0.2950  0.3086  0.0300
  510MPD2    C1 7575   1.715   0.578  14.508  0.5870  0.1209  0.5410
  510MPD2    C2 7576   1.809   0.494  14.450  0.1963  0.3223  0.3740
  510MPD2    C3 7577   1.912   0.558  14.377 -0.1215  0.0889  0.4596
  510MPD2    C4 7578   1.907   0.694  14.354 -0.0359 -0.9240 -0.4106
  510MPD2    C5 7579   1.815   0.777  14.421  0.3809  0.2647 -0.0089
  510MPD2     H 7580   1.802   0.387  14.462 -1.5368  0.3403 -0.5201
  510MPD2    H1 7581   1.987   0.740  14.298  1.2227  1.3713  3.2938
  510MPD2    H2 7582   1.647   0.770  14.558  0.4383  2.2659 -1.6991
  510MPD2    H3 7583   1.812   0.885  14.410  0.6567 -0.0508 -3.2073
  510MPD2     N 7584   2.014   0.473  14.330  0.1378 -0.9398 -0.4439
  510MPD2    H5 7585   2.017   0.376  14.357 -0.9533 -1.1412 -1.0711
  510MPD2    N1 7586   1.595   0.526  14.566 -0.1551  0.2806 -0.7244
  510MPD2    H7 7587   1.528   0.591  14.606 -0.6948  0.0161 -1.2001
  511TMC3    C1 7588   1.441   0.377  14.637  0.0889 -0.1601  0.1126
  511TMC3    C2 7589   1.456   0.414  14.772  0.5074  0.1762  0.1675
  511TMC3    C3 7590   1.425   0.316  14.858 -0.3461  0.1849  0.3067
  511TMC3    C4 7591   1.390   0.251  14.596  0.0718  0.1280  0.0113
  511TMC3    C5 7592   1.349   0.160  14.692  0.2598 -0.1200  0.3406
  511TMC3    C6 7593   1.372   0.194  14.823  0.5165  0.7182 -0.0760
  511TMC3     C 7594   1.564   0.392  14.566 -0.0156  0.6188  0.1839
  511TMC3     O 7595   1.611   0.283  14.530 -0.2984 -0.4376  0.3128
  511TMC3     H 7596   1.506   0.507  14.795  0.2450  0.5379 -0.7078
  511TMC3    H1 7597   1.378   0.233  14.490 -1.4199 -1.7970  0.5185
  511TMC3    H2 7598   1.325   0.132  14.899  0.2311 -1.8290 -2.3483
  511TMC3    C7 7599   1.272   0.046  14.653  0.7298 -0.7700 -0.0883
  511TMC3    C8 7600   1.408   0.359  14.992 -0.2031  0.5658  0.0466
  511TMC3    O1 7601   1.273   0.017  14.534  0.2214  0.1788  0.1683
  511TMC3    O2 7602   1.396   0.478  15.015 -0.2887  0.1115  0.1669
  512TMC3    C1 7603   4.698   4.466  13.703  0.5690 -0.1066  0.2405
  512TMC3    C2 7604   0.053   4.493  13.808 -0.3892 -0.1540 -0.4371
  512TMC3    C3 7605   0.163   4.409  13.824 -0.2967  0.7056  0.4549
  512TMC3    C4 7606   4.724   4.356  13.621  0.0246  0.0411 -0.3391
  512TMC3    C5 7607   0.103   4.274  13.650 -0.7723  0.7782 -0.2261
  512TMC3    C6 7608   0.184   4.301  13.749  0.5813  0.3854  0.1848
  512TMC3     C 7609   4.597   4.565  13.670  0.2433 -0.0056  0.3310
  512TMC3     O 7610   4.535   4.623  13.756 -0.0632  0.0585  0.0562
  512TMC3     H 7611   0.024   4.560  13.889  0.3871 -0.4050  0.0493
  512TMC3    H1 7612   4.663   4.336  13.534  0.0723 -0.8999 -0.1550
  512TMC3    H2 7613   0.282   4.255  13.753  0.2941 -0.3310 -0.7882
  512TMC3    C7 7614   0.166   4.232  13.528 -0.7417 -0.3304 -0.2642
  512TMC3    C8 7615   0.278   4.462  13.893  0.3553 -1.0581  0.3026
  512TMC3    O1 7616   0.146   4.297  13.425  0.0728 -0.1597 -0.1399
  512TMC3    O2 7617   0.368   4.379  13.921  0.6238  0.1289  0.7990
  513MPD2     C 7618   1.657   4.161  12.794 -0.2883  0.4904 -0.1101
  513MPD2    C1 7619   1.779   4.214  12.753 -0.2502 -0.5265  0.3199
  513MPD2    C2 7620   1.853   4.297  12.832  0.1624  0.2383 -0.2301
  513MPD2    C3 7621   1.814   4.326  12.959 -0.3760  0.1217 -0.7236
  513MPD2    C4 7622   1.692   4.281  12.993 -0.2084  0.0225 -0.1370
  513MPD2    C5 7623   1.616   4.202  12.918  0.0337 -0.5706 -0.1689
  513MPD2     H 7624   1.949   4.328  12.792 -0.4362  1.0087 -1.0538
  513MPD2    H1 7625   1.647   4.304  13.089  0.1230 -1.3053  0.3321
  513MPD2    H2 7626   1.591   4.094  12.741  0.1934  1.0756 -1.4432
  513MPD2    H3 7627   1.524   4.174  12.967  0.2644 -0.7517  0.1579
  513MPD2     N 7628   1.892   4.414  13.029 -0.0354  0.5149  0.1809
  513MPD2    H5 7629   1.965   4.457  12.974  1.7799  0.8747  2.9002
  513MPD2    N1 7630   1.826   4.181  12.622 -0.0224  0.6893 -0.5400
  513MPD2    H7 7631   1.757   4.134  12.563  1.3539  1.3779 -2.7081
  514TMC3    C1 7632   1.972   4.194  12.432 -0.8452  0.5894  0.1513
  514TMC3    C2 7633   1.860   4.217  12.359  0.2907  0.1602 -0.1064
  514TMC3    C3 7634   1.870   4.327  12.273 -0.3156 -0.3272  0.6226
  514TMC3    C4 7635   2.085   4.266  12.417 -0.6229  0.1258 -0.5792
  514TMC3    C5 7636   2.085   4.379  12.335 -0.1193  0.2519  0.6231
  514TMC3    C6 7637   1.977   4.412  12.270 -0.0713 -1.0662  0.0440
  514TMC3     C 7638   1.956   4.183  12.582  0.3388 -0.1782  0.5144
  514TMC3     O 7639   2.055   4.199  12.652 -0.0840  0.1392 -0.6979
  514TMC3     H 7640   1.766   4.165  12.371  1.0590 -1.3760 -0.7546
  514TMC3    H1 7641   2.176   4.240  12.469 -0.5728  3.6287  1.0854
  514TMC3    H2 7642   1.974   4.503  12.211  1.0380 -0.4803  0.8997
  514TMC3    C7 7643   2.146   4.492  12.410  0.2594  0.6180  0.5419
  514TMC3    C8 7644   1.787   4.317  12.150  0.4446  0.1487  0.1778
  514TMC3    O1 7645   2.079   4.590  12.441 -0.6784  0.0963 -0.1518
  514TMC3    O2 7646   1.679   4.269  12.169 -0.0118 -0.2172  0.2320
  515MPD2     C 7647   0.542   1.146  14.355  0.0254 -0.0524 -0.6084
  515MPD2    C1 7648   0.422   1.192  14.403  0.3425 -0.2995 -0.0533
  515MPD2    C2 7649   0.421   1.293  14.496 -0.3314  0.0619 -1.5990
  515MPD2    C3 7650   0.537   1.348  14.548  0.9324  0.0555 -0.1569
  515MPD2    C4 7651   0.651   1.307  14.492  0.0728  0.3476 -0.2797
  515MPD2    C5 7652   0.658   1.210  14.398 -0.1009  0.8555 -0.4360
  515MPD2     H 7653   0.322   1.315  14.535 -0.3151 -0.3561 -1.3272
  515MPD2    H1 7654   0.742   1.356  14.525 -0.1770  1.4938 -1.3034
  515MPD2    H2 7655   0.539   1.065  14.283  0.4285  1.5602 -2.4522
  515MPD2    H3 7656   0.752   1.177  14.355 -0.2940  0.9233 -0.9103
  515MPD2     N 7657   0.544   1.448  14.653 -0.0768  0.1590 -0.8369
  515MPD2    H5 7658   0.637   1.461  14.693 -0.1621 -2.8149  0.2816
  515MPD2    N1 7659   0.298   1.148  14.356  0.0889  0.7252 -0.0029
  515MPD2    H7 7660   0.220   1.203  14.390 -1.0570 -0.7373 -0.2668
  516TMC3    C1 7661   0.134   1.016  14.248 -0.8731 -0.1028 -0.3520
  516TMC3    C2 7662   0.061   1.124  14.208 -1.1745 -0.0733  0.2280
  516TMC3    C3 7663   4.650   1.116  14.227 -0.1732  0.7087 -0.1004
  516TMC3    C4 7664   0.079   0.901  14.287  0.3297  0.2359 -0.0462
  516TMC3    C5 7665   4.669   0.900  14.323  0.2212 -0.1269 -0.1736
  516TMC3    C6 7666   4.591   1.008  14.288  0.4292 -0.5280  0.0451
  516TMC3     C 7667   0.279   1.026  14.290  0.0914 -0.1715  0.2980
  516TMC3     O 7668   0.344   0.920  14.302 -0.0345 -0.4784  0.5323
  516TMC3     H 7669   0.110   1.202  14.150 -4.1075  1.7038  0.1616
  516TMC3    H1 7670   0.142   0.819  14.319  1.3952  1.1521  0.1963
  516TMC3    H2 7671   4.486   1.015  14.313  0.4652  0.8579 -0.1519
  516TMC3    C7 7672   4.625   0.827  14.440  0.1047 -0.1677  0.6852
  516TMC3    C8 7673   4.573   1.222  14.163 -0.6832  0.4398  0.0783
  516TMC3    O1 7674   4.712   0.791  14.522  0.0207  0.5004 -0.2733
  516TMC3    O2 7675   4.466   1.189  14.113  0.4299  0.4987  0.5095
  517MPD2     C 7676   4.575   3.212   0.000 -0.4742  0.2328 -0.4870
  517MPD2    C1 7677   4.692   3.170   0.058 -0.0581 -0.3128  0.3141
  517MPD2    C2 7678   0.021   3.264   0.145 -0.1899  0.1585 -0.0498
  517MPD2    C3 7679   4.696   3.392   0.165  0.6121  0.0303 -0.0825
  517MPD2    C4 7680   4.579   3.428   0.102  0.6907 -0.5729 -0.4089
  517MPD2    C5 7681   4.523   3.336   0.020 -0.1103 -0.2083  0.1567
  517MPD2     H 7682   0.113   3.231   0.192 -0.5814 -1.3778 -0.3364
  517MPD2    H1 7683   4.531   3.526   0.104 -1.3264 -1.5537 -1.0156
  517MPD2    H2 7684   4.526   3.145  17.639 -1.2941 -0.2302  0.5510
  517MPD2    H3 7685   4.431   3.357  17.675 -1.3570 -1.6873  1.7343
  517MPD2     N 7686   0.033   3.490   0.251  0.3412  0.0156  0.7436
  517MPD2    H5 7687   4.727   3.586   0.257  0.8532  0.2362  0.0751
  517MPD2    N1 7688   0.028   3.046   0.019 -0.3417  0.0454  0.1665
  517MPD2    H7 7689   0.117   3.029   0.064 -0.3468  2.9035  1.2807
  518TMC3    C1 7690   0.049   2.827  17.633 -0.3827  0.1498 -1.1495
  518TMC3    C2 7691   0.001   2.704  17.644  0.1645  0.2998  0.8966
  518TMC3    C3 7692   0.092   2.599  17.617  0.5736 -0.3427 -0.3567
  518TMC3    C4 7693   0.176   2.867  17.595  0.6865  0.6130  0.5534
  518TMC3    C5 7694   0.259   2.760  17.569  0.1150  0.4579 -0.3046
  518TMC3    C6 7695   0.220   2.628  17.580 -0.4077  0.1430  0.2697
  518TMC3     C 7696   4.690   2.945  17.654  0.0637  0.3437 -0.1465
  518TMC3     O 7697   4.569   2.934  17.632 -0.2789 -0.5750 -0.7003
  518TMC3     H 7698   4.622   2.691  17.665  0.5743 -1.8901  1.6013
  518TMC3    H1 7699   0.194   2.973  17.581  0.7224  0.5921  0.4428
  518TMC3    H2 7700   0.286   2.544  17.564  3.3661  2.7552  2.3501
  518TMC3    C7 7701   0.389   2.797  17.513  0.7818 -0.1544 -0.5924
  518TMC3    C8 7702   0.046   2.461  17.604 -0.3051 -0.2033  0.1182
  518TMC3    O1 7703   0.426   2.911  17.538 -0.1665  0.0107  0.0046
  518TMC3    O2 7704   0.122   2.381  17.556  0.5730  0.2144  0.1454
  519MPD2     C 7705   1.706   1.722  14.197  0.2725 -0.3888  0.2540
  519MPD2    C1 7706   1.599   1.651  14.159  0.2193 -0.1655 -0.6912
  519MPD2    C2 7707   1.622   1.517  14.131 -0.0412  0.6809 -0.2011
  519MPD2    C3 7708   1.745   1.454  14.146  0.2097 -1.0086  0.5635
  519MPD2    C4 7709   1.848   1.536  14.187 -0.5531  0.1663 -0.3894
  519MPD2    C5 7710   1.827   1.669  14.202  0.3989  0.3002 -0.4429
  519MPD2     H 7711   1.537   1.457  14.101  2.2219 -0.7473 -3.8468
  519MPD2    H1 7712   1.954   1.511  14.186 -1.2558 -2.8642  1.9295
  519MPD2    H2 7713   1.691   1.823  14.236 -0.5470 -1.1679  1.9912
  519MPD2    H3 7714   1.909   1.735  14.230 -0.5229  0.6743  1.4441
  519MPD2     N 7715   1.765   1.318  14.119  0.1072 -0.4488  0.6313
  519MPD2    H5 7716   1.859   1.282  14.134  1.2222  2.3819  0.4378
  519MPD2    N1 7717   1.473   1.714  14.134 -0.5868  0.2978 -0.2723
  519MPD2    H7 7718   1.395   1.656  14.105 -1.6622  0.2428  2.7424
  520TMC3    C1 7719   1.714   1.109  14.034  0.1801 -0.4695  0.2136
  520TMC3    C2 7720   1.651   1.050  13.924 -0.4956  0.0189  0.2283
  520TMC3    C3 7721   1.714   0.960  13.851 -0.0525  0.6951  0.0601
  520TMC3    C4 7722   1.839   1.065  14.070  0.1336  0.2225  0.4669
  520TMC3    C5 7723   1.900   0.978  13.988  0.1407  1.2082 -0.3498
  520TMC3    C6 7724   1.840   0.926  13.876 -0.2258 -0.2839 -0.2336
  520TMC3     C 7725   1.667   1.237  14.067 -0.0631 -0.3167  0.6166
  520TMC3     O 7726   1.549   1.258  14.036  0.6052 -0.2914  0.0975
  520TMC3     H 7727   1.546   1.067  13.905 -0.1820 -1.3145 -2.6442
  520TMC3    H1 7728   1.885   1.096  14.163 -0.0775  0.0791  0.6170
  520TMC3    H2 7729   1.888   0.857  13.807  2.2206  0.4407  0.7518
  520TMC3    C7 7730   2.021   0.921  14.034 -0.0673  0.0320 -0.0459
  520TMC3    C8 7731   1.657   0.922  13.723 -0.5114  0.4927 -0.0476
  520TMC3    O1 7732   2.045   0.918  14.152 -0.1274  0.3690  0.6556
  520TMC3    O2 7733   1.723   0.855  13.651  0.5080 -0.1691  0.2384
  521MPD2     C 7734   2.645   4.037  17.394  1.0867 -0.1546  0.2272
  521MPD2    C1 7735   2.623   4.171  17.421  0.3666  0.4475  0.5746
  521MPD2    C2 7736   2.723   4.262  17.382 -0.1306 -0.1528  0.1765
  521MPD2    C3 7737   2.843   4.230  17.330  0.5872 -0.5070 -0.1025
  521MPD2    C4 7738   2.863   4.097  17.306 -0.1376 -0.1416 -0.7446
  521MPD2    C5 7739   2.766   4.000  17.335  0.1364 -0.0175 -0.6582
  521MPD2     H 7740   2.713   4.369  17.396 -1.9024 -0.0886 -1.6374
  521MPD2    H1 7741   2.958   4.060  17.268  0.5228  0.2464  0.5451
  521MPD2    H2 7742   2.566   3.967  17.419 -0.7149  1.3567 -1.1811
  521MPD2    H3 7743   2.775   3.897  17.303  1.2897 -0.3098  0.6395
  521MPD2     N 7744   2.940   4.331  17.306 -0.6590 -0.1786  0.4351
  521MPD2    H5 7745   2.903   4.420  17.337  0.7538 -0.0570  1.7727
  521MPD2    N1 7746   2.503   4.212  17.480 -0.1074  0.0158  0.0951
  521MPD2    H7 7747   2.432   4.142  17.500  0.5711 -0.9254 -0.7207
  522TMC3    C1 7748   3.123   4.446  17.214  0.5128 -0.1037 -0.0807
  522TMC3    C2 7749   3.259   4.451  17.214  0.3814  0.5980  0.3340
  522TMC3    C3 7750   3.322   4.575  17.180  0.3465  0.3727 -0.3423
  522TMC3    C4 7751   3.051   4.543  17.159  0.1013 -0.3685  0.0090
  522TMC3    C5 7752   3.107   4.660  17.118 -0.1375 -0.0548  0.5779
  522TMC3    C6 7753   3.239   4.688  17.152  0.6607  0.0593 -0.9473
  522TMC3     C 7754   3.063   4.319  17.239 -0.5860  0.2853 -0.5878
  522TMC3     O 7755   3.120   4.219  17.187 -0.3837 -0.0372  0.1528
  522TMC3     H 7756   3.315   4.372  17.263  0.2929  2.5194  3.5162
  522TMC3    H1 7757   2.943   4.537  17.145  0.4923 -0.3921 -2.8880
  522TMC3    H2 7758   3.289   0.051  17.117 -0.2022 -0.2395 -2.9240
  522TMC3    C7 7759   3.103   4.697  16.977  0.8001 -0.0771  0.7694
  522TMC3    C8 7760   3.460   4.582  17.146  0.5666  0.0046 -0.4597
  522TMC3    O1 7761   3.184   4.643  16.905  0.6144  0.2349 -0.5707
  522TMC3    O2 7762   3.506   4.696  17.134  0.5261  0.7743  0.4274
  523MPD2     C 7763   0.100   3.989   9.987  0.4136 -0.9867 -0.2712
  523MPD2    C1 7764   0.005   3.894   9.958  0.3124  0.0943  0.4652
  523MPD2    C2 7765   4.647   3.903   9.846 -0.0951 -0.1246  0.2604
  523MPD2    C3 7766   4.659   4.019   9.774 -0.3196  0.2517 -0.1663
  523MPD2    C4 7767   0.025   4.112   9.798  0.7481  0.3913  0.7393
  523MPD2    C5 7768   0.106   4.098   9.912 -0.4243 -0.3545  0.3566
  523MPD2     H 7769   4.578   3.828   9.809 -0.2662  0.3326 -0.3547
  523MPD2    H1 7770   0.032   4.202   9.737  2.4294 -0.3330 -0.1364
  523MPD2    H2 7771   0.171   3.972  10.067 -0.0379 -0.1388  0.3181
  523MPD2    H3 7772   0.178   4.179   9.918 -0.9904  0.1528  0.2063
  523MPD2     N 7773   4.575   4.052   9.662 -0.2433 -0.2108  0.4167
  523MPD2    H5 7774   4.592   4.141   9.615 -0.7504  0.8494  2.2510
  523MPD2    N1 7775   0.023   3.775  10.033 -0.5950  0.2977 -0.2905
  523MPD2    H7 7776   0.062   3.786  10.126 -0.8541  2.1008 -0.3784
  524TMC3    C1 7777   4.438   4.039   9.463 -0.2416  0.1990 -0.1626
  524TMC3    C2 7778   4.399   3.966   9.351  0.0266 -0.5894 -0.5024
  524TMC3    C3 7779   4.311   4.022   9.267  0.1788 -0.7078  0.6288
  524TMC3    C4 7780   4.404   4.169   9.475 -0.3583 -0.2864 -0.2701
  524TMC3    C5 7781   4.322   4.225   9.379 -0.1851 -0.9994  0.2812
  524TMC3    C6 7782   4.275   4.152   9.278  0.4460  0.0627  0.8861
  524TMC3     C 7783   4.503   3.968   9.586  1.1197 -0.7685 -0.5580
  524TMC3     O 7784   4.476   3.851   9.596  0.2178 -0.2330 -0.0823
  524TMC3     H 7785   4.402   3.858   9.357 -2.2084 -0.5280  1.9739
  524TMC3    H1 7786   4.419   4.224   9.567 -0.7236 -0.5166 -0.0722
  524TMC3    H2 7787   4.201   4.202   9.217  0.7126 -1.5392 -0.7472
  524TMC3    C7 7788   4.303   4.373   9.394 -0.2586 -0.2743 -0.3508
  524TMC3    C8 7789   4.280   3.940   9.146 -0.4446  0.0124  0.2691
  524TMC3    O1 7790   4.348   4.432   9.487  0.1685  0.1193  0.7152
  524TMC3    O2 7791   4.320   3.826   9.143 -0.2092  0.3365  0.5463
  525MPD2     C 7792   2.851   0.767  14.532 -0.2954  0.1788  0.1648
  525MPD2    C1 7793   2.983   0.776  14.582  0.1111 -0.5942 -0.6172
  525MPD2    C2 7794   3.060   0.889  14.551  0.3494 -0.1866 -0.3574
  525MPD2    C3 7795   3.003   0.999  14.489  0.7284 -0.0807 -0.8609
  525MPD2    C4 7796   2.867   0.987  14.445 -0.3020 -0.0027  0.4715
  525MPD2    C5 7797   2.795   0.872  14.463  0.3118  0.8369  0.2137
  525MPD2     H 7798   3.161   0.883  14.589  1.0538  0.8202 -2.0526
  525MPD2    H1 7799   2.823   1.069  14.389 -0.8893 -0.4488  0.2895
  525MPD2    H2 7800   2.779   0.689  14.555  0.8253 -1.7535 -2.9634
  525MPD2    H3 7801   2.690   0.858  14.439  1.0815 -0.2051 -2.5452
  525MPD2     N 7802   3.068   1.119  14.481  0.8416 -0.0839  0.7732
  525MPD2    H5 7803   3.016   1.194  14.436 -0.3732  0.9110  3.8205
  525MPD2    N1 7804   3.029   0.682  14.680  0.2009 -0.3838  0.5388
  525MPD2    H7 7805   3.129   0.695  14.697  0.2878 -0.6832  0.2510
  526TMC3    C1 7806   3.028   0.507  14.845 -0.2629 -0.1197  0.2593
  526TMC3    C2 7807   2.963   0.477  14.965  0.4332 -0.1152  0.1233
  526TMC3    C3 7808   3.049   0.474  15.077 -0.2650 -0.3874  0.9180
  526TMC3    C4 7809   3.167   0.515  14.836  0.3396 -0.4098 -0.2280
  526TMC3    C5 7810   3.242   0.503  14.948  0.0267 -0.1965  0.7968
  526TMC3    C6 7811   3.187   0.484  15.069 -0.2859 -0.0876 -0.0408
  526TMC3     C 7812   2.959   0.571  14.731 -0.2527  0.6066 -0.7777
  526TMC3     O 7813   2.854   0.516  14.698 -0.2796 -0.0476  0.2775
  526TMC3     H 7814   2.855   0.481  14.963  0.4844  0.7809 -1.2519
  526TMC3    H1 7815   3.207   0.520  14.735 -0.3000  0.7439 -0.4146
  526TMC3    H2 7816   3.242   0.456  15.158 -1.1041  0.2007  0.5614
  526TMC3    C7 7817   3.381   0.515  14.956  0.0140 -0.1374  0.5541
  526TMC3    C8 7818   3.001   0.509  15.215 -0.1044  0.2202 -0.1796
  526TMC3    O1 7819   3.438   0.513  15.062  0.5719  0.1449 -0.2128
  526TMC3    O2 7820   3.087   0.532  15.295 -0.1376  0.1701 -0.2305
  527MPD2     C 7821   0.861   3.281   1.496 -0.4253 -0.3981  0.5658
  527MPD2    C1 7822   0.948   3.182   1.461 -1.0149  0.5425 -0.1993
  527MPD2    C2 7823   1.007   3.193   1.339  0.0938  0.0135  0.2123
  527MPD2    C3 7824   0.981   3.292   1.248 -0.3029  0.2326  1.0519
  527MPD2    C4 7825   0.903   3.392   1.283 -0.3418 -0.0010  0.2309
  527MPD2    C5 7826   0.862   3.391   1.414 -0.7790 -0.4154  0.2967
  527MPD2     H 7827   1.078   3.116   1.310  1.9807  2.9126 -2.9413
  527MPD2    H1 7828   0.895   3.486   1.229 -0.7543 -0.3965 -0.3888
  527MPD2    H2 7829   0.802   3.295   1.586 -0.6717  2.6655 -0.0696
  527MPD2    H3 7830   0.791   3.469   1.440 -1.5312 -0.7714 -0.7134
  527MPD2     N 7831   1.057   3.295   1.127  0.4923 -0.3641 -0.5431
  527MPD2    H5 7832   1.127   3.222   1.120 -0.3732 -1.3360  0.9567
  527MPD2    N1 7833   0.975   3.070   1.537  0.7526 -0.9732 -0.0472
  527MPD2    H7 7834   1.032   3.000   1.490  4.2396  1.2651  0.8798
  528TMC3    C1 7835   1.002   2.941   1.722  0.1749  0.2584 -0.7179
  528TMC3    C2 7836   1.128   2.914   1.666 -0.2698 -0.1626 -0.0449
  528TMC3    C3 7837   1.201   2.812   1.719  0.1420 -0.2011 -0.4037
  528TMC3    C4 7838   0.936   2.854   1.805  0.1480  0.0770  0.5589
  528TMC3    C5 7839   1.008   2.748   1.845  0.5403  0.0852  0.2302
  528TMC3    C6 7840   1.139   2.726   1.808  0.7649  0.0400 -0.3938
  528TMC3     C 7841   0.921   3.041   1.660 -0.4136  0.2408  0.0182
  528TMC3     O 7842   0.831   3.097   1.721 -0.1504  0.4134 -0.4202
  528TMC3     H 7843   1.179   2.994   1.613 -0.4595 -0.1892 -0.2673
  528TMC3    H1 7844   0.831   2.859   1.828 -0.0384  1.2595 -0.5300
  528TMC3    H2 7845   1.204   2.650   1.848  1.2847  1.0495  0.6976
  528TMC3    C7 7846   0.955   2.654   1.942 -1.1387  0.4600 -0.3257
  528TMC3    C8 7847   1.335   2.803   1.669  0.1422 -0.0558 -0.1414
  528TMC3    O1 7848   0.989   2.541   1.922 -0.5026  0.1957 -0.5097
  528TMC3    O2 7849   1.380   2.914   1.636 -0.5231 -0.0260 -0.2271
  529MPD2     C 7850   3.950   2.385   0.720 -0.1648 -1.0087  0.4313
  529MPD2    C1 7851   3.918   2.267   0.657 -0.6544 -0.0960 -0.4822
  529MPD2    C2 7852   3.865   2.261   0.532  0.7127 -0.3339 -0.1516
  529MPD2    C3 7853   3.830   2.375   0.465 -0.2271  0.2090 -0.8242
  529MPD2    C4 7854   3.863   2.498   0.521 -0.7281 -0.8460  0.3195
  529MPD2    C5 7855   3.926   2.502   0.643 -0.8300  0.3618 -0.6787
  529MPD2     H 7856   3.843   2.163   0.493  1.5704 -1.9955  3.5340
  529MPD2    H1 7857   3.835   2.592   0.474  1.3631  0.2983  1.3719
  529MPD2    H2 7858   4.004   2.394   0.814  0.6741 -2.1939  0.0565
  529MPD2    H3 7859   3.950   2.600   0.682 -1.5835 -0.0885  0.9415
  529MPD2     N 7860   3.768   2.378   0.335 -0.3166  0.3292 -0.3718
  529MPD2    H5 7861   3.760   2.472   0.299 -0.0992  0.8708  0.9975
  529MPD2    N1 7862   3.935   2.138   0.717  0.6411 -0.1529  0.4622
  529MPD2    H7 7863   3.920   2.059   0.655 -1.7335  1.5487 -1.1410
  530TMC3    C1 7864   3.952   1.971   0.890  0.0384 -0.0485 -0.7789
  530TMC3    C2 7865   3.979   1.941   1.021  0.2290 -0.2080 -0.2722
  530TMC3    C3 7866   3.950   1.815   1.060  0.5094  0.2126 -0.6271
  530TMC3    C4 7867   3.887   1.879   0.812 -0.0043 -0.5366 -0.0933
  530TMC3    C5 7868   3.867   1.750   0.856  0.3416  0.1861 -0.0277
  530TMC3    C6 7869   3.895   1.711   0.985  0.2481  0.1009  1.2717
  530TMC3     C 7870   3.947   2.110   0.850  0.0134  0.0438  0.1210
  530TMC3     O 7871   3.950   2.192   0.942 -0.5595 -0.8726 -0.2394
  530TMC3     H 7872   4.013   2.014   1.094  0.7583 -1.0861  0.3664
  530TMC3    H1 7873   3.833   1.899   0.720 -0.8282  0.4944  0.6162
  530TMC3    H2 7874   3.876   1.609   1.016  0.5900 -1.3211 -3.2496
  530TMC3    C7 7875   3.742   1.686   0.811  0.0173  0.3049  0.1928
  530TMC3    C8 7876   3.937   1.809   1.202  0.4094  0.0140  0.0367
  530TMC3    O1 7877   3.713   1.715   0.698  0.6047 -0.4864 -0.1287
  530TMC3    O2 7878   3.895   1.909   1.258  0.3064 -0.7622 -0.1490
  531MPD2     C 7879   2.496   4.609  12.752  0.3965  0.2755  0.0442
  531MPD2    C1 7880   2.361   4.613  12.765 -0.2463 -0.6693  0.0983
  531MPD2    C2 7881   2.289   4.558  12.657 -0.1632 -0.5575  0.6381
  531MPD2    C3 7882   2.350   4.518  12.539  0.3948 -0.1334 -0.0276
  531MPD2    C4 7883   2.486   4.523  12.527 -0.3338 -0.3879  1.2944
  531MPD2    C5 7884   2.556   4.565  12.636  0.4397  0.5247 -0.2859
  531MPD2     H 7885   2.181   4.555  12.666 -0.0398 -1.4324  1.7989
  531MPD2    H1 7886   2.545   4.510  12.437 -0.6409  2.2152  0.7095
  531MPD2    H2 7887   2.565   4.650  12.824  2.7090 -1.4905 -1.1536
  531MPD2    H3 7888   2.663   4.579  12.629  0.5256 -0.7899 -1.5170
  531MPD2     N 7889   2.276   4.462  12.429  0.5827  0.0510 -0.6586
  531MPD2    H5 7890   2.318   4.404  12.358  1.2473  0.3327 -0.4907
  531MPD2    N1 7891   2.298   4.654  12.883 -0.2599 -0.7765  0.2022
  531MPD2    H7 7892   2.354   4.695  12.958 -1.7168 -0.0399  0.8942
  532TMC3    C1 7893   2.141   4.660  13.055  0.4742  0.0047 -0.2508
  532TMC3    C2 7894   2.008   4.620  13.078  0.1916 -0.1914  0.2820
  532TMC3    C3 7895   1.971   4.552  13.186 -0.6320 -0.9232 -0.3656
  532TMC3    C4 7896   2.233   4.623  13.148  0.0087 -0.3576  1.2369
  532TMC3    C5 7897   2.188   4.554  13.260 -0.1512 -0.4437 -0.3365
  532TMC3    C6 7898   2.056   4.526  13.286  0.9820 -0.5518 -0.3666
  532TMC3     C 7899   2.166   4.645  12.913 -0.4192  0.2601  0.0580
  532TMC3     O 7900   2.064   4.617  12.850  0.0280 -0.2969 -0.2053
  532TMC3     H 7901   1.927   4.660  13.017  0.3465 -0.2636  0.0319
  532TMC3    H1 7902   2.336   4.642  13.119 -1.0431  3.3066  0.0123
  532TMC3    H2 7903   2.025   4.448  13.354  0.3818 -1.6582 -1.9193
  532TMC3    C7 7904   2.279   4.513  13.368 -0.4452  0.0027 -0.0086
  532TMC3    C8 7905   1.875   4.451  13.158 -0.6428  0.2086  0.1670
  532TMC3    O1 7906   2.239   4.430  13.445  0.1405  0.1079  0.7801
  532TMC3    O2 7907   1.800   4.404  13.246  0.3251  0.3211  0.3322
  533TMC3    C1 7908   3.214   1.293  14.572 -0.3318 -0.5408 -0.2932
  533TMC3    C2 7909   3.337   1.344  14.547  0.1075 -0.2468  0.0538
  533TMC3    C3 7910   3.401   1.416  14.648 -0.4154 -0.5666 -0.0621
  533TMC3    C4 7911   3.154   1.304  14.697  0.8445 -0.3916  0.0437
  533TMC3    C5 7912   3.221   1.375  14.796 -0.3449 -0.0771 -0.4847
  533TMC3    C6 7913   3.347   1.431  14.770  0.5320 -0.2105 -0.5353
  533TMC3     C 7914   3.194   1.155  14.533 -0.2554 -0.2402 -0.5427
  533TMC3     O 7915   3.283   1.085  14.577 -0.0525 -0.0232 -0.1244
  533TMC3     H 7916   3.389   1.323  14.454  0.8560  0.2621  0.3603
  533TMC3    H1 7917   3.064   1.247  14.718 -1.9333  3.2191 -2.1171
  533TMC3    H2 7918   3.389   1.487  14.852  2.4532  1.1473 -2.4228
  533TMC3    C7 7919   3.158   1.369  14.930  0.0612 -0.3317 -0.7512
  533TMC3    C8 7920   3.512   1.513  14.624  0.0917 -0.1784 -0.7632
  533TMC3    O1 7921   3.078   1.276  14.952 -0.0695 -0.3053 -0.1167
  533TMC3    O2 7922   3.525   1.597  14.709 -0.2867 -0.9502  0.4243
  534MPD2     C 7923   0.501   2.297   1.950  0.5641  0.1056  0.1661
  534MPD2    C1 7924   0.600   2.235   1.878  0.7010 -0.1238 -0.5829
  534MPD2    C2 7925   0.620   2.096   1.879 -0.6732  0.4013  0.0878
  534MPD2    C3 7926   0.549   2.013   1.962 -0.3001 -0.9498  0.2994
  534MPD2    C4 7927   0.450   2.069   2.033  0.1559  0.3685  0.0051
  534MPD2    C5 7928   0.430   2.206   2.028  0.4558  0.1195  0.2525
  534MPD2     H 7929   0.699   2.060   1.814  0.7596  2.7839  0.4905
  534MPD2    H1 7930   0.398   2.007   2.106  0.3059 -1.7229 -1.6490
  534MPD2    H2 7931   0.469   2.401   1.957 -0.7886 -0.4288  1.8673
  534MPD2    H3 7932   0.353   2.251   2.089 -0.8028 -1.5509 -0.0806
  534MPD2     N 7933   0.567   1.868   1.969  0.8847  0.1050  0.4771
  534MPD2    H5 7934   0.511   1.820   2.039  0.9914  1.8122  1.7438
  534MPD2    N1 7935   0.688   2.310   1.798 -0.2155  0.0324 -0.7359
  534MPD2    H7 7936   0.738   2.259   1.727  1.1976 -0.8521  0.9008
  535TMC3    C1 7937   0.661   1.654   1.921  0.1385  0.4012  0.0381
  535TMC3    C2 7938   0.559   1.591   1.987  0.5193  0.3205  0.1642
  535TMC3    C3 7939   0.561   1.448   1.979  0.5032  0.2324  0.0166
  535TMC3    C4 7940   0.760   1.586   1.866 -0.2994  0.2093  0.5655
  535TMC3    C5 7941   0.764   1.451   1.875  0.0449  0.5471 -0.3387
  535TMC3    C6 7942   0.664   1.383   1.926  0.1767 -0.3210  0.2937
  535TMC3     C 7943   0.654   1.796   1.892 -1.0597 -0.2597 -1.2627
  535TMC3     O 7944   0.735   1.835   1.809 -0.3146  0.0384 -0.3183
  535TMC3     H 7945   0.475   1.649   2.024  1.3302  2.1278 -0.8590
  535TMC3    H1 7946   0.839   1.630   1.806  1.2279 -2.3513  0.7026
  535TMC3    H2 7947   0.657   1.276   1.907  3.1308 -0.1213 -1.8801
  535TMC3    C7 7948   0.856   1.380   1.784  0.4415 -0.3680 -0.4450
  535TMC3    C8 7949   0.428   1.401   1.947  0.3849  0.1016  0.3738
  535TMC3    O1 7950   0.895   1.435   1.683 -0.7217 -0.4132 -0.0528
  535TMC3    O2 7951   0.400   1.354   1.838  0.0072  0.5803  0.0898
  536MPD2     C 7952   0.200   0.813  16.107  0.2232  0.2863  0.8895
  536MPD2    C1 7953   0.103   0.724  16.138 -0.3858 -0.0748  0.5001
  536MPD2    C2 7954   4.711   0.731  16.063 -0.0477 -1.5356  0.1796
  536MPD2    C3 7955   4.693   0.838  15.965 -0.5963  0.3293 -0.0666
  536MPD2    C4 7956   0.074   0.915  15.933  0.0411  1.6340  0.0244
  536MPD2    C5 7957   0.191   0.910  16.010  1.4371 -1.0332 -0.1108
  536MPD2     H 7958   4.629   0.662  16.082 -1.7077  0.7500  1.3795
  536MPD2    H1 7959   0.068   0.988  15.853  1.2836  3.2003  1.3561
  536MPD2    H2 7960   0.300   0.802  16.147 -1.2710  0.5133  4.6994
  536MPD2    H3 7961   0.282   0.961  15.983  0.1431  1.7733  0.8771
  536MPD2     N 7962   4.576   0.862  15.890 -0.7914 -0.3138  0.0349
  536MPD2    H5 7963   4.582   0.924  15.811  0.0143 -3.9339 -2.7470
  536MPD2    N1 7964   0.133   0.625  16.237 -0.8151  0.3413  0.0868
  536MPD2    H7 7965   0.225   0.631  16.280 -1.7237  0.4225  1.9753
  537TMC3    C1 7966   0.101   0.468  16.414 -0.4580  0.6504  0.6003
  537TMC3    C2 7967   0.153   0.555  16.504 -0.2490 -0.0473  0.4231
  537TMC3    C3 7968   0.147   0.516  16.636 -0.0069  0.0025 -0.6249
  537TMC3    C4 7969   0.036   0.353  16.450  0.0217 -0.0481  0.1418
  537TMC3    C5 7970   0.056   0.308  16.575  0.1245 -1.3043  0.6210
  537TMC3    C6 7971   0.104   0.395  16.668  0.7809  0.0377  0.4814
  537TMC3     C 7972   0.051   0.529  16.287 -0.5161  0.5352  0.3472
  537TMC3     O 7973   4.664   0.498  16.257  0.0051 -0.1451  0.4037
  537TMC3     H 7974   0.167   0.660  16.481  0.8599 -0.5224 -1.0374
  537TMC3    H1 7975   4.715   0.288  16.378 -1.1194  0.3716  0.5173
  537TMC3    H2 7976   0.099   0.365  16.772 -0.1732  0.7178  0.6348
  537TMC3    C7 7977   0.005   0.178  16.615  0.6425 -0.5547  0.1613
  537TMC3    C8 7978   0.123   0.607  16.742 -0.2475 -0.0637  1.2580
  537TMC3    O1 7979   4.671   0.126  16.525  0.2032  0.3191  0.1970
  537TMC3    O2 7980   0.149   0.570  16.856 -0.0137 -0.0087  0.1445
  538TMC3    C1 7981   0.763   3.647  10.699  0.7697  0.1246  0.2441
  538TMC3    C2 7982   0.885   3.656  10.634  0.1961  0.4620  0.4262
  538TMC3    C3 7983   0.896   3.700  10.505  0.6894  0.0142 -0.2331
  538TMC3    C4 7984   0.657   3.688  10.630  0.0517  1.0688  0.4272
  538TMC3    C5 7985   0.668   3.717  10.493  0.3669  0.2511 -0.2068
  538TMC3    C6 7986   0.786   3.740  10.430  0.0483 -0.6352  0.3332
  538TMC3     C 7987   0.749   3.672  10.836 -0.1343  0.6558  0.2809
  538TMC3     O 7988   0.637   3.668  10.885  0.0494  0.3426  0.2269
  538TMC3     H 7989   0.976   3.613  10.674 -0.2123  1.0228  1.9505
  538TMC3    H1 7990   0.557   3.673  10.668  0.7591  0.7330  2.1382
  538TMC3    H2 7991   0.791   3.766  10.325  1.1042 -0.5247  0.4091
  538TMC3    C7 7992   0.548   3.781  10.435  0.0099  0.0587  1.2001
  538TMC3    C8 7993   1.033   3.746  10.471 -0.0092  0.0848 -0.4240
  538TMC3    O1 7994   0.439   3.737  10.462 -0.2915 -0.6371 -1.3988
  538TMC3    O2 7995   1.118   3.670  10.521 -0.2097 -0.2119 -0.2407
  539MPD2     C 7996   0.827   3.568  11.787  0.0669 -0.6467  0.4175
  539MPD2    C1 7997   0.765   3.507  11.680  0.3891 -0.5299  0.4287
  539MPD2    C2 7998   0.689   3.581  11.596 -0.1297  0.1619  0.3814
  539MPD2    C3 7999   0.681   3.722  11.611  0.0055 -0.2906  0.7486
  539MPD2    C4 8000   0.747   3.781  11.715  0.4714 -0.2708  0.1615
  539MPD2    C5 8001   0.813   3.704  11.807 -0.2476  0.3457 -0.0115
  539MPD2     H 8002   0.642   3.526  11.516  0.3011 -0.1030  0.3117
  539MPD2    H1 8003   0.751   3.889  11.729  1.5579 -0.2431 -0.3488
  539MPD2    H2 8004   0.880   3.507  11.859  0.3290  0.7456  1.4188
  539MPD2    H3 8005   0.855   3.750  11.895 -0.8474  0.0395  0.4352
  539MPD2     N 8006   0.602   3.807  11.532  0.5083  0.4917 -0.3237
  539MPD2    H5 8007   0.606   3.903  11.563  0.3095  0.9563 -1.7691
  539MPD2    N1 8008   0.761   3.370  11.653 -0.1350  0.1711  0.3720
  539MPD2    H7 8009   0.699   3.330  11.584 -1.1048 -0.1766  1.4617
  540TMC3    C1 8010   0.450   3.883  11.367 -0.0367 -0.4230 -0.3915
  540TMC3    C2 8011   0.437   3.890  11.231 -0.3379  0.3695  1.2111
  540TMC3    C3 8012   0.357   3.996  11.185  0.2337 -0.0398 -0.2650
  540TMC3    C4 8013   0.404   3.983  11.451  0.9383  0.2489  0.3689
  540TMC3    C5 8014   0.326   4.079  11.397  0.3399  0.1802 -0.0881
  540TMC3    C6 8015   0.293   4.081  11.265 -0.3485  0.6095  0.0458
  540TMC3     C 8016   0.526   3.773  11.420 -0.1474  0.4013  0.9317
  540TMC3     O 8017   0.528   3.670  11.355  0.4308  0.0314  0.1869
  540TMC3     H 8018   0.488   3.826  11.159  1.4630  0.5468  2.3265
  540TMC3    H1 8019   0.407   3.969  11.558 -0.0633 -0.0563  0.3596
  540TMC3    H2 8020   0.227   4.156  11.222 -1.3119 -0.0433  0.4054
  540TMC3    C7 8021   0.244   4.141  11.493 -0.5339 -0.0401  0.0194
  540TMC3    C8 8022   0.301   3.990  11.042  0.1257 -0.0417 -0.3711
  540TMC3    O1 8023   0.228   4.083  11.599  0.3312 -0.3322  0.1191
  540TMC3    O2 8024   0.268   4.093  10.986  0.2863 -0.3730  0.2099
  541MPD2     C 8025   3.957   0.098  13.372 -1.5618  0.8513 -0.2384
  541MPD2    C1 8026   3.924   0.032  13.254  0.4704  0.4647 -1.1874
  541MPD2    C2 8027   3.926   0.102  13.136  0.4709 -0.5403 -0.6156
  541MPD2    C3 8028   3.984   0.233  13.134 -0.1324  0.5187  0.7438
  541MPD2    C4 8029   4.015   0.297  13.252 -0.4155 -0.3769 -0.3650
  541MPD2    C5 8030   4.010   0.220  13.369  0.0889  0.2065  0.8292
  541MPD2     H 8031   3.903   0.054  13.042 -0.4140  1.8095 -1.6122
  541MPD2    H1 8032   4.043   0.402  13.250 -1.6408 -0.0395  0.4074
  541MPD2    H2 8033   3.939   0.045  13.464  0.1914  0.7472  0.0465
  541MPD2    H3 8034   4.038   0.274  13.460  2.3637  0.7513 -0.2052
  541MPD2     N 8035   4.005   0.302  13.014 -0.1597 -0.0433 -0.2749
  541MPD2    H5 8036   4.041   0.397  13.017  1.2147 -0.6342  1.8160
  541MPD2    N1 8037   3.890   4.617  13.265  0.1170  0.5793  0.5095
  541MPD2    H7 8038   3.890   4.576  13.358 -0.7984 -1.1503 -0.2750
  542TMC3    C1 8039   4.026   0.357  12.788  0.0853 -0.4400  0.1249
  542TMC3    C2 8040   4.069   0.300  12.674 -0.0226 -0.0804 -0.3450
  542TMC3    C3 8041   4.130   0.382  12.581  0.5178  0.1125  0.6427
  542TMC3    C4 8042   4.019   0.490  12.808  0.5329  0.0625 -0.6955
  542TMC3    C5 8043   4.074   0.567  12.711  0.2402 -0.1878  0.4906
  542TMC3    C6 8044   4.144   0.515  12.605  0.3458  0.0487 -0.4006
  542TMC3     C 8045   3.972   0.266  12.885  0.3912 -0.0386 -0.0810
  542TMC3     O 8046   3.919   0.169  12.834  0.1233 -0.7344  0.6901
  542TMC3     H 8047   4.074   0.194  12.652 -0.4476 -0.1823  0.0673
  542TMC3    H1 8048   3.972   0.546  12.889 -0.2878  0.0119 -1.1403
  542TMC3    H2 8049   4.200   0.583  12.541  0.3066  1.5065  1.1006
  542TMC3    C7 8050   4.059   0.706  12.733 -0.3102  0.0376 -0.2397
  542TMC3    C8 8051   4.155   0.322  12.451 -0.2053 -0.2912  0.0961
  542TMC3    O1 8052   4.027   0.741  12.845  0.7702  0.4126 -0.4440
  542TMC3    O2 8053   4.085   0.227  12.417  0.0338 -0.2334 -0.2401
  543TMC3    C1 8054   2.888   1.443  17.147 -0.4457 -0.2296  0.5654
  543TMC3    C2 8055   2.871   1.329  17.223 -0.1147  0.3459 -0.5363
  543TMC3    C3 8056   2.815   1.346  17.348  0.2095 -0.4587 -0.1105
  543TMC3    C4 8057   2.864   1.573  17.188 -0.5958 -0.0098 -0.3566
  543TMC3    C5 8058   2.812   1.574  17.316 -1.3320 -0.1079  0.0069
  543TMC3    C6 8059   2.793   1.469  17.397  0.8192  0.8088  0.5328
  543TMC3     C 8060   2.939   1.428  17.017  0.1655 -0.8191 -0.2633
  543TMC3     O 8061   2.991   1.321  16.992 -0.1512  0.4963 -0.4562
  543TMC3     H 8062   2.936   1.245  17.201 -2.9215 -2.7349  2.8082
  543TMC3    H1 8063   2.870   1.660  17.123  2.1337 -1.1789 -1.6305
  543TMC3    H2 8064   2.747   1.482  17.494  1.5927  1.7142  0.7766
  543TMC3    C7 8065   2.796   1.701  17.384 -0.3731  0.2397  0.2094
  543TMC3    C8 8066   2.832   1.228  17.432 -0.4187 -0.1634  0.1257
  543TMC3    O1 8067   2.785   1.699  17.507 -0.5791 -0.7955  0.5510
  543TMC3    O2 8068   2.935   1.163  17.406 -0.1221  0.3054 -0.4194
  544MPD2     C 8069   2.789   0.950   0.154 -0.8484  0.1022 -0.1413
  544MPD2    C1 8070   2.878   0.937   0.046 -0.0995 -0.2549 -0.6972
  544MPD2    C2 8071   2.865   1.019  17.639 -0.1852  0.4178  0.1937
  544MPD2    C3 8072   2.782   1.132  17.652 -0.3749  0.6437  0.5486
  544MPD2    C4 8073   2.709   1.154   0.061  0.3684  0.3422 -0.7951
  544MPD2    C5 8074   2.704   1.058   0.165 -0.0055  0.5984 -0.5926
  544MPD2     H 8075   2.918   0.997  17.547  0.7601 -1.1824  1.0989
  544MPD2    H1 8076   2.642   1.238   0.073 -0.2167  0.3076 -3.7050
  544MPD2    H2 8077   2.786   0.883   0.240  0.8672  2.2335  1.5793
  544MPD2    H3 8078   2.624   1.068   0.237  0.7187 -0.2312  0.3218
  544MPD2     N 8079   2.761   1.224  17.551  0.1255  0.2657 -0.1753
  544MPD2    H5 8080   2.688   1.292  17.571 -0.0268 -0.0856  0.4567
  544MPD2    N1 8081   2.961   0.826   0.044 -0.8660  0.5375  0.4888
  544MPD2    H7 8082   2.956   0.755   0.117 -0.5922  0.9135  0.8715
  545TMC3    C1 8083   3.110   0.672  17.649 -0.1254 -0.6567 -0.0050
  545TMC3    C2 8084   3.222   0.656  17.573  0.0332 -0.1981 -0.3882
  545TMC3    C3 8085   3.278   0.529  17.559 -0.6528  0.1062 -0.5834
  545TMC3    C4 8086   3.062   0.564   0.014  0.4636 -0.2929  0.0676
  545TMC3    C5 8087   3.123   0.443  17.708  0.1914 -0.5713  0.5786
  545TMC3    C6 8088   3.233   0.422  17.629  0.5747  0.0171  0.3667
  545TMC3     C 8089   3.050   0.805  17.649  0.2841  0.2246 -0.4814
  545TMC3     O 8090   3.099   0.885  17.572  0.4751  0.8492 -0.4809
  545TMC3     H 8091   3.275   0.742  17.535 -2.3726  2.2081  1.6832
  545TMC3    H1 8092   2.963   0.570   0.059  0.2686 -1.6115 -0.1986
  545TMC3    H2 8093   3.279   0.325  17.612 -0.8429 -0.6575  0.4023
  545TMC3    C7 8094   3.081   0.345   0.096 -0.0641  0.0577 -0.0277
  545TMC3    C8 8095   3.401   0.512  17.483 -0.5186 -0.1256  0.4471
  545TMC3    O1 8096   2.976   0.372   0.157 -0.9425 -0.0666 -0.3420
  545TMC3    O2 8097   3.404   0.591  17.384  0.0750  0.5595  0.3805
  546MPD2     C 8098   4.603   0.976  17.490  0.3736 -0.3774  0.4141
  546MPD2    C1 8099   4.589   1.042  17.370  0.0204 -0.2156  0.3929
  546MPD2    C2 8100   4.624   1.175  17.358  0.4898  0.6015 -0.4084
  546MPD2    C3 8101   4.699   1.239  17.458 -0.1226 -0.1332 -0.6456
  546MPD2    C4 8102   0.000   1.167  17.573 -0.2090 -0.3707 -0.9380
  546MPD2    C5 8103   4.677   1.041  17.586 -0.6009 -0.1853  0.4311
  546MPD2     H 8104   4.592   1.236  17.274  0.4277 -1.2572 -1.7284
  546MPD2    H1 8105   0.043   1.211  17.663  0.0095 -1.7153 -0.3859
  546MPD2    H2 8106   4.577   0.872  17.506  1.4687 -0.5229  1.2673
  546MPD2    H3 8107   4.692   0.992  17.682 -2.6435  2.7955  2.2838
  546MPD2     N 8108   0.010   1.372  17.460 -0.6523 -0.1941 -0.1062
  546MPD2    H5 8109   0.037   1.405  17.553  0.4680  0.5375 -0.6955
  546MPD2    N1 8110   4.514   0.964  17.280  0.4105  0.4091  0.1041
  546MPD2    H7 8111   4.513   0.865  17.302 -0.1434  0.5591  0.7405
  547TMC3    C1 8112   4.369   0.924  17.101 -0.3400 -0.2907  0.5661
  547TMC3    C2 8113   4.272   0.975  17.027 -0.1629 -0.0145 -0.5467
  547TMC3    C3 8114   4.155   0.907  17.030 -0.0562 -0.1140 -0.1860
  547TMC3    C4 8115   4.350   0.805  17.172  0.6256  0.6919 -0.4099
  547TMC3    C5 8116   4.237   0.737  17.158 -0.7544 -1.1522 -1.1229
  547TMC3    C6 8117   4.132   0.786  17.085  0.7076  0.1827 -0.4442
  547TMC3     C 8118   4.458   1.013  17.164 -0.4252  0.5869 -0.0973
  547TMC3     O 8119   4.468   1.120  17.105  0.1351 -0.2600  0.0998
  547TMC3     H 8120   4.274   1.079  16.994  0.6377 -0.1565 -0.9375
  547TMC3    H1 8121   4.433   0.745  17.207  0.9888 -0.1748 -2.6985
  547TMC3    H2 8122   4.036   0.738  17.071 -0.2429  1.5773  1.1889
  547TMC3    C7 8123   4.194   0.641  17.252 -0.3083  0.2669 -0.0636
  547TMC3    C8 8124   4.044   0.984  16.988  0.2748 -0.5994 -0.3574
  547TMC3    O1 8125   4.077   0.606  17.261  0.4709 -0.6634 -0.2703
  547TMC3    O2 8126   4.051   1.064  16.896  0.3076 -0.1964 -0.2014
  548MPD2     C 8127   4.608   2.029  12.460  0.6577 -0.3325  0.1777
  548MPD2    C1 8128   4.565   1.911  12.503 -0.2967  0.0178 -0.0480
  548MPD2    C2 8129   4.628   1.796  12.456  0.9789 -0.2779 -0.2705
  548MPD2    C3 8130   0.016   1.805  12.372  0.4890 -0.5789  0.2379
  548MPD2    C4 8131   0.057   1.930  12.331 -0.0037  0.9915 -0.4103
  548MPD2    C5 8132   4.718   2.043  12.375  0.8515  0.1641  0.3054
  548MPD2     H 8133   4.600   1.697  12.491  3.8292 -1.2204 -0.6535
  548MPD2    H1 8134   0.141   1.948  12.264 -1.0555 -1.8913 -2.5508
  548MPD2    H2 8135   4.563   2.124  12.485 -1.3410 -0.8574 -1.3989
  548MPD2    H3 8136   0.026   2.140  12.340  2.2752 -0.8132 -0.9488
  548MPD2     N 8137   0.089   1.701  12.318  0.5935  0.0314 -0.5072
  548MPD2    H5 8138   0.169   1.728  12.262  0.3153 -0.6421 -1.2270
  548MPD2    N1 8139   4.438   1.912  12.574  0.3172  0.5262 -0.0959
  548MPD2    H7 8140   4.396   2.002  12.593 -0.6831 -0.3723  2.0285
  549TMC3    C1 8141   4.251   1.835  12.686  0.4996  0.3675  0.0829
  549TMC3    C2 8142   4.166   1.920  12.621  0.0189  1.0717  0.6243
  549TMC3    C3 8143   4.038   1.923  12.661  0.2088  0.2395 -0.4813
  549TMC3    C4 8144   4.203   1.749  12.781  0.3088 -0.6676  0.0323
  549TMC3    C5 8145   4.077   1.759  12.822 -0.0288 -0.4873  0.0766
  549TMC3    C6 8146   3.993   1.841  12.762 -0.4008 -0.1856 -0.7048
  549TMC3     C 8147   4.385   1.806  12.637 -0.3162 -0.2797 -0.1133
  549TMC3     O 8148   4.431   1.695  12.669  0.4573  0.3496  0.1968
  549TMC3     H 8149   4.200   1.977  12.536 -0.1209 -2.1168 -1.5840
  549TMC3    H1 8150   4.273   1.691  12.841  0.5003 -1.4354 -0.9269
  549TMC3    H2 8151   3.892   1.863  12.795  0.2892  1.5310  0.3125
  549TMC3    C7 8152   4.025   1.670  12.918  0.8112  0.8029 -0.2947
  549TMC3    C8 8153   3.954   2.030  12.613 -0.3285 -0.1136  0.8704
  549TMC3    O1 8154   3.924   1.709  12.979  0.3897  0.1314  0.6773
  549TMC3    O2 8155   3.832   2.031  12.623 -0.2980  0.5997  0.0418
  550TMC3    C1 8156   2.546   0.132  12.383  0.3126 -0.0269 -0.5282
  550TMC3    C2 8157   2.470   0.134  12.493  0.2695  0.5380 -0.6784
  550TMC3    C3 8158   2.336   0.113  12.474  0.1417  0.8495  0.1312
  550TMC3    C4 8159   2.514   0.108  12.252 -0.3394  0.5473 -0.5482
  550TMC3    C5 8160   2.379   0.082  12.244 -0.4534 -0.1690  0.2788
  550TMC3    C6 8161   2.289   0.104  12.344  0.5449 -0.1790 -0.0668
  550TMC3     C 8162   2.686   0.164  12.403  0.0844 -0.0113 -0.7753
  550TMC3     O 8163   2.722   0.219  12.509  0.2783  0.1104 -0.3291
  550TMC3     H 8164   2.511   0.153  12.592  1.0174  0.0303 -0.8891
  550TMC3    H1 8165   2.571   0.117  12.160  0.0624 -0.7376 -0.4292
  550TMC3    H2 8166   2.183   0.101  12.322  0.4340 -1.5292  0.6716
  550TMC3    C7 8167   2.315   0.097  12.116 -0.1203 -0.6635  0.1815
  550TMC3    C8 8168   2.253   0.162  12.577 -0.5400 -0.5437  0.0743
  550TMC3    O1 8169   2.323   0.015  12.025  0.2869  0.1638 -0.1932
  550TMC3    O2 8170   2.303   0.262  12.628  0.4107 -0.0188  0.4121
  551TMC3    C1 8171   0.747   2.306  13.447 -0.0875  0.2144  0.0183
  551TMC3    C2 8172   0.860   2.338  13.383  0.6303  0.1857 -0.0279
  551TMC3    C3 8173   0.959   2.407  13.453  0.8044  0.0882  0.1593
  551TMC3    C4 8174   0.727   2.342  13.576  0.8461 -0.1095 -0.1340
  551TMC3    C5 8175   0.822   2.402  13.644 -0.6475 -0.7590  0.3206
  551TMC3    C6 8176   0.945   2.443  13.583 -0.0210 -0.6098 -0.4529
  551TMC3     C 8177   0.648   2.239  13.358  0.5140  0.2921  0.0484
  551TMC3     O 8178   0.689   2.196  13.253  0.8826 -0.2201  0.3147
  551TMC3     H 8179   0.885   2.307  13.282 -0.8007  0.5099 -0.4852
  551TMC3    H1 8180   0.640   2.300  13.625  0.6269 -0.3411 -0.7237
  551TMC3    H2 8181   1.010   2.509  13.638  0.4904 -0.5088 -1.1844
  551TMC3    C7 8182   0.797   2.445  13.775  0.0098 -0.0809 -0.1205
  551TMC3    C8 8183   1.075   2.449  13.372 -0.3991 -0.1945  0.1180
  551TMC3    O1 8184   0.901   2.470  13.840  0.7483 -0.9217  0.2232
  551TMC3    O2 8185   1.113   2.358  13.300 -0.1610  0.0448  0.2999
  552MPD2     C 8186   2.421   4.243  14.074 -0.1017 -0.3084  0.1702
  552MPD2    C1 8187   2.509   4.222  13.968 -0.4097 -0.4446 -0.1456
  552MPD2    C2 8188   2.645   4.234  13.989 -0.3664  0.3858 -0.7826
  552MPD2    C3 8189   2.694   4.261  14.118  0.5807 -0.7053 -0.4127
  552MPD2    C4 8190   2.611   4.287  14.219  0.7976  0.4493  0.0536
  552MPD2    C5 8191   2.470   4.272  14.202 -0.8603 -0.1366 -0.8443
  552MPD2     H 8192   2.717   4.218  13.909  1.8741 -0.9568  1.5132
  552MPD2    H1 8193   2.644   4.305  14.320  0.0731  3.2195 -0.2167
  552MPD2    H2 8194   2.315   4.222  14.072  0.1874 -1.6903 -0.5109
  552MPD2    H3 8195   2.397   4.289  14.280  0.1026 -0.7444  0.1880
  552MPD2     N 8196   2.832   4.274  14.144 -0.3060  0.1902 -0.4650
  552MPD2    H5 8197   2.856   4.269  14.242 -0.7524  0.7437 -0.3295
  552MPD2    N1 8198   2.473   4.188  13.837 -0.7939 -0.5484 -0.3365
  552MPD2    H7 8199   2.552   4.172  13.776  0.6318  0.3402  1.2722
  553TMC3    C1 8200   2.366   4.050  13.681 -0.3886  0.0245  0.8168
  553TMC3    C2 8201   2.279   4.063  13.582  0.0901  0.6125  0.5205
  553TMC3    C3 8202   2.314   4.021  13.457  0.2054  0.1205 -0.6327
  553TMC3    C4 8203   2.490   3.996  13.657 -0.1564 -0.6060  0.4611
  553TMC3    C5 8204   2.529   3.949  13.536 -0.2500 -0.3593 -0.1729
  553TMC3    C6 8205   2.440   3.968  13.436 -0.0418 -0.4626 -0.4504
  553TMC3     C 8206   2.353   4.137  13.796  0.2298  0.0132  0.4322
  553TMC3     O 8207   2.245   4.127  13.854 -0.3795 -0.2073  0.0562
  553TMC3     H 8208   2.194   4.128  13.605  0.9673  2.4221 -1.3696
  553TMC3    H1 8209   2.551   3.972  13.744  1.0579  0.5286 -0.0754
  553TMC3    H2 8210   2.460   3.945  13.332  0.3478  2.8046 -1.0896
  553TMC3    C7 8211   2.666   3.981  13.495 -1.0377 -0.1425 -0.4623
  553TMC3    C8 8212   2.258   4.093  13.340  0.2558  0.2191 -1.1243
  553TMC3    O1 8213   2.683   4.015  13.384 -0.1382  0.5092  0.1661
  553TMC3    O2 8214   2.138   4.096  13.317 -0.5834  0.0622  0.3017
  554TMC3    C1 8215   4.452   3.576  11.658  0.3404  0.5330  0.3669
  554TMC3    C2 8216   4.349   3.510  11.599 -0.7188 -0.6665 -0.1926
  554TMC3    C3 8217   4.311   3.554  11.473 -0.3516 -0.9015  0.3259
  554TMC3    C4 8218   4.515   3.681  11.595  0.7858 -0.4452  0.1911
  554TMC3    C5 8219   4.471   3.731  11.476 -0.4149 -1.0367  0.5413
  554TMC3    C6 8220   4.366   3.669  11.420 -0.1105 -0.8140 -0.1383
  554TMC3     C 8221   4.480   3.536  11.797  0.4107 -0.3740  0.3827
  554TMC3     O 8222   4.549   3.619  11.852  0.3377  0.0514  0.2114
  554TMC3     H 8223   4.293   3.427  11.640 -0.1731 -1.1442 -0.4029
  554TMC3    H1 8224   4.591   3.739  11.645 -0.9190  1.7227  0.2613
  554TMC3    H2 8225   4.314   3.719  11.339 -0.3518 -1.9877 -0.7027
  554TMC3    C7 8226   4.503   3.862  11.438  0.2809  0.1335  0.3893
  554TMC3    C8 8227   4.205   3.497  11.389  0.0330 -0.8056  0.4385
  554TMC3    O1 8228   4.539   3.944  11.519 -0.3655  0.2856  0.2398
  554TMC3    O2 8229   4.195   3.546  11.276  0.4748  0.0256 -0.4008
  555TMC3    C1 8230   4.107   2.927  15.315 -0.5118  0.2097 -0.1565
  555TMC3    C2 8231   4.087   2.998  15.428  0.2852 -0.5629 -0.0377
  555TMC3    C3 8232   4.061   2.926  15.540 -0.2517  0.4664  0.1255
  555TMC3    C4 8233   4.100   2.788  15.308  0.2615  0.0191 -0.3840
  555TMC3    C5 8234   4.077   2.723  15.427 -0.4797 -0.2715  0.0163
  555TMC3    C6 8235   4.047   2.791  15.544  0.1106 -0.0506  0.1683
  555TMC3     C 8236   4.135   3.003  15.194  0.3311  0.3671  0.0748
  555TMC3     O 8237   4.197   2.939  15.107 -0.0357  0.5132  0.4200
  555TMC3     H 8238   4.103   3.104  15.439 -1.3829 -0.3359  0.1678
  555TMC3    H1 8239   4.126   2.730  15.219 -2.9714  0.2469 -1.4661
  555TMC3    H2 8240   4.006   2.751  15.636 -0.1271 -1.5462 -0.5955
  555TMC3    C7 8241   4.016   2.588  15.416 -0.1218 -0.2410 -0.2904
  555TMC3    C8 8242   4.043   3.013  15.656 -0.1657  0.8239 -0.0955
  555TMC3    O1 8243   3.924   2.567  15.495  0.1695 -0.2919  0.0801
  555TMC3    O2 8244   3.992   3.121  15.636 -0.3271  0.1791 -0.1584
  556MPD2     C 8245   1.511   0.364  10.293 -0.3542  0.1593 -1.1654
  556MPD2    C1 8246   1.477   0.259  10.381 -0.7614 -0.1471 -1.4012
  556MPD2    C2 8247   1.433   0.136  10.330 -0.1609  0.1833 -0.0379
  556MPD2    C3 8248   1.412   0.126  10.197  0.4468  0.5540  0.1545
  556MPD2    C4 8249   1.434   0.234  10.113  0.4143  0.0011 -0.5701
  556MPD2    C5 8250   1.496   0.349  10.161  0.5568  0.4639  0.3467
  556MPD2     H 8251   1.418   0.049  10.393  0.2742  0.6588  0.7171
  556MPD2    H1 8252   1.424   0.246  10.006 -1.1519  2.2631 -0.1542
  556MPD2    H2 8253   1.542   0.462  10.328 -1.5086  0.8100 -1.9787
  556MPD2    H3 8254   1.521   0.432  10.096  0.4297  1.9518  2.1944
  556MPD2     N 8255   1.353   0.007  10.146 -0.2666 -0.4205 -0.6665
  556MPD2    H5 8256   1.320   4.666  10.214  2.0426  0.4308  1.2878
  556MPD2    N1 8257   1.493   0.263  10.522  0.2545 -0.6370  0.3462
  556MPD2    H7 8258   1.462   0.181  10.573  0.3021 -0.5916  0.4492
  557TMC3    C1 8259   1.252   4.602   9.982  0.4033 -0.5473 -0.1388
  557TMC3    C2 8260   1.162   4.623   9.886  0.2249  0.3059 -0.4088
  557TMC3    C3 8261   1.053   4.537   9.876 -0.0247  0.2751 -1.2426
  557TMC3    C4 8262   1.239   4.504  10.076 -0.0024 -0.0414 -0.2018
  557TMC3    C5 8263   1.129   4.417  10.061  0.7242 -0.5261  0.2691
  557TMC3    C6 8264   1.036   4.439   9.967  0.6011  0.1958 -0.0067
  557TMC3     C 8265   1.335   4.713  10.011  0.4916 -0.2262 -0.0410
  557TMC3     O 8266   1.379   0.053   9.917  0.1146 -0.3319  0.3927
  557TMC3     H 8267   1.155   4.709   9.821  0.3901  0.4598 -0.2237
  557TMC3    H1 8268   1.313   4.483  10.151  0.5136 -0.1705 -0.7501
  557TMC3    H2 8269   0.948   4.377   9.957  1.6447 -1.1477 -0.8707
  557TMC3    C7 8270   1.101   4.314  10.151  0.1146  0.4669 -1.4552
  557TMC3    C8 8271   0.976   4.534   9.753 -0.7751 -0.2797 -0.3539
  557TMC3    O1 8272   0.988   4.262  10.151  0.5590 -0.3502  0.3110
  557TMC3    O2 8273   0.965   4.638   9.695 -0.0974  0.1315 -0.1283
  558TMC3    C1 8274   4.411   2.102   9.768 -0.4725  0.0064  0.2276
  558TMC3    C2 8275   4.326   2.092   9.869 -0.2652  0.1299  1.1635
  558TMC3    C3 8276   4.190   2.082   9.845  0.4207  0.2797 -0.3752
  558TMC3    C4 8277   4.368   2.108   9.638  0.2164  0.0458  0.9102
  558TMC3    C5 8278   4.227   2.111   9.621  0.0190 -0.0333 -0.2927
  558TMC3    C6 8279   4.134   2.103   9.720 -0.1030  0.1032 -0.2333
  558TMC3     C 8280   4.555   2.093   9.797  1.0478 -0.1075 -0.3839
  558TMC3     O 8281   4.573   2.085   9.916 -0.0688 -0.5014 -0.5147
  558TMC3     H 8282   4.367   2.110   9.968  0.7776  0.5929  0.6577
  558TMC3    H1 8283   4.438   2.139   9.562 -0.7242 -0.1078 -0.0286
  558TMC3    H2 8284   4.028   2.089   9.704 -0.1620  0.0467  0.2115
  558TMC3    C7 8285   4.188   2.107   9.478  0.1156 -0.0799  1.1444
  558TMC3    C8 8286   4.100   2.055   9.957 -0.7748  0.0986  0.5114
  558TMC3    O1 8287   4.278   2.098   9.399  0.1210  0.1995 -0.4612
  558TMC3    O2 8288   3.983   2.090   9.948 -0.5525  0.2426  0.2513
  559MPD2     C 8289   4.063   2.935  10.783  0.0992 -0.1795 -0.5235
  559MPD2    C1 8290   4.032   2.807  10.820  1.7646 -0.0401 -0.3672
  559MPD2    C2 8291   4.123   2.741  10.901  0.5289 -0.0884  0.4774
  559MPD2    C3 8292   4.244   2.794  10.938  0.2672 -0.8607 -0.3261
  559MPD2    C4 8293   4.280   2.920  10.892 -0.1263  0.9177 -0.3797
  559MPD2    C5 8294   4.187   2.988  10.817  0.4550 -0.6864  0.0071
  559MPD2     H 8295   4.089   2.651  10.950 -0.3637  0.2519  0.4815
  559MPD2    H1 8296   4.375   2.971  10.907 -0.3338  1.7233 -1.8833
  559MPD2    H2 8297   4.000   2.990  10.715  0.8208 -0.7738 -1.6831
  559MPD2    H3 8298   4.202   3.082  10.765 -1.0209 -0.2506  0.3762
  559MPD2     N 8299   4.323   2.713  11.029  0.0862  0.0313  0.0678
  559MPD2    H5 8300   4.287   2.618  11.034  0.2608  0.0323  1.3141
  559MPD2    N1 8301   3.900   2.766  10.779  0.0570 -0.0225 -0.5654
  559MPD2    H7 8302   3.844   2.837  10.732 -1.0563  0.7912  1.9733
  560TMC3    C1 8303   4.516   2.653  11.164 -0.0440  0.3008  0.4746
  560TMC3    C2 8304   4.524   2.526  11.112 -0.6815 -0.2961 -0.3838
  560TMC3    C3 8305   4.617   2.444  11.172  0.7254 -0.1208  0.6603
  560TMC3    C4 8306   4.609   2.712  11.248  0.0496 -0.4262  0.1738
  560TMC3    C5 8307   4.711   2.635  11.283  0.5847  0.0138 -0.2907
  560TMC3    C6 8308   4.708   2.500  11.261  0.9443 -0.7862 -0.2252
  560TMC3     C 8309   4.441   2.757  11.091 -0.3558 -0.0009  0.3981
  560TMC3     O 8310   4.492   2.868  11.103  0.9491  0.2806 -0.0672
  560TMC3     H 8311   4.446   2.497  11.043 -1.0900  1.6148 -0.7140
  560TMC3    H1 8312   4.614   2.814  11.282 -0.1821 -0.0049 -1.0656
  560TMC3    H2 8313   0.057   2.441  11.311  3.3516  2.1493 -0.3784
  560TMC3    C7 8314   0.082   2.699  11.373  0.1972 -0.2951 -0.3958
  560TMC3    C8 8315   4.629   2.311  11.128  0.2561  0.1829 -0.2438
  560TMC3    O1 8316   0.139   2.614  11.442  0.1471 -0.2557  0.0601
  560TMC3    O2 8317   4.530   2.259  11.082 -0.0149  0.3464 -0.1023
  561TMC3    C1 8318   2.117   1.776  11.800 -0.5047  0.0703  0.0514
  561TMC3    C2 8319   2.056   1.779  11.921  0.1775  0.1168  0.1591
  561TMC3    C3 8320   1.962   1.872  11.952 -0.2211 -0.4761 -1.0731
  561TMC3    C4 8321   2.090   1.870  11.708 -0.2696  0.4431  0.2835
  561TMC3    C5 8322   2.002   1.970  11.744 -0.1878 -0.7416 -0.7536
  561TMC3    C6 8323   1.934   1.975  11.864  0.4965 -0.1304  0.6233
  561TMC3     C 8324   2.213   1.675  11.751 -0.1221 -1.1359 -1.0658
  561TMC3     O 8325   2.274   1.703  11.648 -0.5033  0.4282 -0.5191
  561TMC3     H 8326   2.077   1.701  11.993  0.1737  0.8365  0.9276
  561TMC3    H1 8327   2.126   1.863  11.606 -1.3849 -1.0588 -0.0103
  561TMC3    H2 8328   1.853   2.046  11.879  2.7473  2.4182  0.8243
  561TMC3    C7 8329   1.965   2.055  11.633  0.5182  0.6091 -0.6806
  561TMC3    C8 8330   1.902   1.862  12.088 -0.0761  0.0493 -0.6183
  561TMC3    O1 8331   1.860   2.113  11.642  0.4824 -0.4067  0.0818
  561TMC3    O2 8332   1.938   1.769  12.155 -1.1782 -0.1778 -0.0760
  562TMC3    C1 8333   3.544   3.562  16.201  0.1926 -0.1878  0.1397
  562TMC3    C2 8334   3.515   3.680  16.136 -0.0947  0.5890 -0.0219
  562TMC3    C3 8335   3.536   3.674  16.003 -0.3756 -0.4250  0.0985
  562TMC3    C4 8336   3.586   3.448  16.136 -0.7585  0.4029 -0.4918
  562TMC3    C5 8337   3.612   3.457  16.003  0.1522 -0.6445 -0.9394
  562TMC3    C6 8338   3.575   3.567  15.933  0.3799 -0.3272 -0.0104
  562TMC3     C 8339   3.528   3.542  16.345  0.4331 -0.5074 -0.0523
  562TMC3     O 8340   3.592   3.449  16.394  1.0067  0.2773  0.4788
  562TMC3     H 8341   3.492   3.777  16.179  3.6771  1.2672  0.5103
  562TMC3    H1 8342   3.622   3.370  16.202 -0.2148  1.9117  0.9779
  562TMC3    H2 8343   3.583   3.572  15.825  0.3636 -0.1405 -0.0033
  562TMC3    C7 8344   3.645   3.333  15.932 -0.2253 -0.1324  0.2352
  562TMC3    C8 8345   3.512   3.800  15.933 -0.7558 -0.4121 -0.2213
  562TMC3    O1 8346   3.696   3.350  15.822  0.1942  0.0085 -0.5947
  562TMC3    O2 8347   3.462   3.890  16.002  0.0016 -0.2320 -0.3857
  563MPD2     C 8348   1.081   4.564  15.501  0.3607 -0.7407 -0.2869
  563MPD2    C1 8349   1.031   4.618  15.618  0.1851  0.1166  0.4071
  563MPD2    C2 8350   1.128   4.644  15.717 -0.1861 -0.5882 -0.4083
  563MPD2    C3 8351   1.258   4.614  15.708 -0.2812 -0.2873 -0.6339
  563MPD2    C4 8352   1.302   4.563  15.587 -0.1127  0.1391  0.0766
  563MPD2    C5 8353   1.212   4.532  15.484 -0.1168 -0.0570  0.5477
  563MPD2     H 8354   1.100   4.691  15.810 -0.7994  0.6537 -1.2227
  563MPD2    H1 8355   1.409   4.549  15.573  0.0337  1.0299  0.2785
  563MPD2    H2 8356   1.021   4.535  15.416  3.1756 -0.5071 -2.3402
  563MPD2    H3 8357   1.245   4.502  15.385 -1.0388  1.5016 -0.2365
  563MPD2     N 8358   1.335   4.651  15.820 -0.1636  0.0809  0.1180
  563MPD2    H5 8359   1.284   4.666  15.907 -0.2578 -2.7172  0.5185
  563MPD2    N1 8360   0.889   4.626  15.642 -0.3021  0.5199  0.7260
  563MPD2    H7 8361   0.825   4.583  15.576 -0.1261 -0.0728  0.9381
  564TMC3    C1 8362   0.748   4.582  15.827 -0.0833 -0.2373  0.7123
  564TMC3    C2 8363   0.686   4.465  15.774 -0.0218 -0.1716  0.2298
  564TMC3    C3 8364   0.631   4.372  15.853 -0.1296 -0.3414 -0.4651
  564TMC3    C4 8365   0.761   4.590  15.960 -0.2859 -0.7948 -0.3376
  564TMC3    C5 8366   0.716   4.486  16.038  0.6597 -0.7422 -0.1675
  564TMC3    C6 8367   0.635   4.384  15.993  0.1612  0.5986  0.2260
  564TMC3     C 8368   0.835   4.676  15.760 -0.1871  0.2805  0.2422
  564TMC3     O 8369   0.887   0.027  15.840 -0.0492  0.2401  0.5625
  564TMC3     H 8370   0.687   4.451  15.667  1.1934 -2.2805  0.5072
  564TMC3    H1 8371   0.812   4.669  16.014 -1.0182  0.2240 -1.1261
  564TMC3    H2 8372   0.594   4.302  16.050  0.3472  0.1231 -0.3216
  564TMC3    C7 8373   0.827   4.443  16.123 -0.6191  0.1766  0.5735
  564TMC3    C8 8374   0.649   4.237  15.810 -0.0893 -0.5518  0.0901
  564TMC3    O1 8375   0.913   4.518  16.164 -0.1183  0.0900 -0.2157
  564TMC3    O2 8376   0.664   4.152  15.896 -0.1444 -0.1146 -0.1030
  565TMC3    C1 8377   1.376   0.975   9.756  0.4536  0.4238  0.1059
  565TMC3    C2 8378   1.273   0.948   9.838 -0.0036 -0.0657  0.3368
  565TMC3    C3 8379   1.149   0.910   9.779 -0.1436 -0.0645 -0.6187
  565TMC3    C4 8380   1.367   0.971   9.620  0.0131  0.6475 -0.1029
  565TMC3    C5 8381   1.240   0.937   9.564 -0.2292 -0.3975  1.0832
  565TMC3    C6 8382   1.137   0.890   9.643 -0.5191  0.1468  0.1993
  565TMC3     C 8383   1.489   1.055   9.797  0.4331 -0.2594 -0.0612
  565TMC3     O 8384   1.553   1.110   9.707 -0.4427 -0.2770 -0.0152
  565TMC3     H 8385   1.265   0.963   9.945  1.6536 -0.1182  0.4584
  565TMC3    H1 8386   1.449   0.997   9.553  0.8821 -3.0195 -0.4433
  565TMC3    H2 8387   1.037   0.900   9.602 -1.2633 -0.8780  1.7674
  565TMC3    C7 8388   1.222   0.987   9.432 -0.9442 -0.2791  0.3424
  565TMC3    C8 8389   1.049   0.850   9.866 -0.0985 -0.3535  0.3662
  565TMC3    O1 8390   1.312   1.055   9.384  0.2994 -0.3947 -0.1310
  565TMC3    O2 8391   1.062   0.873   9.988 -0.4397  0.0105  0.2197
  566MPD2     C 8392   2.977   3.267  14.422  0.2349 -0.3247  0.4619
  566MPD2    C1 8393   3.064   3.188  14.344  0.4897 -0.8285  0.5521
  566MPD2    C2 8394   3.014   3.073  14.283 -0.1365  0.4407  0.4057
  566MPD2    C3 8395   2.881   3.039  14.284 -0.1986  0.1605  0.1760
  566MPD2    C4 8396   2.792   3.116  14.364  0.3620 -0.5932 -0.6477
  566MPD2    C5 8397   2.844   3.227  14.426  0.2324  0.4686  0.0350
  566MPD2     H 8398   3.084   3.015  14.225 -0.1230  0.8522  0.0100
  566MPD2    H1 8399   2.684   3.105  14.359  0.0640  2.1107 -0.1185
  566MPD2    H2 8400   3.006   3.346  14.491 -0.3660 -0.5286  0.9524
  566MPD2    H3 8401   2.777   3.285  14.488 -1.5448 -1.6256  0.0643
  566MPD2     N 8402   2.828   2.934  14.204 -0.2956 -0.0678  0.1315
  566MPD2    H5 8403   2.726   2.929  14.200 -0.2436 -1.7317  0.8063
  566MPD2    N1 8404   3.194   3.230  14.315 -0.6418  0.1125  0.7206
  566MPD2    H7 8405   3.246   3.181  14.243 -1.9212  1.5179 -1.1635
  567TMC3    C1 8406   3.381   3.366  14.296 -0.0528  0.4075 -0.0445
  567TMC3    C2 8407   3.374   3.332  14.166 -0.3332 -0.6026 -0.0231
  567TMC3    C3 8408   3.488   3.288  14.108 -0.6873 -0.4193  0.0364
  567TMC3    C4 8409   3.489   3.353  14.374 -0.3587 -1.0458  0.2515
  567TMC3    C5 8410   3.598   3.297  14.310 -0.1294  0.5434 -0.0942
  567TMC3    C6 8411   3.604   3.276  14.181 -0.0339 -0.4210  0.1692
  567TMC3     C 8412   3.256   3.336  14.370  0.0791 -0.2453 -0.1794
  567TMC3     O 8413   3.234   3.383  14.485  0.5411  0.3903 -1.0051
  567TMC3     H 8414   3.286   3.358  14.108 -0.9472 -2.0421  0.2527
  567TMC3    H1 8415   3.485   3.373  14.480 -0.5125  1.4164 -0.2235
  567TMC3    H2 8416   3.686   3.216  14.143  0.4859 -0.7548  1.7832
  567TMC3    C7 8417   3.707   3.239  14.389  0.2361 -0.5926  0.1098
  567TMC3    C8 8418   3.484   3.298  13.965 -0.0621 -0.0198  0.1144
  567TMC3    O1 8419   3.818   3.223  14.340  0.1827 -0.1714 -0.2914
  567TMC3    O2 8420   3.384   3.348  13.911  0.2953 -0.2041 -0.3584
  568MPD2     C 8421   0.339   2.894  16.267  0.2896  0.0484 -0.2695
  568MPD2    C1 8422   0.462   2.946  16.305 -0.0123  0.1015 -0.3184
  568MPD2    C2 8423   0.515   3.054  16.230  1.2574  0.3434 -0.1604
  568MPD2    C3 8424   0.439   3.122  16.131  0.3276 -0.3725 -0.5306
  568MPD2    C4 8425   0.315   3.074  16.097  0.5474 -0.1450 -0.1024
  568MPD2    C5 8426   0.270   2.956  16.164 -0.8664  0.6503  0.6666
  568MPD2     H 8427   0.616   3.089  16.249  0.0473  3.3705  0.8631
  568MPD2    H1 8428   0.251   3.122  16.024  0.4106  0.9996  0.7761
  568MPD2    H2 8429   0.298   2.808  16.320 -0.0056  0.9965  1.0344
  568MPD2    H3 8430   0.174   2.915  16.136 -0.3726 -0.1259  0.1319
  568MPD2     N 8431   0.496   3.241  16.078  0.3004 -0.4003  0.3142
  568MPD2    H5 8432   0.579   3.272  16.127  0.3371  0.9439 -0.5911
  568MPD2    N1 8433   0.527   2.893  16.414  0.0130  0.0552 -0.6465
  568MPD2    H7 8434   0.486   2.822  16.475  0.4198  0.6336  0.3053
  569TMC3    C1 8435   0.524   3.426  15.949  0.3200 -0.1081  0.1439
  569TMC3    C2 8436   0.588   3.493  16.051 -0.7531 -0.1609  0.1008
  569TMC3    C3 8437   0.687   3.580  16.020  0.2383 -0.3310  0.2462
  569TMC3    C4 8438   0.544   3.445  15.819  0.7900  0.2461  0.1681
  569TMC3    C5 8439   0.645   3.531  15.786  0.0090  0.0164 -0.3165
  569TMC3    C6 8440   0.717   3.590  15.891  0.8595  0.2711  0.6107
  569TMC3     C 8441   0.444   3.312  15.981  0.0399  0.1758  0.0811
  569TMC3     O 8442   0.361   3.284  15.894 -0.6629 -0.0426  0.6579
  569TMC3     H 8443   0.535   3.489  16.145 -0.5082 -1.1291  0.1962
  569TMC3    H1 8444   0.496   3.394  15.737  0.3549  1.0917 -0.1018
  569TMC3    H2 8445   0.788   3.672  15.877  2.3270 -0.7648  2.0139
  569TMC3    C7 8446   0.615   3.610  15.670 -0.7755 -0.1052  0.6850
  569TMC3    C8 8447   0.659   3.721  16.064  0.1289 -1.0000  0.2318
  569TMC3    O1 8448   0.618   3.560  15.561 -0.6920  0.4379  0.7340
  569TMC3    O2 8449   0.605   3.798  15.982  0.5717 -0.8966 -0.3176
  570TMC3    C1 8450   4.575   1.880  16.252 -0.3544 -0.8743 -0.3882
  570TMC3    C2 8451   4.650   1.878  16.138 -0.3195 -0.2218 -0.7233
  570TMC3    C3 8452   4.717   1.992  16.108 -0.0668  0.7121 -0.6821
  570TMC3    C4 8453   4.563   1.981  16.339  0.2232  0.7234 -0.0211
  570TMC3    C5 8454   4.625   2.098  16.298  0.0673  0.0346 -0.4745
  570TMC3    C6 8455   4.704   2.101  16.188 -0.1951  0.2720  0.5771
  570TMC3     C 8456   4.493   1.758  16.272 -0.0066  0.7526 -0.0069
  570TMC3     O 8457   4.477   1.685  16.177 -0.1347  0.3409 -0.2878
  570TMC3     H 8458   4.636   1.795  16.069  1.0120 -1.7405  0.8568
  570TMC3    H1 8459   4.512   1.973  16.434  0.3799  0.7625  0.0675
  570TMC3    H2 8460   0.040   2.188  16.171 -0.0385  0.1537  0.5468
  570TMC3    C7 8461   4.615   2.212  16.390 -0.8361  0.3186 -0.0658
  570TMC3    C8 8462   0.095   2.003  16.010 -0.4825 -0.1319 -0.1305
  570TMC3    O1 8463   4.585   2.187  16.503  0.2318  0.0131  0.6267
  570TMC3    O2 8464   0.144   2.110  15.978 -0.1260  0.4598 -0.6803
  571MPD2     C 8465   3.601   4.685  17.462 -0.7268 -0.3021  0.7996
  571MPD2    C1 8466   3.603   4.549  17.470  0.3351 -0.1506  0.4747
  571MPD2    C2 8467   3.489   4.478  17.500 -0.7915 -0.4691  0.6290
  571MPD2    C3 8468   3.372   4.542  17.528 -0.0886 -0.4203  0.2486
  571MPD2    C4 8469   3.368   4.681  17.524 -0.3286 -0.0426  0.5418
  571MPD2    C5 8470   3.479   0.019  17.485  0.7810  0.2698 -1.1384
  571MPD2     H 8471   3.476   4.371  17.485  0.6181 -0.4310 -0.8384
  571MPD2    H1 8472   3.289   0.022  17.552 -1.1232 -1.3585  1.4982
  571MPD2    H2 8473   3.690   0.017  17.438  0.2520 -2.3720 -0.6172
  571MPD2    H3 8474   3.467   0.124  17.458  1.5625  0.4026 -0.9606
  571MPD2     N 8475   3.247   4.493  17.559 -0.3014 -0.5207  0.4702
  571MPD2    H5 8476   3.175   4.563  17.574  0.4989  0.2446  0.7131
  571MPD2    N1 8477   3.727   4.490  17.445 -0.8397 -0.4105  0.1090
  571MPD2    H7 8478   3.807   4.551  17.431 -2.5023  2.0172  1.1799
  572TMC3    C1 8479   3.075   4.341  17.620  0.2318  0.2320  0.3325
  572TMC3    C2 8480   3.026   4.207  17.632  0.3616 -0.0244 -0.3453
  572TMC3    C3 8481   2.897   4.195  17.669 -0.0982 -0.1480 -0.1794
  572TMC3    C4 8482   2.997   4.448  17.652 -0.2061 -0.3988 -0.3075
  572TMC3    C5 8483   2.873   4.426  17.698  0.2133  0.0107 -0.5851
  572TMC3    C6 8484   2.819   4.299   0.004 -0.2545  0.4409 -0.4921
  572TMC3     C 8485   3.214   4.357  17.578  0.0980 -0.3964 -0.5518
  572TMC3     O 8486   3.286   4.261  17.572  0.1001  0.7967 -0.1896
  572TMC3     H 8487   3.075   4.117  17.597  1.7355  0.5767 -0.0024
  572TMC3    H1 8488   3.027   4.552  17.647  4.2617 -1.7309 -1.3648
  572TMC3    H2 8489   2.712   4.284   0.015 -0.4744  2.7456  0.3688
  572TMC3    C7 8490   2.791   4.541   0.018  0.1367 -0.5538 -0.3846
  572TMC3    C8 8491   2.849   4.057  17.690 -0.4725 -0.7313  0.3441
  572TMC3    O1 8492   2.827   4.641  17.671 -0.0973  0.3305 -0.0953
  572TMC3    O2 8493   2.896   3.973  17.617 -0.5754 -1.0583 -0.1513
  573MPD2     C 8494   4.041   4.123   0.741  0.2961 -0.2220 -0.5866
  573MPD2    C1 8495   3.985   4.252   0.737  0.0895  0.6382  0.2221
  573MPD2    C2 8496   3.916   4.288   0.620  0.5958 -0.1839 -0.4607
  573MPD2    C3 8497   3.893   4.196   0.516 -0.5259 -0.9093  0.5707
  573MPD2    C4 8498   3.942   4.071   0.529 -0.2233 -0.0387 -0.4461
  573MPD2    C5 8499   4.009   4.034   0.644 -0.0992  0.5903  0.6640
  573MPD2     H 8500   3.880   4.389   0.605  1.3550 -0.1269 -1.9060
  573MPD2    H1 8501   3.923   3.993   0.456 -1.1087 -1.2278  1.0636
  573MPD2    H2 8502   4.095   4.095   0.831 -1.0604 -0.3265  0.1876
  573MPD2    H3 8503   4.039   3.931   0.658 -1.2230  0.1625 -0.1398
  573MPD2     N 8504   3.816   4.227   0.400 -0.1808  0.6041  0.7215
  573MPD2    H5 8505   3.804   4.150   0.335  0.0782  1.4686 -0.3600
  573MPD2    N1 8506   4.013   4.337   0.844 -0.7523  0.0912  1.0332
  573MPD2    H7 8507   4.065   4.298   0.922  2.3045  1.7249 -0.2306
  574TMC3    C1 8508   3.651   4.307   0.270 -0.1406 -0.0539  0.4730
  574TMC3    C2 8509   3.538   4.382   0.272  0.3900  0.3097  0.1402
  574TMC3    C3 8510   3.427   4.331   0.206  0.4983 -1.2326  0.8409
  574TMC3    C4 8511   3.648   4.181   0.205 -0.6615  0.4675  0.4921
  574TMC3    C5 8512   3.541   4.135   0.137 -0.8517 -0.1216 -0.0263
  574TMC3    C6 8513   3.424   4.208   0.138  0.1130  1.0601  0.8669
  574TMC3     C 8514   3.740   4.336   0.374  0.4172  0.9406  0.3813
  574TMC3     O 8515   3.726   4.438   0.442 -0.3292  0.7060 -0.5729
  574TMC3     H 8516   3.530   4.476   0.325  2.1196  0.4999  0.0693
  574TMC3    H1 8517   3.747   4.140   0.190 -1.0931 -0.0559 -0.8875
  574TMC3    H2 8518   3.334   4.175   0.088  0.6118 -0.7201  1.1290
  574TMC3    C7 8519   3.546   4.023   0.043  0.3824  0.8522 -0.6048
  574TMC3    C8 8520   3.304   4.400   0.209 -1.1626 -0.5263 -0.1108
  574TMC3    O1 8521   3.638   3.947   0.051 -0.4362 -0.7210  0.0607
  574TMC3    O2 8522   3.208   4.323   0.226  0.2370 -0.2602  0.3200
  575TMC3    C1 8523   0.784   0.494  10.638 -0.1248  0.2808  0.5642
  575TMC3    C2 8524   0.658   0.460  10.651  0.4409  0.3697  0.0817
  575TMC3    C3 8525   0.577   0.475  10.539 -0.1808 -0.2012 -0.2984
  575TMC3    C4 8526   0.836   0.545  10.523  0.1143 -0.9396 -0.7664
  575TMC3    C5 8527   0.751   0.547  10.413 -0.0965 -0.4884  0.3811
  575TMC3    C6 8528   0.622   0.521  10.422  0.4320  0.1238  0.5183
  575TMC3     C 8529   0.859   0.494  10.761  0.0617 -0.7587 -0.0210
  575TMC3     O 8530   0.802   0.449  10.858  0.2788  0.5545 -0.8928
  575TMC3     H 8531   0.607   0.443  10.745  0.6045 -0.5359  0.0002
  575TMC3    H1 8532   0.939   0.566  10.497  0.4222 -0.3774  0.9075
  575TMC3    H2 8533   0.556   0.518  10.336  0.0804  1.5849  0.7265
  575TMC3    C7 8534   0.798   0.598  10.288 -0.1721 -0.2773  0.6088
  575TMC3    C8 8535   0.446   0.411  10.545 -0.3873  0.1513 -1.3296
  575TMC3    O1 8536   0.874   0.694  10.297 -1.2516 -0.4135  0.7899
  575TMC3    O2 8537   0.353   0.446  10.474 -0.4758 -0.5141 -0.3165
  576MPD2     C 8538   0.627   2.278  12.607 -0.0596  0.1582 -0.3112
  576MPD2    C1 8539   0.757   2.322  12.633  0.2576  0.5084 -0.4002
  576MPD2    C2 8540   0.778   2.385  12.757  0.1453  0.0519  0.2689
  576MPD2    C3 8541   0.677   2.417  12.855 -0.4883  0.7152 -0.1537
  576MPD2    C4 8542   0.548   2.367  12.818  0.2617 -0.6578 -0.0614
  576MPD2    C5 8543   0.531   2.294  12.702 -1.0346  0.4866  0.2260
  576MPD2     H 8544   0.877   2.425  12.772 -0.1719  0.8561  0.2180
  576MPD2    H1 8545   0.460   2.370  12.881 -0.9859 -0.5748 -1.8203
  576MPD2    H2 8546   0.601   2.230  12.514 -0.6167 -1.7500  0.8232
  576MPD2    H3 8547   0.435   2.253  12.673 -0.8189  1.5075 -1.9133
  576MPD2     N 8548   0.704   2.499  12.964 -0.3822  0.0487 -0.2647
  576MPD2    H5 8549   0.791   2.551  12.962  1.0747 -2.3974  0.4921
  576MPD2    N1 8550   0.857   2.314  12.536  0.0239 -0.0459  0.2322
  576MPD2    H7 8551   0.940   2.359  12.574 -0.2660  1.1389 -0.5483
  577TMC3    C1 8552   0.975   2.266  12.342 -0.1926  0.5044 -0.2169
  577TMC3    C2 8553   1.091   2.244  12.415 -0.0631  0.0669 -0.4392
  577TMC3    C3 8554   1.204   2.228  12.332  0.3327  0.3168  0.1734
  577TMC3    C4 8555   0.968   2.250  12.206 -0.1313  0.3595 -0.5417
  577TMC3    C5 8556   1.083   2.248  12.136 -0.2984 -0.1916  0.1778
  577TMC3    C6 8557   1.208   2.242  12.196 -0.4479 -0.3273  0.3355
  577TMC3     C 8558   0.848   2.265  12.404  0.4671  0.9038 -0.2603
  577TMC3     O 8559   0.749   2.233  12.339 -0.1168 -0.1883 -0.2043
  577TMC3     H 8560   1.092   2.249  12.523  2.0010  1.4815 -0.5209
  577TMC3    H1 8561   0.871   2.240  12.157 -0.5866  1.7754  0.0609
  577TMC3    H2 8562   1.298   2.250  12.137 -0.4246 -0.6383  0.3279
  577TMC3    C7 8563   1.072   2.272  11.998 -0.5197  0.2966 -0.0667
  577TMC3    C8 8564   1.314   2.154  12.398  0.6026 -0.4536 -0.9070
  577TMC3    O1 8565   1.156   2.219  11.928  0.1972 -0.4371  0.4816
  577TMC3    O2 8566   1.274   2.088  12.492 -0.0162 -0.1184  0.5414
  578MPD2     C 8567   4.222   2.240   1.378 -0.2281 -0.6535 -1.1137
  578MPD2    C1 8568   4.261   2.155   1.274  0.1866  0.1727 -0.3333
  578MPD2    C2 8569   4.278   2.019   1.305  0.3912 -0.5531 -0.4748
  578MPD2    C3 8570   4.276   1.977   1.436 -0.0782 -0.1411 -0.0484
  578MPD2    C4 8571   4.237   2.058   1.541  0.3239 -0.6599 -0.0258
  578MPD2    C5 8572   4.204   2.190   1.509  0.4311  0.3559  0.0649
  578MPD2     H 8573   4.290   1.954   1.219  0.4835  2.0910 -2.4724
  578MPD2    H1 8574   4.223   2.031   1.645 -1.2403  0.5501  0.0751
  578MPD2    H2 8575   4.211   2.346   1.361 -0.6890 -0.4726  0.3329
  578MPD2    H3 8576   4.177   2.245   1.598  3.2629  2.7348 -0.5082
  578MPD2     N 8577   4.303   1.836   1.454 -0.1069 -0.7262  0.0964
  578MPD2    H5 8578   4.331   1.791   1.367 -1.8481 -1.7494  0.0713
  578MPD2    N1 8579   4.287   2.210   1.148  0.2926  0.3432 -0.3114
  578MPD2    H7 8580   4.260   2.308   1.141  0.6788  0.4955  0.2718
  579TMC3    C1 8581   4.354   1.626   1.565  0.1023 -0.1089 -0.0959
  579TMC3    C2 8582   4.380   1.556   1.676 -0.7243 -0.2525  0.4147
  579TMC3    C3 8583   4.451   1.444   1.679  0.0994  0.1057 -0.3318
  579TMC3    C4 8584   4.406   1.586   1.443  0.8006 -0.0805  0.1300
  579TMC3    C5 8585   4.484   1.470   1.448  0.6939 -0.2769 -0.1336
  579TMC3    C6 8586   4.509   1.395   1.563 -0.1483 -0.4007 -0.7678
  579TMC3     C 8587   4.312   1.770   1.578  0.2243  0.3615  0.2904
  579TMC3     O 8588   4.293   1.803   1.695  0.3344 -0.0863  0.1956
  579TMC3     H 8589   4.341   1.605   1.765  1.7030 -0.9898  1.9049
  579TMC3    H1 8590   4.376   1.635   1.351  0.3065  0.0913  0.3810
  579TMC3    H2 8591   4.591   1.324   1.567 -0.2201 -0.3700  1.2253
  579TMC3    C7 8592   4.506   1.398   1.319 -0.2802  0.4259  0.0413
  579TMC3    C8 8593   4.505   1.419   1.815  0.0825 -0.1438  0.2691
  579TMC3    O1 8594   4.587   1.307   1.318 -0.2179 -0.1327 -0.0934
  579TMC3    O2 8595   4.431   1.447   1.909  0.8813 -0.1189  0.6990
  580TMC3    C1 8596   4.183   1.804  12.281  0.6936 -0.5527 -0.2844
  580TMC3    C2 8597   4.289   1.871  12.225  0.6031 -1.2060  0.3591
  580TMC3    C3 8598   4.408   1.817  12.214 -0.8779 -0.1544 -0.2083
  580TMC3    C4 8599   4.197   1.681  12.335  0.5580 -0.0842  0.0149
  580TMC3    C5 8600   4.312   1.616  12.299 -0.4614  0.2956  0.0277
  580TMC3    C6 8601   4.418   1.686  12.252  0.3531  0.1844  0.2659
  580TMC3     C 8602   4.051   1.863  12.259  0.3721  0.0605 -0.8251
  580TMC3     O 8603   3.964   1.877  12.341  0.0223 -0.3321 -0.2517
  580TMC3     H 8604   4.273   1.976  12.203  0.9529 -1.5477 -1.4776
  580TMC3    H1 8605   4.111   1.630  12.377  0.1305 -0.7277 -1.6143
  580TMC3    H2 8606   4.510   1.629  12.236  0.5197  0.2191  1.1024
  580TMC3    C7 8607   4.324   1.479  12.358  0.5866 -0.0725  0.6795
  580TMC3    C8 8608   4.514   1.879  12.139 -0.0591  0.1874 -0.3617
  580TMC3    O1 8609   4.249   1.438  12.448  0.6337  0.1115 -0.0898
  580TMC3    O2 8610   4.508   2.001  12.131  0.2272  0.2285  0.7029
  581MPD2     C 8611   1.976   0.929  14.830 -0.3167  1.0226  0.3379
  581MPD2    C1 8612   1.848   0.905  14.871  0.6861 -0.9251 -0.3893
  581MPD2    C2 8613   1.742   0.950  14.796  0.3506 -0.0481 -0.5283
  581MPD2    C3 8614   1.765   1.025  14.681  0.0025  0.3956  0.5899
  581MPD2    C4 8615   1.895   1.046  14.640 -0.1222 -0.2429 -0.4243
  581MPD2    C5 8616   1.996   0.999  14.717 -0.2305  0.9039  0.7077
  581MPD2     H 8617   1.640   0.937  14.831  1.1525  0.1194  1.9054
  581MPD2    H1 8618   1.913   1.102  14.549  0.3871 -1.4460 -1.0655
  581MPD2    H2 8619   2.060   0.884  14.880 -1.4634 -1.2692  0.2044
  581MPD2    H3 8620   2.095   1.007  14.673 -0.1294 -1.1483  0.5389
  581MPD2     N 8621   1.662   1.078  14.597 -0.0818  0.2311 -0.3430
  581MPD2    H5 8622   1.566   1.060  14.625 -0.1081 -2.3181 -2.0893
  581MPD2    N1 8623   1.836   0.830  14.993 -0.2062  0.5277 -0.1172
  581MPD2    H7 8624   1.920   0.818  15.049 -0.4304  2.1028  0.5542
  582TMC3    C1 8625   1.746   0.737  15.184 -0.8669 -0.6945 -0.7303
  582TMC3    C2 8626   1.819   0.810  15.279 -1.0519  0.0231  0.2067
  582TMC3    C3 8627   1.791   0.785  15.407  0.2376 -0.4903  0.8608
  582TMC3    C4 8628   1.651   0.652  15.224 -0.4370  0.4051  0.1855
  582TMC3    C5 8629   1.611   0.642  15.355 -0.3673  0.0131  0.8424
  582TMC3    C6 8630   1.688   0.697  15.453  0.2526 -0.1805 -1.1156
  582TMC3     C 8631   1.720   0.798  15.062 -0.9851 -0.3605 -0.6175
  582TMC3     O 8632   1.604   0.802  15.027  0.0582 -0.4340  0.4379
  582TMC3     H 8633   1.886   0.890  15.252 -0.7859 -0.2130  0.1575
  582TMC3    H1 8634   1.577   0.611  15.156 -1.3132  1.7082  0.3460
  582TMC3    H2 8635   1.665   0.674  15.556 -0.6839 -1.4197 -1.6032
  582TMC3    C7 8636   1.475   0.679  15.375 -0.3978 -0.2136 -0.0164
  582TMC3    C8 8637   1.823   0.889  15.506 -0.1761 -0.0950  0.0863
  582TMC3    O1 8638   1.427   0.645  15.479 -0.0973  0.1574 -0.4801
  582TMC3    O2 8639   1.737   0.922  15.585 -0.2239 -0.7004  0.3084
  583MPD2     C 8640   1.730   3.034  16.394  0.5270  0.5744  1.0091
  583MPD2    C1 8641   1.809   3.147  16.383 -0.3507 -0.6111  0.2319
  583MPD2    C2 8642   1.799   3.247  16.476  0.2951  0.2477  0.1163
  583MPD2    C3 8643   1.707   3.237  16.575  0.2815  0.3995  0.2318
  583MPD2    C4 8644   1.621   3.134  16.579 -0.7772 -0.2438 -0.5754
  583MPD2    C5 8645   1.633   3.034  16.485 -0.4553 -0.3061  0.4289
  583MPD2     H 8646   1.865   3.333  16.469 -0.8102  1.2111  1.4889
  583MPD2    H1 8647   1.538   3.120  16.647 -0.4433 -0.2234 -0.1654
  583MPD2    H2 8648   1.737   2.956  16.320 -1.6980  0.0568  1.3577
  583MPD2    H3 8649   1.552   2.961  16.484 -0.2826 -0.4603 -1.9906
  583MPD2     N 8650   1.713   3.333  16.678 -0.2962 -0.6870  0.5873
  583MPD2    H5 8651   1.769   3.414  16.654 -0.9424 -0.9190 -1.6060
  583MPD2    N1 8652   1.904   3.171  16.277 -0.2475  0.0320 -0.3941
  583MPD2    H7 8653   1.958   3.256  16.290 -1.0998  0.5598 -0.3525
  584TMC3    C1 8654   1.670   3.421  16.895 -0.5800 -0.3464 -0.6744
  584TMC3    C2 8655   1.680   3.549  16.856 -0.2126 -0.3632  0.2270
  584TMC3    C3 8656   1.658   3.644  16.953 -0.1448 -0.3683  0.2694
  584TMC3    C4 8657   1.642   3.391  17.029 -0.4744  0.0902 -0.2582
  584TMC3    C5 8658   1.640   3.486  17.129 -0.6210 -0.2199 -0.2684
  584TMC3    C6 8659   1.646   3.618  17.094  0.0120  0.0143  0.4268
  584TMC3     C 8660   1.642   3.314  16.799 -0.0181 -1.0416 -0.0143
  584TMC3     O 8661   1.564   3.225  16.838 -0.5245 -0.5893 -0.0308
  584TMC3     H 8662   1.714   3.566  16.755 -1.0279 -1.1753 -0.1882
  584TMC3    H1 8663   1.648   3.286  17.052 -0.6306 -0.0670 -0.9550
  584TMC3    H2 8664   1.632   3.694  17.170  3.0478  0.6500  0.3706
  584TMC3    C7 8665   1.597   3.446  17.259  0.2637 -0.0151  0.6842
  584TMC3    C8 8666   1.691   3.784  16.904  0.7128  0.6644 -0.4825
  584TMC3    O1 8667   1.613   3.329  17.285 -0.1149 -0.4603  0.9823
  584TMC3    O2 8668   1.692   3.805  16.784  0.1070  0.3890  0.3726
  585MPD2     C 8669   0.979   1.475   1.032 -0.0829 -0.1048  0.9511
  585MPD2    C1 8670   1.098   1.438   0.973 -0.2162  0.3484 -0.0353
  585MPD2    C2 8671   1.104   1.440   0.835  0.4295  0.4269  0.8047
  585MPD2    C3 8672   0.992   1.444   0.750 -0.1525  0.2039 -0.3290
  585MPD2    C4 8673   0.875   1.479   0.815 -0.2107  0.0066 -0.4884
  585MPD2    C5 8674   0.871   1.493   0.951  0.5460  0.1787 -0.2673
  585MPD2     H 8675   1.200   1.428   0.787 -0.0202  3.2128 -0.7977
  585MPD2    H1 8676   0.781   1.483   0.762  0.5095  0.8070 -1.7076
  585MPD2    H2 8677   0.977   1.479   1.140 -0.9486 -1.7631  1.0073
  585MPD2    H3 8678   0.781   1.535   0.994  1.4028 -0.5096  2.1506
  585MPD2     N 8679   0.989   1.443   0.611  0.0789 -0.1552  0.6365
  585MPD2    H5 8680   0.914   1.487   0.559  0.4203  0.2802  0.5110
  585MPD2    N1 8681   1.202   1.418   1.063 -0.6990  0.2290 -0.3784
  585MPD2    H7 8682   1.180   1.409   1.162 -1.2547  2.1382 -0.3268
  586TMC3    C1 8683   1.084   1.412   0.395  0.1707  0.6493  1.2013
  586TMC3    C2 8684   1.198   1.400   0.320  0.5560 -0.0691 -0.7558
  586TMC3    C3 8685   1.196   1.458   0.198 -0.3602  0.2858  0.2347
  586TMC3    C4 8686   0.961   1.435   0.335 -0.2448  0.1866  0.2753
  586TMC3    C5 8687   0.967   1.471   0.201 -0.4451 -0.2960  0.3244
  586TMC3    C6 8688   1.081   1.493   0.133  0.1667 -0.3719  0.1419
  586TMC3     C 8689   1.097   1.391   0.544 -0.0593 -0.5663 -0.1940
  586TMC3     O 8690   1.193   1.322   0.583  0.5347  0.1975  0.5753
  586TMC3     H 8691   1.286   1.353   0.360 -0.0560 -1.3245 -0.8656
  586TMC3    H1 8692   0.864   1.436   0.383 -1.0611 -0.2426 -1.3647
  586TMC3    H2 8693   1.087   1.529   0.031 -0.0450  0.9000  0.5805
  586TMC3    C7 8694   0.834   1.470   0.141  0.0066  0.0673 -0.3098
  586TMC3    C8 8695   1.319   1.453   0.122 -0.2246  1.2277  0.2104
  586TMC3    O1 8696   0.768   1.369   0.167  0.6588 -0.3214 -0.0002
  586TMC3    O2 8697   1.416   1.385   0.158 -0.2756  0.1479 -0.1024
  587TMC3    C1 8698   3.335   0.676  16.374 -0.1614  0.3469 -1.0683
  587TMC3    C2 8699   3.268   0.788  16.326 -0.3602 -0.1350  0.6394
  587TMC3    C3 8700   3.318   0.858  16.219 -0.7108 -0.5235 -0.4566
  587TMC3    C4 8701   3.450   0.630  16.321 -0.4885  0.2065  0.0903
  587TMC3    C5 8702   3.494   0.695  16.214  0.1815  0.9239  0.4351
  587TMC3    C6 8703   3.429   0.806  16.159 -0.1332 -0.1720  0.2513
  587TMC3     C 8704   3.258   0.579  16.445  0.7369 -0.4513  0.2345
  587TMC3     O 8705   3.305   0.515  16.537 -0.2998 -0.0615 -0.3122
  587TMC3     H 8706   3.172   0.809  16.371 -0.0817  1.0724  0.6629
  587TMC3    H1 8707   3.496   0.534  16.343  1.5509  1.4771  1.4949
  587TMC3    H2 8708   3.480   0.861  16.080 -1.8753  2.5266  1.0261
  587TMC3    C7 8709   3.620   0.651  16.159 -0.5638  0.3219 -0.0391
  587TMC3    C8 8710   3.255   0.976  16.162 -0.4152  0.4318 -0.4101
  587TMC3    O1 8711   3.702   0.597  16.230  0.6823 -0.3493 -0.1953
  587TMC3    O2 8712   3.308   1.032  16.067 -0.0984 -0.3390  0.1108
  588TMC3    C1 8713   0.403   2.897   9.960  0.4129 -0.9173 -0.1532
  588TMC3    C2 8714   0.428   2.780   9.892 -0.2609  0.6477  0.4959
  588TMC3    C3 8715   0.552   2.726   9.894 -0.3164  0.1889  0.2064
  588TMC3    C4 8716   0.506   2.954  10.040  0.5310 -0.1863 -0.6245
  588TMC3    C5 8717   0.629   2.892  10.033  0.1432  0.8152 -0.0640
  588TMC3    C6 8718   0.661   2.785   9.953  0.0855 -0.3273 -0.6896
  588TMC3     C 8719   0.296   2.979   9.907  0.4526 -0.2047  0.6434
  588TMC3     O 8720   0.213   2.925   9.835  0.5626 -0.0752  0.2218
  588TMC3     H 8721   0.347   2.737   9.835 -0.5359 -0.7818  1.9854
  588TMC3    H1 8722   0.500   3.030  10.117 -0.3626 -1.2810  0.3984
  588TMC3    H2 8723   0.760   2.742   9.959 -0.4255 -1.6893 -1.9838
  588TMC3    C7 8724   0.741   2.983  10.060 -0.5041 -0.1913  0.3756
  588TMC3    C8 8725   0.566   2.602   9.819 -0.0015  0.2131 -0.4814
  588TMC3    O1 8726   0.849   2.933  10.091 -0.4351 -0.7195 -0.4500
  588TMC3    O2 8727   0.470   2.564   9.752  0.7694  0.0743 -0.1043
  589TMC3    C1 8728   4.533   0.412   1.276 -0.2017  0.3431  0.5920
  589TMC3    C2 8729   4.626   0.402   1.379 -0.4607  0.0920  0.5731
  589TMC3    C3 8730   4.713   0.302   1.366  0.3410  0.7992  0.0917
  589TMC3    C4 8731   4.544   0.326   1.166  0.4513  0.0015 -0.0009
  589TMC3    C5 8732   4.627   0.221   1.173  0.6096  0.2032  0.1573
  589TMC3    C6 8733   4.717   0.208   1.271  0.5999 -0.1564  0.5880
  589TMC3     C 8734   4.452   0.531   1.264 -0.1525  0.5879  0.4275
  589TMC3     O 8735   4.431   0.572   1.149 -0.1034  0.6290  0.0950
  589TMC3     H 8736   4.619   0.455   1.473  1.0893  3.1468 -1.0346
  589TMC3    H1 8737   4.469   0.331   1.087  1.0685 -1.9257 -0.7146
  589TMC3    H2 8738   0.021   0.104   1.280 -2.6634 -1.2323 -0.2998
  589TMC3    C7 8739   4.620   0.115   1.080  0.0180 -0.4527 -0.6336
  589TMC3    C8 8740   0.059   0.269   1.489  0.2758  0.3763  0.4730
  589TMC3    O1 8741   4.718   0.039   1.079 -0.2029  0.4967  0.2879
  589TMC3    O2 8742   0.002   0.288   1.596  0.2093  0.6332  0.6373
  590MPD2     C 8743   4.285   3.443  16.773  0.6833  0.0710  0.6655
  590MPD2    C1 8744   4.251   3.574  16.739 -0.6582 -0.2964 -0.8790
  590MPD2    C2 8745   4.353   3.644  16.679  0.2206  0.0237 -0.1342
  590MPD2    C3 8746   4.479   3.589  16.656  0.6739 -0.0306  0.2651
  590MPD2    C4 8747   4.506   3.460  16.703  0.9442  0.5330 -0.4301
  590MPD2    C5 8748   4.406   3.395  16.773 -0.0315 -0.1988  0.3967
  590MPD2     H 8749   4.339   3.749  16.657  2.5808  0.5088  0.6890
  590MPD2    H1 8750   4.601   3.413  16.680  0.0946  0.5836 -4.0333
  590MPD2    H2 8751   4.207   3.384  16.819  0.1483 -0.2892 -0.7181
  590MPD2    H3 8752   4.424   3.291  16.800 -0.0200  0.0072  1.1773
  590MPD2     N 8753   4.566   3.663  16.572 -0.1109  0.8492 -0.2877
  590MPD2    H5 8754   4.525   3.752  16.547  0.5853  1.5061  0.9340
  590MPD2    N1 8755   4.122   3.626  16.760 -0.1280  0.1001 -0.3650
  590MPD2    H7 8756   4.048   3.558  16.775 -1.5475  1.3709 -1.6243
  591TMC3    C1 8757   0.034   3.727  16.455  0.0579  0.2392 -0.3073
  591TMC3    C2 8758   0.106   3.681  16.350  0.7513 -0.0729 -0.0031
  591TMC3    C3 8759   0.130   3.766  16.247 -0.1813  0.0573  0.4478
  591TMC3    C4 8760   4.706   3.857  16.460  1.3259  0.8487 -0.3278
  591TMC3    C5 8761   4.719   3.934  16.354  0.9766  0.3418  0.1218
  591TMC3    C6 8762   0.064   3.886  16.248 -0.0783 -0.3212 -0.3326
  591TMC3     C 8763   4.697   3.633  16.539 -0.1133  1.3010 -0.2122
  591TMC3     O 8764   0.041   3.542  16.573  0.2503 -0.0094  0.2281
  591TMC3     H 8765   0.138   3.578  16.347 -0.6014 -0.5095  0.2723
  591TMC3    H1 8766   4.634   3.893  16.533  0.5399  0.8797 -1.1187
  591TMC3    H2 8767   0.066   3.949  16.160 -2.5621 -0.7177 -0.6596
  591TMC3    C7 8768   4.647   4.062  16.342  0.3129 -0.3721 -0.3378
  591TMC3    C8 8769   0.180   3.701  16.128  0.5137  0.2618  0.1919
  591TMC3    O1 8770   4.548   4.071  16.413  0.4221 -0.3875 -0.2385
  591TMC3    O2 8771   0.195   3.580  16.145  0.2297 -0.6632 -0.2490
  592MPD2     C 8772   0.472   0.817  11.398 -0.2790 -0.7717  0.0754
  592MPD2    C1 8773   0.453   0.899  11.511  0.5306  0.5653  0.3313
  592MPD2    C2 8774   0.351   0.863  11.598  0.0197 -0.8350 -0.2294
  592MPD2    C3 8775   0.283   0.743  11.579 -0.0228 -0.2851  0.2982
  592MPD2    C4 8776   0.322   0.661  11.476 -0.5356 -0.2954  0.2043
  592MPD2    C5 8777   0.407   0.704  11.375  0.2684  0.8000  0.1786
  592MPD2     H 8778   0.326   0.927  11.681  0.1129 -0.7259 -0.2860
  592MPD2    H1 8779   0.295   0.556  11.472  0.0152 -0.3722 -1.4787
  592MPD2    H2 8780   0.546   0.840  11.323 -0.5685 -1.5550 -0.4537
  592MPD2    H3 8781   0.440   0.638  11.295 -0.1598  0.6148  0.1521
  592MPD2     N 8782   0.184   0.698  11.673 -0.3917  0.4297 -0.0593
  592MPD2    H5 8783   0.164   0.755  11.754  0.3101 -0.5859  0.8273
  592MPD2    N1 8784   0.537   1.010  11.533  0.6671  0.0858 -0.4413
  592MPD2    H7 8785   0.597   1.025  11.453  3.3703 -0.4734  1.4934
  593TMC3    C1 8786   0.608   1.215  11.616 -0.0331  0.0411 -0.1855
  593TMC3    C2 8787   0.637   1.293  11.727 -0.0278  0.2750  0.4538
  593TMC3    C3 8788   0.682   1.423  11.706  0.2150  0.4883  0.7971
  593TMC3    C4 8789   0.626   1.256  11.483  0.6760  0.0531  0.2607
  593TMC3    C5 8790   0.661   1.386  11.467 -0.1094  0.9209 -0.7426
  593TMC3    C6 8791   0.691   1.472  11.574  0.3588 -0.7415 -0.0423
  593TMC3     C 8792   0.524   1.101  11.639 -0.9286  0.1139 -0.1011
  593TMC3     O 8793   0.457   1.097  11.741  0.7922  0.3421  0.3754
  593TMC3     H 8794   0.623   1.251  11.826 -1.3890 -1.3971 -0.4330
  593TMC3    H1 8795   0.597   1.199  11.395  1.0397 -3.3519  2.3265
  593TMC3    H2 8796   0.741   1.565  11.549  1.5488 -0.8883  1.7869
  593TMC3    C7 8797   0.684   1.451  11.337 -0.5340 -0.1733 -0.3064
  593TMC3    C8 8798   0.773   1.471  11.808 -0.2631  0.4833 -0.8533
  593TMC3    O1 8799   0.767   1.540  11.342 -0.2115  0.2010  0.1028
  593TMC3    O2 8800   0.810   1.389  11.894  0.5588  0.3415  0.1016
  594MPD2     C 8801   3.383   4.619  13.746  0.5100 -0.2924  0.5499
  594MPD2    C1 8802   3.423   4.582  13.873 -0.3410  0.3246  0.1052
  594MPD2    C2 8803   3.502   4.672  13.944 -0.5464  0.0296  0.0531
  594MPD2    C3 8804   3.553   0.054  13.886 -0.5829  0.6890  0.0260
  594MPD2    C4 8805   3.521   0.089  13.751  0.0961  0.2198  0.7863
  594MPD2    C5 8806   3.435   0.006  13.686  0.0492  0.1515  0.7819
  594MPD2     H 8807   3.516   4.654  14.050  1.4904  0.7700 -0.0976
  594MPD2    H1 8808   3.563   0.169  13.691 -1.5718  0.1205 -0.5054
  594MPD2    H2 8809   3.329   4.552  13.680 -0.2643  0.9119 -0.0404
  594MPD2    H3 8810   3.408   0.017  13.582  0.2361 -2.1856  0.4859
  594MPD2     N 8811   3.625   0.141  13.976  0.2229 -0.9139 -0.7162
  594MPD2    H5 8812   3.630   0.114  14.074  2.4695 -0.3860 -0.6848
  594MPD2    N1 8813   3.362   4.467  13.932 -0.1454 -0.7340 -0.4321
  594MPD2    H7 8814   3.289   4.429  13.873 -1.7509 -0.0726  1.1157
  595TMC3    C1 8815   3.923   0.432  14.135  0.2139  0.0559 -0.4434
  595TMC3    C2 8816   3.831   0.414  14.034 -0.1067  0.1583 -0.0659
  595TMC3    C3 8817   3.736   0.327  14.062  0.0636  0.2221 -0.6167
  595TMC3    C4 8818   3.903   0.396  14.265 -0.1981 -0.2727 -0.5366
  595TMC3    C5 8819   3.792   0.318  14.295  0.3901  0.6484  0.3693
  595TMC3    C6 8820   3.717   0.278  14.190 -0.2399  0.2136 -0.2593
  595TMC3     C 8821   4.059   0.480  14.098  0.1205  0.1497  0.4981
  595TMC3     O 8822   4.066   0.549  14.000  0.1122  0.4813 -0.1769
  595TMC3     H 8823   3.853   0.430  13.928 -0.6323 -0.1216 -0.2151
  595TMC3    H1 8824   3.972   0.420  14.344 -0.9572  0.8216 -0.1944
  595TMC3    H2 8825   3.626   0.225  14.214  0.1659 -0.6031 -0.5073
  595TMC3    C7 8826   3.714   0.345  14.413 -0.1075 -0.3672 -0.4874
  595TMC3    C8 8827   3.692   0.256  13.942  0.3715  0.0167 -0.0763
  595TMC3    O1 8828   3.591   0.340  14.403 -0.2340 -0.1536 -0.1765
  595TMC3    O2 8829   3.700   0.309  13.832  0.1361 -0.5303  0.3506
  596MPD2     C 8830   2.649   2.798  16.542 -0.0544  0.5990  0.2010
  596MPD2    C1 8831   2.714   2.921  16.539  0.5908  0.4624 -0.5711
  596MPD2    C2 8832   2.811   2.942  16.442  0.0683  0.8495  0.5342
  596MPD2    C3 8833   2.847   2.836  16.357  0.1785  0.3236  0.1824
  596MPD2    C4 8834   2.808   2.708  16.392  0.1280  0.9951 -0.3642
  596MPD2    C5 8835   2.705   2.692  16.476  0.0183  0.0885 -0.6380
  596MPD2     H 8836   2.856   3.039  16.428  2.6528 -0.9093 -3.1290
  596MPD2    H1 8837   2.824   2.620  16.331  2.6471  1.9834 -1.1436
  596MPD2    H2 8838   2.573   2.774  16.615  1.0192  0.4889  1.2893
  596MPD2    H3 8839   2.667   2.591  16.487  0.1257  0.0773 -0.3832
  596MPD2     N 8840   2.931   2.849  16.242  0.0945 -0.3569 -0.1151
  596MPD2    H5 8841   2.927   2.765  16.185  0.4872 -1.3371  1.3127
  596MPD2    N1 8842   2.675   3.034  16.610 -0.1102  0.4470 -0.9256
  596MPD2    H7 8843   2.737   3.114  16.603  0.6157 -0.1181 -0.9686
  597TMC3    C1 8844   2.546   3.172  16.738  0.3293  0.2490 -0.0602
  597TMC3    C2 8845   2.647   3.265  16.760 -0.2572  0.6028 -0.7551
  597TMC3    C3 8846   2.628   3.375  16.828  0.5322 -0.1269  0.4087
  597TMC3    C4 8847   2.421   3.202  16.790 -0.2914 -0.2764 -0.3968
  597TMC3    C5 8848   2.399   3.317  16.863  1.2904 -0.4965 -0.2648
  597TMC3    C6 8849   2.503   3.406  16.882  0.7418  0.3244  0.4992
  597TMC3     C 8850   2.556   3.044  16.683  0.4941  0.0266  0.1279
  597TMC3     O 8851   2.465   2.964  16.687  0.1657 -0.0530 -0.1799
  597TMC3     H 8852   2.749   3.247  16.726  0.7095  0.8009  2.0576
  597TMC3    H1 8853   2.338   3.134  16.773  1.0548 -2.3814  1.3630
  597TMC3    H2 8854   2.493   3.501  16.935 -0.5713  1.7167 -2.2530
  597TMC3    C7 8855   2.277   3.324  16.942  0.2236  0.2415  0.4726
  597TMC3    C8 8856   2.744   3.456  16.869 -0.2539  0.2104 -0.0063
  597TMC3    O1 8857   2.210   3.219  16.949 -0.2560  0.2994  0.1230
  597TMC3    O2 8858   2.738   3.581  16.866 -0.1587  0.0782 -0.3202
  598TMC3    C1 8859   0.954   4.111  15.238  0.2543 -0.4872  0.4013
  598TMC3    C2 8860   0.938   3.974  15.229  0.0836  0.0435 -0.3602
  598TMC3    C3 8861   0.917   3.911  15.107  1.1030 -0.1236  0.9075
  598TMC3    C4 8862   0.950   4.186  15.124 -0.0009  0.3193  0.3897
  598TMC3    C5 8863   0.929   4.117  15.002 -0.2183  0.0925 -0.4629
  598TMC3    C6 8864   0.918   3.983  14.990  0.8427  0.3928 -0.8022
  598TMC3     C 8865   0.952   4.176  15.366  0.1182 -0.1746  0.1586
  598TMC3     O 8866   0.897   4.283  15.374 -0.8028 -0.0279 -0.1320
  598TMC3     H 8867   0.928   3.918  15.321  2.6566 -0.5849 -0.4745
  598TMC3    H1 8868   0.936   4.293  15.137 -0.5176  0.2467  0.4283
  598TMC3    H2 8869   0.910   3.939  14.891 -0.3020  0.3770 -0.7027
  598TMC3    C7 8870   0.922   4.194  14.883 -0.5075 -0.0674  0.1671
  598TMC3    C8 8871   0.867   3.774  15.121  0.0214  0.3843  0.2047
  598TMC3    O1 8872   0.864   4.147  14.786  0.3329 -0.2547  0.2246
  598TMC3    O2 8873   0.805   3.741  15.220 -0.4975  0.0927  0.1491
  599MPD2     C 8874   0.984   1.997  15.860 -0.0713  0.8246  0.3230
  599MPD2    C1 8875   0.931   1.871  15.849 -0.3080 -0.0284  0.7920
  599MPD2    C2 8876   0.797   1.847  15.895  0.1543 -0.6327  0.4424
  599MPD2    C3 8877   0.716   1.957  15.939 -0.4674 -0.5647  0.4408
  599MPD2    C4 8878   0.767   2.086  15.935  0.1787  0.5078  0.1346
  599MPD2    C5 8879   0.899   2.099  15.893 -1.1382  0.5152  0.8082
  599MPD2     H 8880   0.758   1.745  15.899 -0.1259 -0.5477 -0.0925
  599MPD2    H1 8881   0.710   2.171  15.968  0.2143  0.4284  0.4010
  599MPD2    H2 8882   1.089   2.014  15.840 -0.6737  1.8825 -1.9368
  599MPD2    H3 8883   0.937   2.201  15.900  0.3149  0.1754 -2.0346
  599MPD2     N 8884   0.598   1.936  16.012 -0.1518  0.0155 -0.2988
  599MPD2    H5 8885   0.545   2.022  16.024 -0.7785 -0.4501  0.2484
  599MPD2    N1 8886   1.013   1.778  15.784 -0.0989  0.3599  0.5087
  599MPD2    H7 8887   1.097   1.823  15.749  0.5686 -3.0004 -2.2719
  600TMC3    C1 8888   0.430   1.842  16.143  0.0927  0.3214 -0.1797
  600TMC3    C2 8889   0.347   1.738  16.166 -0.0610 -0.5759  0.2064
  600TMC3    C3 8890   0.257   1.746  16.270 -0.5717 -0.3016 -0.1824
  600TMC3    C4 8891   0.432   1.952  16.231  0.4095  0.2737 -0.8144
  600TMC3    C5 8892   0.338   1.953  16.334 -0.1226  0.3648  0.6180
  600TMC3    C6 8893   0.250   1.853  16.355 -0.5701  0.1275 -0.0095
  600TMC3     C 8894   0.552   1.817  16.068  0.2498  0.0908 -0.3424
  600TMC3     O 8895   0.563   1.706  16.021  0.5502 -0.1750  0.1697
  600TMC3     H 8896   0.339   1.654  16.097 -0.5784  1.0905 -1.7411
  600TMC3    H1 8897   0.503   2.033  16.222  0.0254  0.8027  0.8415
  600TMC3    H2 8898   0.193   1.836  16.446 -0.0898  0.6722  0.3888
  600TMC3    C7 8899   0.342   2.058  16.435  0.3431 -0.9542  0.1869
  600TMC3    C8 8900   0.165   1.635  16.285 -0.6374 -0.0090 -0.3092
  600TMC3    O1 8901   0.244   2.067  16.504 -0.4184  0.5046  0.1908
  600TMC3    O2 8902   0.181   1.549  16.201  0.2714  0.2438  0.0204
  601MPD2     C 8903   2.410   0.001   0.275 -0.3339  0.6921 -0.3027
  601MPD2    C1 8904   2.502   0.063   0.196  0.1312  0.1265  0.0888
  601MPD2    C2 8905   2.615   4.724   0.153  0.0241  0.0023 -0.6301
  601MPD2    C3 8906   2.621   4.591   0.186  0.0503  0.3109 -0.5605
  601MPD2    C4 8907   2.533   4.531   0.269 -0.6960 -0.1294 -1.2501
  601MPD2    C5 8908   2.426   4.597   0.323 -0.1269  0.1767  0.2675
  601MPD2     H 8909   2.692   0.042   0.090  0.7528  0.2837  0.4583
  601MPD2    H1 8910   2.540   4.424   0.285 -1.7943  0.0049  0.1140
  601MPD2    H2 8911   2.325   0.058   0.310  1.2533  2.5815  0.4575
  601MPD2    H3 8912   2.354   4.543   0.384  1.0193 -1.3689  0.2678
  601MPD2     N 8913   2.709   4.503   0.119 -0.8130  0.4402 -0.3069
  601MPD2    H5 8914   2.711   4.407   0.150 -1.7979  0.3634 -0.4909
  601MPD2    N1 8915   2.483   0.198   0.153  0.0923 -0.5993 -1.0180
  601MPD2    H7 8916   2.557   0.239   0.096 -1.6538  1.9044 -1.5101
  602TMC3    C1 8917   2.381   0.400   0.099 -0.1071  0.5849 -1.1509
  602TMC3    C2 8918   2.499   0.469   0.090 -0.7162  0.6858  0.2432
  602TMC3    C3 8919   2.513   0.585   0.004  0.4417  0.3748 -0.1318
  602TMC3    C4 8920   2.269   0.444   0.033 -0.0293 -0.4059 -0.0055
  602TMC3    C5 8921   2.280   0.562  17.656  0.1598  0.2584 -0.1068
  602TMC3    C6 8922   2.399   0.627  17.644 -0.4258 -0.3254 -0.1498
  602TMC3     C 8923   2.369   0.275   0.177 -0.3329  0.4477  0.4875
  602TMC3     O 8924   2.260   0.245   0.217  0.0267  0.1520 -0.6362
  602TMC3     H 8925   2.586   0.428   0.140  0.9360  4.0434  0.1677
  602TMC3    H1 8926   2.184   0.377   0.026  0.6113 -1.4269  1.9352
  602TMC3    H2 8927   2.412   0.708  17.573  0.5623 -0.8440 -0.5661
  602TMC3    C7 8928   2.178   0.589  17.557  0.2603 -0.2438 -0.1253
  602TMC3    C8 8929   2.637   0.600  17.637  0.6933 -0.0392 -0.1510
  602TMC3    O1 8930   2.102   0.497  17.537 -0.6277 -0.0456 -0.5583
  602TMC3    O2 8931   2.699   0.497  17.619  0.4840 -0.1090  0.0745
  603TMC3    C1 8932   0.745   0.732  11.025 -0.3943 -0.1350  0.5710
  603TMC3    C2 8933   0.790   0.665  11.133 -0.2525 -0.0764 -0.1208
  603TMC3    C3 8934   0.912   0.696  11.186 -0.0859  0.7692 -1.1082
  603TMC3    C4 8935   0.832   0.807  10.959  0.5829  0.1045 -0.2864
  603TMC3    C5 8936   0.954   0.833  11.007  0.3234 -0.4458 -0.0918
  603TMC3    C6 8937   0.996   0.791  11.128 -0.1304 -0.3780 -0.6461
  603TMC3     C 8938   0.603   0.723  10.986  0.0285  0.0045 -0.1763
  603TMC3     O 8939   0.556   0.834  10.955 -0.1800  0.4955 -0.2585
  603TMC3     H 8940   0.722   0.616  11.202  0.5675  0.3999  1.0376
  603TMC3    H1 8941   0.792   0.870  10.880 -0.2863 -0.9203 -0.6632
  603TMC3    H2 8942   1.099   0.795  11.161 -0.1961 -0.1328 -0.4679
  603TMC3    C7 8943   1.043   0.896  10.911  0.4412  0.1625 -0.9598
  603TMC3    C8 8944   0.955   0.632  11.308  0.5477  0.1771 -0.1788
  603TMC3    O1 8945   1.140   0.945  10.963  0.3342 -0.2260 -0.3369
  603TMC3    O2 8946   0.914   0.517  11.318  0.1858  0.6150  0.3127
  604MPD2     C 8947   1.823   3.851  16.098 -0.2030  0.2841 -0.3191
  604MPD2    C1 8948   1.844   3.981  16.146 -0.4465  0.3968 -0.4263
  604MPD2    C2 8949   1.958   4.050  16.093  0.5477  0.5884  0.4815
  604MPD2    C3 8950   2.052   3.998  16.007 -0.0349  0.5206  0.0424
  604MPD2    C4 8951   2.033   3.860  15.970  0.8598  0.2985 -0.6396
  604MPD2    C5 8952   1.929   3.800  16.024 -0.5452 -0.7220 -0.0560
  604MPD2     H 8953   1.991   4.143  16.138 -2.4443  0.9088  2.0047
  604MPD2    H1 8954   2.105   3.803  15.912  0.5320  1.5172 -2.2525
  604MPD2    H2 8955   1.750   3.785  16.143  0.4524 -0.4554 -0.3344
  604MPD2    H3 8956   1.919   3.694  16.004 -0.5195 -1.0198  1.4613
  604MPD2     N 8957   2.159   4.075  15.959  0.3021  0.2644 -0.0281
  604MPD2    H5 8958   2.167   4.174  15.982  0.7438  0.3172 -0.4056
  604MPD2    N1 8959   1.755   4.033  16.241 -0.1688  1.4002  0.4216
  604MPD2    H7 8960   1.677   3.974  16.270  0.4443  2.2217  3.7966
  605TMC3    C1 8961   1.664   4.173  16.411  0.0049 -0.0673 -0.1486
  605TMC3    C2 8962   1.701   4.273  16.495 -0.1614  0.1244  0.3110
  605TMC3    C3 8963   1.619   4.385  16.517 -0.5641 -0.0019 -0.0726
  605TMC3    C4 8964   1.542   4.187  16.349  0.1589 -0.1651 -0.5437
  605TMC3    C5 8965   1.467   4.304  16.369 -1.1078  0.3179 -0.3364
  605TMC3    C6 8966   1.500   4.406  16.445 -0.4481  0.4204  0.0949
  605TMC3     C 8967   1.767   4.150  16.312  0.7177  0.2231  0.2921
  605TMC3     O 8968   1.853   4.237  16.308  0.6010  0.7853 -0.2163
  605TMC3     H 8969   1.791   4.261  16.555  1.2456 -0.0037 -1.8144
  605TMC3    H1 8970   1.516   4.113  16.274  1.2965  0.6626 -1.7519
  605TMC3    H2 8971   1.434   4.490  16.460  0.4276  0.9328  1.0967
  605TMC3    C7 8972   1.328   4.303  16.326  0.1539 -0.0031 -0.6658
  605TMC3    C8 8973   1.679   4.497  16.588 -0.1736  0.1994 -0.2526
  605TMC3    O1 8974   1.271   4.409  16.330  0.3819  0.0918 -0.2326
  605TMC3    O2 8975   1.796   4.484  16.626  0.2192 -0.2941  0.2235
  606TMC3    C1 8976   2.895   2.193  16.912  0.2764 -0.6945 -0.5693
  606TMC3    C2 8977   2.980   2.190  17.017 -0.1262 -0.1775  1.1241
  606TMC3    C3 8978   3.012   2.066  17.065  0.1439 -1.0759 -0.1166
  606TMC3    C4 8979   2.834   2.081  16.855  0.3557 -0.3618  0.4688
  606TMC3    C5 8980   2.865   1.956  16.910 -0.7874  1.0680  0.4116
  606TMC3    C6 8981   2.954   1.950  17.017 -0.5587 -0.4573  0.2541
  606TMC3     C 8982   2.825   2.318  16.870 -0.0536  0.1236 -0.8272
  606TMC3     O 8983   2.790   2.328  16.750  0.0945  0.7672  0.6446
  606TMC3     H 8984   3.030   2.276  17.062  0.7286 -0.4667  0.7308
  606TMC3    H1 8985   2.758   2.095  16.779  1.0357  2.6918  0.3453
  606TMC3    H2 8986   2.984   1.857  17.064 -0.1513 -0.6406 -0.3648
  606TMC3    C7 8987   2.747   1.869  16.920  0.2645 -0.1756  0.3212
  606TMC3    C8 8988   3.104   2.063  17.187  0.1316 -0.0468 -0.0006
  606TMC3    O1 8989   2.748   1.802  17.025 -0.0160 -0.5007  0.1529
  606TMC3    O2 8990   3.158   2.169  17.213 -0.0800 -0.4381 -0.0242
  607MPD2     C 8991   0.471   0.440  11.698  0.0632 -0.2268  0.1916
  607MPD2    C1 8992   0.520   0.519  11.801  0.3001  0.1032  0.2673
  607MPD2    C2 8993   0.460   0.507  11.923  0.9493 -0.2296 -0.6728
  607MPD2    C3 8994   0.354   0.418  11.941  0.0302  0.3353  0.3758
  607MPD2    C4 8995   0.305   0.342  11.840 -0.8239  0.7359 -0.0639
  607MPD2    C5 8996   0.371   0.346  11.720  0.5328 -0.6909 -0.7013
  607MPD2     H 8997   0.500   0.574  11.998 -0.9333  0.2033 -0.0568
  607MPD2    H1 8998   0.223   0.272  11.851 -0.7861  1.1159  2.4889
  607MPD2    H2 8999   0.518   0.457  11.602 -0.3991 -0.4921 -0.0843
  607MPD2    H3 9000   0.342   0.287  11.633 -0.0197  1.2933 -1.8677
  607MPD2     N 9001   0.299   0.420  12.073 -0.6463  0.2876 -0.0893
  607MPD2    H5 9002   0.342   0.486  12.138  2.3834 -2.6260  0.8717
  607MPD2    N1 9003   0.615   0.626  11.791 -1.4055  0.1334  0.2246
  607MPD2    H7 9004   0.619   0.683  11.875 -1.4403 -1.1554  1.1094
  608TMC3    C1 9005   0.794   0.755  11.743 -0.0870 -0.1325 -0.1793
  608TMC3    C2 9006   0.799   0.788  11.877  0.2246  0.2480 -0.1835
  608TMC3    C3 9007   0.851   0.914  11.911  0.3139  0.3577  0.2224
  608TMC3    C4 9008   0.846   0.839  11.648 -0.8432 -0.1768  0.6562
  608TMC3    C5 9009   0.888   0.964  11.681  0.3280 -0.4041 -0.2421
  608TMC3    C6 9010   0.889   1.006  11.816 -0.3136 -0.5541  0.6446
  608TMC3     C 9011   0.711   0.646  11.702  0.0229  0.2299 -0.4924
  608TMC3     O 9012   0.726   0.588  11.596  0.2618 -0.4141  0.0952
  608TMC3     H 9013   0.765   0.715  11.950  1.3311  0.7607  0.8585
  608TMC3    H1 9014   0.848   0.797  11.547  0.1586  1.0914  0.1524
  608TMC3    H2 9015   0.896   1.111  11.842  2.8145 -0.4851 -0.5438
  608TMC3    C7 9016   0.921   1.045  11.570  0.1975 -0.3411  0.3312
  608TMC3    C8 9017   0.796   0.976  12.033  0.1801 -0.4684  0.3051
  608TMC3    O1 9018   0.890   0.998  11.461  0.1131 -0.0369  0.4842
  608TMC3    O2 9019   0.735   1.082  12.024 -0.8540  0.0863  0.1173
  609TMC3    C1 9020   3.432   3.776   9.084  0.6589  0.2808 -0.6465
  609TMC3    C2 9021   3.399   3.725   8.957 -0.1138  0.4505 -0.3469
  609TMC3    C3 9022   3.447   3.602   8.919  0.4907 -0.8405 -0.6244
  609TMC3    C4 9023   3.519   3.709   9.168 -0.3826 -0.1178 -0.3877
  609TMC3    C5 9024   3.562   3.588   9.120 -0.1819  0.6368  0.3183
  609TMC3    C6 9025   3.537   3.541   8.994  0.1282  0.6751 -0.1605
  609TMC3     C 9026   3.395   3.908   9.112  0.3760 -0.4569  0.1660
  609TMC3     O 9027   3.293   3.939   9.056  0.1948 -0.2487 -0.1368
  609TMC3     H 9028   3.325   3.774   8.896 -2.3928 -2.8659 -0.2612
  609TMC3    H1 9029   3.575   3.756   9.247  0.6375 -0.9582 -0.6176
  609TMC3    H2 9030   3.562   3.436   8.983  3.3108  1.5860 -1.4233
  609TMC3    C7 9031   3.646   3.517   9.209  0.0362  0.1254 -0.0278
  609TMC3    C8 9032   3.406   3.550   8.791 -0.7586  0.2486  0.0675
  609TMC3    O1 9033   3.640   3.553   9.329 -0.2698 -0.3366 -0.0052
  609TMC3    O2 9034   3.313   3.613   8.737 -0.2593  0.2389  0.1765
  610TMC3    C1 9035   0.647   0.717  12.769 -0.8220 -0.9307 -0.7079
  610TMC3    C2 9036   0.707   0.712  12.644 -0.1502 -0.1232  0.0751
  610TMC3    C3 9037   0.765   0.599  12.594 -0.1472 -0.0776 -0.2401
  610TMC3    C4 9038   0.649   0.607  12.847 -0.8028 -0.1364  0.1453
  610TMC3    C5 9039   0.706   0.487  12.804 -0.5769  0.2564 -0.6329
  610TMC3    C6 9040   0.753   0.488  12.670 -0.3968 -0.2046  0.4824
  610TMC3     C 9041   0.576   0.836  12.815 -0.0163  0.1089 -0.5848
  610TMC3     O 9042   0.492   0.827  12.898  0.3011 -0.6876 -0.5987
  610TMC3     H 9043   0.691   0.793  12.574 -2.0466 -1.3822 -0.9326
  610TMC3    H1 9044   0.600   0.609  12.943 -2.8309 -1.0022 -0.8715
  610TMC3    H2 9045   0.801   0.399  12.631  0.2755 -0.8053  2.6608
  610TMC3    C7 9046   0.671   0.362  12.866 -0.5799 -0.1638 -0.5014
  610TMC3    C8 9047   0.820   0.598  12.463  0.2468 -0.4237 -0.1541
  610TMC3    O1 9048   0.655   0.271  12.788  0.0445 -0.2316 -0.9723
  610TMC3    O2 9049   0.877   0.701  12.424  0.3828  0.9336 -0.2194
  611MPD2     C 9050   0.049   0.689  10.006 -0.1199  0.7301  0.2157
  611MPD2    C1 9051   0.114   0.705  10.126 -0.4916 -0.3939  0.7572
  611MPD2    C2 9052   0.238   0.772  10.117  0.2985  1.3939  0.0159
  611MPD2    C3 9053   0.290   0.809   9.996 -0.3606  0.4375 -0.5932
  611MPD2    C4 9054   0.210   0.812   9.887  0.1893  0.1663 -0.0623
  611MPD2    C5 9055   0.090   0.751   9.890 -0.1061 -0.0810  0.9211
  611MPD2     H 9056   0.297   0.780  10.208  0.0213 -1.2460  0.4207
  611MPD2    H1 9057   0.242   0.840   9.787 -0.9724 -0.9109 -0.7404
  611MPD2    H2 9058   4.681   0.635  10.005  0.7873 -0.7598 -2.7132
  611MPD2    H3 9059   0.032   0.735   9.800 -0.1775 -0.5688  1.0544
  611MPD2     N 9060   0.424   0.850   9.980 -0.3182 -0.0424 -0.0936
  611MPD2    H5 9061   0.452   0.888   9.891 -1.8086 -1.9370 -1.3726
  611MPD2    N1 9062   0.045   0.673  10.247 -0.0978  0.1266 -0.4178
  611MPD2    H7 9063   4.694   0.610  10.234  0.6387 -0.8147 -0.2992
  612TMC3    C1 9064   0.622   0.954  10.047  0.3343  0.0187 -0.3814
  612TMC3    C2 9065   0.727   0.960  10.134 -0.6467  0.0778  0.7215
  612TMC3    C3 9066   0.819   1.061  10.108 -0.5946 -0.5660 -0.8631
  612TMC3    C4 9067   0.595   1.056   9.958 -0.0120  1.1989 -0.3198
  612TMC3    C5 9068   0.684   1.149   9.942  0.3842  0.7949 -0.0877
  612TMC3    C6 9069   0.807   1.154  10.007 -0.5241 -0.0431  0.1650
  612TMC3     C 9070   0.518   0.851  10.078 -0.1293  0.1932  0.1668
  612TMC3     O 9071   0.521   0.789  10.188  0.1014 -0.3856 -0.3402
  612TMC3     H 9072   0.756   0.877  10.197  0.7692 -0.3346 -0.4880
  612TMC3    H1 9073   0.493   1.069   9.925 -0.1654  0.0098 -0.3178
  612TMC3    H2 9074   0.885   1.224   9.982 -1.6075  1.1847  0.2431
  612TMC3    C7 9075   0.632   1.269   9.880  0.4298  0.6920  0.2358
  612TMC3    C8 9076   0.925   1.086  10.210  0.2160 -0.0822  0.3065
  612TMC3    O1 9077   0.515   1.262   9.839  0.3177  0.3741 -0.2022
  612TMC3    O2 9078   1.007   1.175  10.180  0.0968 -0.1887 -0.0845
  613MPD2     C 9079   4.206   2.526  16.990 -0.2182 -0.1333  0.1621
  613MPD2    C1 9080   4.214   2.615  16.878 -0.2667  0.2355  0.1063
  613MPD2    C2 9081   4.103   2.622  16.791 -0.4147  0.0442  0.0108
  613MPD2    C3 9082   3.990   2.553  16.810 -0.2136  0.3048  0.2372
  613MPD2    C4 9083   3.982   2.470  16.917 -0.0088  0.2133  0.1734
  613MPD2    C5 9084   4.082   2.464  17.012  0.1204 -0.0523  0.8764
  613MPD2     H 9085   4.110   2.700  16.716  0.1013 -0.3295 -0.3361
  613MPD2    H1 9086   3.897   2.406  16.939 -0.2004  1.1005  1.9391
  613MPD2    H2 9087   4.290   2.518  17.057 -1.5634  0.6866  1.9457
  613MPD2    H3 9088   4.081   2.395  17.095  1.8305 -0.6008  0.4457
  613MPD2     N 9089   3.886   2.550  16.715  0.4613  0.1057 -0.1941
  613MPD2    H5 9090   3.825   2.469  16.724  1.0017  0.0101  2.5110
  613MPD2    N1 9091   4.329   2.698  16.870  0.1024  0.2542  0.2045
  613MPD2    H7 9092   4.380   2.705  16.958  0.3660  2.2641 -0.1157
  614TMC3    C1 9093   4.338   2.742  16.627  0.1692  0.2248 -0.2397
  614TMC3    C2 9094   4.317   2.618  16.575 -0.2593  0.2098  0.1453
  614TMC3    C3 9095   4.300   2.596  16.439 -0.3489 -0.7530 -0.4235
  614TMC3    C4 9096   4.349   2.847  16.542 -0.1528 -0.6287  0.2937
  614TMC3    C5 9097   4.322   2.822  16.407 -0.3730  0.4049  0.2673
  614TMC3    C6 9098   4.291   2.701  16.350  0.4081 -0.4957 -0.6012
  614TMC3     C 9099   4.379   2.774  16.766 -0.0463  0.6759 -0.3751
  614TMC3     O 9100   4.469   2.857  16.777  0.3033  0.5520  0.0910
  614TMC3     H 9101   4.310   2.532  16.641  3.0775  0.8344  1.2728
  614TMC3    H1 9102   4.383   2.944  16.575 -0.2119 -0.7984  0.8403
  614TMC3    H2 9103   4.258   2.689  16.248 -0.0268 -1.5961 -0.3392
  614TMC3    C7 9104   4.281   2.940  16.333  0.9088 -0.0786 -0.1484
  614TMC3    C8 9105   4.309   2.458  16.395  0.2475 -0.3453 -0.0354
  614TMC3    O1 9106   4.265   3.044  16.399  0.2694 -0.2141  0.3357
  614TMC3    O2 9107   4.287   2.361  16.463  0.1338  0.6263  0.2143
  615MPD2     C 9108   3.606   4.238  16.301 -0.1190 -0.2077 -0.1753
  615MPD2    C1 9109   3.516   4.341  16.335  0.4699  0.4678 -0.3466
  615MPD2    C2 9110   3.404   4.360  16.251 -0.8072 -0.6650  0.0996
  615MPD2    C3 9111   3.385   4.286  16.139  0.2842  0.1649 -0.2993
  615MPD2    C4 9112   3.474   4.191  16.103 -0.7737  0.4222  0.2980
  615MPD2    C5 9113   3.580   4.163  16.188  0.3060 -0.7269 -0.1152
  615MPD2     H 9114   3.337   4.443  16.266  0.6171  0.4500  0.3153
  615MPD2    H1 9115   3.464   4.134  16.012  0.7254 -0.1565  0.4832
  615MPD2    H2 9116   3.688   4.201  16.362 -0.3407  0.1947  0.3624
  615MPD2    H3 9117   3.649   4.083  16.163 -2.3071 -2.2837 -2.4447
  615MPD2     N 9118   3.297   4.314  16.031  0.1812 -0.1927 -0.2484
  615MPD2    H5 9119   3.319   4.264  15.945 -1.0612 -0.1544 -0.5810
  615MPD2    N1 9120   3.534   4.435  16.443  0.0258 -0.5631  1.1523
  615MPD2    H7 9121   3.475   4.518  16.449 -2.0005 -1.7594 -2.0824
  616TMC3    C1 9122   3.627   4.529  16.640  0.3979 -0.1964 -0.8375
  616TMC3    C2 9123   3.744   4.534  16.713  0.1486  0.0146 -0.2301
  616TMC3    C3 9124   3.764   4.633  16.804 -1.0529 -0.3135 -0.1531
  616TMC3    C4 9125   3.519   4.605  16.662  0.1160  0.2827  0.1978
  616TMC3    C5 9126   3.534   4.688  16.770 -0.7074 -0.0901  0.6354
  616TMC3    C6 9127   3.656   4.708  16.840 -0.3513 -0.2242 -0.2419
  616TMC3     C 9128   3.619   4.416  16.546 -0.5814 -0.0641 -0.6173
  616TMC3     O 9129   3.692   4.323  16.575 -0.1230 -0.2059 -0.6554
  616TMC3     H 9130   3.824   4.462  16.704 -0.8766 -1.2167  0.5639
  616TMC3    H1 9131   3.420   4.591  16.620 -0.5198  0.7969  1.5222
  616TMC3    H2 9132   3.668   0.063  16.910 -0.1409 -1.9678  1.7355
  616TMC3    C7 9133   3.438   0.073  16.780 -0.4046 -0.2329  0.5183
  616TMC3    C8 9134   3.882   4.717  16.799  0.5576 -0.5372 -0.0771
  616TMC3    O1 9135   3.381   0.106  16.681 -0.0405 -0.3474  0.5786
  616TMC3    O2 9136   3.886   0.090  16.875  1.2217 -0.2015 -0.3078
  617MPD2     C 9137   1.484   2.555  13.851  0.0980 -0.3245 -0.5631
  617MPD2    C1 9138   1.476   2.533  13.985 -0.0655  0.4450 -0.8707
  617MPD2    C2 9139   1.356   2.481  14.038  0.1380 -0.0013  0.2163
  617MPD2    C3 9140   1.245   2.453  13.959 -0.1070 -0.2767 -0.0657
  617MPD2    C4 9141   1.255   2.495  13.824 -0.3007 -0.6169  1.0753
  617MPD2    C5 9142   1.371   2.553  13.779  0.0300 -0.6636  0.7551
  617MPD2     H 9143   1.360   2.450  14.142 -2.7999  1.5659  0.8114
  617MPD2    H1 9144   1.165   2.481  13.766  0.8025  1.0558 -1.0527
  617MPD2    H2 9145   1.568   2.610  13.811  0.5353 -0.9572 -0.5120
  617MPD2    H3 9146   1.373   2.597  13.680 -0.7382 -1.0664  0.5573
  617MPD2     N 9147   1.126   2.384  13.996 -0.0234  0.3731  0.9258
  617MPD2    H5 9148   1.049   2.383  13.930 -0.3475  2.6573  1.2743
  617MPD2    N1 9149   1.601   2.549  14.045  0.1842 -0.3280 -0.7457
  617MPD2    H7 9150   1.684   2.555  13.987 -0.1399 -1.1214 -1.2951
  618TMC3    C1 9151   1.763   2.516  14.201  0.3044  0.5049 -0.0334
  618TMC3    C2 9152   1.799   2.390  14.163 -0.5355 -0.0965  1.0594
  618TMC3    C3 9153   1.922   2.352  14.199  0.3256  0.7823  0.0582
  618TMC3    C4 9154   1.849   2.614  14.252  0.0222  0.8875 -0.3722
  618TMC3    C5 9155   1.968   2.563  14.299  0.0605 -0.3836 -0.4224
  618TMC3    C6 9156   2.005   2.435  14.269 -0.8830  0.1010  0.4302
  618TMC3     C 9157   1.625   2.548  14.175 -0.2972 -0.0340 -0.3174
  618TMC3     O 9158   1.546   2.568  14.270  0.5068  0.4245  0.2352
  618TMC3     H 9159   1.729   2.318  14.123 -1.5009  1.2087  0.4177
  618TMC3    H1 9160   1.810   2.710  14.284 -3.7622 -0.6645 -0.3493
  618TMC3    H2 9161   2.096   2.397  14.315  0.6678  3.1109 -0.1816
  618TMC3    C7 9162   2.041   2.640  14.391 -0.4027  0.0750 -0.3250
  618TMC3    C8 9163   1.973   2.220  14.171  0.9780  0.4655 -0.2355
  618TMC3    O1 9164   1.976   2.700  14.472 -0.0400 -0.5626 -0.6345
  618TMC3    O2 9165   1.894   2.140  14.131 -0.5728  0.1196 -0.2319
  619MPD2     C 9166   3.167   3.969  13.258 -0.9534  0.1848  0.9755
  619MPD2    C1 9167   3.046   3.987  13.183 -0.2537  0.5388  0.0771
  619MPD2    C2 9168   2.939   3.909  13.210 -0.6191  0.1572  0.3711
  619MPD2    C3 9169   2.947   3.810  13.308 -0.6971  0.3071  0.1708
  619MPD2    C4 9170   3.063   3.792  13.381 -0.5504 -0.1343  0.7183
  619MPD2    C5 9171   3.171   3.872  13.355 -0.0397  0.5861 -0.1921
  619MPD2     H 9172   2.849   3.927  13.152  0.0244  1.3423 -0.2754
  619MPD2    H1 9173   3.080   3.719  13.459 -1.9065  0.4672  1.5579
  619MPD2    H2 9174   3.253   4.035  13.253 -1.0379  0.2683  0.5568
  619MPD2    H3 9175   3.253   3.869  13.425 -1.8677  0.9955  1.9560
  619MPD2     N 9176   2.846   3.714  13.326 -0.6401  0.6821 -0.2803
  619MPD2    H5 9177   2.856   3.673  13.418 -0.9902  1.6209  0.1822
  619MPD2    N1 9178   3.029   4.094  13.089 -0.0601  0.2380 -0.2465
  619MPD2    H7 9179   2.942   4.083  13.038 -0.3835  0.2999  0.2892
  620TMC3    C1 9180   3.043   4.305  12.994  0.1235  0.3189 -0.3051
  620TMC3    C2 9181   2.958   4.261  12.899 -0.4921 -0.2846 -0.4629
  620TMC3    C3 9182   2.849   4.335  12.877 -0.5646 -0.5390  0.5748
  620TMC3    C4 9183   3.036   4.434  13.038 -0.3638 -0.3745  0.0380
  620TMC3    C5 9184   2.937   4.516  12.997  0.6106 -0.2990  0.3572
  620TMC3    C6 9185   2.851   4.470  12.905  0.0028  1.0008 -0.5922
  620TMC3     C 9186   3.102   4.208  13.085 -0.4150  0.3412 -0.5007
  620TMC3     O 9187   3.185   4.249  13.163  0.2632 -0.1043  0.2055
  620TMC3     H 9188   2.951   4.156  12.872  1.5033 -0.1538 -1.5169
  620TMC3    H1 9189   3.095   4.476  13.118 -0.6161  1.7573 -0.8809
  620TMC3    H2 9190   2.759   4.527  12.894 -1.1916 -0.7691  0.3168
  620TMC3    C7 9191   2.862   4.576  13.106  0.7119 -0.2323  0.2008
  620TMC3    C8 9192   2.738   4.277  12.943 -0.0037 -0.4296 -1.3630
  620TMC3    O1 9193   2.774   4.655  13.076  0.6778 -0.0156  0.0271
  620TMC3    O2 9194   2.761   4.177  13.009 -0.1270 -1.0794  0.1700
  621MPD2     C 9195   3.142   3.484  10.645 -0.5516  0.0804 -0.4700
  621MPD2    C1 9196   3.082   3.444  10.529  0.5976 -0.1936  0.0756
  621MPD2    C2 9197   3.055   3.540  10.433 -0.4390 -0.0786 -0.1521
  621MPD2    C3 9198   3.088   3.672  10.453 -0.4390 -0.6911 -0.2978
  621MPD2    C4 9199   3.146   3.708  10.572  0.7459  0.6891 -0.5702
  621MPD2    C5 9200   3.172   3.611  10.663 -0.8262  0.2042  0.2094
  621MPD2     H 9201   2.999   3.513  10.345 -1.7319 -1.3977  1.0584
  621MPD2    H1 9202   3.182   3.810  10.581  3.4689 -0.3123 -0.1593
  621MPD2    H2 9203   3.164   3.423  10.732  0.1524  0.6258 -0.2675
  621MPD2    H3 9204   3.220   3.640  10.756  2.0751  0.8895 -1.4972
  621MPD2     N 9205   3.084   3.763  10.342 -0.3277 -0.2591 -0.0314
  621MPD2    H5 9206   3.066   3.728  10.248 -4.4096  0.3957  0.5317
  621MPD2    N1 9207   3.050   3.301  10.506 -0.0962  0.0556 -0.2531
  621MPD2    H7 9208   3.002   3.279  10.420 -0.2302  2.4328 -0.7777
  622TMC3    C1 9209   2.991   3.086  10.550  0.0066  0.4701  0.4137
  622TMC3    C2 9210   2.901   3.117  10.452  0.0835 -0.4798  0.3542
  622TMC3    C3 9211   2.868   3.012  10.376  0.3746 -0.6850  0.3280
  622TMC3    C4 9212   3.062   2.970  10.553  0.1554 -0.0645  0.1295
  622TMC3    C5 9213   3.023   2.873  10.461  0.4031  0.4899 -0.6373
  622TMC3    C6 9214   2.924   2.887  10.373 -0.9193  0.3135 -0.4930
  622TMC3     C 9215   3.054   3.203  10.602  0.2497  0.5500  0.4761
  622TMC3     O 9216   3.095   3.188  10.714  0.1790  0.3259 -0.4103
  622TMC3     H 9217   2.847   3.211  10.455 -0.3496 -0.7781  2.1266
  622TMC3    H1 9218   3.135   2.951  10.631 -0.5365  0.4533  0.9003
  622TMC3    H2 9219   2.891   2.798  10.321 -0.8724  1.3245 -2.2691
  622TMC3    C7 9220   3.096   2.744  10.452  0.0235  0.5779 -0.6500
  622TMC3    C8 9221   2.726   3.014  10.337 -0.1481 -0.3888 -0.0211
  622TMC3    O1 9222   3.162   2.717  10.553  0.1202  0.5944  0.0643
  622TMC3    O2 9223   2.671   2.907  10.343  0.3238 -0.1151  0.9608
  623MPD2     C 9224   2.040   0.080  15.964  0.5966  0.0591  0.0550
  623MPD2    C1 9225   1.995   0.027  16.080 -0.6210  0.0150 -0.2017
  623MPD2    C2 9226   2.073   0.050  16.187 -0.4507 -0.3704 -0.5653
  623MPD2    C3 9227   2.175   0.143  16.191  0.5268 -0.4755  0.4456
  623MPD2    C4 9228   2.220   0.188  16.071  0.0328  0.3745 -0.8231
  623MPD2    C5 9229   2.150   0.155  15.951 -0.1616  0.6467 -0.5843
  623MPD2     H 9230   2.059   0.000  16.282 -0.6524  0.4423 -0.1686
  623MPD2    H1 9231   2.302   0.260  16.066  1.3030 -1.0956 -1.0176
  623MPD2    H2 9232   1.975   0.073  15.877  3.2966 -1.2787 -1.8522
  623MPD2    H3 9233   2.176   0.207  15.860  0.1644  1.1578 -0.1991
  623MPD2     N 9234   2.245   0.163  16.313 -0.0069 -0.2769 -0.2270
  623MPD2    H5 9235   2.212   0.113  16.395 -0.4523 -0.6489 -0.6326
  623MPD2    N1 9236   1.884   4.666  16.064  0.2591  0.4992 -0.2546
  623MPD2    H7 9237   1.843   4.665  15.971  2.0634  0.4829 -1.0484
  624TMC3    C1 9238   2.425   0.200  16.663  0.6892  1.0225  0.4831
  624TMC3    C2 9239   2.301   0.166  16.719 -0.5854 -0.6272  0.3289
  624TMC3    C3 9240   2.187   0.192  16.648 -0.1078  0.5409  0.1677
  624TMC3    C4 9241   2.438   0.261  16.538 -0.6078 -0.2849  0.4078
  624TMC3    C5 9242   2.324   0.292  16.477 -0.3672 -0.0297  0.1824
  624TMC3    C6 9243   2.197   0.266  16.529  0.3597 -0.3982 -0.4026
  624TMC3     C 9244   2.548   0.171  16.727  0.1550 -0.4148  0.0409
  624TMC3     O 9245   2.548   0.119  16.839 -0.2193 -0.6241  0.1790
  624TMC3     H 9246   2.300   0.107  16.810  0.7774 -1.6001 -0.2823
  624TMC3    H1 9247   2.530   0.304  16.499 -0.4050 -1.5709 -0.5217
  624TMC3    H2 9248   2.118   0.299  16.463  1.5285  1.3191 -0.9536
  624TMC3    C7 9249   2.334   0.267  16.337 -0.2312 -0.3492 -0.0198
  624TMC3    C8 9250   2.058   0.142  16.681  0.1206 -0.4729 -0.0810
  624TMC3    O1 9251   2.374   0.357  16.268 -0.1260  0.1202 -0.1232
  624TMC3    O2 9252   2.056   0.039  16.748  0.0370  0.0495  0.0408
  625MPD2     C 9253   2.025   0.055   0.624  0.5050  0.7722 -0.8151
  625MPD2    C1 9254   2.006   0.163   0.709 -0.7280  0.2229 -0.2025
  625MPD2    C2 9255   2.108   0.188   0.803 -0.3284  0.0408  0.2132
  625MPD2    C3 9256   2.211   0.105   0.818 -0.2153  0.4095 -0.1109
  625MPD2    C4 9257   2.235   4.726   0.736  1.3918 -0.2530  0.4557
  625MPD2    C5 9258   2.141   4.699   0.639  1.1921  0.2250  0.4029
  625MPD2     H 9259   2.102   0.274   0.869  0.2060  1.4817 -1.6348
  625MPD2    H1 9260   2.323   4.662   0.742  0.9827 -0.5537  3.1384
  625MPD2    H2 9261   1.943   0.032   0.557 -0.7986  1.7652  0.4280
  625MPD2    H3 9262   2.162   4.617   0.572  1.4556  0.0851  0.6591
  625MPD2     N 9263   2.304   0.148   0.918 -0.4956 -0.1441 -0.4123
  625MPD2    H5 9264   2.279   0.238   0.957 -1.8455 -0.3456 -0.7975
  625MPD2    N1 9265   1.905   0.265   0.691 -0.8579  0.2335  0.1413
  625MPD2    H7 9266   1.902   0.336   0.764  0.6294  0.5666 -0.1051
  626TMC3    C1 9267   1.739   0.398   0.602  0.0056  0.0709 -0.6185
  626TMC3    C2 9268   1.696   0.448   0.484  0.1399  0.3078 -0.4284
  626TMC3    C3 9269   1.663   0.581   0.480 -0.2210 -0.0601  0.5105
  626TMC3    C4 9270   1.759   0.482   0.711 -0.3209  0.2067  0.0447
  626TMC3    C5 9271   1.723   0.610   0.703  0.5769 -0.1372 -0.7158
  626TMC3    C6 9272   1.678   0.665   0.585 -0.6802  0.3111 -0.0930
  626TMC3     C 9273   1.825   0.284   0.581  1.0910 -0.7362 -0.2142
  626TMC3     O 9274   1.838   0.236   0.471  0.1119  0.3782 -0.3208
  626TMC3     H 9275   1.671   0.383   0.401  1.0930  0.6171 -0.9619
  626TMC3    H1 9276   1.776   0.436   0.807 -0.3229  0.6117  0.2392
  626TMC3    H2 9277   1.645   0.767   0.572  0.3584  1.0360  2.8716
  626TMC3    C7 9278   1.703   0.684   0.826 -0.0075 -0.3205  0.3319
  626TMC3    C8 9279   1.670   0.646   0.350  0.0884  0.6997  0.2183
  626TMC3    O1 9280   1.770   0.640   0.918  0.3630 -0.5424  0.0478
  626TMC3    O2 9281   1.718   0.757   0.338 -0.4336  0.1659 -0.4844
  627MPD2     C 9282   1.013   1.011  14.115 -0.0386  0.9316  0.3981
  627MPD2    C1 9283   1.037   1.009  14.247  0.0950  0.6425  0.3467
  627MPD2    C2 9284   0.950   0.939  14.327 -0.5220  0.3418 -0.1263
  627MPD2    C3 9285   0.840   0.874  14.277  0.0884 -0.0773 -0.2107
  627MPD2    C4 9286   0.806   0.889  14.144 -0.0238  0.0406  0.3009
  627MPD2    C5 9287   0.897   0.952  14.071  0.5976  0.4208 -0.1918
  627MPD2     H 9288   0.975   0.930  14.433 -0.1499 -0.3815 -0.2759
  627MPD2    H1 9289   0.723   0.837  14.096  0.5869 -1.9802  1.4229
  627MPD2    H2 9290   1.081   1.066  14.051  0.6407  0.3531  0.6263
  627MPD2    H3 9291   0.885   0.963  13.963 -2.2185 -2.8841 -0.2237
  627MPD2     N 9292   0.775   0.788  14.365 -1.2390 -0.3706  0.1696
  627MPD2    H5 9293   0.820   0.782  14.456  1.2684  0.4140 -1.0126
  627MPD2    N1 9294   1.141   1.082  14.311  0.1670 -0.6111  0.3618
  627MPD2    H7 9295   1.154   1.063  14.410  2.0723  2.0310  0.5989
  628TMC3    C1 9296   1.329   1.195  14.347 -0.0798 -0.0006  0.1620
  628TMC3    C2 9297   1.462   1.158  14.343  0.1596 -0.2717 -0.1397
  628TMC3    C3 9298   1.539   1.208  14.450  0.3040  0.7866  0.4895
  628TMC3    C4 9299   1.271   1.279  14.436  0.3426 -0.2548  0.6237
  628TMC3    C5 9300   1.354   1.307  14.538 -0.4496  0.2029 -0.5081
  628TMC3    C6 9301   1.483   1.271  14.553  0.6756 -0.3369  0.4532
  628TMC3     C 9302   1.238   1.149  14.250  0.0434  0.0019 -0.0659
  628TMC3     O 9303   1.275   1.153  14.134 -0.0031 -0.3290  0.3926
  628TMC3     H 9304   1.501   1.087  14.271 -0.0231 -0.5575  0.0410
  628TMC3    H1 9305   1.165   1.301  14.434  0.4899  0.4981  1.4683
  628TMC3    H2 9306   1.545   1.344  14.604  0.5341  1.3378 -1.7602
  628TMC3    C7 9307   1.323   1.439  14.601 -0.4230 -0.1149 -0.5684
  628TMC3    C8 9308   1.672   1.153  14.480 -0.1857  0.5169  0.2159
  628TMC3    O1 9309   1.360   1.456  14.714 -0.2421  0.0283 -0.0171
  628TMC3    O2 9310   1.768   1.186  14.409  0.3243  0.2612 -0.1417
  629MPD2     C 9311   4.329   0.151  16.615 -0.0554 -0.1286  0.6485
  629MPD2    C1 9312   4.297   0.032  16.561  0.1992  0.1274 -0.0861
  629MPD2    C2 9313   4.183   4.685  16.597 -0.2820 -0.1306  0.7937
  629MPD2    C3 9314   4.106   0.016  16.696  0.2396 -0.2162  0.4025
  629MPD2    C4 9315   4.138   0.141  16.744 -0.6997  0.3469 -0.6796
  629MPD2    C5 9316   4.246   0.209  16.702  0.1173 -0.1418 -0.0557
  629MPD2     H 9317   4.159   4.590  16.552 -0.2702  0.2165  0.0650
  629MPD2    H1 9318   4.077   0.197  16.813  0.5529  2.3539 -1.2118
  629MPD2    H2 9319   4.410   0.206  16.569 -0.5155  0.3978  0.4636
  629MPD2    H3 9320   4.265   0.312  16.733 -3.1143  0.3127  0.3435
  629MPD2     N 9321   3.989   4.667  16.730  0.0079  0.3302 -0.0921
  629MPD2    H5 9322   3.978   4.581  16.678  2.3413 -0.5267  0.7986
  629MPD2    N1 9323   4.397   4.698  16.472 -0.2023  0.1203  0.1102
  629MPD2    H7 9324   4.481   0.023  16.450  0.5909 -1.7491 -1.2061
  630TMC3    C1 9325   4.534   4.532  16.383 -0.0455 -1.3781  0.1105
  630TMC3    C2 9326   4.589   4.629  16.306  0.7588  0.0952 -0.8509
  630TMC3    C3 9327   4.724   4.628  16.301 -0.7835  0.1913 -0.5232
  630TMC3    C4 9328   4.605   4.436  16.451 -0.3324  0.0769 -0.2505
  630TMC3    C5 9329   0.016   4.447  16.449 -0.9897 -0.4177 -0.9488
  630TMC3    C6 9330   0.070   4.539  16.372 -0.6001 -0.3285 -0.4907
  630TMC3     C 9331   4.410   4.561  16.444 -0.6192  0.1135 -0.1540
  630TMC3     O 9332   4.342   4.464  16.472 -0.2939 -0.2697 -0.0405
  630TMC3     H 9333   4.523   4.702  16.260 -0.6630  1.4005  3.2353
  630TMC3    H1 9334   4.559   4.387  16.536  2.3618  0.8655  1.6641
  630TMC3    H2 9335   0.178   4.539  16.360 -0.5893 -0.2857 -0.3933
  630TMC3    C7 9336   0.077   4.428  16.576  0.8061 -0.4636  0.1026
  630TMC3    C8 9337   0.075   0.016  16.261  0.0221 -0.5979 -0.3462
  630TMC3    O1 9338   0.049   4.342  16.657 -0.1874 -0.1152 -0.1165
  630TMC3    O2 9339   0.185   0.037  16.314  0.3083 -0.6156 -0.3736
  631MPD2     C 9340   2.490   0.168  15.662 -0.1337  0.2730 -0.6016
  631MPD2    C1 9341   2.570   0.137  15.556 -0.2574 -0.2229  0.5008
  631MPD2    C2 9342   2.659   0.031  15.579 -0.7326  0.2933  1.0703
  631MPD2    C3 9343   2.660   4.685  15.700  0.4353  0.3900 -0.5312
  631MPD2    C4 9344   2.566   4.711  15.795  0.3348 -0.0091  0.4683
  631MPD2    C5 9345   2.480   0.091  15.776 -0.1190 -0.0259 -0.1072
  631MPD2     H 9346   2.731   4.724  15.506 -2.8794  1.4986 -1.6052
  631MPD2    H1 9347   2.560   4.664  15.893 -0.1796 -0.5925  0.1577
  631MPD2    H2 9348   2.415   0.243  15.638  0.7261  0.9204 -1.2676
  631MPD2    H3 9349   2.402   0.102  15.851  0.6577  0.3599  0.6414
  631MPD2     N 9350   2.763   4.590  15.720  0.3398 -0.1790 -0.1658
  631MPD2    H5 9351   2.832   4.581  15.646  0.3980  0.6461 -0.2098
  631MPD2    N1 9352   2.552   0.214  15.431 -0.2671 -0.4531  0.5471
  631MPD2    H7 9353   2.482   0.288  15.431  1.5049  1.2179  0.0853
  632TMC3    C1 9354   2.566   0.247  15.191 -0.6382  0.1669  0.4043
  632TMC3    C2 9355   2.488   0.355  15.204 -0.3951 -0.9796  0.3609
  632TMC3    C3 9356   2.427   0.401  15.095 -0.5153  0.1138 -0.3652
  632TMC3    C4 9357   2.620   0.212  15.072 -0.9634  0.0497 -0.1011
  632TMC3    C5 9358   2.568   0.263  14.957 -0.9518  0.4872 -0.0154
  632TMC3    C6 9359   2.467   0.353  14.971  0.6696  0.4387 -0.0497
  632TMC3     C 9360   2.611   0.177  15.308 -0.9505  0.0699  0.3483
  632TMC3     O 9361   2.680   0.082  15.286  0.1496  0.0958  0.0977
  632TMC3     H 9362   2.444   0.392  15.296  0.7316  0.4778  0.3172
  632TMC3    H1 9363   2.707   0.147  15.077 -0.2644  0.8447 -1.9216
  632TMC3    H2 9364   2.411   0.380  14.882  1.5560  0.2153 -0.6722
  632TMC3    C7 9365   2.620   0.231  14.821 -0.5309 -0.2452 -0.1411
  632TMC3    C8 9366   2.284   0.428  15.116 -0.0263  0.1333  0.0129
  632TMC3    O1 9367   2.545   0.254  14.725  0.3976 -0.0853  0.4263
  632TMC3    O2 9368   2.252   0.442  15.231  0.2941  0.5991 -0.2290
  633MPD2     C 9369   1.646   2.608  16.697 -0.2071  0.4611 -0.4531
  633MPD2    C1 9370   1.725   2.617  16.589 -0.0153  0.9045 -0.3351
  633MPD2    C2 9371   1.751   2.501  16.514 -0.0036  0.8610 -0.2129
  633MPD2    C3 9372   1.695   2.382  16.552 -0.5544 -0.3594 -0.3281
  633MPD2    C4 9373   1.605   2.377  16.659  0.7161  0.6548 -0.2733
  633MPD2    C5 9374   1.576   2.495  16.727  0.0636 -0.1570 -0.4843
  633MPD2     H 9375   1.826   2.501  16.437  0.2339 -0.3476  0.0215
  633MPD2    H1 9376   1.558   2.283  16.685  1.0216  1.1073  1.9145
  633MPD2    H2 9377   1.626   2.696  16.757 -2.2696 -0.3663  0.0667
  633MPD2    H3 9378   1.496   2.492  16.800  0.0644 -1.3560 -0.5302
  633MPD2     N 9379   1.749   2.258  16.508  0.3584  0.3492 -0.3311
  633MPD2    H5 9380   1.700   2.174  16.536  2.9804 -0.8372  0.6779
  633MPD2    N1 9381   1.809   2.728  16.558 -0.1115 -0.6898  0.2198
  633MPD2    H7 9382   1.861   2.715  16.471 -0.4736  1.9908 -0.4028
  634TMC3    C1 9383   1.991   2.880  16.606 -1.2440 -0.8391 -0.2703
  634TMC3    C2 9384   2.081   2.792  16.542  0.0825  0.4966 -0.3448
  634TMC3    C3 9385   2.193   2.866  16.503 -0.2195 -0.4282 -0.3508
  634TMC3    C4 9386   2.022   3.008  16.647  0.0605 -0.6362 -0.6527
  634TMC3    C5 9387   2.137   3.064  16.614  0.4889  0.3303 -0.7063
  634TMC3    C6 9388   2.225   2.997  16.534  0.9912 -0.8364  0.1833
  634TMC3     C 9389   1.860   2.824  16.646  0.7062 -0.2806 -0.2758
  634TMC3     O 9390   1.825   2.864  16.755  0.4194  0.2573 -0.4786
  634TMC3     H 9391   2.051   2.699  16.495 -0.2906  0.5965 -0.3048
  634TMC3    H1 9392   1.955   3.063  16.712 -0.3757 -1.2566 -0.5799
  634TMC3    H2 9393   2.317   3.049  16.512  0.6359 -0.0850  0.4593
  634TMC3    C7 9394   2.126   3.199  16.566 -0.1817 -0.2438 -0.8610
  634TMC3    C8 9395   2.283   2.800  16.408  0.3227  0.6084 -0.5332
  634TMC3    O1 9396   2.182   3.220  16.463 -0.7113 -0.6840 -0.4218
  634TMC3    O2 9397   2.261   2.687  16.373 -0.0243 -0.5379  0.1695
  635TMC3    C1 9398   3.893   4.336  17.402 -0.8974  0.1272  0.0431
  635TMC3    C2 9399   3.992   4.412  17.458  0.1461 -0.1103  0.1382
  635TMC3    C3 9400   4.126   4.389  17.420 -0.2264  0.1412 -0.3604
  635TMC3    C4 9401   3.921   4.245  17.308  0.4874 -0.4347  0.5845
  635TMC3    C5 9402   4.052   4.218  17.275 -0.7214  0.0424 -0.4312
  635TMC3    C6 9403   4.155   4.289  17.329 -0.2861  0.0274  0.6066
  635TMC3     C 9404   3.754   4.360  17.415 -0.2679 -0.2751 -0.3360
  635TMC3     O 9405   3.674   4.269  17.416 -0.5242  0.3490  0.2485
  635TMC3     H 9406   3.978   4.479  17.542  2.6631  1.4703 -0.6974
  635TMC3    H1 9407   3.839   4.199  17.255  2.4773 -2.5823 -0.6339
  635TMC3    H2 9408   4.260   4.270  17.311  0.0653  2.2928  0.1965
  635TMC3    C7 9409   4.078   4.086  17.220  0.0100 -0.1314 -0.2181
  635TMC3    C8 9410   4.227   4.464  17.487 -0.0845 -1.0168  0.2072
  635TMC3    O1 9411   4.183   4.068  17.156  0.7298 -0.0784 -0.9877
  635TMC3    O2 9412   4.195   4.507  17.592  0.1223 -0.3233 -0.2863
  636MPD2     C 9413   3.733   3.065  15.848  0.4184  0.3174  0.2358
  636MPD2    C1 9414   3.688   3.093  15.973  0.3715  0.3106 -0.4821
  636MPD2    C2 9415   3.669   2.991  16.063  0.4623 -0.1474 -0.1975
  636MPD2    C3 9416   3.704   2.865  16.038 -0.0107 -0.2666  0.2105
  636MPD2    C4 9417   3.739   2.834  15.911 -0.7005  0.2714  0.5277
  636MPD2    C5 9418   3.742   2.931  15.814  0.5862  0.1231  0.6639
  636MPD2     H 9419   3.624   3.013  16.159  1.3144 -0.9912  0.4059
  636MPD2    H1 9420   3.752   2.728  15.888 -0.2556  0.3179  0.5752
  636MPD2    H2 9421   3.742   3.138  15.768 -0.4339  2.2574  1.9137
  636MPD2    H3 9422   3.758   2.909  15.709 -0.3049 -0.2512  0.6077
  636MPD2     N 9423   3.703   2.776  16.154  0.2420  0.4569  1.0839
  636MPD2    H5 9424   3.678   2.822  16.240  0.2482 -2.0862  2.4561
  636MPD2    N1 9425   3.652   3.225  16.016  0.7339 -0.4715  0.4688
  636MPD2    H7 9426   3.641   3.236  16.116 -0.2359 -1.6031  0.4910
  637TMC3    C1 9427   3.736   2.575  16.280  0.6513  0.5054 -0.7946
  637TMC3    C2 9428   3.768   2.647  16.391 -0.1100 -0.2126  0.2608
  637TMC3    C3 9429   3.799   2.566  16.500 -0.0351 -0.3576  0.0454
  637TMC3    C4 9430   3.740   2.442  16.264 -0.0190 -0.8423  0.3981
  637TMC3    C5 9431   3.772   2.366  16.371  0.1140  0.1015 -0.0410
  637TMC3    C6 9432   3.803   2.428  16.491 -0.2697 -0.3169 -0.3199
  637TMC3     C 9433   3.727   2.640  16.152  0.2255 -0.4096  0.5792
  637TMC3     O 9434   3.761   2.571  16.056  0.3924  0.4267 -0.3567
  637TMC3     H 9435   3.777   2.754  16.394 -1.2101 -0.0641 -1.5627
  637TMC3    H1 9436   3.704   2.394  16.174 -0.7735  1.9407 -0.7809
  637TMC3    H2 9437   3.845   2.365  16.568 -1.0970 -0.2539  0.1794
  637TMC3    C7 9438   3.842   2.248  16.341  0.5516 -0.3216  0.2288
  637TMC3    C8 9439   3.883   2.626  16.599 -0.0460 -0.3429  0.5153
  637TMC3    O1 9440   3.899   2.188  16.434 -0.4962 -0.0565  0.2554
  637TMC3    O2 9441   3.929   2.738  16.577  0.0435 -0.3410 -0.1161
  638MPD2     C 9442   3.148   1.598  15.217  0.0511 -0.7711  0.1478
  638MPD2    C1 9443   3.136   1.477  15.149  0.2368 -0.4179  0.3945
  638MPD2    C2 9444   3.054   1.386  15.214  0.4958  0.2429  0.2240
  638MPD2    C3 9445   2.994   1.410  15.338 -0.2962  0.5621 -0.0884
  638MPD2    C4 9446   3.012   1.532  15.398  0.4608  0.0996 -0.3022
  638MPD2    C5 9447   3.094   1.626  15.340 -0.0699  0.5350 -0.3909
  638MPD2     H 9448   3.046   1.283  15.180  0.0620  0.5319 -0.5414
  638MPD2    H1 9449   2.958   1.554  15.490  0.3532 -2.0024  0.1435
  638MPD2    H2 9450   3.205   1.684  15.181 -0.0671 -0.1907  1.3535
  638MPD2    H3 9451   3.099   1.723  15.388 -0.7423  0.6250 -0.4986
  638MPD2     N 9452   2.918   1.308  15.401  0.1260  0.5276 -0.4437
  638MPD2    H5 9453   2.904   1.310  15.501 -1.4466  0.1386 -0.6548
  638MPD2    N1 9454   3.185   1.466  15.014 -0.8293  0.0821  0.1892
  638MPD2    H7 9455   3.218   1.550  14.966  3.2161 -0.7156  1.6403
  639TMC3    C1 9456   2.815   1.082  15.361 -0.2831 -0.8093  0.1202
  639TMC3    C2 9457   2.747   1.020  15.261  0.2176  0.6405 -0.3585
  639TMC3    C3 9458   2.820   0.927  15.190 -0.6875 -0.0722 -0.9466
  639TMC3    C4 9459   2.933   1.029  15.407 -0.3180  0.4307  0.1650
  639TMC3    C5 9460   2.999   0.931  15.340  0.1976  0.2340  0.2304
  639TMC3    C6 9461   2.942   0.881  15.230  0.4920 -0.0170  0.3888
  639TMC3     C 9462   2.837   1.226  15.321  0.5692  0.6311 -0.2759
  639TMC3     O 9463   2.789   1.253  15.214 -0.1403 -0.0532 -0.2748
  639TMC3     H 9464   2.663   1.073  15.218 -0.9988 -0.9124  0.1096
  639TMC3    H1 9465   2.988   1.073  15.489  1.4958 -2.8025  0.6740
  639TMC3    H2 9466   2.980   0.786  15.195  2.8894  1.9029 -2.2995
  639TMC3    C7 9467   3.128   0.877  15.388 -0.3957 -0.3281  0.0139
  639TMC3    C8 9468   2.771   0.865  15.065 -0.1171  0.0689  0.4789
  639TMC3    O1 9469   3.155   0.893  15.507  0.7655  0.5952 -0.2783
  639TMC3    O2 9470   2.847   0.803  14.990 -0.0962  0.4214 -0.2719
  640MPD2     C 9471   3.208   4.536   8.935  0.1248 -0.2648 -0.1114
  640MPD2    C1 9472   3.314   4.564   9.022 -0.0825  0.2107  0.3560
  640MPD2    C2 9473   3.316   4.687   9.094  0.6107 -0.5679 -0.1285
  640MPD2    C3 9474   3.208   0.045   9.086 -0.0685  0.5975 -0.8982
  640MPD2    C4 9475   3.111   0.019   8.991  0.1975 -0.3101  0.6284
  640MPD2    C5 9476   3.102   4.624   8.921  0.3795 -0.3563 -0.5778
  640MPD2     H 9477   3.389   4.702   9.173 -0.2844 -2.5505  1.0728
  640MPD2    H1 9478   3.023   0.080   8.976  0.0554 -0.7628 -0.3716
  640MPD2    H2 9479   3.204   4.446   8.874  0.6000  0.1112 -0.6967
  640MPD2    H3 9480   3.012   4.602   8.866  0.6662  1.2730 -1.6912
  640MPD2     N 9481   3.184   0.157   9.164 -0.3503  0.7060  0.1636
  640MPD2    H5 9482   3.089   0.189   9.177 -0.6429 -0.7237  1.4075
  640MPD2    N1 9483   3.417   4.461   9.020  0.1085 -0.2662  0.0021
  640MPD2    H7 9484   3.401   4.381   8.959 -1.5557  0.7865 -0.9177
  641TMC3    C1 9485   3.633   4.371   9.066  0.1782 -0.8191  0.5841
  641TMC3    C2 9486   3.723   4.358   9.168  0.6982  0.5919  0.0269
  641TMC3    C3 9487   3.819   4.261   9.146 -0.5055  0.0203  0.7087
  641TMC3    C4 9488   3.636   4.297   8.953  0.1975 -0.0944  0.0448
  641TMC3    C5 9489   3.718   4.188   8.951  0.1136  0.1531  0.7117
  641TMC3    C6 9490   3.810   4.168   9.049  0.2637 -0.3277  0.2981
  641TMC3     C 9491   3.530   4.468   9.093 -0.5555 -0.3991 -0.4597
  641TMC3     O 9492   3.560   4.542   9.183  0.1350  0.4930  0.0080
  641TMC3     H 9493   3.705   4.410   9.262 -0.8529  0.0093  0.0501
  641TMC3    H1 9494   3.568   4.315   8.870  3.5483 -2.1575 -3.1204
  641TMC3    H2 9495   3.876   4.082   9.046  2.7591  1.6818 -2.5459
  641TMC3    C7 9496   3.683   4.080   8.860  0.3900  0.2624  0.1352
  641TMC3    C8 9497   3.894   4.209   9.270 -0.5104  0.3784  0.6539
  641TMC3    O1 9498   3.611   4.110   8.764  0.3182 -0.4440 -0.2728
  641TMC3    O2 9499   3.959   4.103   9.249  0.2120  0.3913  0.4247
  642TMC3    C1 9500   0.134   1.481  12.243 -0.0355 -0.2619 -0.0504
  642TMC3    C2 9501   0.204   1.547  12.143  0.4065 -0.4054 -0.3349
  642TMC3    C3 9502   0.306   1.481  12.081  0.3626  0.2989 -0.0889
  642TMC3    C4 9503   0.170   1.360  12.289 -0.1896  0.2919 -0.8078
  642TMC3    C5 9504   0.268   1.292  12.219 -0.5795 -0.1375 -0.5422
  642TMC3    C6 9505   0.335   1.352  12.113  0.6461  0.4030  0.1119
  642TMC3     C 9506   0.060   1.568  12.337  0.0036  0.8014  0.2591
  642TMC3     O 9507   4.710   1.508  12.416  0.3338 -0.0983 -0.4327
  642TMC3     H 9508   0.164   1.642  12.109 -1.1589 -0.7541  0.5300
  642TMC3    H1 9509   0.099   1.314  12.356 -0.0916 -0.1410 -0.9997
  642TMC3    H2 9510   0.421   1.311  12.063 -1.2107 -0.7351 -2.1644
  642TMC3    C7 9511   0.290   1.151  12.223  0.5289 -0.1253 -0.2519
  642TMC3    C8 9512   0.366   1.547  11.973  0.6876 -0.3882 -0.6755
  642TMC3    O1 9513   0.326   1.097  12.120 -0.0145  0.2708 -0.0001
  642TMC3    O2 9514   0.401   1.476  11.883 -0.3341 -0.2348 -0.8344
  643TMC3    C1 9515   3.815   0.535   0.331 -1.0162 -0.7723  0.0484
  643TMC3    C2 9516   3.677   0.562   0.299  0.0326  1.2390 -0.4117
  643TMC3    C3 9517   3.639   0.561   0.168 -0.4901 -0.7071  0.3036
  643TMC3    C4 9518   3.900   0.491   0.237  0.3552  0.0080 -0.0543
  643TMC3    C5 9519   3.857   0.481   0.100 -0.3253 -0.3746  0.6128
  643TMC3    C6 9520   3.736   0.527   0.076  0.7096  0.1792  0.4672
  643TMC3     C 9521   3.861   0.569   0.465  0.0318  0.1668 -0.4255
  643TMC3     O 9522   3.771   0.588   0.544  0.5059  0.2616  0.0107
  643TMC3     H 9523   3.618   0.614   0.374  2.9553  1.3267  1.8226
  643TMC3    H1 9524   3.996   0.448   0.263 -1.0150 -2.2035  1.3155
  643TMC3    H2 9525   3.707   0.540  17.680 -0.8306 -2.4560  0.5670
  643TMC3    C7 9526   3.950   0.489  17.695 -0.2721  0.6849 -0.8175
  643TMC3    C8 9527   3.570   0.670   0.114  0.0660 -0.6086 -0.0509
  643TMC3    O1 9528   3.916   0.571  17.612  0.3477 -0.0065 -0.1334
  643TMC3    O2 9529   3.453   0.652   0.079 -0.5296  0.1764  0.5370
  644MPD2     C 9530   3.081   0.089   8.647  0.1656 -0.0677  0.3118
  644MPD2    C1 9531   3.180   0.174   8.689  0.8779 -0.2136  0.0135
  644MPD2    C2 9532   3.142   0.302   8.718  0.3439 -0.2657  0.4280
  644MPD2    C3 9533   3.014   0.343   8.715  0.8301  0.2718 -0.3647
  644MPD2    C4 9534   2.914   0.262   8.671  0.3515  0.0266  0.1603
  644MPD2    C5 9535   2.950   0.132   8.646 -0.7060  0.2248  0.0631
  644MPD2     H 9536   3.215   0.377   8.745 -1.3556  0.7730  2.1510
  644MPD2    H1 9537   2.811   0.292   8.654  0.4743  0.4607  0.1660
  644MPD2    H2 9538   3.102   4.710   8.639 -1.1034 -0.3127  0.2467
  644MPD2    H3 9539   2.867   0.068   8.619 -0.8266 -0.3312  1.7898
  644MPD2     N 9540   2.997   0.482   8.756 -0.3777  0.2885  0.2100
  644MPD2    H5 9541   3.080   0.526   8.796 -0.5939  0.0380  0.9346
  644MPD2    N1 9542   3.313   0.117   8.713 -0.4709 -0.9997  0.2440
  644MPD2    H7 9543   3.322   0.019   8.688 -1.2899 -0.6213 -1.5184
  645TMC3    C1 9544   2.892   0.675   8.823  1.0941  0.4525  0.3416
  645TMC3    C2 9545   3.019   0.738   8.818  0.4500  0.0178  0.6589
  645TMC3    C3 9546   3.042   0.849   8.884  0.2449  0.4625 -0.9960
  645TMC3    C4 9547   2.797   0.717   8.909  0.1576 -0.6093 -0.0207
  645TMC3    C5 9548   2.830   0.817   8.994 -0.0770  0.0921  0.7458
  645TMC3    C6 9549   2.945   0.886   8.976  0.4140 -0.0603 -0.4301
  645TMC3     C 9550   2.876   0.544   8.770  1.1631  0.4833  0.1619
  645TMC3     O 9551   2.764   0.498   8.751  0.0468 -0.1581 -0.4071
  645TMC3     H 9552   3.097   0.700   8.753  1.6752  0.5384  1.8452
  645TMC3    H1 9553   2.715   0.648   8.923  0.6952 -0.8929  1.7184
  645TMC3    H2 9554   2.965   0.974   9.036 -0.5922 -0.0351 -0.1325
  645TMC3    C7 9555   2.751   0.851   9.111  0.4612 -0.0364  0.1048
  645TMC3    C8 9556   3.179   0.906   8.891 -0.0842  0.0021  0.2123
  645TMC3    O1 9557   2.793   0.909   9.208 -0.1758  0.0175 -0.1591
  645TMC3    O2 9558   3.267   0.850   8.827  0.4475 -0.0075 -0.5426
  646MPD2     C 9559   3.338   0.155  14.491  0.2740  0.1273  0.6265
  646MPD2    C1 9560   3.265   0.181  14.604  0.2458  0.1106 -0.3535
  646MPD2    C2 9561   3.130   0.232  14.591  0.2319 -0.4661  0.3662
  646MPD2    C3 9562   3.079   0.253  14.468 -0.0914 -0.2867 -0.0779
  646MPD2    C4 9563   3.159   0.237  14.356 -0.1147  0.3935 -0.0292
  646MPD2    C5 9564   3.280   0.182  14.370 -0.5022 -0.4627  0.1240
  646MPD2     H 9565   3.069   0.244  14.680 -1.7333 -1.0940 -0.8980
  646MPD2    H1 9566   3.122   0.256  14.256  1.6348  0.8398 -0.5941
  646MPD2    H2 9567   3.440   0.118  14.494  0.4708  0.4908 -1.3849
  646MPD2    H3 9568   3.338   0.172  14.279 -2.4808 -1.8716 -0.9665
  646MPD2     N 9569   2.950   0.307  14.458  0.4250 -0.4248  0.5716
  646MPD2    H5 9570   2.909   0.349  14.540 -0.2370  1.2134 -0.5940
  646MPD2    N1 9571   3.332   0.148  14.730  0.1522  1.0177  0.1565
  646MPD2    H7 9572   3.424   0.107  14.718 -0.4775  0.0153 -1.2317
  647TMC3    C1 9573   3.356   0.164  14.967  0.0410 -0.3626 -0.7799
  647TMC3    C2 9574   3.299   0.155  15.093  0.0150 -0.8019 -0.6475
  647TMC3    C3 9575   3.370   0.186  15.204  0.4396  0.2682  0.2149
  647TMC3    C4 9576   3.486   0.209  14.959  0.0788  0.0831 -0.8732
  647TMC3    C5 9577   3.560   0.229  15.070  0.4276  0.3653 -0.4510
  647TMC3    C6 9578   3.504   0.206  15.193  0.0170  0.1860  0.6795
  647TMC3     C 9579   3.266   0.157  14.853 -0.0025  0.7767 -0.5166
  647TMC3     O 9580   3.155   0.193  14.882  0.3650 -0.4653 -0.2067
  647TMC3     H 9581   3.198   0.117  15.096  0.4265 -1.9058 -0.6576
  647TMC3    H1 9582   3.535   0.245  14.869  1.0910  1.2295  0.1452
  647TMC3    H2 9583   3.567   0.224  15.280  0.2852  0.4127  0.4393
  647TMC3    C7 9584   3.709   0.214  15.062  0.4099 -0.0285  0.5375
  647TMC3    C8 9585   3.356   0.086  15.306  0.2141 -0.2608 -0.0301
  647TMC3    O1 9586   3.776   0.242  15.161 -0.4095 -0.2187 -0.0592
  647TMC3    O2 9587   3.349   4.704  15.258 -0.0214 -0.3061  0.5818
  648TMC3    C1 9588   3.007   2.977  16.073 -0.5295  0.5143 -0.0443
  648TMC3    C2 9589   3.024   2.867  15.992  0.1056 -0.6197 -0.5286
  648TMC3    C3 9590   3.046   2.881  15.859 -0.0169  0.3429  0.1550
  648TMC3    C4 9591   2.994   3.100  16.017  0.0637  0.1080 -0.1299
  648TMC3    C5 9592   3.004   3.110  15.881  0.5276 -0.0654  0.1051
  648TMC3    C6 9593   3.031   3.001  15.800  0.0273  0.1671 -0.5302
  648TMC3     C 9594   2.999   2.964  16.212 -0.0928  0.2341 -0.2348
  648TMC3     O 9595   3.022   3.062  16.282  0.3095 -0.6917 -1.1273
  648TMC3     H 9596   3.039   2.766  16.028  1.0898 -0.4504 -0.4541
  648TMC3    H1 9597   2.981   3.186  16.083  0.3407 -0.3106  0.4723
  648TMC3    H2 9598   3.051   3.027  15.697 -0.2632  3.2484  0.1981
  648TMC3    C7 9599   2.982   3.239  15.817 -0.3871 -0.3231  0.3021
  648TMC3    C8 9600   3.009   2.770  15.780 -0.0961  0.2332  0.0554
  648TMC3    O1 9601   3.008   3.252  15.697  0.1715 -0.0312 -0.1083
  648TMC3    O2 9602   2.935   2.790  15.685 -1.0203 -0.2536  0.3878
  649TMC3    C1 9603   2.241   3.877  12.451 -0.5292 -0.0859  0.0950
  649TMC3    C2 9604   2.347   3.967  12.476  0.4811  0.2529  0.1499
  649TMC3    C3 9605   2.431   3.940  12.583  0.6663  0.2874 -0.2289
  649TMC3    C4 9606   2.214   3.763  12.528 -0.7153  0.2287 -0.4603
  649TMC3    C5 9607   2.316   3.737  12.615  0.4357  0.3320  0.2183
  649TMC3    C6 9608   2.419   3.819  12.641  0.2484 -0.4826  0.1548
  649TMC3     C 9609   2.159   3.897  12.336 -0.0798  0.1053  0.1464
  649TMC3     O 9610   2.048   3.846  12.333  0.7696 -0.0400 -0.1011
  649TMC3     H 9611   2.348   4.064  12.426 -0.5299  0.4002  0.4147
  649TMC3    H1 9612   2.132   3.695  12.507  1.0689 -2.2638  0.6778
  649TMC3    H2 9613   2.495   3.792  12.713  0.4838 -0.3941 -0.0587
  649TMC3    C7 9614   2.291   3.633  12.706 -1.6567 -0.1725 -0.3423
  649TMC3    C8 9615   2.548   4.024  12.599 -0.5664 -0.8167 -0.2878
  649TMC3    O1 9616   2.172   3.594  12.712 -0.5349 -0.2980  0.1330
  649TMC3    O2 9617   2.623   3.976  12.687 -0.4062 -0.5811 -0.3411
  650TMC3    C1 9618   4.396   0.691  12.935 -0.3561 -0.7093 -0.6029
  650TMC3    C2 9619   4.332   0.782  13.015  0.6057 -0.2401 -0.2631
  650TMC3    C3 9620   4.302   0.903  12.966 -0.6029 -0.0180 -0.5865
  650TMC3    C4 9621   4.421   0.730  12.803  0.5469  0.0496  0.1216
  650TMC3    C5 9622   4.390   0.854  12.758 -0.2268 -0.8177 -0.9023
  650TMC3    C6 9623   4.334   0.947  12.841 -0.0782 -0.5573 -0.2089
  650TMC3     C 9624   4.393   0.549  12.981 -0.2319  0.5997 -0.1684
  650TMC3     O 9625   4.357   0.519  13.095  0.5287  0.5698 -0.1743
  650TMC3     H 9626   4.310   0.757  13.118  1.5579  0.4194  0.1017
  650TMC3    H1 9627   4.459   0.659  12.731  3.0746  0.7027  0.8084
  650TMC3    H2 9628   4.293   1.038  12.798  0.2934 -1.0715 -1.6530
  650TMC3    C7 9629   4.434   0.894  12.619 -0.6651 -0.4796 -0.6558
  650TMC3    C8 9630   4.200   0.977  13.043  0.0354 -0.2050  0.1093
  650TMC3    O1 9631   4.456   0.802  12.541 -0.3608  0.1241 -0.4756
  650TMC3    O2 9632   4.130   0.922  13.125  0.2383  0.1262 -0.0640
  651MPD2     C 9633   2.977   2.218  10.702 -0.5131  0.4993  0.0509
  651MPD2    C1 9634   2.982   2.325  10.793  0.0062 -0.0660 -0.1534
  651MPD2    C2 9635   3.090   2.409  10.786 -1.0608  0.1586 -0.8048
  651MPD2    C3 9636   3.200   2.367  10.712 -0.5213 -0.5860 -0.5152
  651MPD2    C4 9637   3.199   2.249  10.635  0.1167 -0.6399 -1.0279
  651MPD2    C5 9638   3.082   2.173  10.625 -0.5373  0.6473  0.0544
  651MPD2     H 9639   3.072   2.503  10.838  0.2391 -0.0372  0.0158
  651MPD2    H1 9640   3.289   2.219  10.582 -0.1011  0.4218 -2.0042
  651MPD2    H2 9641   2.884   2.164  10.686  0.2556 -0.3076 -1.7214
  651MPD2    H3 9642   3.079   2.096  10.549  0.1026  0.9029 -0.2378
  651MPD2     N 9643   3.306   2.456  10.722 -0.2958  0.0487  0.0169
  651MPD2    H5 9644   3.282   2.549  10.754  1.1653  0.3884  0.0987
  651MPD2    N1 9645   2.874   2.357  10.878 -0.2272 -0.1097  0.4987
  651MPD2    H7 9646   2.882   2.441  10.934 -2.4306 -0.2584  1.0411
  652TMC3    C1 9647   3.700   2.637  10.785  0.5098 -0.5615 -0.3239
  652TMC3    C2 9648   3.637   2.534  10.728 -0.6076 -0.6511  0.3496
  652TMC3    C3 9649   3.505   2.557  10.688  0.3758 -0.0429 -0.5954
  652TMC3    C4 9650   3.645   2.757  10.816  0.0651 -0.0425  0.4178
  652TMC3    C5 9651   3.512   2.773  10.766 -0.4211 -0.0650 -0.2183
  652TMC3    C6 9652   3.444   2.682  10.698 -0.3125 -0.3506 -0.1139
  652TMC3     C 9653   3.847   2.640  10.793  0.1383 -0.0517 -0.7651
  652TMC3     O 9654   3.906   2.532  10.796  0.2776  0.2521  0.4123
  652TMC3     H 9655   3.674   2.435  10.705  1.1463  0.1822 -0.4310
  652TMC3    H1 9656   3.693   2.837  10.871  1.2147  0.4592 -1.3001
  652TMC3    H2 9657   3.342   2.696  10.666  0.1784 -0.6405 -1.7821
  652TMC3    C7 9658   3.478   2.915  10.744 -0.4422 -0.1131  1.0421
  652TMC3    C8 9659   3.428   2.437  10.670  0.4232  0.4905 -0.3670
  652TMC3    O1 9660   3.510   2.990  10.835 -0.1405  1.0201  0.8541
  652TMC3    O2 9661   3.491   2.330  10.647  0.2364 -0.0043  0.3288
  653MPD2     C 9662   1.878   2.567  17.593  0.1027 -0.2444 -0.1065
  653MPD2    C1 9663   1.788   2.629  17.520  0.4958 -0.7391  0.2092
  653MPD2    C2 9664   1.713   2.558  17.436 -0.2298  0.3136 -0.0295
  653MPD2    C3 9665   1.723   2.421  17.416  0.5226 -0.8095 -0.4320
  653MPD2    C4 9666   1.820   2.356  17.496  0.0764 -0.0258 -0.4359
  653MPD2    C5 9667   1.895   2.432  17.569  0.4127 -0.4091  0.1933
  653MPD2     H 9668   1.634   2.607  17.380 -1.4314 -2.7270 -1.0414
  653MPD2    H1 9669   1.854   2.254  17.481 -0.3320 -0.6148  2.7574
  653MPD2    H2 9670   1.959   2.613  17.649  0.4870  0.1070 -0.9531
  653MPD2    H3 9671   1.982   2.396  17.622 -0.0205 -0.3430  0.9511
  653MPD2     N 9672   1.642   2.359  17.315  0.2662 -0.0637 -0.1143
  653MPD2    H5 9673   1.586   2.416  17.253 -0.7001 -1.8201 -0.8487
  653MPD2    N1 9674   1.766   2.766  17.525  0.2097  0.1805  0.4395
  653MPD2    H7 9675   1.678   2.802  17.491  0.6715  0.5824 -0.3504
  654TMC3    C1 9676   1.533   2.180  17.200 -0.3796 -0.7973 -0.5436
  654TMC3    C2 9677   1.442   2.275  17.155 -0.1570 -0.0957  0.3436
  654TMC3    C3 9678   1.361   2.235  17.045 -0.1876 -0.1389  0.1216
  654TMC3    C4 9679   1.533   2.049  17.163 -0.1917 -0.2701 -0.1196
  654TMC3    C5 9680   1.440   2.009  17.064 -0.6911 -0.0519  0.7784
  654TMC3    C6 9681   1.366   2.108  16.997 -0.3234 -0.0278  0.0780
  654TMC3     C 9682   1.630   2.226  17.299 -0.0919 -0.2783 -0.1881
  654TMC3     O 9683   1.705   2.141  17.343 -0.3114 -0.0960  0.2538
  654TMC3     H 9684   1.444   2.378  17.189  0.4690  0.0068  0.0008
  654TMC3    H1 9685   1.612   1.988  17.204  1.1651  2.2033  0.9242
  654TMC3    H2 9686   1.298   2.067  16.923 -4.1709  4.3491  1.2414
  654TMC3    C7 9687   1.444   1.878  17.000  0.7193 -0.6623 -0.2852
  654TMC3    C8 9688   1.269   2.323  16.972 -0.4892  0.5263 -0.5422
  654TMC3    O1 9689   1.423   1.876  16.880  0.1359  0.4185 -0.4313
  654TMC3    O2 9690   1.229   2.425  17.028  0.3941  0.8042  0.4845
  655MPD2     C 9691   3.340   3.045  15.972 -0.8536 -0.3675 -0.2017
  655MPD2    C1 9692   3.345   3.148  15.882  0.0067  0.1382 -0.1983
  655MPD2    C2 9693   3.397   3.117  15.758  0.1099  0.2037 -0.3454
  655MPD2    C3 9694   3.415   2.987  15.718  0.2776  0.5693 -0.1381
  655MPD2    C4 9695   3.387   2.882  15.802  0.3466 -0.0405  0.5429
  655MPD2    C5 9696   3.357   2.919  15.931  0.1890 -0.1372 -0.5023
  655MPD2     H 9697   3.422   3.197  15.689 -1.0007  0.9533  0.1067
  655MPD2    H1 9698   3.411   2.781  15.769  1.0824  0.0499  0.7962
  655MPD2    H2 9699   3.299   3.054  16.071 -0.0751 -2.8094  0.3595
  655MPD2    H3 9700   3.339   2.840  16.002 -1.7248  1.4979  0.8345
  655MPD2     N 9701   3.441   2.954  15.586 -0.1333 -0.2448  0.3424
  655MPD2    H5 9702   3.423   2.860  15.555 -1.7655  0.5153 -1.0224
  655MPD2    N1 9703   3.312   3.282  15.921 -0.5561  0.5340 -0.2665
  655MPD2    H7 9704   3.300   3.347  15.845  0.6032  2.5306  1.2405
  656TMC3    C1 9705   3.215   3.430  16.088  1.2255  0.3548 -0.7003
  656TMC3    C2 9706   3.114   3.419  16.182  0.3533  0.1256 -0.0073
  656TMC3    C3 9707   3.012   3.519  16.186  0.1849  0.3938  0.4014
  656TMC3    C4 9708   3.216   3.532  15.997 -0.3238  0.1181 -0.2318
  656TMC3    C5 9709   3.114   3.628  16.008  0.4107  0.6267 -0.1310
  656TMC3    C6 9710   3.007   3.613  16.090 -0.0437  0.3661  0.1989
  656TMC3     C 9711   3.294   3.316  16.054  0.1361 -0.6642  0.4757
  656TMC3     O 9712   3.313   3.256  16.156  0.4132  0.2132  0.3911
  656TMC3     H 9713   3.113   3.329  16.242  0.8950  0.1569  0.0527
  656TMC3    H1 9714   3.306   3.552  15.940 -0.2887 -0.3274 -0.3308
  656TMC3    H2 9715   2.922   3.680  16.086 -0.0090  0.3994 -0.0143
  656TMC3    C7 9716   3.112   3.727  15.903 -0.2387 -0.5832 -0.9999
  656TMC3    C8 9717   2.888   3.466  16.229 -0.0207 -0.3555 -0.7085
  656TMC3    O1 9718   3.210   3.724  15.828 -0.5009 -0.3823  0.3323
  656TMC3    O2 9719   2.874   3.350  16.198 -0.0788  0.2958  0.0475
  657TMC3    C1 9720   1.579   2.407  15.277 -0.2763  0.5871 -0.2651
  657TMC3    C2 9721   1.498   2.458  15.373 -0.8040 -0.1594 -0.1989
  657TMC3    C3 9722   1.392   2.549  15.338  0.2617 -0.3125  0.2803
  657TMC3    C4 9723   1.557   2.448  15.148 -1.1464  0.0291  0.7569
  657TMC3    C5 9724   1.450   2.533  15.118  0.3352 -0.2290  0.5358
  657TMC3    C6 9725   1.360   2.579  15.212  0.1183 -0.1503  0.0540
  657TMC3     C 9726   1.642   2.277  15.307 -0.3140 -0.0173 -0.3553
  657TMC3     O 9727   1.629   2.239  15.423 -0.2623  0.6836  0.8673
  657TMC3     H 9728   1.492   2.415  15.472 -0.9194 -0.3996 -0.3099
  657TMC3    H1 9729   1.614   2.412  15.062  1.6902  3.8359  1.0367
  657TMC3    H2 9730   1.274   2.642  15.198 -0.5924 -1.1025  0.1308
  657TMC3    C7 9731   1.430   2.551  14.974 -0.2630  0.0153  1.0464
  657TMC3    C8 9732   1.311   2.605  15.447  0.2451  0.4458  0.2978
  657TMC3    O1 9733   1.492   2.480  14.894  0.1531  0.0860 -0.2400
  657TMC3    O2 9734   1.199   2.643  15.422  0.0671 -0.5769 -0.1650
  658MPD2     C 9735   3.869   3.035  14.830  0.2570 -0.1636  0.3086
  658MPD2    C1 9736   3.734   3.027  14.827 -0.9726 -0.2934 -0.0416
  658MPD2    C2 9737   3.667   3.080  14.723 -0.0095  0.1759  0.3603
  658MPD2    C3 9738   3.734   3.132  14.617  0.1116 -0.4570  0.3640
  658MPD2    C4 9739   3.870   3.121  14.611  0.2657  0.1252 -0.0892
  658MPD2    C5 9740   3.937   3.077  14.725  0.4001 -0.0283 -0.1672
  658MPD2     H 9741   3.560   3.090  14.724  0.1306  2.3313 -4.0588
  658MPD2    H1 9742   3.930   3.162  14.530  2.0084 -2.1477  0.0359
  658MPD2    H2 9743   3.926   3.004  14.918 -0.8349 -1.9558  0.3943
  658MPD2    H3 9744   4.046   3.073  14.727  0.3914  1.7003  3.5367
  658MPD2     N 9745   3.659   3.188  14.512  0.2585  0.2881  0.5362
  658MPD2    H5 9746   3.561   3.204  14.533  0.2974  2.2900 -0.8808
  658MPD2    N1 9747   3.652   2.982  14.931  0.0510  0.4202  0.1486
  658MPD2    H7 9748   3.554   2.979  14.905  0.4835  3.6530 -1.7428
  659TMC3    C1 9749   3.585   2.932  15.151  0.1620  0.0144 -0.6757
  659TMC3    C2 9750   3.610   2.962  15.283 -0.2423 -0.8641 -0.0530
  659TMC3    C3 9751   3.498   2.966  15.368  0.0166  0.1736  0.3245
  659TMC3    C4 9752   3.454   2.917  15.097 -1.3485 -0.0987 -0.7210
  659TMC3    C5 9753   3.350   2.910  15.195 -1.4218  0.0392  0.1931
  659TMC3    C6 9754   3.370   2.939  15.323 -0.1341 -0.0306  0.6299
  659TMC3     C 9755   3.695   2.942  15.054 -0.3576  0.4507  0.0469
  659TMC3     O 9756   3.808   2.926  15.104  0.1983 -0.2506  0.3395
  659TMC3     H 9757   3.708   3.003  15.307 -1.2547  1.1213  0.6969
  659TMC3    H1 9758   3.441   2.863  15.003 -1.5289 -1.7476  0.2415
  659TMC3    H2 9759   3.286   2.948  15.392 -0.5040  1.3889 -0.0072
  659TMC3    C7 9760   3.215   2.872  15.158  0.0352 -0.1500  0.3622
  659TMC3    C8 9761   3.511   3.026  15.494  0.3515  0.3053 -0.6707
  659TMC3    O1 9762   3.128   2.915  15.227 -0.7919  0.0489  0.2667
  659TMC3    O2 9763   3.582   3.123  15.501  0.0893  0.2443  0.1185
  660MPD2     C 9764   1.513   1.332  12.712  0.3161 -0.1901  0.0236
  660MPD2    C1 9765   1.400   1.355  12.642 -0.1491  0.1585  0.3798
  660MPD2    C2 9766   1.281   1.318  12.700  0.1933 -0.0626 -0.2930
  660MPD2    C3 9767   1.277   1.255  12.820 -0.2252  0.2290 -0.3229
  660MPD2    C4 9768   1.393   1.221  12.883  0.0301  0.2119  0.0053
  660MPD2    C5 9769   1.508   1.268  12.826 -0.5328  0.7541 -0.5895
  660MPD2     H 9770   1.186   1.323  12.647 -0.0134  0.8572  0.1634
  660MPD2    H1 9771   1.394   1.172  12.979 -0.8007  0.7441  0.2838
  660MPD2    H2 9772   1.611   1.367  12.683  0.6213 -1.6249 -0.7179
  660MPD2    H3 9773   1.599   1.249  12.882 -0.0999  4.1048 -0.1326
  660MPD2     N 9774   1.160   1.219  12.897  0.8534  0.5243 -0.1726
  660MPD2    H5 9775   1.176   1.168  12.983 -0.9494 -0.7053 -0.5528
  660MPD2    N1 9776   1.422   1.402  12.512  0.2440  0.1482  0.2329
  660MPD2    H7 9777   1.515   1.421  12.476 -0.3638  1.3078 -0.7491
  661TMC3    C1 9778   1.364   1.539  12.333 -0.6721 -0.2468  0.2578
  661TMC3    C2 9779   1.489   1.521  12.285 -0.2372 -0.0585  0.0506
  661TMC3    C3 9780   1.538   1.616  12.198 -0.4942  0.0277 -0.1921
  661TMC3    C4 9781   1.287   1.644  12.306  0.2314 -0.3571  0.0875
  661TMC3    C5 9782   1.342   1.747  12.233  0.2254  0.1550  0.1213
  661TMC3    C6 9783   1.464   1.728  12.168 -0.1451  0.8486 -0.1202
  661TMC3     C 9784   1.324   1.441  12.431  0.7025  0.0635 -0.1329
  661TMC3     O 9785   1.203   1.439  12.452  0.2512 -0.2411 -0.0829
  661TMC3     H 9786   1.542   1.428  12.299  0.8184  0.5598  0.1518
  661TMC3    H1 9787   1.190   1.657  12.351 -0.1598 -1.2210 -0.5050
  661TMC3    H2 9788   1.498   1.821  12.123  1.2537  0.4282  0.0727
  661TMC3    C7 9789   1.235   1.817  12.158 -0.7468 -0.4228  0.0940
  661TMC3    C8 9790   1.641   1.572  12.103  0.0245  0.4387 -0.0816
  661TMC3    O1 9791   1.238   1.939  12.140  0.0851  0.0519 -0.1085
  661TMC3    O2 9792   1.730   1.494  12.130 -0.2324  0.4204  0.0412
  662MPD2     C 9793   1.370   1.327  17.344 -0.5697  0.8717  0.1733
  662MPD2    C1 9794   1.380   1.252  17.462  0.0535  0.3075 -0.4245
  662MPD2    C2 9795   1.353   1.312  17.581 -0.8354  0.3209  0.2461
  662MPD2    C3 9796   1.331   1.451  17.592 -0.0590 -1.2111  1.3685
  662MPD2    C4 9797   1.330   1.523  17.477  0.1615 -0.1427  0.4863
  662MPD2    C5 9798   1.352   1.462  17.355 -0.8239 -0.0405 -0.2451
  662MPD2     H 9799   1.348   1.252  17.672  2.2103 -2.1975 -1.2134
  662MPD2    H1 9800   1.311   1.629  17.481 -0.4346 -0.1734 -1.1280
  662MPD2    H2 9801   1.392   1.281  17.248  1.3176  1.4043  0.3605
  662MPD2    H3 9802   1.337   1.515  17.262 -1.2097  0.4069  0.0717
  662MPD2     N 9803   1.306   1.518   0.003  0.1499  0.2609 -0.4574
  662MPD2    H5 9804   1.245   1.599   0.000  1.2393  1.1052  0.0705
  662MPD2    N1 9805   1.404   1.110  17.461  0.1909 -0.1426  0.4985
  662MPD2    H7 9806   1.418   1.065  17.551  3.6314 -1.8640 -0.8920
  663TMC3    C1 9807   1.413   0.887  17.394 -1.0036 -0.2905 -0.7786
  663TMC3    C2 9808   1.349   0.854  17.510 -0.2740 -0.1985 -0.0537
  663TMC3    C3 9809   1.290   0.727  17.513 -0.3675 -0.4006  0.0710
  663TMC3    C4 9810   1.435   0.809  17.284  0.8502 -0.0962 -0.2200
  663TMC3    C5 9811   1.395   0.680  17.302  0.3569 -0.3011  0.0087
  663TMC3    C6 9812   1.317   0.634  17.409 -0.9075  0.4572  0.0053
  663TMC3     C 9813   1.414   1.026  17.349 -0.1148 -0.2809 -0.2858
  663TMC3     O 9814   1.391   1.054  17.234 -0.4277 -0.1855  0.5433
  663TMC3     H 9815   1.309   0.932  17.574 -2.0673 -1.7333  0.7027
  663TMC3    H1 9816   1.485   0.851  17.197  0.7472  3.2098  1.3044
  663TMC3    H2 9817   1.248   0.553  17.393 -0.0360 -0.5865  1.5823
  663TMC3    C7 9818   1.441   0.576  17.217 -0.5079 -0.5455 -0.6536
  663TMC3    C8 9819   1.148   0.742  17.519  0.1732 -0.5583  0.3344
  663TMC3    O1 9820   1.496   0.615  17.115  0.4643 -0.1517  0.2299
  663TMC3    O2 9821   1.085   0.714  17.418  0.4372  0.7851  0.0371
  664MPD2     C 9822   4.424   4.150  17.530 -0.1887 -0.7244 -0.4722
  664MPD2    C1 9823   4.497   4.246  17.595 -0.5227  0.5400 -0.1035
  664MPD2    C2 9824   4.469   4.281   0.017  0.1989  0.5249 -0.1245
  664MPD2    C3 9825   4.357   4.223   0.078 -0.6888 -0.8392  0.1099
  664MPD2    C4 9826   4.283   4.126   0.011  0.7465  0.2027 -0.1025
  664MPD2    C5 9827   4.317   4.090  17.598  0.1076  0.0609 -0.1025
  664MPD2     H 9828   4.526   4.362   0.061  2.5347 -1.6915  0.9409
  664MPD2    H1 9829   4.196   4.075   0.051  1.5437 -0.2278  1.0878
  664MPD2    H2 9830   4.444   4.122  17.428  1.7351 -0.3340 -0.1981
  664MPD2    H3 9831   4.265   4.012  17.545  2.0113  0.0776 -1.9835
  664MPD2     N 9832   4.319   4.265   0.206  0.2942  0.2762  0.1835
  664MPD2    H5 9833   4.374   4.343   0.240 -1.4911  1.5851  0.0230
  664MPD2    N1 9834   4.606   4.310  17.527  0.5734 -0.0341  1.0050
  664MPD2    H7 9835   4.654   4.387  17.573  0.8630  0.0087  0.6291
  665TMC3    C1 9836   4.232   4.265   0.426  0.1997 -0.4778 -0.1232
  665TMC3    C2 9837   4.297   4.213   0.526 -0.5397  0.6993  1.0031
  665TMC3    C3 9838   4.312   4.300   0.633 -0.0204 -0.0260 -0.1345
  665TMC3    C4 9839   4.183   4.392   0.420  0.6619 -0.7361  0.2251
  665TMC3    C5 9840   4.200   4.473   0.525 -0.0935 -0.4872 -0.2994
  665TMC3    C6 9841   4.266   4.431   0.639 -0.0329 -0.2246  0.0581
  665TMC3     C 9842   4.240   4.195   0.296 -0.4258  0.2212 -0.2448
  665TMC3     O 9843   4.214   4.078   0.292  0.7588 -0.0818 -0.7666
  665TMC3     H 9844   4.315   4.106   0.530 -0.8045  0.5934 -0.6095
  665TMC3    H1 9845   4.130   4.428   0.333  1.7703 -1.5422 -0.7699
  665TMC3    H2 9846   4.287   4.492   0.726 -2.0747  0.9066 -0.2398
  665TMC3    C7 9847   4.117   4.593   0.526 -0.1014 -0.3584 -0.1910
  665TMC3    C8 9848   4.332   4.253   0.773 -0.2670  0.0320  0.0333
  665TMC3    O1 9849   4.020   4.578   0.452 -0.7009 -0.3571  0.8005
  665TMC3    O2 9850   4.340   4.334   0.862 -0.0847  0.1829 -0.2402
  666TMC3    C1 9851   3.124   3.953  10.200  0.3234 -0.5129 -0.6821
  666TMC3    C2 9852   3.086   3.873  10.096  0.1037 -0.2554  0.0429
  666TMC3    C3 9853   3.122   3.913   9.965  0.7801  0.4248 -0.4137
  666TMC3    C4 9854   3.198   4.068  10.179  0.0039  0.0781 -0.6347
  666TMC3    C5 9855   3.234   4.101  10.056 -0.4637  0.0213 -0.3031
  666TMC3    C6 9856   3.198   4.025   9.945 -0.6567  0.1992 -0.4527
  666TMC3     C 9857   3.116   3.902  10.340  0.3573 -0.5474 -0.6075
  666TMC3     O 9858   3.159   3.972  10.431 -0.7495  0.2372 -0.6615
  666TMC3     H 9859   3.013   3.793  10.102  0.7524 -0.6511  2.4335
  666TMC3    H1 9860   3.222   4.131  10.264 -0.1360 -0.6187 -0.0780
  666TMC3    H2 9861   3.241   4.041   9.846  1.4758 -0.7552  0.3290
  666TMC3    C7 9862   3.290   4.231  10.040 -0.1567  0.2094  0.0319
  666TMC3    C8 9863   3.141   3.796   9.881 -0.0183 -0.3366  0.1939
  666TMC3    O1 9864   3.280   4.316  10.129 -0.2104  0.2305 -0.3859
  666TMC3    O2 9865   3.127   3.695   9.943  0.0841 -0.3694  0.6205
  667MPD2     C 9866   0.554   3.958  14.948 -0.0967  0.2094  0.9113
  667MPD2    C1 9867   0.433   4.002  14.983  0.5443  0.1851  0.1839
  667MPD2    C2 9868   0.332   3.912  14.980  0.8621 -1.1710 -0.4073
  667MPD2    C3 9869   0.344   3.788  14.918 -0.1852 -0.0218 -0.3350
  667MPD2    C4 9870   0.468   3.755  14.867 -0.6684  1.0098 -0.2137
  667MPD2    C5 9871   0.574   3.839  14.884 -0.0964 -0.7313  0.3343
  667MPD2     H 9872   0.240   3.950  15.023  1.3349 -0.2106 -0.2691
  667MPD2    H1 9873   0.480   3.668  14.804 -0.5114 -0.6153  2.0800
  667MPD2    H2 9874   0.645   4.013  14.967 -0.1828  0.4094  0.7479
  667MPD2    H3 9875   0.675   3.811  14.855 -0.1820  0.2691 -0.9483
  667MPD2     N 9876   0.238   3.697  14.904 -0.2954 -0.9618 -0.4068
  667MPD2    H5 9877   0.256   3.608  14.859 -1.1844 -1.2308 -0.2355
  667MPD2    N1 9878   0.405   4.121  15.044  0.6099  0.7499  0.3669
  667MPD2    H7 9879   0.314   4.142  15.083  0.4306  2.4619 -0.9313
  668TMC3    C1 9880   0.458   4.333  15.148  0.2874  0.1815  0.1303
  668TMC3    C2 9881   0.559   4.424  15.161  0.4484  0.4975  0.5524
  668TMC3    C3 9882   0.578   4.483  15.282  0.3763 -0.2416  0.3010
  668TMC3    C4 9883   0.391   4.295  15.260  0.7541 -0.2557 -0.2634
  668TMC3    C5 9884   0.416   4.353  15.384 -1.1085 -0.0429  1.3925
  668TMC3    C6 9885   0.510   4.450  15.403  0.4745 -0.1640  0.1129
  668TMC3     C 9886   0.489   4.226  15.055  0.0811 -0.3899 -0.2011
  668TMC3     O 9887   0.604   4.230  15.020 -0.0303 -0.2109  0.2301
  668TMC3     H 9888   0.618   4.449  15.074  2.0690  1.6603  1.9676
  668TMC3    H1 9889   0.324   4.210  15.256  2.6573 -1.8027  1.1048
  668TMC3    H2 9890   0.531   4.498  15.498  1.2767 -1.1128  0.4194
  668TMC3    C7 9891   0.320   4.336  15.500  0.1678  0.1821  0.8913
  668TMC3    C8 9892   0.698   4.566  15.298  0.8984  0.0371  0.5826
  668TMC3    O1 9893   0.322   4.421  15.588  0.3837  1.0609  0.0951
  668TMC3    O2 9894   0.744   4.579  15.414 -0.1195 -0.3010  0.0729
  669TMC3    C1 9895   3.223   4.173  14.268 -0.0413 -0.6027 -0.1537
  669TMC3    C2 9896   3.094   4.189  14.227 -0.2891 -0.2101 -0.3506
  669TMC3    C3 9897   3.065   4.280  14.125 -0.3914 -0.6535  0.0734
  669TMC3    C4 9898   3.322   4.248  14.212 -0.2113  0.6341 -0.4528
  669TMC3    C5 9899   3.289   4.334  14.110  0.1020 -0.2001  0.2613
  669TMC3    C6 9900   3.161   4.355  14.071  0.3254  0.3076  0.3266
  669TMC3     C 9901   3.260   4.111  14.396 -0.0252 -0.3244 -0.1993
  669TMC3     O 9902   3.375   4.067  14.406 -0.3259 -0.3725  0.5723
  669TMC3     H 9903   3.019   4.117  14.258  0.3025 -0.7203 -0.1108
  669TMC3    H1 9904   3.426   4.223  14.228  0.2613  2.8780  0.0483
  669TMC3    H2 9905   3.129   4.429  13.997  1.8596 -0.3568 -0.9958
  669TMC3    C7 9906   3.389   4.430  14.058  0.5719  0.1841  1.5043
  669TMC3    C8 9907   2.942   4.274  14.051  0.1029  0.3310  0.0135
  669TMC3    O1 9908   3.489   4.435  14.128 -0.0043 -0.7903 -0.4887
  669TMC3    O2 9909   2.940   4.288  13.931 -0.3099 -0.2255  0.6203
  670MPD2     C 9910   1.518   2.423  13.470  0.2123 -0.5953 -0.2354
  670MPD2    C1 9911   1.598   2.382  13.570  0.5883  0.6164  1.2438
  670MPD2    C2 9912   1.555   2.287  13.656 -0.6842 -0.0713 -0.0812
  670MPD2    C3 9913   1.432   2.236  13.646 -0.1575  0.0011  0.0281
  670MPD2    C4 9914   1.357   2.272  13.537 -0.2080 -0.3303  0.5799
  670MPD2    C5 9915   1.406   2.358  13.447 -0.1307 -0.0294 -0.0394
  670MPD2     H 9916   1.621   2.256  13.736  1.0701  1.8086 -0.8066
  670MPD2    H1 9917   1.263   2.224  13.512 -0.0197 -0.4646  0.1412
  670MPD2    H2 9918   1.544   2.505  13.404  1.2654  0.0038  0.9054
  670MPD2    H3 9919   1.350   2.401  13.365  0.1676  1.2096  0.3989
  670MPD2     N 9920   1.388   2.143  13.742  0.2736  0.4386  0.8379
  670MPD2    H5 9921   1.461   2.091  13.789  0.1257 -0.3199  0.2282
  670MPD2    N1 9922   1.721   2.432  13.590  0.5673  0.5205  0.1890
  670MPD2    H7 9923   1.761   2.414  13.681 -0.8598  1.1507  0.9436
  671TMC3    C1 9924   1.267   1.989  13.859 -0.0127 -1.1161 -0.1896
  671TMC3    C2 9925   1.357   1.992  13.966  1.4530  0.3068  0.2039
  671TMC3    C3 9926   1.340   1.892  14.051  0.1565  0.0329 -0.4205
  671TMC3    C4 9927   1.150   1.919  13.849 -0.1607  0.1674  0.1954
  671TMC3    C5 9928   1.139   1.819  13.944  0.1352 -0.2318  0.0316
  671TMC3    C6 9929   1.226   1.807  14.050  0.3671 -0.4506 -0.2745
  671TMC3     C 9930   1.264   2.111  13.774  0.0028  0.8840 -0.1366
  671TMC3     O 9931   1.159   2.162  13.733 -0.1762 -0.1327 -0.1927
  671TMC3     H 9932   1.460   2.010  13.940  1.2519  0.6288 -0.3809
  671TMC3    H1 9933   1.090   1.920  13.759  0.8890  2.9293 -0.4697
  671TMC3    H2 9934   1.211   1.742  14.135 -0.7406  2.4294  1.7103
  671TMC3    C7 9935   1.063   1.708  13.901 -0.0271  0.8584 -0.1544
  671TMC3    C8 9936   1.455   1.848  14.125  0.3915  0.1474 -0.7656
  671TMC3    O1 9937   1.044   1.695  13.780 -0.0931 -0.1828  0.3044
  671TMC3    O2 9938   1.533   1.941  14.141  0.2069  0.0912 -0.2405
  672MPD2     C 9939   1.465   1.637   0.445 -0.2919 -0.3319  0.8818
  672MPD2    C1 9940   1.451   1.761   0.403  0.5588  0.2804  0.0960
  672MPD2    C2 9941   1.390   1.854   0.481 -0.3384 -1.0306 -0.2270
  672MPD2    C3 9942   1.328   1.820   0.600 -0.0868 -0.8941 -0.2693
  672MPD2    C4 9943   1.332   1.683   0.632 -0.4756  0.1000  0.0923
  672MPD2    C5 9944   1.399   1.596   0.551 -0.6047 -0.5125 -0.3895
  672MPD2     H 9945   1.380   1.952   0.436  2.2248 -0.0496  1.3756
  672MPD2    H1 9946   1.277   1.643   0.715 -2.3100  0.5622 -0.8988
  672MPD2    H2 9947   1.520   1.563   0.387  0.2641  0.2808  0.6329
  672MPD2    H3 9948   1.403   1.492   0.582 -0.3460 -0.4113 -0.0763
  672MPD2     N 9949   1.277   1.911   0.686  0.5281 -0.4600  0.8166
  672MPD2    H5 9950   1.250   1.872   0.776  0.9137 -1.2812  0.5756
  672MPD2    N1 9951   1.508   1.803   0.283  0.1870 -1.0741 -0.0331
  672MPD2    H7 9952   1.483   1.897   0.255  0.5729 -0.7889  0.5864
  673TMC3    C1 9953   1.650   1.823   0.099  0.1772  0.1213  0.2850
  673TMC3    C2 9954   1.770   1.878   0.101 -0.2870  0.9488  0.7261
  673TMC3    C3 9955   1.800   1.997   0.044  0.6827  0.3770  0.2601
  673TMC3    C4 9956   1.553   1.883   0.033  0.1698 -0.2350  0.2840
  673TMC3    C5 9957   1.573   2.003  17.677 -0.0005 -0.7222  0.2619
  673TMC3    C6 9958   1.703   2.059  17.676  0.2181  0.3459  0.3164
  673TMC3     C 9959   1.610   1.741   0.210  0.0395  0.8074  0.2660
  673TMC3     O 9960   1.676   1.643   0.244  0.5956  0.1225  0.4986
  673TMC3     H 9961   1.843   1.826   0.161 -1.3160 -2.4414 -0.9679
  673TMC3    H1 9962   1.454   1.840   0.018 -0.2353  0.6350  0.4450
  673TMC3    H2 9963   1.728   2.159  17.643  1.5506 -0.2709 -0.5344
  673TMC3    C7 9964   1.464   2.071  17.615  0.8522  0.3390 -0.2293
  673TMC3    C8 9965   1.941   2.049   0.062  0.5932 -0.1986 -0.1111
  673TMC3    O1 9966   1.374   2.001  17.563  0.0941 -0.0214  0.4036
  673TMC3    O2 9967   2.003   2.102  17.683  0.1626  0.1312 -0.2960
  674MPD2     C 9968   1.938   0.936   0.727  0.0075  0.6002 -0.3361
  674MPD2    C1 9969   1.831   1.012   0.687  0.5390 -0.2598  0.2977
  674MPD2    C2 9970   1.745   1.060   0.782  0.0331  0.0435 -0.2644
  674MPD2    C3 9971   1.771   1.050   0.912 -0.0995 -0.8486  0.2337
  674MPD2    C4 9972   1.890   0.994   0.950  0.0616  0.0445 -0.2043
  674MPD2    C5 9973   1.968   0.933   0.855 -0.1036  0.0790 -0.2883
  674MPD2     H 9974   1.665   1.120   0.740 -0.4339 -0.0334  0.5021
  674MPD2    H1 9975   1.924   0.988   1.053  0.3123 -0.2570 -0.3018
  674MPD2    H2 9976   2.000   0.873   0.664 -2.9396 -0.2581 -2.3563
  674MPD2    H3 9977   2.050   0.870   0.887 -0.4108  0.7588  1.8058
  674MPD2     N 9978   1.695   1.130   1.010 -0.7078  0.2326  0.2716
  674MPD2    H5 9979   1.610   1.172   0.975 -0.4880  0.4184 -0.0458
  674MPD2    N1 9980   1.788   1.024   0.552  0.2100 -1.1454  0.9182
  674MPD2    H7 9981   1.693   1.055   0.534  0.6928 -0.4619 -0.4939
  675TMC3    C1 9982   1.799   1.069   0.320  0.3369 -0.1950  0.2100
  675TMC3    C2 9983   1.673   1.023   0.296  0.4581  0.6315  0.4979
  675TMC3    C3 9984   1.621   1.046   0.171 -0.4349  0.0783 -0.2265
  675TMC3    C4 9985   1.871   1.147   0.231 -0.1106 -0.2114  0.2319
  675TMC3    C5 9986   1.812   1.173   0.110  0.1263  0.3585 -0.0139
  675TMC3    C6 9987   1.690   1.122   0.075 -0.1605 -0.0463 -0.6167
  675TMC3     C 9988   1.869   1.022   0.438  0.4224  0.1019 -0.4894
  675TMC3     O 9989   1.992   1.031   0.448  0.0089 -0.2544  0.4469
  675TMC3     H 9990   1.619   0.976   0.378  0.0265  1.7507  0.8613
  675TMC3    H1 9991   1.973   1.176   0.257  0.5939 -0.8351 -1.8401
  675TMC3    H2 9992   1.644   1.150  17.689 -0.3775  2.8451  0.3566
  675TMC3    C7 9993   1.854   1.295   0.047  0.1066  0.5216 -0.4457
  675TMC3    C8 9994   1.480   1.042   0.144 -0.0362  0.6069 -0.1285
  675TMC3    O1 9995   1.854   1.297  17.632 -0.2040  0.4828 -0.2045
  675TMC3    O2 9996   1.459   1.055   0.026  0.1608  0.4167 -0.1511
  676MPD2     C 9997   4.536   0.443  11.061  0.0774  0.1340  0.2047
  676MPD2    C1 9998   4.404   0.403  11.082  0.4140  0.8380  0.7490
  676MPD2    C2 9999   4.376   0.268  11.079  0.4746 -0.3270 -0.1836
  676MPD2    C310000   4.468   0.172  11.049  0.1214  0.2317  0.5314
  676MPD2    C410001   4.601   0.212  11.034  0.1218  0.2375  0.2359
  676MPD2    C510002   4.629   0.344  11.051  0.2444  0.8538 -0.6705
  676MPD2     H10003   4.278   0.227  11.101  0.3190  1.2462  2.0107
  676MPD2    H110004   4.682   0.143  11.017 -0.0735  0.0667  0.0076
  676MPD2    H210005   4.571   0.545  11.054 -0.2790  0.1419 -1.3455
  676MPD2    H310006   0.008   0.367  11.055  0.6817 -1.4107  0.7258
  676MPD2     N10007   4.436   0.032  11.021 -0.0462 -0.5863 -0.3984
  676MPD2    H510008   4.522   4.706  11.010  0.9518  0.3666  3.0132
  676MPD2    N110009   4.300   0.490  11.096 -0.3343  0.3672 -0.6537
  676MPD2    H710010   4.213   0.441  11.113  0.7408 -1.5303 -0.6391
  677TMC3    C110011   4.181   0.684  11.158  0.0099  0.7260 -0.7621
  677TMC3    C210012   4.093   0.590  11.206 -0.5123  0.1434  0.0592
  677TMC3    C310013   4.027   0.626  11.316  0.3647 -0.4866  0.3570
  677TMC3    C410014   4.203   0.802  11.220  0.0128 -0.5827 -0.1469
  677TMC3    C510015   4.133   0.834  11.333 -0.4706 -0.8149  0.2909
  677TMC3    C610016   4.028   0.750  11.370  0.2252 -0.0873 -0.0446
  677TMC3     C10017   4.303   0.626  11.102  0.2547 -0.0215  0.1945
  677TMC3     O10018   4.395   0.701  11.074  0.4327 -0.2552  0.1544
  677TMC3     H10019   4.065   0.502  11.149 -0.1000  0.1180 -0.1042
  677TMC3    H110020   4.284   0.865  11.185  0.1550 -1.2189 -0.9795
  677TMC3    H210021   3.975   0.777  11.461 -1.3216  0.5672 -1.1313
  677TMC3    C710022   4.109   0.975  11.363 -0.2749  0.0213  0.1396
  677TMC3    C810023   4.050   0.536  11.433  0.4521  0.3315 -0.2228
  677TMC3    O110024   3.995   1.004  11.392 -0.1490  0.3486 -0.0391
  677TMC3    O210025   4.077   0.590  11.539  0.1936 -0.0081 -0.3750
  678MPD2     C10026   0.498   0.078   1.689  0.2463 -0.1073  0.0256
  678MPD2    C110027   0.520   0.122   1.560  0.2490 -1.1414  0.1292
  678MPD2    C210028   0.415   0.173   1.485 -0.0178 -0.3160 -0.0652
  678MPD2    C310029   0.288   0.186   1.536  0.6017 -0.1546 -0.2671
  678MPD2    C410030   0.265   0.134   1.662  0.4869  0.6579  0.3653
  678MPD2    C510031   0.371   0.095   1.738 -0.0112 -0.3952  0.4409
  678MPD2     H10032   0.432   0.215   1.386 -1.0830 -0.3668 -0.2799
  678MPD2    H110033   0.169   0.120   1.710  1.8729 -1.8286  2.3977
  678MPD2    H210034   0.573   0.039   1.756 -0.4745  0.2428  1.0332
  678MPD2    H310035   0.343   0.056   1.836 -0.3345 -1.8763 -0.2448
  678MPD2     N10036   0.183   0.226   1.449 -0.2872  0.1616  0.2486
  678MPD2    H510037   0.212   0.221   1.352  1.0894 -0.7318  0.7049
  678MPD2    N110038   0.651   0.131   1.510 -0.3309 -0.0342  0.6199
  678MPD2    H710039   0.671   0.174   1.420 -1.0185 -0.0022  0.4849
  679TMC3    C110040   1.097   0.023   1.448 -0.4672  0.5511  0.6221
  679TMC3    C210041   0.982   4.722   1.513  0.1954 -0.2219  0.4745
  679TMC3    C310042   0.882   0.082   1.496  0.3833  0.1862 -0.0460
  679TMC3    C410043   1.115   0.124   1.359  0.6109  0.0754 -0.5876
  679TMC3    C510044   1.013   0.219   1.353  0.1098 -0.5202  0.6285
  679TMC3    C610045   0.899   0.200   1.428  0.4001 -0.4813  0.0930
  679TMC3     C10046   1.177   4.632   1.419 -0.1514 -0.8364  0.5103
  679TMC3     O10047   1.227   4.620   1.309 -0.1149  0.3088 -0.0161
  679TMC3     H10048   0.960   4.626   1.557  1.5941 -0.6938  0.1676
  679TMC3    H110049   1.195   0.127   1.287  0.5745  1.4775 -0.5822
  679TMC3    H210050   0.825   0.278   1.434  1.1532  0.3027 -0.6935
  679TMC3    C710051   1.009   0.318   1.249  0.0733  0.4658  0.2760
  679TMC3    C810052   0.761   0.066   1.570  0.7317 -0.1827 -0.0394
  679TMC3    O110053   0.903   0.372   1.221  0.2653  0.1807  0.1287
  679TMC3    O210054   0.764   4.709   1.658  0.7571  0.3634 -0.0899
  680MPD2     C10055   1.622   3.840  13.254  0.6058  0.4214  0.4784
  680MPD2    C110056   1.628   3.757  13.363  0.3709  0.1341  0.4845
  680MPD2    C210057   1.554   3.782  13.475  0.2902 -0.6896  0.0115
  680MPD2    C310058   1.472   3.887  13.480  0.3936 -1.1545  0.2082
  680MPD2    C410059   1.463   3.971  13.366  0.0277  0.4821  0.1871
  680MPD2    C510060   1.533   3.945  13.255  0.2993  0.3217  0.3327
  680MPD2     H10061   1.569   3.719  13.562  2.8083 -1.6953 -1.1367
  680MPD2    H110062   1.402   4.060  13.368 -0.0197  0.4413  0.4827
  680MPD2    H210063   1.677   3.820  13.162 -2.0118 -0.1590 -0.9613
  680MPD2    H310064   1.527   4.015  13.172  3.3532 -2.0376 -1.8889
  680MPD2     N10065   1.395   3.918  13.587  0.1120 -0.3977  0.1832
  680MPD2    H510066   1.338   4.002  13.575 -1.6758 -1.1631  3.2951
  680MPD2    N110067   1.708   3.645  13.369 -0.2786 -0.1022 -0.5811
  680MPD2    H710068   1.707   3.600  13.460 -0.7968  0.9127 -0.0853
  681TMC3    C110069   1.835   3.466  13.300 -0.4735  0.2885  0.1504
  681TMC3    C210070   1.766   3.377  13.380  0.0888  0.0343  0.0983
  681TMC3    C310071   1.813   3.253  13.387 -0.3318 -0.2137  0.5622
  681TMC3    C410072   1.961   3.438  13.258  0.4404  0.1578 -0.1733
  681TMC3    C510073   2.010   3.317  13.275  0.0814  0.5512  0.3677
  681TMC3    C610074   1.938   3.221  13.344  0.0625 -0.0457 -0.2425
  681TMC3     C10075   1.789   3.596  13.270 -0.0831 -0.2401 -0.8979
  681TMC3     O10076   1.809   3.645  13.158  0.0979 -0.1819  0.0939
  681TMC3     H10077   1.666   3.401  13.413  0.6743 -0.2127  2.0319
  681TMC3    H110078   2.020   3.525  13.229 -0.4916  1.6134  2.2575
  681TMC3    H210079   1.974   3.120  13.355 -0.5039 -0.1738  0.3963
  681TMC3    C710080   2.148   3.296  13.239  0.1123 -0.1776 -0.2638
  681TMC3    C810081   1.748   3.164  13.480  0.3321 -0.2319  0.3763
  681TMC3    O110082   2.231   3.260  13.323  0.0193  0.6904  0.2876
  681TMC3    O210083   1.761   3.043  13.450  0.6953  0.5627  0.5472
  682MPD2     C10084   3.117   0.541  10.260 -0.5344 -0.2313 -0.0917
  682MPD2    C110085   3.063   0.418  10.243 -0.2779  0.1858  0.2078
  682MPD2    C210086   3.013   0.340  10.342  0.4690 -0.2905 -0.2004
  682MPD2    C310087   3.012   0.390  10.468  0.6010 -0.4129  0.0394
  682MPD2    C410088   3.070   0.513  10.494 -0.0022  0.3181  0.1731
  682MPD2    C510089   3.127   0.586  10.389 -0.5902  0.0737 -0.5919
  682MPD2     H10090   2.981   0.239  10.317 -1.4567 -0.0303  1.2487
  682MPD2    H110091   3.068   0.559  10.592  1.5339 -0.8948  0.7719
  682MPD2    H210092   3.156   0.600  10.179 -0.5639  0.8039  0.6498
  682MPD2    H310093   3.174   0.682  10.409  1.2818 -0.4477 -2.4050
  682MPD2     N10094   2.963   0.323  10.582 -0.2913  0.3776  0.3408
  682MPD2    H510095   2.986   0.365  10.672  2.1151  2.6533 -1.3648
  682MPD2    N110096   3.069   0.359  10.114  0.0279 -0.5823  0.4714
  682MPD2    H710097   3.037   0.262  10.113 -2.3427  0.1945 -0.3407
  683TMC3    C110098   2.741   0.216  10.910 -0.2032  0.1772  0.0272
  683TMC3    C210099   2.732   0.078  10.939 -0.0268 -0.6172 -0.6549
  683TMC3    C310100   2.775   4.719  10.837 -0.4655  0.6391 -0.0198
  683TMC3    C410101   2.802   0.264  10.799  0.0072 -0.1723  0.5071
  683TMC3    C510102   2.826   0.174  10.699 -0.5700 -0.5892  0.1338
  683TMC3    C610103   2.810   0.042  10.716 -0.3381 -0.1412 -0.0300
  683TMC3     C10104   2.722   0.312  11.023  0.2805  0.3970  0.4168
  683TMC3     O10105   2.803   0.395  11.057  0.1849  0.0312  0.5651
  683TMC3     H10106   2.713   0.050  11.042 -0.6142 -0.3544 -0.6905
  683TMC3    H110107   2.811   0.372  10.794 -0.9928 -0.0767  0.7770
  683TMC3    H210108   2.848   4.699  10.642 -0.3938  1.3028 -1.4137
  683TMC3    C710109   2.878   0.216  10.568  0.3956  0.0559 -0.5473
  683TMC3    C810110   2.840   4.595  10.867 -0.0963 -0.8301  0.2885
  683TMC3    O110111   2.882   0.129  10.482 -0.0214  0.0796  0.2809
  683TMC3    O210112   2.850   4.511  10.778 -0.0397  0.8272  0.5363
  684MPD2     C10113   1.255   0.253  16.439  0.1766 -0.0589  0.3634
  684MPD2    C110114   1.314   0.260  16.313 -0.0319  0.5253 -0.3313
  684MPD2    C210115   1.367   0.382  16.270 -0.2568 -0.2891  0.4621
  684MPD2    C310116   1.376   0.488  16.352  0.7053  0.0360  0.2824
  684MPD2    C410117   1.326   0.480  16.482 -0.6195 -0.2424  0.2367
  684MPD2    C510118   1.264   0.362  16.517  0.9413  0.2113 -0.6925
  684MPD2     H10119   1.419   0.385  16.174 -2.2592 -1.3150 -0.6651
  684MPD2    H110120   1.341   0.560  16.554 -1.4290  0.0319  0.1104
  684MPD2    H210121   1.208   0.164  16.479 -0.5736  0.5135  0.7718
  684MPD2    H310122   1.239   0.349  16.622  1.3140  0.7813 -0.5362
  684MPD2     N10123   1.445   0.603  16.309 -0.5904 -0.5396  0.2719
  684MPD2    H510124   1.478   0.596  16.213 -1.1622  1.2086 -0.0542
  684MPD2    N110125   1.354   0.147  16.240 -0.0418 -0.2329  0.3959
  684MPD2    H710126   1.396   0.171  16.151  0.0714 -0.4504  0.3900
  685TMC3    C110127   1.462   4.680  16.195  0.8512  0.7921  0.0014
  685TMC3    C210128   1.417   4.680  16.068  0.2705 -0.4190  0.3062
  685TMC3    C310129   1.502   4.642  15.976 -0.0167  0.3085  0.2897
  685TMC3    C410130   1.578   4.628  16.235  0.5142  0.0775 -0.0591
  685TMC3    C510131   1.668   4.602  16.135 -0.2438  0.0894  0.0309
  685TMC3    C610132   1.631   4.605  16.007  0.2088 -0.0186  1.0637
  685TMC3     C10133   1.376   0.025  16.290  0.2332 -0.8499 -0.2116
  685TMC3     O10134   1.364   4.706  16.403  0.1502 -0.0187 -0.1258
  685TMC3     H10135   1.321   4.725  16.046  1.5552  0.0905 -4.3869
  685TMC3    H110136   1.617   4.643  16.335  1.9981 -2.9702 -0.1793
  685TMC3    H210137   1.683   4.571  15.918 -2.2556  0.9772 -0.7681
  685TMC3    C710138   1.805   4.614  16.168 -0.4635 -0.3064  0.6549
  685TMC3    C810139   1.467   4.646  15.832  0.0830 -0.5348 -0.1363
  685TMC3    O110140   1.846   4.607  16.281  0.2408  0.3466  0.4411
  685TMC3    O210141   1.554   4.619  15.750 -0.3620  0.4013  0.3119
  686MPD2     C10142   2.961   0.190  15.566  0.3030 -0.7260 -0.2104
  686MPD2    C110143   3.011   0.121  15.673  0.2372 -0.3684  0.1795
  686MPD2    C210144   3.072   4.721  15.646 -0.1550 -0.1379  0.4755
  686MPD2    C310145   3.074   4.670  15.511 -0.3476  0.0072  0.2566
  686MPD2    C410146   3.032   0.027  15.409 -0.9070 -0.5794  0.5169
  686MPD2    C510147   2.968   0.144  15.440 -0.2842 -0.1987  0.4724
  686MPD2     H10148   3.111   4.661  15.727 -0.2846  1.9572  2.0737
  686MPD2    H110149   3.052   4.720  15.308 -1.3402  0.9089 -0.0615
  686MPD2    H210150   2.916   0.288  15.577 -0.4438 -1.0168 -0.6688
  686MPD2    H310151   2.929   0.197  15.354 -1.0081  1.9216  2.0756
  686MPD2     N10152   3.123   4.542  15.474  0.0715  0.4444 -0.2304
  686MPD2    H510153   3.145   4.532  15.375  0.9903 -0.8380  0.0975
  686MPD2    N110154   2.981   0.174  15.797  0.1978 -0.1737 -0.3430
  686MPD2    H710155   2.923   0.257  15.792  0.8834  0.3504  0.4366
  687TMC3    C110156   3.105   4.419  15.680 -0.8557 -0.4375 -0.8402
  687TMC3    C210157   2.966   4.420  15.683  0.3669  0.3076 -0.0227
  687TMC3    C310158   2.906   4.424  15.807  0.5381 -0.1849  0.2505
  687TMC3    C410159   3.186   4.395  15.793  0.8089 -0.4957 -0.2559
  687TMC3    C510160   3.112   4.392  15.912 -0.3911 -0.0138  0.0161
  687TMC3    C610161   2.976   4.402  15.923  0.0064 -0.4033  0.4270
  687TMC3     C10162   3.166   4.433  15.547  0.0366 -0.2532  0.2408
  687TMC3     O10163   3.245   4.344  15.509 -0.1304  0.5259  0.0829
  687TMC3     H10164   2.915   4.444  15.590  0.1052 -0.8989 -0.1903
  687TMC3    H110165   3.294   4.406  15.786  0.5598  0.7601 -2.2667
  687TMC3    H210166   2.922   4.391  16.016 -1.6054 -1.6932 -0.6489
  687TMC3    C710167   3.184   4.389  16.036 -0.3279 -0.7363 -0.2323
  687TMC3    C810168   2.788   4.507  15.827  0.2369  0.0203 -0.4529
  687TMC3    O110169   3.119   4.414  16.134 -0.5228 -0.0363  0.5004
  687TMC3    O210170   2.732   4.495  15.935  0.1923 -0.0636 -0.1752
  688MPD2     C10171   1.978   3.555  17.281 -0.1172 -0.2717 -0.5360
  688MPD2    C110172   2.019   3.421  17.268  0.6879 -0.4311  0.2382
  688MPD2    C210173   2.104   3.383  17.166  0.1321  0.4968  0.7606
  688MPD2    C310174   2.146   3.479  17.077 -0.4186 -0.3814  0.0440
  688MPD2    C410175   2.109   3.610  17.092 -0.2587  0.4905 -0.2684
  688MPD2    C510176   2.029   3.648  17.195  0.4108  0.0301 -0.3779
  688MPD2     H10177   2.128   3.278  17.156 -4.1432 -0.3443 -0.6803
  688MPD2    H110178   2.152   3.683  17.023 -1.7069 -0.5539 -2.2677
  688MPD2    H210179   1.902   3.586  17.352  1.6867 -1.6345  1.9959
  688MPD2    H310180   2.004   3.752  17.212 -1.2772 -0.3159 -0.7056
  688MPD2     N10181   2.235   3.449  16.974  0.0463 -0.3170 -0.3106
  688MPD2    H510182   2.281   3.529  16.931 -0.5841  0.7978  1.0692
  688MPD2    N110183   1.973   3.319  17.361 -0.2075  1.0851  0.3150
  688MPD2    H710184   1.992   3.223  17.331 -2.4161  0.3161  1.3832
  689TMC3    C110185   1.824   3.217  17.529 -0.2849 -0.2868  0.5653
  689TMC3    C210186   1.708   3.246  17.601 -0.7970  0.3909 -0.1863
  689TMC3    C310187   1.655   3.142  17.672 -0.2118  0.4338 -0.3546
  689TMC3    C410188   1.877   3.095  17.528  0.3107  0.3596 -0.7184
  689TMC3    C510189   1.807   2.990  17.580  0.3635 -0.3101  0.4100
  689TMC3    C610190   1.700   3.011  17.661  0.9951 -0.1492 -0.2538
  689TMC3     C10191   1.892   3.336  17.471  0.0810 -0.9417  0.3590
  689TMC3     O10192   1.849   3.440  17.517 -0.6565 -0.5686 -0.0759
  689TMC3     H10193   1.661   3.343  17.586 -1.5805  0.1822  0.9330
  689TMC3    H110194   1.976   3.072  17.491  0.7121 -1.7748  1.7115
  689TMC3    H210195   1.666   2.939   0.027  2.4381 -1.5905 -1.0039
  689TMC3    C710196   1.863   2.854  17.568  0.0107 -0.1035 -0.3183
  689TMC3    C810197   1.569   3.174   0.078 -0.2709  0.4784  0.8019
  689TMC3    O110198   1.978   2.833  17.602 -0.4053 -0.2322 -0.4673
  689TMC3    O210199   1.498   3.093   0.134  0.4291 -0.3071 -0.5212
  690MPD2     C10200   4.345   0.374  15.904 -0.2819  0.5580  0.2427
  690MPD2    C110201   4.258   0.357  15.800  0.1023  0.1650  0.6653
  690MPD2    C210202   4.289   0.413  15.676  0.4906 -0.1271  0.3114
  690MPD2    C310203   4.404   0.481  15.656 -0.3115  0.0594  0.5752
  690MPD2    C410204   4.481   0.507  15.765  0.1165  0.0600 -0.8035
  690MPD2    C510205   4.451   0.459  15.882 -0.1972 -0.3665 -0.8522
  690MPD2     H10206   4.226   0.390  15.591  1.2016  1.0637 -0.5482
  690MPD2    H110207   4.575   0.560  15.767  0.4066 -0.6836  4.0513
  690MPD2    H210208   4.332   0.331  16.003 -3.0366 -0.8296 -0.7301
  690MPD2    H310209   4.522   0.477  15.962  1.8953  0.5215 -2.9071
  690MPD2     N10210   4.448   0.526  15.525  0.0131 -0.7146  0.7422
  690MPD2    H510211   4.381   0.503  15.451 -2.4802  2.2210  2.0618
  690MPD2    N110212   4.153   0.264  15.808  0.4505 -0.1735  0.2416
  690MPD2    H710213   4.106   0.249  15.719  0.7955  2.2208 -0.3458
  691TMC3    C110214   3.965   0.151  15.890  0.1501  0.5255 -0.4816
  691TMC3    C210215   3.860   0.160  15.975 -0.1444 -0.3141  0.4382
  691TMC3    C310216   3.738   0.174  15.914 -0.0711  0.3613  0.2868
  691TMC3    C410217   3.956   0.120  15.753 -0.7656 -0.1443  0.2562
  691TMC3    C510218   3.837   0.145  15.702 -0.5623  0.3591  0.9209
  691TMC3    C610219   3.728   0.183  15.767 -0.1826  0.7875 -0.3279
  691TMC3     C10220   4.087   0.223  15.924  1.0525 -0.0202  0.0220
  691TMC3     O10221   4.101   0.242  16.048 -0.1816  0.4579  0.2254
  691TMC3     H10222   3.870   0.182  16.080 -2.6245  1.2335  0.3572
  691TMC3    H110223   4.038   0.097  15.685 -0.4014  1.0594  0.2902
  691TMC3    H210224   3.638   0.191  15.708 -0.7715  0.3305  0.5159
  691TMC3    C710225   3.823   0.108  15.563 -0.0309 -0.0682 -0.1722
  691TMC3    C810226   3.634   0.225  15.990 -0.1279 -0.1064  0.0403
  691TMC3    O110227   3.765   0.182  15.488 -0.8818 -0.6914 -0.5253
  691TMC3    O210228   3.648   0.189  16.110 -0.3289 -0.0727  0.1345
  692TMC3    C110229   1.086   1.574  15.686  0.4617  0.2835 -0.0133
  692TMC3    C210230   1.211   1.621  15.711  0.2443 -0.5285 -0.1032
  692TMC3    C310231   1.326   1.562  15.659  0.7811  0.4089  0.3788
  692TMC3    C410232   1.066   1.454  15.620 -0.1645 -0.4501  0.1878
  692TMC3    C510233   1.179   1.402  15.569 -0.4679  0.2073  0.5301
  692TMC3    C610234   1.303   1.460  15.574  0.0475  0.2407 -0.2056
  692TMC3     C10235   0.978   1.646  15.752  0.2547  0.5281  0.3334
  692TMC3     O10236   0.878   1.579  15.780 -1.0927  0.1249  0.3735
  692TMC3     H10237   1.230   1.697  15.786  1.6418 -0.4349 -0.5652
  692TMC3    H110238   0.975   1.397  15.636 -1.3302  0.8823 -1.6940
  692TMC3    H210239   1.390   1.420  15.523 -0.9805 -3.0356  0.6526
  692TMC3    C710240   1.176   1.263  15.572  0.3353  0.2778  0.8980
  692TMC3    C810241   1.393   1.489  15.770  0.1805 -0.5578  0.2249
  692TMC3    O110242   1.067   1.213  15.546  0.3294  0.1910  0.1330
  692TMC3    O210243   1.466   1.396  15.744 -0.0404  0.0802 -0.5937
  693MPD2     C10244   0.302   4.191  10.247 -0.2008 -0.1569  0.4609
  693MPD2    C110245   0.249   4.068  10.299 -0.6430  0.2381  0.6026
  693MPD2    C210246   0.334   3.963  10.336 -0.5099 -0.4536 -0.3764
  693MPD2    C310247   0.472   3.992  10.324 -0.1506 -0.0023 -0.1993
  693MPD2    C410248   0.518   4.110  10.279  0.3067 -0.3772  0.6898
  693MPD2    C510249   0.438   4.205  10.231  0.7766  0.4402  0.6039
  693MPD2     H10250   0.289   3.872  10.375 -1.3613  0.1474  0.0248
  693MPD2    H110251   0.623   4.116  10.251 -0.2324 -1.3472 -1.5101
  693MPD2    H210252   0.244   4.254  10.181 -1.9664 -0.4605  1.7153
  693MPD2    H310253   0.475   4.292  10.178 -0.0952  0.5658  0.2094
  693MPD2     N10254   0.576   3.899  10.370  0.1786 -0.2211  0.2944
  693MPD2    H510255   0.672   3.930  10.367 -0.1181  0.6775  0.1981
  693MPD2    N110256   0.108   4.061  10.327  0.0445  0.4389 -0.0619
  693MPD2    H710257   0.058   4.149  10.313 -1.4940 -0.3941  0.2474
  694TMC3    C110258   4.645   3.992  10.439  0.2601  0.6579  0.4528
  694TMC3    C210259   4.533   3.919  10.422  0.1369  0.3125 -0.0815
  694TMC3    C310260   4.429   3.945  10.504  0.2576  0.7895 -0.2197
  694TMC3    C410261   4.673   4.067  10.547  0.9225 -0.7086  0.2393
  694TMC3    C510262   4.577   4.064  10.644  0.0696  0.5936  0.3835
  694TMC3    C610263   4.450   4.020  10.617  0.2524 -0.0831  0.2341
  694TMC3     C10264   0.034   3.951  10.357  0.0523 -1.2073 -1.1665
  694TMC3     O10265   0.048   3.831  10.338 -0.2084 -0.0864 -0.0123
  694TMC3     H10266   4.531   3.843  10.344  0.1192 -0.2286  0.4456
  694TMC3    H110267   0.045   4.107  10.568  1.1518 -1.5509  0.7449
  694TMC3    H210268   4.373   4.041  10.691 -0.4095  0.7703 -0.6959
  694TMC3    C710269   4.603   4.131  10.772  0.8316  0.4571 -0.1202
  694TMC3    C810270   4.304   3.874  10.502 -0.2958  0.1141 -0.6100
  694TMC3    O110271   4.681   4.226  10.774  0.3987 -0.6214  0.0196
  694TMC3    O210272   4.235   3.882  10.606 -0.0264 -0.1050  0.1453
  695MPD2     C10273   1.565   0.967  13.447 -0.1070  0.2523 -0.1744
  695MPD2    C110274   1.495   1.005  13.559  0.4913 -0.3051 -0.3471
  695MPD2    C210275   1.384   1.083  13.544  0.6420  0.3513  0.6573
  695MPD2    C310276   1.327   1.105  13.421  0.1775  0.3910  0.1931
  695MPD2    C410277   1.409   1.090  13.308  0.4524  0.6780  0.9138
  695MPD2    C510278   1.521   1.016  13.326 -0.2823  0.1787 -0.4145
  695MPD2     H10279   1.324   1.119  13.627  1.2191 -0.5156  1.4467
  695MPD2    H110280   1.365   1.114  13.212  0.0012 -0.5091  0.8291
  695MPD2    H210281   1.654   0.906  13.436 -2.1891 -2.8467  0.1462
  695MPD2    H310282   1.590   1.014  13.243 -1.0599 -1.1121 -1.0242
  695MPD2     N10283   1.200   1.166  13.422 -0.2034  0.0442 -0.0267
  695MPD2    H510284   1.151   1.179  13.510 -2.7763  0.2620 -1.5102
  695MPD2    N110285   1.536   0.980  13.695  0.6769 -0.6224  0.6865
  695MPD2    H710286   1.490   1.020  13.776  0.4092 -1.1453  0.7949
  696TMC3    C110287   0.982   1.214  13.339  0.5341  0.2956 -0.2756
  696TMC3    C210288   0.941   1.146  13.452  0.0835  0.8956 -0.2168
  696TMC3    C310289   0.836   1.203  13.525  0.7954  0.2918  0.1257
  696TMC3    C410290   0.920   1.331  13.305  0.1011 -0.0724  0.5219
  696TMC3    C510291   0.805   1.369  13.368 -0.5833 -0.3650  0.1174
  696TMC3    C610292   0.759   1.303  13.471 -0.1517  0.2643  1.2991
  696TMC3     C10293   1.126   1.201  13.309  0.0581 -0.2574 -0.8225
  696TMC3     O10294   1.165   1.230  13.199 -0.0978 -0.0899 -0.0399
  696TMC3     H10295   0.993   1.063  13.498 -0.2805  0.9835  0.3633
  696TMC3    H110296   0.961   1.394  13.227 -0.0908 -0.2474  0.2773
  696TMC3    H210297   0.673   1.334  13.528  0.0062 -0.6079  2.0138
  696TMC3    C710298   0.790   1.510  13.367  0.1030 -0.4809 -0.5428
  696TMC3    C810299   0.888   1.249  13.650  0.2221 -0.1625  0.1975
  696TMC3    O110300   0.817   1.574  13.262  0.4312  0.3335 -0.1228
  696TMC3    O210301   1.012   1.252  13.656  0.2882  0.2066  0.4431
  697MPD2     C10302   0.436   2.810  15.726 -0.0786 -0.3128 -0.0930
  697MPD2    C110303   0.457   2.776  15.598  0.0838 -0.7359  0.5599
  697MPD2    C210304   0.490   2.873  15.504  0.0937 -0.4061 -0.8397
  697MPD2    C310305   0.505   3.002  15.544 -0.3630 -0.2943  0.0203
  697MPD2    C410306   0.484   3.035  15.682  0.2969  0.5091 -0.5593
  697MPD2    C510307   0.450   2.936  15.769  0.0518 -0.0281  0.2526
  697MPD2     H10308   0.500   2.852  15.398  0.1908 -3.9417 -0.1278
  697MPD2    H110309   0.491   3.137  15.718 -0.1625 -0.6811  2.8993
  697MPD2    H210310   0.406   2.736  15.799 -0.6326  0.3134  0.3109
  697MPD2    H310311   0.434   2.967  15.871 -1.7821 -2.0950  0.5884
  697MPD2     N10312   0.536   3.093  15.447  0.3247  0.2769  0.1928
  697MPD2    H510313   0.522   3.054  15.354  1.3184  2.7388 -1.0182
  697MPD2    N110314   0.445   2.639  15.570  0.3801  0.6849 -0.3086
  697MPD2    H710315   0.438   2.575  15.649  1.3732 -0.7719 -1.4048
  698TMC3    C110316   0.664   3.269  15.358  0.4707  0.0275  0.0087
  698TMC3    C210317   0.800   3.298  15.381 -0.2736  0.7839  0.1634
  698TMC3    C310318   0.892   3.280  15.280 -0.2076  0.2970  0.7579
  698TMC3    C410319   0.628   3.217  15.234  0.1831  0.3175  0.4725
  698TMC3    C510320   0.726   3.194  15.140 -0.7679 -0.0748  0.0442
  698TMC3    C610321   0.860   3.225  15.158 -0.5398  0.1008 -0.7150
  698TMC3     C10322   0.593   3.215  15.473 -0.1579 -0.3120 -0.5034
  698TMC3     O10323   0.627   3.259  15.582 -0.2832 -0.1119  0.1617
  698TMC3     H10324   0.830   3.336  15.478  0.2683 -0.1374  0.3540
  698TMC3    H110325   0.528   3.188  15.205  0.3161  0.2838  0.0511
  698TMC3    H210326   0.938   3.177  15.101 -0.3507 -1.2739  0.7149
  698TMC3    C710327   0.680   3.143  15.016  0.5801  0.1050 -0.5567
  698TMC3    C810328   1.031   3.260  15.321 -0.3508 -0.8472 -0.8811
  698TMC3    O110329   0.563   3.111  15.014  0.4444 -0.3334 -0.0810
  698TMC3    O210330   1.042   3.233  15.440 -0.1844  0.2298  0.6902
  699TMC3    C110331   0.939   1.197  12.955  0.7787 -0.5782 -0.5119
  699TMC3    C210332   0.953   1.072  12.998  0.1628 -0.3777  0.1837
  699TMC3    C310333   0.848   1.016  13.063 -0.0506 -0.0236  0.4756
  699TMC3    C410334   0.824   1.270  12.968  0.1424 -0.1845  0.4474
  699TMC3    C510335   0.714   1.208  13.022 -0.0702  0.2007  0.4232
  699TMC3    C610336   0.729   1.084  13.087 -0.0679 -0.2608 -0.0011
  699TMC3     C10337   1.033   1.260  12.869 -0.0236 -0.6761  0.4965
  699TMC3     O10338   1.000   1.340  12.788 -0.4332 -0.3542  0.1471
  699TMC3     H10339   1.037   1.011  12.966  0.5526 -0.4862  1.4079
  699TMC3    H110340   0.820   1.371  12.930  1.8098 -0.4858 -0.5437
  699TMC3    H210341   0.655   1.035  13.150 -1.1537  0.0984 -1.0015
  699TMC3    C710342   0.608   1.289  13.082 -0.1199  0.3472 -0.5132
  699TMC3    C810343   0.870   0.906  13.157 -0.0601 -0.1530 -0.4066
  699TMC3    O110344   0.528   1.237  13.161 -0.6591  0.2675 -0.2590
  699TMC3    O210345   0.767   0.843  13.177 -0.0534 -0.0106 -0.2302
  700TMC3    C110346   4.530   3.529  17.093 -0.7048  0.2165  0.6516
  700TMC3    C210347   4.640   3.469  17.047 -0.5457  0.1482 -0.5833
  700TMC3    C310348   4.716   3.400  17.134 -0.1665 -0.1265 -0.4886
  700TMC3    C410349   4.491   3.526  17.220  0.8905  0.6606 -0.1916
  700TMC3    C510350   4.573   3.455  17.308  0.2156  0.7936 -0.6850
  700TMC3    C610351   4.692   3.393  17.266  0.1170  0.6130  0.3757
  700TMC3     C10352   4.510   3.663  17.036 -0.2024  0.0603 -0.0132
  700TMC3     O10353   4.408   3.729  17.054  0.1821  0.0656  0.2735
  700TMC3     H10354   4.667   3.468  16.941  0.1405  1.7723 -0.4297
  700TMC3    H110355   4.391   3.559  17.246  0.9362  0.9815 -0.4234
  700TMC3    H210356   0.038   3.339  17.324 -1.0215 -1.6144 -0.2980
  700TMC3    C710357   4.588   3.504  17.443  0.6920  0.4556 -0.5023
  700TMC3    C810358   0.062   3.280  17.077  0.1239 -0.9078  0.8764
  700TMC3    O110359   4.692   3.490  17.503 -0.0087  0.6344  0.5477
  700TMC3    O210360   0.091   3.283  16.958 -0.2332  0.1664  0.2175
  701TMC3    C110361   4.669   1.971  15.640  0.4025 -0.2624 -0.4372
  701TMC3    C210362   4.724   1.912  15.528 -0.1111 -0.0314  0.2809
  701TMC3    C310363   0.086   1.987  15.455 -0.0755 -0.4768 -0.9216
  701TMC3    C410364   4.692   2.101  15.677 -0.9434 -0.4509  0.2547
  701TMC3    C510365   0.062   2.169  15.601  0.0697  0.2931  0.2866
  701TMC3    C610366   0.128   2.112  15.492  0.2624  0.5292  0.4291
  701TMC3     C10367   4.548   1.920  15.703  0.2715 -0.3050  0.5547
  701TMC3     O10368   4.522   1.967  15.815 -0.2495 -0.1833  0.9283
  701TMC3     H10369   4.709   1.806  15.506  0.4992  0.0197 -0.3634
  701TMC3    H110370   4.640   2.150  15.759 -0.0108  2.1731 -0.7054
  701TMC3    H210371   0.206   2.172  15.448 -0.5552 -0.0549 -1.7981
  701TMC3    C710372   0.082   2.305  15.625  0.4350  0.0658  0.0262
  701TMC3    C810373   0.115   1.968  15.314  0.0362 -0.1072 -0.0959
  701TMC3    O110374   0.080   2.377  15.523  0.0878  0.0182 -0.3557
  701TMC3    O210375   0.221   2.010  15.267 -0.2473 -0.5248  0.4676
  702MPD2     C10376   4.426   4.641  10.400  0.6329  0.4023  0.4043
  702MPD2    C110377   4.429   4.695  10.529 -0.4954 -0.7283  0.4591
  702MPD2    C210378   4.480   0.094  10.551 -0.6896  0.3929 -0.6584
  702MPD2    C310379   4.512   0.177  10.444 -0.0954  0.7192  0.1424
  702MPD2    C410380   4.507   0.129  10.313 -0.9854  0.1045  0.2517
  702MPD2    C510381   4.470   4.726  10.294 -0.1890 -0.0117  0.3533
  702MPD2     H10382   4.481   0.123  10.656 -1.2303 -0.9076 -0.2976
  702MPD2    H110383   4.533   0.191  10.228  0.2839  0.3951  0.8500
  702MPD2    H210384   4.402   4.537  10.382 -1.0904  0.8502  0.0918
  702MPD2    H310385   4.463   4.681  10.196  0.0595  1.4844 -0.3393
  702MPD2     N10386   4.543   0.315  10.454 -0.9838 -0.4392 -0.0040
  702MPD2    H510387   4.554   0.361  10.364 -1.2039  0.4066  0.3978
  702MPD2    N110388   4.409   4.617  10.642  0.1893 -0.1617 -0.6734
  702MPD2    H710389   4.418   4.660  10.734 -0.8993  0.2508 -0.7555
  703TMC3    C110390   4.578   0.524  10.558  0.4685  0.0168 -0.1538
  703TMC3    C210391   4.534   0.620  10.646  0.7370 -0.5941 -1.1404
  703TMC3    C310392   4.568   0.756  10.638  0.2233 -1.3442 -0.0461
  703TMC3    C410393   4.679   0.555  10.475 -0.3295 -0.2145  1.2433
  703TMC3    C510394   0.001   0.680  10.486  0.7940 -0.0054  0.2173
  703TMC3    C610395   4.674   0.785  10.561 -0.9450  0.1077 -0.7282
  703TMC3     C10396   4.525   0.388  10.568 -0.3561 -0.0616 -0.0082
  703TMC3     O10397   4.470   0.357  10.674  0.1503  0.1407  0.7221
  703TMC3     H10398   4.438   0.606  10.694  2.3270 -1.3118  1.8264
  703TMC3    H110399   4.721   0.484  10.405 -0.1431  0.0877  1.0508
  703TMC3    H210400   4.707   0.888  10.560 -2.1925  0.5426  1.8162
  703TMC3    C710401   0.082   0.724  10.373  0.7051 -0.3223 -0.2720
  703TMC3    C810402   4.495   0.860  10.718  0.6538  0.1292 -0.3190
  703TMC3    O110403   0.159   0.818  10.392 -0.4849  0.0162 -0.2388
  703TMC3    O210404   4.556   0.963  10.740 -0.1557 -0.4856  0.6401
  704TMC3    C110405   1.856   3.178  12.263 -0.3943 -0.0485 -0.0694
  704TMC3    C210406   1.988   3.184  12.233  0.6277 -0.0136  0.8697
  704TMC3    C310407   2.066   3.128  12.322  0.6663 -0.1190  0.1479
  704TMC3    C410408   1.810   3.131  12.376 -0.2956  0.2746  0.7405
  704TMC3    C510409   1.898   3.088  12.477  0.3292 -0.1888 -0.0199
  704TMC3    C610410   2.033   3.089  12.452 -0.0821  0.3027 -0.3437
  704TMC3     C10411   1.753   3.237  12.182 -0.0953 -0.0483 -0.7556
  704TMC3     O10412   1.641   3.262  12.221 -0.2700 -0.4157 -0.0939
  704TMC3     H10413   2.021   3.224  12.138 -2.1295  1.3592  0.4802
  704TMC3    H110414   1.703   3.133  12.395 -0.2268  0.1200  1.1399
  704TMC3    H210415   2.100   3.057  12.531 -0.0877 -2.1840 -1.3419
  704TMC3    C710416   1.860   2.961  12.539 -0.3381  0.1753 -0.5808
  704TMC3    C810417   2.200   3.110  12.271 -0.5873 -0.1153 -0.5031
  704TMC3    O110418   1.951   2.878  12.541 -0.5748 -0.3549  0.0763
  704TMC3    O210419   2.207   3.103  12.148  1.0225  0.0711  0.4302
  705MPD2     C10420   1.596   1.114  16.536  0.6221 -0.7011  0.1797
  705MPD2    C110421   1.532   1.231  16.484 -0.1019  0.0178  0.4525
  705MPD2    C210422   1.407   1.252  16.532 -0.0078 -0.2797  0.3475
  705MPD2    C310423   1.347   1.181  16.639 -0.1870  0.1038  0.0571
  705MPD2    C410424   1.412   1.067  16.690 -0.4353 -0.5074  0.2166
  705MPD2    C510425   1.525   1.030  16.619  0.0231  0.9353 -0.5749
  705MPD2     H10426   1.356   1.338  16.488  1.4194  0.4528  0.1359
  705MPD2    H110427   1.359   1.005  16.761 -0.6342  1.6457  1.9382
  705MPD2    H210428   1.686   1.073  16.493  2.0055  1.1645  1.2916
  705MPD2    H310429   1.582   0.941  16.641 -0.4085  0.6396 -0.6356
  705MPD2     N10430   1.217   1.212  16.682 -0.1863 -0.1385  0.9437
  705MPD2    H510431   1.166   1.144  16.737  0.7634 -0.1330  1.8392
  705MPD2    N110432   1.582   1.305  16.379 -0.0103  0.0903 -0.6022
  705MPD2    H710433   1.525   1.378  16.337 -0.7298 -0.2421 -0.2043
  706TMC3    C110434   1.791   1.380  15.995  0.4179  0.2445  0.3699
  706TMC3    C210435   1.702   1.482  15.978  0.4803  0.5069  0.5406
  706TMC3    C310436   1.639   1.543  16.080  0.0037  0.0210  0.4008
  706TMC3    C410437   1.803   1.326  16.120  0.1193  0.0526 -0.4444
  706TMC3    C510438   1.723   1.378  16.220  0.3175 -0.1309  0.6962
  706TMC3    C610439   1.635   1.483  16.200 -0.0582 -0.2529 -0.0367
  706TMC3     C10440   1.839   1.299  15.878  0.0633 -0.3485  0.6736
  706TMC3     O10441   1.783   1.317  15.771 -0.0671  0.2992  0.2552
  706TMC3     H10442   1.685   1.525  15.881 -3.8860 -0.6640  0.7544
  706TMC3    H110443   1.853   1.232  16.140  1.4573  0.4948 -1.6661
  706TMC3    H210444   1.596   1.530  16.289 -1.0170  1.7962 -1.5198
  706TMC3    C710445   1.712   1.296  16.336 -0.4627 -0.4271  0.4173
  706TMC3    C810446   1.578   1.665  16.049  0.6330  0.2619 -0.4604
  706TMC3    O110447   1.797   1.214  16.361  0.3435  0.5201 -0.1924
  706TMC3    O210448   1.621   1.729  15.953 -1.0089 -0.1593  0.1125
  707TMC3    C110449   3.572   0.377   1.639  0.3497  0.1523  0.0276
  707TMC3    C210450   3.656   0.305   1.717 -1.0413  0.9492 -1.0219
  707TMC3    C310451   3.590   0.243   1.820 -0.1276 -0.3759 -0.0629
  707TMC3    C410452   3.439   0.397   1.659  0.8551 -0.3361 -0.1323
  707TMC3    C510453   3.380   0.331   1.765  0.6466  0.4064 -0.0599
  707TMC3    C610454   3.460   0.251   1.847  0.3218  0.2204  0.0172
  707TMC3     C10455   3.635   0.414   1.514  0.8616 -0.3528 -0.0040
  707TMC3     O10456   3.756   0.423   1.513 -0.2853  0.1295 -0.2064
  707TMC3     H10457   3.761   0.294   1.690 -0.9812 -0.3809 -0.2445
  707TMC3    H110458   3.383   0.452   1.584 -0.2222 -0.4538  0.5724
  707TMC3    H210459   3.418   0.196   1.931 -0.5918 -0.0128 -0.5885
  707TMC3    C710460   3.244   0.343   1.791 -0.8789  0.0668  0.1659
  707TMC3    C810461   3.672   0.166   1.905  0.3828  0.0310  0.1458
  707TMC3    O110462   3.183   0.247   1.830  0.1130 -0.5239 -0.3097
  707TMC3    O210463   3.624   0.141   2.016  0.0904  0.1584  0.2204
  708MPD2     C10464   0.070   3.847  13.594  0.3334 -0.0015 -0.2546
  708MPD2    C110465   4.704   3.936  13.542  0.1693 -0.4720 -0.0908
  708MPD2    C210466   4.614   4.003  13.622  0.0838 -0.0178 -0.8197
  708MPD2    C310467   4.612   3.984  13.760 -0.1352 -0.8737 -0.4186
  708MPD2    C410468   4.705   3.901  13.813 -0.6038  1.5750 -0.3240
  708MPD2    C510469   0.072   3.834  13.728  0.2356 -0.1372 -0.3647
  708MPD2     H10470   4.542   4.069  13.577 -2.2024 -1.2120  1.0876
  708MPD2    H110471   4.718   3.895  13.920 -1.2507  1.2406 -0.2612
  708MPD2    H210472   0.153   3.810  13.534  1.0195  2.3636 -0.7339
  708MPD2    H310473   0.154   3.775  13.768  0.7822  0.4871 -0.5729
  708MPD2     N10474   4.515   4.050  13.846 -0.5150  0.3060 -0.0181
  708MPD2    H510475   4.524   4.041  13.947 -1.1007 -0.3669 -0.0226
  708MPD2    N110476   4.715   3.957  13.400 -0.8319  0.2373  0.2471
  708MPD2    H710477   0.065   3.914  13.349 -0.6311 -1.0136  1.6199
  709TMC3    C110478   4.654   4.039  13.186 -0.3609 -0.2494 -0.2634
  709TMC3    C210479   0.054   4.090  13.163  0.2750  0.6052 -0.3140
  709TMC3    C310480   0.066   4.200  13.085 -0.3389 -0.8004  0.3773
  709TMC3    C410481   4.543   4.094  13.130 -0.6380  0.6623 -0.4252
  709TMC3    C510482   4.561   4.202  13.051  0.2996 -0.5245  0.5537
  709TMC3    C610483   4.681   4.258  13.030 -0.0816  0.6169 -0.3792
  709TMC3     C10484   4.622   4.023  13.328  0.0266 -0.3164 -0.2253
  709TMC3     O10485   4.521   4.075  13.367  0.0402  0.4856 -0.1401
  709TMC3     H10486   0.142   4.039  13.201  1.0070  1.5218 -0.7714
  709TMC3    H110487   4.442   4.058  13.146 -0.0939 -0.6717  0.0167
  709TMC3    H210488   4.683   4.353  12.978  2.6449  1.2822  0.9335
  709TMC3    C710489   4.473   4.308  13.093 -0.3611  0.5604 -0.0689
  709TMC3    C810490   0.194   4.249  13.050  0.2376  0.0889 -0.6047
  709TMC3    O110491   4.447   4.394  13.008 -0.1603 -0.4614  0.3628
  709TMC3    O210492   0.263   4.326  13.119  0.7771 -0.1462  0.1825
  710TMC3    C110493   0.597   0.693   0.630 -0.0767  0.1930  0.0605
  710TMC3    C210494   0.658   0.747   0.515 -0.2170  0.9646  0.5620
  710TMC3    C310495   0.797   0.723   0.494  0.5489  0.3638 -0.3717
  710TMC3    C410496   0.665   0.623   0.718  0.2831  0.1550 -1.0714
  710TMC3    C510497   0.796   0.604   0.692  0.2355  0.3348 -0.0154
  710TMC3    C610498   0.869   0.667   0.596  0.7011 -0.2615  0.1274
  710TMC3     C10499   0.460   0.730   0.653  0.2213  0.0151 -0.2256
  710TMC3     O10500   0.389   0.728   0.554 -0.0374  0.6413 -0.1542
  710TMC3     H10501   0.593   0.801   0.447 -2.3803 -0.1992  1.7099
  710TMC3    H110502   0.626   0.586   0.812 -1.4354  2.3394 -0.9206
  710TMC3    H210503   0.966   0.623   0.573  0.3992 -0.1209 -1.3949
  710TMC3    C710504   0.880   0.555   0.801 -0.6039  0.0651  0.5137
  710TMC3    C810505   0.850   0.743   0.361 -0.1075  0.2392  0.3347
  710TMC3    O110506   0.834   0.462   0.869  0.6096  0.4743 -0.3001
  710TMC3    O210507   0.959   0.691   0.346  0.2069  0.0567 -0.5501
  711TMC3    C110508   0.459   1.589  14.822  0.9261 -0.2778  0.2939
  711TMC3    C210509   0.553   1.555  14.916  0.9453 -0.4092  0.7583
  711TMC3    C310510   0.591   1.657  15.006 -0.0525 -0.1019  0.3944
  711TMC3    C410511   0.427   1.717  14.806 -0.1016 -0.6038  0.1932
  711TMC3    C510512   0.488   1.816  14.879  0.5944  0.6913  0.1810
  711TMC3    C610513   0.566   1.788  14.986  0.3860 -1.0213  0.1755
  711TMC3     C10514   0.433   1.508  14.698 -0.3998  0.4295  0.0351
  711TMC3     O10515   0.323   1.523  14.649  1.0800  0.2369  0.6482
  711TMC3     H10516   0.587   1.453  14.927  3.4019  0.4846  1.5118
  711TMC3    H110517   0.383   1.753  14.714  0.4145 -1.0485 -0.2302
  711TMC3    H210518   0.600   1.874  15.043  2.1696 -2.1943  0.8633
  711TMC3    C710519   0.524   1.942  14.809  0.4113  0.3487 -0.5713
  711TMC3    C810520   0.688   1.618  15.100  0.5339  0.5800  0.2813
  711TMC3    O110521   0.451   2.032  14.851 -0.3298 -0.0195  0.6695
  711TMC3    O210522   0.728   1.502  15.089 -0.3565 -0.2432  0.0110
  712MPD2     C10523   2.681   3.219  14.013 -0.1569  0.4984  0.0665
  712MPD2    C110524   2.564   3.213  13.936 -0.1963  0.1487  0.1562
  712MPD2    C210525   2.551   3.299  13.825  0.4003  0.3989  0.5545
  712MPD2    C310526   2.648   3.381  13.777  0.0834 -0.2698  0.5402
  712MPD2    C410527   2.765   3.383  13.849 -0.2165  0.2240  0.3798
  712MPD2    C510528   2.778   3.300  13.962 -0.4853  0.4063 -0.0250
  712MPD2     H10529   2.449   3.297  13.787 -0.2428 -0.6368  2.3573
  712MPD2    H110530   2.846   3.443  13.809  0.5303 -0.6994  0.4957
  712MPD2    H210531   2.694   3.164  14.105  1.2655  2.5237  1.0845
  712MPD2    H310532   2.870   3.302  14.020 -0.0240 -2.4637 -0.6559
  712MPD2     N10533   2.626   3.478  13.674 -0.8108 -0.0563  0.3112
  712MPD2    H510534   2.702   3.534  13.637  1.0211 -3.1653 -0.6015
  712MPD2    N110535   2.450   3.133  13.967  0.0250 -0.0616  0.2655
  712MPD2    H710536   2.382   3.129  13.892  1.0911  0.0154 -0.7090
  713TMC3    C110537   2.525   3.554  13.477  0.5291 -0.4382 -0.2201
  713TMC3    C210538   2.644   3.562  13.415 -0.0902  0.3200  0.3894
  713TMC3    C310539   2.645   3.605  13.282 -0.6021 -0.3720 -0.3781
  713TMC3    C410540   2.411   3.592  13.413  0.4683  0.1210  0.2778
  713TMC3    C510541   2.414   3.631  13.282  0.0340 -0.5363  0.1618
  713TMC3    C610542   2.531   3.639  13.211 -0.7208 -0.0472  0.6729
  713TMC3     C10543   2.514   3.477  13.598 -0.2564  0.6238 -0.2266
  713TMC3     O10544   2.404   3.440  13.629 -0.0498 -0.3373  0.0937
  713TMC3     H10545   2.733   3.526  13.466  1.6311  2.2098 -1.2951
  713TMC3    H110546   2.317   3.595  13.465 -1.4860  0.8738 -3.3103
  713TMC3    H210547   2.534   3.676  13.110  0.0027 -1.1332  0.3044
  713TMC3    C710548   2.295   3.700  13.224  0.6872  0.1903 -0.3391
  713TMC3    C810549   2.760   3.675  13.230 -1.3547 -0.6145  1.0705
  713TMC3    O110550   2.190   3.660  13.272  0.5660  0.5736  0.2980
  713TMC3    O210551   2.756   3.706  13.111 -0.4684  0.1350  0.1410
  714MPD2     C10552   3.958   1.567   1.652 -0.2757 -0.6225 -0.3233
  714MPD2    C110553   4.021   1.488   1.554 -0.7591 -0.1333  0.1934
  714MPD2    C210554   4.018   1.527   1.419  0.6952  0.0029  0.0632
  714MPD2    C310555   3.952   1.641   1.386 -0.0658  0.6125 -0.3272
  714MPD2    C410556   3.886   1.715   1.476 -0.0302  0.4739 -0.1663
  714MPD2    C510557   3.886   1.680   1.609  0.4023  0.4316 -0.2296
  714MPD2     H10558   4.057   1.472   1.335 -1.0501  1.3777 -1.6733
  714MPD2    H110559   3.843   1.815   1.468 -1.3600 -0.0010  1.1672
  714MPD2    H210560   3.961   1.542   1.757  3.1723 -2.1398 -0.7856
  714MPD2    H310561   3.835   1.739   1.685 -0.5366 -1.4257  0.5817
  714MPD2     N10562   3.970   1.682   1.249 -0.1566 -0.0829 -0.6396
  714MPD2    H510563   4.012   1.615   1.186 -0.3685 -1.4919  0.7165
  714MPD2    N110564   4.084   1.366   1.594  0.2071  0.5074 -0.4617
  714MPD2    H710565   4.075   1.344   1.692 -1.7355 -2.5155 -1.3415
  715TMC3    C110566   4.239   1.176   1.579  0.5547  0.1829  0.3150
  715TMC3    C210567   4.327   1.107   1.497 -0.5425 -0.2692  0.4938
  715TMC3    C310568   4.428   1.036   1.557 -0.9048  0.3669  0.4876
  715TMC3    C410569   4.250   1.176   1.718  0.6266 -0.4170  0.0025
  715TMC3    C510570   4.357   1.110   1.774  0.1769  0.0835 -0.6026
  715TMC3    C610571   4.446   1.036   1.695  0.1083  0.9808  0.3007
  715TMC3     C10572   4.154   1.273   1.514 -0.9314 -0.3015 -0.6316
  715TMC3     O10573   4.170   1.268   1.395  0.0684  0.3890  0.1655
  715TMC3     H10574   4.329   1.108   1.389 -0.3041  0.8943  0.5115
  715TMC3    H110575   4.185   1.241   1.777 -1.4859 -1.8501 -0.7346
  715TMC3    H210576   4.526   0.978   1.738  0.3868  2.3896  1.6455
  715TMC3    C710577   4.385   1.131   1.911  0.2063  0.4611 -0.2582
  715TMC3    C810578   4.505   0.952   1.468  0.2662  0.9310 -0.1239
  715TMC3    O110579   4.507   1.115   1.925 -0.1891 -0.0243  0.0794
  715TMC3    O210580   4.488   0.960   1.346  0.1405  0.8250  0.0932
  716MPD2     C10581   3.981   4.357   9.603 -0.5665 -0.5087  0.1627
  716MPD2    C110582   3.970   4.256   9.502  0.0245  0.1398 -0.4929
  716MPD2    C210583   4.019   4.129   9.537  0.1203 -0.5658  0.1669
  716MPD2    C310584   4.086   4.102   9.656 -0.3744 -0.6501  0.1960
  716MPD2    C410585   4.098   4.205   9.746  0.6054 -0.8424  0.0069
  716MPD2    C510586   4.056   4.333   9.715  0.1698  0.0506 -0.7075
  716MPD2     H10587   4.023   4.051   9.462 -1.9179 -0.3405 -0.1868
  716MPD2    H110588   4.144   4.186   9.842 -2.0877 -0.3101  1.3872
  716MPD2    H210589   3.952   4.460   9.583 -0.0193  0.1162  2.6551
  716MPD2    H310590   4.083   4.416   9.778  1.4790 -0.0803 -1.0928
  716MPD2     N10591   4.137   3.972   9.673 -0.1998  0.6809 -0.0601
  716MPD2    H510592   4.111   3.908   9.599  1.3846 -0.3974  0.3269
  716MPD2    N110593   3.899   4.291   9.384 -0.5676 -0.5210  0.0268
  716MPD2    H710594   3.860   4.385   9.394 -1.6761 -1.1773  1.8597
  717TMC3    C110595   4.233   3.778   9.775  0.1543  0.3901  0.0136
  717TMC3    C210596   4.190   3.716   9.661  0.5495  0.8013  0.1250
  717TMC3    C310597   4.160   3.581   9.661 -0.5488  0.4127 -0.3809
  717TMC3    C410598   4.264   3.707   9.886 -0.2597 -0.0277  0.2056
  717TMC3    C510599   4.242   3.570   9.878  0.2957 -0.6863 -0.3113
  717TMC3    C610600   4.176   3.511   9.776  0.2018  0.3118  0.2283
  717TMC3     C10601   4.191   3.915   9.791  0.1903 -0.6817 -0.5589
  717TMC3     O10602   4.207   3.970   9.898  0.0426 -0.8230  0.1388
  717TMC3     H10603   4.195   3.773   9.569  0.8376  0.8036  0.1424
  717TMC3    H110604   4.303   3.761   9.971  0.0430 -2.1528  1.4383
  717TMC3    H210605   4.131   3.413   9.782 -2.2019  1.3893 -0.3500
  717TMC3    C710606   4.288   3.491   9.991 -0.2484  0.1443 -0.2761
  717TMC3    C810607   4.057   3.550   9.567 -0.2261 -0.7664  0.2148
  717TMC3    O110608   4.305   3.370   9.967 -0.0321 -0.0236  0.1140
  717TMC3    O210609   3.986   3.636   9.518  0.0598  0.0235  0.2881
  718MPD2     C10610   3.911   3.629  12.531  0.5427 -0.5101  0.1715
  718MPD2    C110611   3.796   3.622  12.611 -0.0969 -0.4092  0.1512
  718MPD2    C210612   3.757   3.497  12.659 -0.1622 -0.2198 -0.3051
  718MPD2    C310613   3.807   3.386  12.604  0.2423  0.9310 -0.6889
  718MPD2    C410614   3.915   3.384  12.524  0.2110  0.7957  0.2525
  718MPD2    C510615   3.967   3.508  12.496 -0.0738 -0.2171  0.5088
  718MPD2     H10616   3.669   3.487  12.721 -0.8825  0.2394 -1.2455
  718MPD2    H110617   3.962   3.296  12.479 -3.1166 -2.0949  2.4713
  718MPD2    H210618   3.946   3.723  12.492 -0.5602  0.5213  1.6835
  718MPD2    H310619   4.047   3.500  12.423 -1.4471 -1.8122 -0.8337
  718MPD2     N10620   3.741   3.270  12.640 -0.9215 -0.1287 -0.2938
  718MPD2    H510621   3.651   3.277  12.685 -1.4045 -1.3886 -1.0803
  718MPD2    N110622   3.713   3.737  12.634 -0.4854 -0.3474  0.6918
  718MPD2    H710623   3.738   3.822  12.583 -3.9109  0.5463  0.4808
  719TMC3    C110624   3.516   3.855  12.687 -0.0283 -0.2825 -0.4601
  719TMC3    C210625   3.391   3.803  12.663 -0.8626  0.3592 -0.0152
  719TMC3    C310626   3.336   3.829  12.543 -0.6121 -0.1604  0.2797
  719TMC3    C410627   3.581   3.943  12.605 -0.1694 -0.3702  0.2197
  719TMC3    C510628   3.514   3.980  12.495  0.5266 -0.1660  0.0727
  719TMC3    C610629   3.397   3.920  12.463 -0.4238 -0.2389  0.3436
  719TMC3     C10630   3.604   3.742  12.717 -0.0364  0.4809 -0.3887
  719TMC3     O10631   3.554   3.666  12.799  0.1958 -0.5022  0.5047
  719TMC3     H10632   3.348   3.724  12.724  0.8209  0.3220  1.1137
  719TMC3    H110633   3.667   3.996  12.645 -1.9700 -0.0020  3.6311
  719TMC3    H210634   3.363   3.943  12.362 -0.8866 -2.5719 -0.0264
  719TMC3    C710635   3.602   4.055  12.404  0.2422  0.4369  0.4436
  719TMC3    C810636   3.266   3.721  12.486 -0.2593 -0.2527 -0.4350
  719TMC3    O110637   3.720   4.061  12.423 -0.9160 -0.4727  0.3241
  719TMC3    O210638   3.215   3.641  12.563  0.2057 -0.2736 -0.4575
  720MPD2     C10639   1.960   0.226  13.999  0.0094 -0.0247 -0.4091
  720MPD2    C110640   2.027   0.218  13.876 -0.1332 -0.3636 -0.0232
  720MPD2    C210641   2.123   0.124  13.859 -0.0372 -0.1650 -0.6328
  720MPD2    C310642   2.160   0.039  13.963  0.0402  0.1111  0.1462
  720MPD2    C410643   2.095   0.046  14.083  0.4950 -0.8826  0.2812
  720MPD2    C510644   1.991   0.136  14.103 -0.0574 -0.2495 -0.1700
  720MPD2     H10645   2.185   0.126  13.770 -2.1136  1.2806 -2.0268
  720MPD2    H110646   2.119   4.711  14.170  2.0436  1.9581  1.8621
  720MPD2    H210647   1.878   0.294  14.021 -0.1318 -0.6756  1.1104
  720MPD2    H310648   1.933   0.138  14.195  0.2435 -0.6777  0.0280
  720MPD2     N10649   2.280   4.698  13.950  0.6866  0.8398 -0.2540
  720MPD2    H510650   2.321   4.701  13.857 -1.4544 -0.1123 -1.2235
  720MPD2    N110651   2.006   0.311  13.770 -0.0897  0.5667 -0.3001
  720MPD2    H710652   2.050   0.290  13.681 -0.6778  0.3646 -0.5404
  721TMC3    C110653   2.504   4.632  14.037 -0.6621 -0.9838 -0.0491
  721TMC3    C210654   2.572   4.622  14.155  0.0755  0.2320 -0.1862
  721TMC3    C310655   2.710   4.632  14.142 -0.9550  0.5313  0.0715
  721TMC3    C410656   2.556   4.618  13.914 -0.2841 -0.6344  0.0236
  721TMC3    C510657   2.694   4.590  13.911  0.1585  0.8400 -0.1738
  721TMC3    C610658   2.768   4.607  14.026  0.5921  0.3760 -0.5708
  721TMC3     C10659   2.359   4.654  14.062  0.0537 -0.1805 -0.0636
  721TMC3     O10660   2.328   4.625  14.175 -0.2414  0.1068 -0.5561
  721TMC3     H10661   2.529   4.632  14.253  2.9435  0.3570  1.0707
  721TMC3    H110662   2.499   4.611  13.822 -0.2276 -1.2771  0.0440
  721TMC3    H210663   2.876   4.621  14.023  0.3742  2.8928  2.9289
  721TMC3    C710664   2.766   4.604  13.786  0.1235  0.1854 -0.7184
  721TMC3    C810665   2.785   4.628  14.264  0.0552  0.2428  0.2298
  721TMC3    O110666   2.713   4.673  13.701  0.6404  0.1880 -0.4686
  721TMC3    O210667   2.888   4.564  14.263  0.6187 -0.0215  0.1247
  722MPD2     C10668   1.432   3.334  13.276 -0.5555  0.8422 -0.1330
  722MPD2    C110669   1.364   3.443  13.217  0.1789  0.4960 -0.1529
  722MPD2    C210670   1.241   3.480  13.271 -0.2475 -0.4715 -0.0709
  722MPD2    C310671   1.177   3.401  13.364  0.0099  0.4626 -1.2581
  722MPD2    C410672   1.239   3.293  13.421 -0.7497 -0.2290 -0.9695
  722MPD2    C510673   1.369   3.267  13.379  0.1921  0.6965  0.1486
  722MPD2     H10674   1.185   3.562  13.226  0.0556  0.7048  1.6797
  722MPD2    H110675   1.197   3.233  13.500  0.1734  1.2731  0.6520
  722MPD2    H210676   1.526   3.302  13.233 -0.6034 -0.0674  0.4343
  722MPD2    H310677   1.410   3.173  13.414  1.7462  0.4171 -2.4030
  722MPD2     N10678   1.048   3.446  13.403 -0.1168 -0.8376  0.1097
  722MPD2    H510679   1.010   3.530  13.359  2.1603 -0.0157 -0.3012
  722MPD2    N110680   1.413   3.522  13.110 -0.4378 -0.0901  0.1401
  722MPD2    H710681   1.363   3.606  13.084  0.8955  0.8838  0.7476
  723TMC3    C110682   0.830   3.437  13.498 -0.4207 -0.0543  0.0894
  723TMC3    C210683   0.738   3.357  13.568  0.1705  0.0458 -0.6394
  723TMC3    C310684   0.606   3.386  13.559  0.3211 -0.5250  0.6382
  723TMC3    C410685   0.787   3.555  13.431 -0.3481  0.8230  1.3297
  723TMC3    C510686   0.655   3.569  13.420  0.0855  0.2932 -0.4818
  723TMC3    C610687   0.564   3.487  13.479 -0.1594  0.5640  0.2446
  723TMC3     C10688   0.961   3.384  13.490 -0.3595  0.5297 -0.1204
  723TMC3     O10689   0.982   3.278  13.551  0.0482 -0.4403 -0.1500
  723TMC3     H10690   0.761   3.268  13.625 -1.5715  0.3832  0.5973
  723TMC3    H110691   0.856   3.633  13.404  0.9560 -0.7370  0.1469
  723TMC3    H210692   0.462   3.523  13.480 -0.6781 -0.8698 -0.5007
  723TMC3    C710693   0.610   3.683  13.353  0.4690  0.1989 -0.5816
  723TMC3    C810694   0.502   3.283  13.584  0.0456  0.5392  0.1262
  723TMC3    O110695   0.671   3.724  13.257  0.1009 -0.3429  0.1445
  723TMC3    O210696   0.464   3.262  13.700  0.2525 -1.2564  0.2991
  724TMC3    C110697   0.979   1.329   9.603 -0.1488 -0.6450 -0.0641
  724TMC3    C210698   1.082   1.308   9.695  0.5280  0.6564  0.3656
  724TMC3    C310699   1.214   1.329   9.666  0.3284  0.1521  0.2105
  724TMC3    C410700   1.008   1.360   9.472  0.4198 -0.1245 -0.6271
  724TMC3    C510701   1.147   1.384   9.442 -0.3386 -0.0172  0.2460
  724TMC3    C610702   1.247   1.369   9.533 -0.5353 -0.3577  0.2749
  724TMC3     C10703   0.893   1.215   9.612  0.1999  0.4442  0.0375
  724TMC3     O10704   0.919   1.122   9.686  0.3630  0.0613 -0.1030
  724TMC3     H10705   1.052   1.279   9.795  0.6541 -1.6056 -0.2399
  724TMC3    H110706   0.937   1.373   9.391  0.5911  1.5075 -0.5153
  724TMC3    H210707   1.350   1.393   9.507 -0.6521 -1.0490 -0.8761
  724TMC3    C710708   1.186   1.468   9.323 -0.7779 -0.2058 -0.1055
  724TMC3    C810709   1.298   1.371   9.770  0.0684 -0.4374 -0.1493
  724TMC3    O110710   1.307   1.477   9.302  0.2868  0.0725  0.1897
  724TMC3    O210711   1.274   1.314   9.876  0.1486 -0.5050 -0.0422
  725TMC3    C110712   2.410   0.608  12.785 -0.3595  0.8995  0.2829
  725TMC3    C210713   2.410   0.596  12.650 -0.3399 -0.1463  0.3366
  725TMC3    C310714   2.289   0.586  12.589  0.5025  1.3977 -0.0319
  725TMC3    C410715   2.295   0.589  12.859  0.0031 -0.5195 -0.1479
  725TMC3    C510716   2.180   0.565  12.794  0.2503  0.0828  0.0152
  725TMC3    C610717   2.173   0.568  12.657 -0.2101  0.3004 -0.6697
  725TMC3     C10718   2.495   0.711  12.846 -0.2959  0.3665 -0.6144
  725TMC3     O10719   2.560   0.786  12.776 -0.4012  0.2079 -0.2345
  725TMC3     H10720   2.503   0.606  12.595 -0.7282 -0.6984 -0.4130
  725TMC3    H110721   2.289   0.592  12.967  2.1072  1.6444 -0.0857
  725TMC3    H210722   2.081   0.571  12.600 -1.4395  0.2829  1.3366
  725TMC3    C710723   2.053   0.577  12.865  0.2880 -0.5444  0.5972
  725TMC3    C810724   2.299   0.550  12.447  0.6059 -0.0216 -0.0780
  725TMC3    O110725   2.047   0.670  12.941  0.2949  0.5444  0.2351
  725TMC3    O210726   2.222   0.470  12.394  0.2145  0.4611  0.4952
  726MPD2     C10727   1.297   2.044  10.404 -0.2044 -0.8284  0.0787
  726MPD2    C110728   1.199   2.108  10.330 -0.2627  0.0473  0.5433
  726MPD2    C210729   1.076   2.042  10.314  0.4119  0.7044  0.1791
  726MPD2    C310730   1.042   1.927  10.382  0.2191 -0.0855 -0.0202
  726MPD2    C410731   1.136   1.880  10.472  0.6373  0.3557  0.3117
  726MPD2    C510732   1.264   1.936  10.472 -0.2401  0.3504 -0.5704
  726MPD2     H10733   0.997   2.079  10.250  0.9880  2.4987  0.5240
  726MPD2    H110734   1.099   1.805  10.541 -0.4309  1.5617  1.0342
  726MPD2    H210735   1.395   2.080  10.433 -0.5572  0.7945 -0.7451
  726MPD2    H310736   1.331   1.890  10.543 -1.6482  0.2539  0.6981
  726MPD2     N10737   0.912   1.872  10.381 -0.0180 -0.0192  0.2199
  726MPD2    H510738   0.891   1.803  10.453 -0.0413 -1.7923 -1.4847
  726MPD2    N110739   1.223   2.230  10.263  0.2594 -0.4591 -0.1502
  726MPD2    H710740   1.146   2.280  10.220 -0.4186  0.7825  2.5183
  727TMC3    C110741   1.338   2.434  10.226  0.4378  0.5334 -0.6573
  727TMC3    C210742   1.432   2.525  10.270  0.1805  0.3080 -0.2667
  727TMC3    C310743   1.456   2.636  10.187 -0.3310  0.2148  0.1092
  727TMC3    C410744   1.263   2.454  10.116  0.3208 -0.0549  0.7412
  727TMC3    C510745   1.284   2.565  10.038  0.3443 -0.5941  0.2839
  727TMC3    C610746   1.378   2.654  10.077  0.2071  0.5143 -0.8918
  727TMC3     C10747   1.341   2.302  10.286 -0.4557 -0.5532 -0.4234
  727TMC3     O10748   1.454   2.281  10.331 -0.1359 -0.4898  0.0116
  727TMC3     H10749   1.493   2.498  10.355 -0.9855 -0.1502  0.4199
  727TMC3    H110750   1.184   2.385  10.087  0.0455  0.4116  0.3733
  727TMC3    H210751   1.390   2.742  10.014 -1.5362  0.8776 -0.7022
  727TMC3    C710752   1.175   2.597   9.954  0.2008  0.8768  1.5320
  727TMC3    C810753   1.577   2.701  10.216  0.6396 -0.1750  0.2600
  727TMC3    O110754   1.108   2.501   9.921 -0.5295  0.2712 -0.2188
  727TMC3    O210755   1.633   2.675  10.325 -0.3913  0.0019 -0.4560
  728TMC3    C110756   4.599   0.618  15.356  0.0472  0.0524  0.1173
  728TMC3    C210757   4.719   0.681  15.334 -0.9101  0.3964  0.6373
  728TMC3    C310758   0.008   0.750  15.216  0.4262  0.1745 -0.0524
  728TMC3    C410759   4.509   0.604  15.257 -0.3399  0.6426 -0.5908
  728TMC3    C510760   4.538   0.663  15.134 -0.4057  0.3027 -0.3929
  728TMC3    C610761   4.650   0.736  15.114  0.2643  0.1004 -0.6350
  728TMC3     C10762   4.572   0.583  15.497 -0.8757  0.3875 -1.0009
  728TMC3     O10763   4.666   0.600  15.572 -0.1987 -0.0026  0.0132
  728TMC3     H10764   0.067   0.680  15.414  0.7474 -0.4380 -0.9140
  728TMC3    H110765   4.430   0.530  15.263  0.2557  0.1762  1.3324
  728TMC3    H210766   4.670   0.790  15.022 -3.9397 -0.0496 -1.6664
  728TMC3    C710767   4.447   0.635  15.028 -0.4645  0.3110  0.2498
  728TMC3    C810768   0.115   0.849  15.197  0.3203 -0.3989 -0.4975
  728TMC3    O110769   4.341   0.584  15.064  0.3301 -0.2716  0.4101
  728TMC3    O210770   0.087   0.956  15.141 -0.2927  0.0334  0.0075
  729MPD2     C10771   2.212   2.140  15.677 -0.5004  0.3411 -0.6605
  729MPD2    C110772   2.296   2.154  15.789 -0.2329  0.2337 -0.4115
  729MPD2    C210773   2.243   2.096  15.907  0.0785 -0.2499 -0.4531
  729MPD2    C310774   2.115   2.052  15.919 -0.1534 -1.0410  0.8438
  729MPD2    C410775   2.033   2.051  15.807 -0.7944 -0.0918 -0.0185
  729MPD2    C510776   2.083   2.085  15.687  0.4408 -0.6774  0.1184
  729MPD2     H10777   2.309   2.101  15.993 -3.5197 -0.9384  2.3048
  729MPD2    H110778   1.927   2.027  15.815 -1.0782  1.5396  1.2307
  729MPD2    H210779   2.249   2.188  15.587 -0.7222 -0.4365 -1.1728
  729MPD2    H310780   2.019   2.096  15.600 -1.6792  2.4482  2.0828
  729MPD2     N10781   2.061   2.006  16.044  0.3342 -0.0297  0.2347
  729MPD2    H510782   1.960   2.011  16.049  0.3960  0.3717  1.0769
  729MPD2    N110783   2.417   2.220  15.788  0.5974  0.3419 -0.0105
  729MPD2    H710784   2.436   2.270  15.702  1.7421  2.6973  1.6136
  730TMC3    C110785   2.048   1.992  16.273  0.1704 -0.5282 -0.4354
  730TMC3    C210786   2.099   1.935  16.389 -0.1381 -0.7776  0.6232
  730TMC3    C310787   2.033   1.970  16.509 -0.4135  0.4925 -0.5270
  730TMC3    C410788   1.936   2.067  16.268 -0.3638 -0.3578  0.5647
  730TMC3    C510789   1.881   2.103  16.393 -0.1808  0.3046  0.3546
  730TMC3    C610790   1.929   2.056  16.513  0.4633 -0.2397 -0.3628
  730TMC3     C10791   2.134   1.977  16.158  0.5283  0.8999  0.7773
  730TMC3     O10792   2.249   1.933  16.169 -0.2289  0.2805 -0.7536
  730TMC3     H10793   2.181   1.864  16.382  1.9009  1.7903 -1.3681
  730TMC3    H110794   1.907   2.126  16.182 -1.9714 -0.1042  1.2840
  730TMC3    H210795   1.886   2.081  16.610  0.4661 -2.6996  0.2825
  730TMC3    C710796   1.844   2.240  16.407  0.2801 -0.0077 -0.5617
  730TMC3    C810797   2.080   1.918  16.635  0.6767  0.6442  0.9590
  730TMC3    O110798   1.908   2.311  16.330  0.6972 -0.1802  0.7229
  730TMC3    O210799   1.996   1.892  16.721 -1.1045 -0.1501  0.0628
  731MPD2     C10800   1.676   4.427  11.662  0.2219 -0.1740 -0.2372
  731MPD2    C110801   1.806   4.474  11.685 -0.1908  0.0058  0.0291
  731MPD2    C210802   1.852   4.467  11.818  0.2464 -0.2958 -0.4168
  731MPD2    C310803   1.779   4.397  11.913 -0.4791  0.2347 -0.0388
  731MPD2    C410804   1.647   4.366  11.891 -0.3521  0.8822 -0.5272
  731MPD2    C510805   1.603   4.389  11.767 -0.4344 -0.4788  0.4475
  731MPD2     H10806   1.948   4.511  11.844  0.5641 -0.9941 -0.4150
  731MPD2    H110807   1.583   4.322  11.967 -1.4220  1.3547 -1.1497
  731MPD2    H210808   1.636   4.439  11.562  0.4913  1.6708 -0.1268
  731MPD2    H310809   1.506   4.347  11.743  0.1724 -1.8479  0.3928
  731MPD2     N10810   1.846   4.385  12.036  0.1001  0.5843  0.5643
  731MPD2    H510811   1.945   4.406  12.041 -0.4889  2.9843  2.3275
  731MPD2    N110812   1.872   4.510  11.565  0.0218 -0.0534  0.0451
  731MPD2    H710813   1.819   4.497  11.479 -1.4599  0.4678  0.8930
  732TMC3    C110814   2.018   4.639  11.438  0.0149 -0.7704  0.6192
  732TMC3    C210815   1.905   4.643  11.357 -0.2096 -0.0985 -0.1984
  732TMC3    C310816   1.857   0.039  11.328  0.5182 -0.0015  0.4350
  732TMC3    C410817   2.076   0.029  11.476 -0.2962 -0.0668 -0.6795
  732TMC3    C510818   2.015   0.143  11.448 -0.3079 -0.4412  0.1620
  732TMC3    C610819   1.907   0.155  11.368 -0.0266  0.4220 -0.0827
  732TMC3     C10820   1.999   4.560  11.558 -0.1375  0.4503  0.3692
  732TMC3     O10821   2.082   4.563  11.649  0.4938  0.1790 -0.3591
  732TMC3     H10822   1.870   4.552  11.309 -1.4074  1.1126 -1.6233
  732TMC3    H110823   2.170   0.016  11.529 -1.9720  0.2008  2.3321
  732TMC3    H210824   1.864   0.253  11.349 -0.2721 -0.4248 -3.9086
  732TMC3    C710825   2.034   0.252  11.538  0.1420 -0.2338 -0.3044
  732TMC3    C810826   1.716   0.038  11.292  0.0806 -0.4551  0.3557
  732TMC3    O110827   1.998   0.362  11.490 -0.1306 -0.3679  0.2167
  732TMC3    O210828   1.688   4.719  11.183  0.0538 -0.2759  0.1462
  733TMC3    C110829   3.457   3.046  12.725 -0.6850  0.0625 -0.2493
  733TMC3    C210830   3.594   3.059  12.745  0.1327 -0.1172  0.1861
  733TMC3    C310831   3.665   3.050  12.632  0.3291  0.7847 -0.5355
  733TMC3    C410832   3.398   3.046  12.601  0.7044  0.3762  0.4757
  733TMC3    C510833   3.482   3.025  12.495  0.5060  0.1006  0.1955
  733TMC3    C610834   3.615   3.015  12.508  0.4173  0.2397 -0.1441
  733TMC3     C10835   3.361   3.068  12.833 -0.3339  0.0889 -0.4468
  733TMC3     O10836   3.261   3.134  12.812  0.1202  0.6118  0.1835
  733TMC3     H10837   3.635   3.062  12.845  1.4843 -1.8099 -0.3152
  733TMC3    H110838   3.293   3.041  12.577  1.1781 -0.6288 -1.4091
  733TMC3    H210839   3.685   3.029  12.427  0.7729 -0.1099  0.1028
  733TMC3    C710840   3.446   3.100  12.373 -0.5350  0.2920  0.4169
  733TMC3    C810841   3.773   3.139  12.608  0.3783  0.2157  0.0751
  733TMC3    O110842   3.486   3.048  12.269 -0.0681 -0.0794  0.2481
  733TMC3    O210843   3.869   3.085  12.556  0.7731  0.1655 -0.0813
  734MPD2     C10844   0.501   0.912  12.447 -0.1302  0.1069  0.3297
  734MPD2    C110845   0.521   0.789  12.380 -0.3455  0.6757  0.1767
  734MPD2    C210846   0.613   0.791  12.276 -0.2999  0.2081 -0.1457
  734MPD2    C310847   0.679   0.904  12.237  0.1327 -0.3814 -0.0370
  734MPD2    C410848   0.647   1.023  12.295  0.0083 -0.6562 -0.1738
  734MPD2    C510849   0.559   1.026  12.400  0.1491 -0.6775 -0.4098
  734MPD2     H10850   0.621   0.696  12.225  1.4409 -0.0179  0.5771
  734MPD2    H110851   0.690   1.119  12.268 -3.0359  0.8060  0.0779
  734MPD2    H210852   0.433   0.911  12.531  0.4227  1.0169  0.7903
  734MPD2    H310853   0.538   1.119  12.452  0.0256 -0.2407 -1.2448
  734MPD2     N10854   0.759   0.887  12.126 -0.3264 -0.2022 -0.5535
  734MPD2    H510855   0.768   0.789  12.102  0.2418 -0.5947  1.2240
  734MPD2    N110856   0.450   0.672  12.429  0.3846  0.9405  0.5494
  734MPD2    H710857   0.392   0.682  12.511  0.0606  1.8452  0.2183
  735TMC3    C110858   0.345   0.463  12.414  0.0140 -0.6868  0.2250
  735TMC3    C210859   0.254   0.455  12.315 -0.2609 -0.2433  0.0766
  735TMC3    C310860   0.211   0.333  12.270 -0.6589  0.4370  0.2445
  735TMC3    C410861   0.399   0.347  12.469 -1.1688 -0.1580  0.3846
  735TMC3    C510862   0.354   0.222  12.416  0.4637 -0.7730 -0.1026
  735TMC3    C610863   0.249   0.217  12.329  0.0146 -0.5311 -0.5830
  735TMC3     C10864   0.450   0.550  12.365 -0.0067 -0.2022  0.0336
  735TMC3     O10865   0.485   0.529  12.251 -0.6603  0.1470  0.3141
  735TMC3     H10866   0.225   0.546  12.264  0.3707 -0.1176 -0.0654
  735TMC3    H110867   0.471   0.352  12.549  0.1850 -1.3997 -0.7672
  735TMC3    H210868   0.231   0.133  12.264  0.5124 -0.1711 -1.1934
  735TMC3    C710869   0.467   0.130  12.387  0.1517 -0.5097 -0.8979
  735TMC3    C810870   0.204   0.329  12.122 -0.3401 -0.2990 -0.9310
  735TMC3    O110871   0.580   0.171  12.405 -0.6585 -0.7510  0.1537
  735TMC3    O210872   0.137   0.243  12.071 -0.2299 -0.2598 -0.1401
  736MPD2     C10873   0.473   4.508  12.305 -0.0134  1.0974 -0.4428
  736MPD2    C110874   0.504   4.643  12.301  0.1228 -0.0834 -0.4713
  736MPD2    C210875   0.618   4.677  12.222 -0.3493 -0.0001  0.1729
  736MPD2    C310876   0.689   4.589  12.136  0.7816 -0.1121 -0.0008
  736MPD2    C410877   0.647   4.458  12.143  0.4575  0.4084 -0.4623
  736MPD2    C510878   0.550   4.422  12.226  0.2368  0.4447  0.0944
  736MPD2     H10879   0.643   0.054  12.201  1.4105 -0.5539 -0.4383
  736MPD2    H110880   0.705   4.378  12.098  2.2522  1.9490 -0.8837
  736MPD2    H210881   0.384   4.470  12.355  1.2823  0.3923  1.3646
  736MPD2    H310882   0.531   4.315  12.234 -2.3873  0.9010 -0.3061
  736MPD2     N10883   0.793   4.624  12.048 -0.7582 -0.5225  0.2488
  736MPD2    H510884   0.810   4.561  11.970 -1.6567 -1.4682  0.8151
  736MPD2    N110885   0.422   0.007  12.355  0.1837  0.2054  0.8295
  736MPD2    H710886   0.326   4.707  12.373 -0.5520  1.5737 -1.1054
  737TMC3    C110887   0.948   0.052  11.947  0.1037 -0.5391 -0.4839
  737TMC3    C210888   1.037   0.155  11.966 -0.5623  0.5355 -0.6751
  737TMC3    C310889   1.121   0.184  11.861  0.1119 -0.0070  0.1356
  737TMC3    C410890   0.936   4.717  11.829  0.7208 -0.1781  0.0034
  737TMC3    C510891   1.021   0.023  11.723 -0.2851  0.0693 -0.2209
  737TMC3    C610892   1.111   0.124  11.738  0.1889  0.3839  0.0695
  737TMC3     C10893   0.874   0.007  12.062 -0.8182  0.0247 -0.0212
  737TMC3     O10894   0.898   0.075  12.163  0.4098 -0.1301 -0.4981
  737TMC3     H10895   1.050   0.206  12.060  1.4970  0.0423 -0.6965
  737TMC3    H110896   0.855   4.649  11.808 -0.4141  1.4420 -0.8774
  737TMC3    H210897   1.193   0.137  11.668 -1.1442 -1.7430 -1.8765
  737TMC3    C710898   0.997   4.690  11.597  0.1675 -1.2641 -0.2850
  737TMC3    C810899   1.158   0.322  11.847  0.5900 -0.1428  0.3632
  737TMC3    O110900   0.967   4.574  11.606  0.0686 -0.0456  0.5225
  737TMC3    O210901   1.216   0.374  11.945  0.7754 -0.2356 -0.2639
  738MPD2     C10902   1.319   3.304  15.358  0.0372  0.2160  0.2358
  738MPD2    C110903   1.256   3.342  15.246  0.3135 -0.0722 -0.4581
  738MPD2    C210904   1.317   3.421  15.149  0.3790  0.4718 -0.3316
  738MPD2    C310905   1.444   3.475  15.179  0.1403 -0.2414  0.2156
  738MPD2    C410906   1.507   3.442  15.291  0.2337 -0.4807 -0.6393
  738MPD2    C510907   1.451   3.356  15.380  0.4981 -0.0434 -0.1936
  738MPD2     H10908   1.264   3.457  15.062  1.4938  1.6336 -0.5324
  738MPD2    H110909   1.610   3.470  15.309 -0.5163  1.7469  0.2532
  738MPD2    H210910   1.279   3.245  15.440  0.1029 -0.3092 -0.1087
  738MPD2    H310911   1.519   3.333  15.461  0.4898 -0.2634 -0.2480
  738MPD2     N10912   1.500   3.582  15.105 -0.5874  0.1664 -0.1161
  738MPD2    H510913   1.591   3.613  15.139 -0.1753  0.1177 -1.1725
  738MPD2    N110914   1.117   3.311  15.228 -0.0833 -0.0445  0.2089
  738MPD2    H710915   1.084   3.351  15.141  1.1989 -1.4153 -0.9202
  739TMC3    C110916   1.541   3.756  14.956  0.6374 -0.1547 -0.2350
  739TMC3    C210917   1.529   3.799  14.828 -0.5049  0.1643  0.3123
  739TMC3    C310918   1.609   3.901  14.789  0.5751  0.5480 -0.2211
  739TMC3    C410919   1.623   3.813  15.043 -0.3662 -0.0164  0.5275
  739TMC3    C510920   1.698   3.919  15.000  0.4849  0.2573  0.0694
  739TMC3    C610921   1.692   3.967  14.870  0.7622 -0.2127  0.1527
  739TMC3     C10922   1.456   3.642  14.999 -0.0434  0.1535 -0.1557
  739TMC3     O10923   1.357   3.606  14.927 -0.5298  0.2508 -0.3134
  739TMC3     H10924   1.453   3.765  14.759  0.5559 -0.6680 -0.4589
  739TMC3    H110925   1.630   3.798  15.151 -2.6290 -2.4418  0.3327
  739TMC3    H210926   1.744   4.056  14.837  1.8584 -1.2281 -0.8451
  739TMC3    C710927   1.784   3.992  15.086 -0.2225  0.3495 -0.4415
  739TMC3    C810928   1.579   3.951  14.655  0.4771  0.8784 -0.2045
  739TMC3    O110929   1.820   4.095  15.031  0.4701  0.1954  0.0795
  739TMC3    O210930   1.504   3.884  14.586  0.0696  0.4201 -0.0905
  740TMC3    C110931   2.208   0.408  14.210 -0.3925 -0.4475  0.0988
  740TMC3    C210932   2.267   0.347  14.309 -0.5585  0.1131 -0.9760
  740TMC3    C310933   2.374   0.272  14.275  0.0736  0.3575 -0.2513
  740TMC3    C410934   2.247   0.411  14.079  0.6186 -0.0219  0.1555
  740TMC3    C510935   2.357   0.336  14.052 -0.3266  0.1423 -0.1081
  740TMC3    C610936   2.427   0.267  14.145 -0.4587 -0.6466 -0.2320
  740TMC3     C10937   2.116   0.515  14.249 -0.6924  0.5656 -0.1550
  740TMC3     O10938   2.136   0.619  14.187  0.3275  0.1964 -0.1176
  740TMC3     H10939   2.238   0.357  14.413 -0.0062  1.3295 -0.9377
  740TMC3    H110940   2.194   0.467  14.003 -0.5811  0.3219  1.2463
  740TMC3    H210941   2.507   0.197  14.123 -0.0040 -0.3008  0.2933
  740TMC3    C710942   2.404   0.330  13.919  0.3157 -0.1654  0.0454
  740TMC3    C810943   2.421   0.177  14.370 -0.5628  0.5574  0.0019
  740TMC3    O110944   2.478   0.239  13.893 -0.0893  0.0010  0.5630
  740TMC3    O210945   2.533   0.132  14.354 -0.2543 -0.2867 -0.4044
  741TMC3    C110946   1.229   4.438  14.350 -0.0041 -0.2292 -0.4579
  741TMC3    C210947   1.127   4.357  14.323 -0.2434  0.1480  0.6071
  741TMC3    C310948   1.102   4.256  14.413 -0.6945 -0.0336 -0.0384
  741TMC3    C410949   1.298   4.425  14.472  0.4989 -0.4476 -0.0612
  741TMC3    C510950   1.269   4.329  14.560 -0.2562 -0.5765  1.0853
  741TMC3    C610951   1.168   4.238  14.536 -0.0830 -0.1085 -0.5629
  741TMC3     C10952   1.272   4.523  14.246  0.2935 -0.6707 -0.1917
  741TMC3     O10953   1.269   4.470  14.135 -0.1093 -0.0782  0.4798
  741TMC3     H10954   1.067   4.371  14.234 -0.5383  0.0901  0.7979
  741TMC3    H110955   1.373   4.499  14.498  1.1194 -1.3063  0.5765
  741TMC3    H210956   1.130   4.171  14.612  1.3320  0.3202  0.5435
  741TMC3    C710957   1.333   4.324  14.691 -0.3271  0.3972  0.2251
  741TMC3    C810958   0.971   4.187  14.387 -0.0689 -0.6309 -0.0991
  741TMC3    O110959   1.395   4.420  14.726  0.2834  0.1818  0.0809
  741TMC3    O210960   0.891   4.244  14.312 -0.3792 -0.2336 -0.3354
  742TMC3    C110961   1.316   3.016  15.575  0.3362  1.3856  0.2150
  742TMC3    C210962   1.238   2.982  15.474 -0.3698 -0.4007 -0.1403
  742TMC3    C310963   1.297   2.938  15.351 -0.6520 -0.7708  0.0630
  742TMC3    C410964   1.452   2.996  15.568 -0.0005  0.0633  0.0784
  742TMC3    C510965   1.502   2.969  15.442 -0.3270  0.7088 -0.0646
  742TMC3    C610966   1.431   2.934  15.334  0.0074 -0.0297 -0.5439
  742TMC3     C10967   1.260   3.063  15.700 -0.0190 -0.0141 -0.0943
  742TMC3     O10968   1.336   3.066  15.798 -0.0945  0.0852  0.2821
  742TMC3     H10969   1.133   3.008  15.482 -0.4045 -0.6755  0.2949
  742TMC3    H110970   1.516   3.004  15.655 -0.9382  1.9913  0.6146
  742TMC3    H210971   1.486   2.904  15.246 -1.6242 -0.0162 -1.5702
  742TMC3    C710972   1.649   2.970  15.433  0.1282  0.1921  0.1759
  742TMC3    C810973   1.212   2.926  15.235 -0.1865 -0.7712  0.2821
  742TMC3    O110974   1.694   2.908  15.337 -0.1575 -0.3193 -0.0533
  742TMC3    O210975   1.270   2.900  15.134 -0.2182 -0.0821 -0.1430
  743MPD2     C10976   0.014   4.466   1.935 -0.4138  0.5337  0.2745
  743MPD2    C110977   0.014   4.420   1.807 -0.2757  0.2682  0.3000
  743MPD2    C210978   0.133   4.400   1.746 -0.5366 -0.0518 -0.8813
  743MPD2    C310979   0.252   4.439   1.804  0.4409  0.0954 -0.1795
  743MPD2    C410980   0.250   4.492   1.934 -0.1351 -0.2145  1.3825
  743MPD2    C510981   0.128   4.499   2.000 -0.8737 -0.0081 -0.7075
  743MPD2     H10982   0.128   4.351   1.649 -0.2556  0.3385 -1.0937
  743MPD2    H110983   0.338   4.517   1.992 -0.4994 -0.1894  1.9234
  743MPD2    H210984   4.646   4.466   1.989 -0.2739 -1.8665  0.5318
  743MPD2    H310985   0.120   4.537   2.102  0.0680 -1.7667  0.0193
  743MPD2     N10986   0.374   4.431   1.721 -1.0885  0.7679 -0.5315
  743MPD2    H510987   0.365   4.380   1.634 -1.4106 -1.4238  0.7789
  743MPD2    N110988   4.617   4.397   1.743  0.1295  0.4147  0.7502
  743MPD2    H710989   4.537   4.426   1.799  0.1174  1.1783  0.3379
  744TMC3    C110990   4.452   4.331   1.589 -0.3698 -0.2891  0.5175
  744TMC3    C210991   4.359   4.407   1.646  0.0718 -0.9204 -0.0082
  744TMC3    C310992   4.238   4.428   1.582  0.2717  0.2131 -0.6663
  744TMC3    C410993   4.432   4.252   1.474 -0.1541 -0.3249 -0.0893
  744TMC3    C510994   4.301   4.259   1.424  0.2456  0.4591  0.3316
  744TMC3    C610995   4.209   4.351   1.477 -0.6098  0.1549 -0.2801
  744TMC3     C10996   4.596   4.341   1.623  0.1635 -0.4844  0.0522
  744TMC3     O10997   4.675   4.328   1.531 -0.5664 -1.0775 -0.7062
  744TMC3     H10998   4.388   4.495   1.703 -1.1295 -0.9822  0.6876
  744TMC3    H110999   4.507   4.194   1.421  0.9441  0.3702  0.6962
  744TMC3    H211000   4.111   4.342   1.432 -0.1829  0.1440 -1.1978
  744TMC3    C711001   4.275   4.211   1.295 -0.8619  0.5821 -0.4885
  744TMC3    C811002   4.129   4.502   1.650 -1.1516 -0.0064 -0.1672
  744TMC3    O111003   4.187   4.265   1.227 -0.1794  0.2035  0.2128
  744TMC3    O211004   4.028   4.520   1.588 -0.1292 -0.1253 -0.1109
  745TMC3    C111005   2.327   2.963  14.068  0.3500 -0.0575  0.2385
  745TMC3    C211006   2.259   2.971  14.185 -0.0916 -0.3832  0.8442
  745TMC3    C311007   2.124   2.948  14.170  0.0506 -0.3120  0.3315
  745TMC3    C411008   2.285   2.929  13.945 -0.7213  0.0884 -0.2989
  745TMC3    C511009   2.147   2.902  13.941  0.0312 -0.2230 -0.1608
  745TMC3    C611010   2.070   2.903  14.052 -0.0750 -0.8110  0.3716
  745TMC3     C11011   2.441   3.047  14.077  0.0045  0.2913 -0.0853
  745TMC3     O11012   2.520   3.022  14.165 -0.4907  0.0973 -0.0125
  745TMC3     H11013   2.311   3.017  14.268  0.6145  0.0834  0.1509
  745TMC3    H111014   2.364   2.908  13.874  0.8624  1.6393  1.0215
  745TMC3    H211015   1.964   2.889  14.036 -0.3865  1.6772  0.3031
  745TMC3    C711016   2.091   2.888  13.806 -0.0821  0.2548  0.1530
  745TMC3    C811017   2.039   2.980  14.280 -0.1687 -0.0920 -0.5865
  745TMC3    O111018   1.968   2.879  13.793 -0.1298  0.1929 -0.3267
  745TMC3    O211019   1.920   2.946  14.272  0.4289 -0.4175  0.1844
  746TMC3    C111020   4.314   4.559  10.988  0.2911  0.3670 -0.3198
  746TMC3    C211021   4.386   4.522  10.875 -0.2888  0.0965 -0.4132
  746TMC3    C311022   4.338   4.446  10.780  0.1026 -0.2690  0.2957
  746TMC3    C411023   4.193   4.497  11.008 -0.7863  0.5461 -0.7096
  746TMC3    C511024   4.143   4.410  10.911  0.3706  0.4207  0.6124
  746TMC3    C611025   4.222   4.377  10.801 -0.7338  0.5028  0.0694
  746TMC3     C11026   4.310   4.699  11.023  0.6256 -0.2742  0.7465
  746TMC3     O11027   4.200   0.029  11.029 -0.1016  0.2513 -0.7371
  746TMC3     H11028   4.477   4.579  10.858 -0.3192  0.1856 -0.2781
  746TMC3    H111029   4.132   4.537  11.089 -1.9422  0.0031 -1.3101
  746TMC3    H211030   4.183   4.315  10.722  0.5071 -0.8857  0.5552
  746TMC3    C711031   4.000   4.397  10.892 -0.0598 -0.4385  0.8304
  746TMC3    C811032   4.359   4.494  10.647 -0.1226 -0.2806  0.1415
  746TMC3    O111033   3.961   4.348  10.791 -0.6596  0.0979  0.2397
  746TMC3    O211034   4.311   4.427  10.554  0.3382 -0.4329  0.1443
  747TMC3    C111035   1.497   0.350  10.729  0.9775 -0.4208  0.5226
  747TMC3    C211036   1.385   0.280  10.772 -0.4740 -0.3465 -0.0538
  747TMC3    C311037   1.371   0.256  10.905  0.1873 -0.5952 -0.2374
  747TMC3    C411038   1.598   0.383  10.818 -0.1431  0.7103  0.3654
  747TMC3    C511039   1.585   0.337  10.947 -0.3184 -0.8860 -0.2489
  747TMC3    C611040   1.471   0.277  10.995  0.8096  0.4086 -0.2756
  747TMC3     C11041   1.510   0.375  10.591 -0.1509  0.0974 -0.0822
  747TMC3     O11042   1.565   0.477  10.552  0.0959  0.1047  0.3782
  747TMC3     H11043   1.306   0.250  10.705 -0.4034 -2.7639  0.9672
  747TMC3    H111044   1.689   0.428  10.780  0.6349  0.3239  1.7663
  747TMC3    H211045   1.471   0.237  11.095 -0.9973 -1.0555 -0.8779
  747TMC3    C711046   1.697   0.350  11.037  0.2074 -0.2091 -0.0070
  747TMC3    C811047   1.264   0.161  10.949 -0.8329  0.2359  0.4184
  747TMC3    O111048   1.666   0.355  11.157 -0.4855  0.3819  0.7537
  747TMC3    O211049   1.223   0.085  10.862 -0.1623  0.4926  0.1650
  748MPD2     C11050   2.591   1.281   1.024 -0.7616 -0.3425 -0.0985
  748MPD2    C111051   2.654   1.187   1.106 -0.0393  0.9660 -0.6520
  748MPD2    C211052   2.787   1.168   1.082  0.6419 -0.1245 -0.2947
  748MPD2    C311053   2.854   1.230   0.971 -0.3384 -0.4338 -0.4542
  748MPD2    C411054   2.792   1.332   0.901  0.9223 -0.8158  0.4867
  748MPD2    C511055   2.656   1.353   0.923 -0.5274  0.1770  0.2621
  748MPD2     H11056   2.847   1.105   1.147  2.2046  1.8764  0.1978
  748MPD2    H111057   2.835   1.368   0.808 -0.5591 -0.0637  0.0873
  748MPD2    H211058   2.486   1.301   1.043 -0.3735 -0.3416  2.0351
  748MPD2    H311059   2.606   1.436   0.874 -2.5758 -0.8751  0.5757
  748MPD2     N11060   2.988   1.198   0.952 -0.0475 -0.8044  0.6682
  748MPD2    H511061   3.024   1.120   1.007 -1.0276  0.7071  3.4586
  748MPD2    N111062   2.583   1.119   1.205  0.0827 -0.0642  0.6792
  748MPD2    H711063   2.482   1.129   1.197 -0.0893  0.2369  3.3388
  749TMC3    C111064   3.212   1.201   0.883 -0.0775 -0.1795  0.6831
  749TMC3    C211065   3.245   1.187   1.015 -0.5709 -0.4893 -0.0270
  749TMC3    C311066   3.379   1.195   1.043 -0.6553  0.0533 -0.2959
  749TMC3    C411067   3.303   1.219   0.785 -0.1625  0.0640 -0.1286
  749TMC3    C511068   3.437   1.223   0.820 -0.2612 -0.0276 -0.1071
  749TMC3    C611069   3.477   1.200   0.947 -0.7853  0.1601 -0.1434
  749TMC3     C11070   3.075   1.239   0.857 -0.1095 -0.2786  0.1757
  749TMC3     O11071   3.048   1.293   0.748  0.1296  0.3719 -0.2138
  749TMC3     H11072   3.180   1.181   1.102  1.9975 -0.0031  1.9148
  749TMC3    H111073   3.267   1.226   0.683 -3.1862  1.5096  1.0547
  749TMC3    H211074   3.580   1.219   0.971 -0.8465 -1.2835  1.2758
  749TMC3    C711075   3.540   1.245   0.720  0.5387 -0.1141  0.3900
  749TMC3    C811076   3.428   1.153   1.173  0.2666  0.1215  0.7514
  749TMC3    O111077   3.650   1.223   0.755  0.4988 -0.0435  0.1667
  749TMC3    O211078   3.388   1.215   1.266  0.4818 -0.0632  0.3377
  750MPD2     C11079   4.409   1.894  11.160 -0.2354  0.5494 -0.7495
  750MPD2    C111080   4.277   1.865  11.184 -0.6749 -0.0549  0.0712
  750MPD2    C211081   4.214   1.746  11.145 -0.8125 -0.2021  0.0552
  750MPD2    C311082   4.290   1.657  11.067  0.3590  0.4703 -0.3190
  750MPD2    C411083   4.423   1.687  11.044 -0.2809 -0.3485  0.5643
  750MPD2    C511084   4.483   1.805  11.092 -0.4648  0.7743  0.4763
  750MPD2     H11085   4.108   1.729  11.163  0.0230 -3.4813  1.9182
  750MPD2    H111086   4.491   1.619  10.995 -1.3805 -0.2108 -1.1563
  750MPD2    H211087   4.465   1.978  11.200 -2.0371  1.4371 -0.0906
  750MPD2    H311088   4.588   1.826  11.077 -0.9906  2.1555 -1.2397
  750MPD2     N11089   4.247   1.545  10.989 -0.1976  0.5454 -0.2852
  750MPD2    H511090   4.318   1.479  10.957 -0.6883  0.2215 -0.6968
  750MPD2    N111091   4.204   1.973  11.246  0.2226 -0.6284 -0.2220
  750MPD2    H711092   4.246   2.064  11.260 -2.4706  0.3738  1.3219
  751TMC3    C111093   4.083   1.408  10.876  0.5449  0.1911  0.3489
  751TMC3    C211094   3.954   1.370  10.887 -0.0034 -0.4472 -0.2218
  751TMC3    C311095   3.904   1.285  10.791  0.0961 -1.0281  0.2211
  751TMC3    C411096   4.168   1.356  10.780  0.1805 -0.3786  0.6033
  751TMC3    C511097   4.116   1.273  10.685  0.1595  0.3881 -0.0228
  751TMC3    C611098   3.987   1.233  10.695 -0.3097 -0.7284 -0.1791
  751TMC3     C11099   4.114   1.530  10.952  0.1329  0.2245  0.1334
  751TMC3     O11100   4.017   1.596  10.995  0.4131  0.0495  0.1225
  751TMC3     H11101   3.895   1.392  10.975 -0.6203  0.4425 -0.8620
  751TMC3    H111102   4.274   1.377  10.772 -0.2211  1.2725 -0.2692
  751TMC3    H211103   3.938   1.173  10.620  2.2990 -0.5293 -2.0345
  751TMC3    C711104   4.202   1.221  10.589  0.2608 -0.3838  0.5464
  751TMC3    C811105   3.781   1.218  10.821 -0.4494  0.0682  1.0670
  751TMC3    O111106   4.305   1.280  10.569  0.3263 -0.1835  0.2089
  751TMC3    O211107   3.762   1.104  10.767  0.4434  0.1691 -0.0881
  752TMC3    C111108   3.242   2.133  16.758 -0.2426  0.4574  0.1564
  752TMC3    C211109   3.224   2.270  16.765 -0.2716  0.4205 -0.1699
  752TMC3    C311110   3.291   2.345  16.866 -0.2401 -0.5270 -0.0120
  752TMC3    C411111   3.311   2.071  16.859 -0.2513 -0.9377 -0.7342
  752TMC3    C511112   3.373   2.139  16.960 -0.2429 -0.0856  0.1607
  752TMC3    C611113   3.365   2.283  16.963 -0.5111  0.3271  0.4494
  752TMC3     C11114   3.200   2.047  16.652  0.0278 -0.2455 -0.5536
  752TMC3     O11115   3.227   1.927  16.665 -0.1169  0.0779 -0.4037
  752TMC3     H11116   3.175   2.323  16.684 -0.8581  0.1203 -0.0044
  752TMC3    H111117   3.343   1.969  16.845 -1.6044 -1.2601 -1.4947
  752TMC3    H211118   3.421   2.337  17.038  2.4302  0.3777 -1.8014
  752TMC3    C711119   3.456   2.076  17.058 -0.7288 -0.1313 -0.8391
  752TMC3    C811120   3.263   2.491  16.864  0.6459  0.9482 -1.4662
  752TMC3    O111121   3.540   2.142  17.116 -0.0688 -0.1000 -0.1522
  752TMC3    O211122   3.179   2.523  16.783 -0.1594  0.0241  0.2091
  753TMC3    C111123   4.484   2.761  13.454  0.0505  0.5765 -0.1705
  753TMC3    C211124   4.581   2.722  13.542  0.2918  1.3151  0.2727
  753TMC3    C311125   4.581   2.592  13.579  0.1336  0.0344  0.3385
  753TMC3    C411126   4.387   2.669  13.406  0.7718  0.2128  0.6529
  753TMC3    C511127   4.403   2.537  13.443 -0.1476  0.2956  0.1171
  753TMC3    C611128   4.504   2.498  13.527 -0.4169  0.5158  0.0662
  753TMC3     C11129   4.456   2.893  13.420  0.8685 -0.0641  0.0584
  753TMC3     O11130   4.549   2.971  13.401  0.0544  0.4216 -0.3806
  753TMC3     H11131   4.649   2.793  13.588  0.5924 -1.3633  3.9405
  753TMC3    H111132   4.316   2.703  13.332  0.4325  2.1439  1.8599
  753TMC3    H211133   4.514   2.394  13.557 -0.5405  0.9688  1.6596
  753TMC3    C711134   4.337   2.440  13.362  1.1646  0.3906 -0.6507
  753TMC3    C811135   4.651   2.547  13.699  0.0854 -0.2693  0.4039
  753TMC3    O111136   4.234   2.476  13.308  0.7036  0.2739 -0.0517
  753TMC3    O211137   4.659   2.426  13.707  0.0885  0.3482  0.5625
  754MPD2     C11138   3.452   1.688  12.497 -0.7467 -0.0152  0.6076
  754MPD2    C111139   3.406   1.565  12.490 -0.4139  0.4852  0.1873
  754MPD2    C211140   3.290   1.519  12.557  0.3655 -0.2149 -0.1084
  754MPD2    C311141   3.221   1.606  12.640 -1.0129  0.1527 -0.0788
  754MPD2    C411142   3.276   1.733  12.653 -0.1850 -0.7733 -0.2715
  754MPD2    C511143   3.386   1.775  12.584 -0.0413  0.3899 -0.1656
  754MPD2     H11144   3.247   1.420  12.544  0.1552 -0.0900 -0.3662
  754MPD2    H111145   3.231   1.807  12.718 -1.7009 -0.1236 -2.0559
  754MPD2    H211146   3.543   1.717  12.447  0.2098  0.9335  2.9275
  754MPD2    H311147   3.405   1.882  12.581  0.7302  0.3142  1.7973
  754MPD2     N11148   3.107   1.573  12.713  0.0288 -0.2112 -0.5131
  754MPD2    H511149   3.070   1.644  12.775  0.5373 -1.6717  1.4665
  754MPD2    N111150   3.492   1.470  12.428  0.0819 -0.3833  0.0474
  754MPD2    H711151   3.557   1.514  12.365 -0.2187  0.8404  0.6056
  755MPD2     C11152   2.730   2.086  13.243 -0.2233 -0.4622 -0.4278
  755MPD2    C111153   2.779   1.983  13.329  0.0431 -0.1106 -0.2210
  755MPD2    C211154   2.797   1.858  13.264 -0.6942  0.0349  0.0546
  755MPD2    C311155   2.769   1.840  13.129 -0.4097 -0.5373 -0.0649
  755MPD2    C411156   2.706   1.939  13.059  0.2965  0.0899  0.8091
  755MPD2    C511157   2.697   2.061  13.117  0.1903  0.9327 -0.2087
  755MPD2     H11158   2.835   1.776  13.324 -2.2170  0.7113  1.9436
  755MPD2    H111159   2.677   1.925  12.956  2.7994  1.8188 -0.1110
  755MPD2    H211160   2.717   2.185  13.286 -0.0475  0.1456 -1.7768
  755MPD2    H311161   2.645   2.135  13.057 -1.4178 -1.4475 -1.7731
  755MPD2     N11162   2.802   1.720  13.056 -0.0779  0.2128 -0.9619
  755MPD2    H511163   2.796   1.724  12.954  0.0021  0.3628 -0.9609
  755MPD2    N111164   2.814   1.997  13.466  0.2515 -0.3696 -0.3797
  755MPD2    H711165   2.862   1.924  13.518 -0.6293 -1.2409 -0.8066
  756MPD2     C11166   4.052   2.149   9.210 -0.0991  0.4879  0.2140
  756MPD2    C111167   3.985   2.135   9.335 -0.1425 -0.0977 -0.6101
  756MPD2    C211168   3.847   2.138   9.337 -0.2894 -0.4849  0.4179
  756MPD2    C311169   3.770   2.155   9.229 -0.1743 -0.6503  0.9801
  756MPD2    C411170   3.836   2.162   9.107 -0.8508 -0.0049 -0.5051
  756MPD2    C511171   3.972   2.160   9.099 -0.1588 -0.1382  0.3204
  756MPD2     H11172   3.791   2.135   9.430 -2.0910  0.9099 -0.6057
  756MPD2    H111173   3.787   2.157   9.010 -1.2196  2.8414 -0.4743
  756MPD2    H211174   4.159   2.135   9.201  0.0106 -0.0940  2.4330
  756MPD2    H311175   4.020   2.166   9.003  0.3078 -1.5740  0.4561
  756MPD2     N11176   3.625   2.155   9.244  0.2391 -0.2658  0.0225
  756MPD2    H511177   3.587   2.149   9.338 -0.5136  0.8690 -0.2127
  756MPD2    N111178   4.051   2.124   9.460  0.3071 -0.1775  0.2642
  756MPD2    H711179   3.988   2.134   9.539 -0.0906  1.2423 -0.2289
  757MPD2     C11180   3.126   1.481   9.523  0.3843  0.4229  0.1257
  757MPD2    C111181   3.235   1.497   9.441  0.3675 -0.1817 -0.2546
  757MPD2    C211182   3.268   1.625   9.404 -1.2757 -0.8431  0.4704
  757MPD2    C311183   3.183   1.732   9.421  0.0878  0.3235  0.0505
  757MPD2    C411184   3.077   1.717   9.505 -0.8547  0.6223  0.6320
  757MPD2    C511185   3.051   1.594   9.558 -0.0713  0.1446 -0.2488
  757MPD2     H11186   3.350   1.640   9.334 -1.6336  0.8945  0.4367
  757MPD2    H111187   3.014   1.801   9.532 -0.6263  0.3774  1.9247
  757MPD2    H211188   3.094   1.385   9.563  1.4165 -0.0888 -0.2583
  757MPD2    H311189   2.961   1.584   9.617 -0.3721  0.6376 -0.6287
  757MPD2     N11190   3.217   1.856   9.356 -0.7755 -0.8713  0.0632
  757MPD2    H511191   3.294   1.848   9.291  1.0742  0.6479  2.1051
  757MPD2    N111192   3.316   1.389   9.398  0.1537 -0.1684 -0.0211
  757MPD2    H711193   3.389   1.405   9.329  0.5217 -0.4035  0.3208
  758MPD2     C11194   3.708   1.071  15.720  1.1984  0.0345  0.3388
  758MPD2    C111195   3.785   1.036  15.832 -0.1453 -0.0147  0.1445
  758MPD2    C211196   3.738   1.059  15.963  0.4158 -0.2670 -0.7319
  758MPD2    C311197   3.617   1.116  15.993  0.4718  0.8989  0.3927
  758MPD2    C411198   3.544   1.156  15.881 -0.0045 -0.2813 -1.5497
  758MPD2    C511199   3.593   1.133  15.750  0.5724 -1.0583  0.0370
  758MPD2     H11200   3.800   1.024  16.045  2.9655  0.3561 -2.3762
  758MPD2    H111201   3.448   1.204  15.897  1.3370  1.4302  1.3091
  758MPD2    H211202   3.732   1.048  15.616  0.9806  2.6187 -0.2762
  758MPD2    H311203   3.543   1.178  15.664  0.3580 -0.8364  0.2788
  758MPD2     N11204   3.564   1.146  16.122  0.1668  0.7159  0.1708
  758MPD2    H511205   3.474   1.193  16.132 -2.3499 -4.0141 -0.1547
  758MPD2    N111206   3.900   0.968  15.807 -0.0762 -0.1173 -0.0974
  758MPD2    H711207   3.912   0.953  15.707 -1.2436  0.0938 -0.2695
  759MPD2     C11208   2.501   4.299   9.924 -0.7189 -0.6923  0.2297
  759MPD2    C111209   2.521   4.214   9.818  0.0623 -0.2102 -0.3467
  759MPD2    C211210   2.579   4.258   9.704 -0.4208 -0.0785  0.2000
  759MPD2    C311211   2.627   4.387   9.707  0.3218 -0.0211  0.4262
  759MPD2    C411212   2.603   4.472   9.811 -0.2432  0.2313  0.0804
  759MPD2    C511213   2.541   4.427   9.924  0.6149  0.4634  0.4878
  759MPD2     H11214   2.599   4.193   9.620  0.6439  0.6896 -0.1414
  759MPD2    H111215   2.630   4.577   9.803  0.3370  0.0246 -0.7300
  759MPD2    H211216   2.450   4.264  10.014  0.8175 -1.7025  0.7003
  759MPD2    H311217   2.530   4.495  10.008  3.3395  0.0330  1.1865
  759MPD2     N11218   2.686   4.431   9.590 -0.5070 -0.6200 -0.6166
  759MPD2    H511219   2.704   4.372   9.510  1.4986 -0.3453 -0.3780
  759MPD2    N111220   2.486   4.073   9.832  0.5359 -0.5484  0.2111
  759MPD2    H711221   2.496   4.017   9.749  4.1760  2.3395 -1.3262
  760MPD2     C11222   2.269   1.812  12.266 -0.0126  0.5297  0.0415
  760MPD2    C111223   2.328   1.812  12.140  1.2717 -0.0080 -0.3078
  760MPD2    C211224   2.409   1.703  12.101  0.7972  0.7386 -0.2687
  760MPD2    C311225   2.406   1.585  12.177 -0.3749 -0.2572 -0.2338
  760MPD2    C411226   2.323   1.572  12.288  0.1021 -0.1978 -0.4330
  760MPD2    C511227   2.259   1.688  12.332 -0.2454 -0.1686  0.4467
  760MPD2     H11228   2.465   1.718  12.010 -0.2179 -0.1619 -1.0430
  760MPD2    H111229   2.315   1.474  12.334  0.4841 -0.2049 -0.3775
  760MPD2    H211230   2.204   1.893  12.297  0.0181  0.3288  0.6331
  760MPD2    H311231   2.196   1.678  12.419  0.1496  2.7409  1.0858
  760MPD2     N11232   2.482   1.473  12.130 -0.4875 -0.1045 -0.3037
  760MPD2    H511233   2.447   1.384  12.162 -0.6828 -0.2354 -0.8698
  760MPD2    N111234   2.318   1.914  12.042  0.4215 -0.3455 -0.1754
  760MPD2    H711235   2.356   1.908  11.948 -1.2949 -0.9175 -0.8191
  761MPD2     C11236   3.286   1.218  10.942 -0.1616  0.6768 -0.3805
  761MPD2    C111237   3.370   1.116  10.902  0.0038  0.1334  0.3715
  761MPD2    C211238   3.511   1.140  10.884  0.8663  0.4128  0.8583
  761MPD2    C311239   3.559   1.267  10.902 -0.0981  0.1415 -0.5201
  761MPD2    C411240   3.474   1.370  10.941 -1.2461 -0.1723  1.1383
  761MPD2    C511241   3.344   1.343  10.969 -0.2517  0.8417  0.2653
  761MPD2     H11242   3.571   1.053  10.861  0.8947  0.4729  0.7094
  761MPD2    H111243   3.513   1.471  10.940 -0.7911 -0.3272  3.2277
  761MPD2    H211244   3.181   1.208  10.963  0.2385  0.0847  1.2604
  761MPD2    H311245   3.288   1.432  10.996 -0.4978  1.5255 -2.5681
  761MPD2     N11246   3.690   1.297  10.875 -0.0052 -0.0661 -0.7750
  761MPD2    H511247   3.712   1.395  10.891 -0.1366 -0.8399  4.0328
  761MPD2    N111248   3.311   0.988  10.891 -0.1208 -0.1304  0.2213
  761MPD2    H711249   3.213   0.984  10.868  0.5130  0.2425 -2.5060
  762MPD2     C11250   4.100   1.040  11.007  0.4835  0.6098 -0.2476
  762MPD2    C111251   4.054   0.931  10.934 -0.4968  0.0929  0.1831
  762MPD2    C211252   4.139   0.860  10.842 -0.0023 -0.0345 -0.5296
  762MPD2    C311253   4.270   0.904  10.827  0.1689 -1.4656  0.6100
  762MPD2    C411254   4.309   1.024  10.889  0.2562  0.5546  0.1540
  762MPD2    C511255   4.223   1.081  10.977 -0.1369  0.1557 -0.7954
  762MPD2     H11256   4.102   0.773  10.788 -0.9290 -0.3399  0.5873
  762MPD2    H111257   4.400   1.081  10.877  2.0929 -1.9243  2.3428
  762MPD2    H211258   4.042   1.091  11.084  1.2410  0.1430  0.6402
  762MPD2    H311259   4.262   1.168  11.029 -0.3586 -0.0653 -0.2650
  762MPD2     N11260   4.363   0.830  10.749 -0.1086  0.0807  0.0415
  762MPD2    H511261   4.325   0.750  10.699  0.9175  1.2002 -2.5671
  762MPD2    N111262   3.914   0.895  10.964  0.6102  0.0279 -0.3120
  762MPD2    H711263   3.865   0.947  11.036  0.5163  3.4519 -2.8488
  763MPD2     C11264   0.841   0.674  16.243 -0.6176 -0.4706  0.3021
  763MPD2    C111265   0.793   0.748  16.132  0.2733 -0.2792 -0.8737
  763MPD2    C211266   0.736   0.873  16.155 -0.1837  0.0002 -0.1433
  763MPD2    C311267   0.741   0.931  16.278 -0.3061  0.5782  0.0336
  763MPD2    C411268   0.795   0.862  16.380 -0.3016  0.1629  0.1093
  763MPD2    C511269   0.830   0.733  16.363 -0.7086 -0.3719 -0.0190
  763MPD2     H11270   0.696   0.935  16.075 -1.6465 -0.3033  0.3526
  763MPD2    H111271   0.802   0.911  16.476 -1.3533 -1.4078  0.9989
  763MPD2    H211272   0.877   0.572  16.239 -4.2928 -1.7989  0.2476
  763MPD2    H311273   0.851   0.674  16.452 -1.5564  0.3626  0.6731
  763MPD2     N11274   0.720   1.066  16.305  0.6721 -0.4944  0.2818
  763MPD2    H511275   0.757   1.097  16.394  0.5726 -1.1398  0.5542
  763MPD2    N111276   0.823   0.712  15.997  0.4499  0.6236  0.3690
  763MPD2    H711277   0.799   0.782  15.927  1.9121 -0.5204 -1.2537
  764MPD2     C11278   3.695   2.975  17.278  0.9106 -0.6948 -0.0417
  764MPD2    C111279   3.668   2.862  17.211  0.0992 -0.3336  0.2510
  764MPD2    C211280   3.675   2.745  17.288  0.1896  0.0599 -0.1724
  764MPD2    C311281   3.695   2.756  17.428  0.1191 -0.4768 -0.2685
  764MPD2    C411282   3.714   2.876  17.489  1.1003 -0.2464 -0.2891
  764MPD2    C511283   3.713   2.988  17.414 -0.1488  0.0504 -0.0409
  764MPD2     H11284   3.677   2.650  17.236 -0.8868  0.4468 -0.9194
  764MPD2    H111285   3.710   2.885  17.597  0.0887 -1.7718 -0.1877
  764MPD2    H211286   3.706   3.068  17.223  0.2431 -1.2145 -1.0411
  764MPD2    H311287   3.735   3.084  17.459  0.7655 -1.7134  3.2930
  764MPD2     N11288   3.687   2.636  17.501  0.1899 -0.1121 -0.9449
  764MPD2    H511289   3.641   2.557  17.457  1.0688 -1.0573 -0.1719
  764MPD2    N111290   3.645   2.845  17.072 -0.4802  0.2760 -0.3456
  764MPD2    H711291   3.639   2.750  17.038 -0.0226 -0.9348  2.9746
  765MPD2     C11292   3.194   0.450  16.113  0.0078 -0.2030  1.3208
  765MPD2    C111293   3.249   0.519  16.009 -0.0381 -0.2049  0.0451
  765MPD2    C211294   3.370   0.475  15.950  0.7133  0.5905  0.4288
  765MPD2    C311295   3.441   0.369  16.003  0.2460 -0.1990  0.0237
  765MPD2    C411296   3.383   0.310  16.112 -0.7683 -0.4600 -0.0494
  765MPD2    C511297   3.267   0.353  16.167  0.3306 -0.3690 -0.2136
  765MPD2     H11298   3.410   0.525  15.863 -0.2640  0.1224 -0.3011
  765MPD2    H111299   3.412   0.217  16.158  0.4940 -0.9533 -1.8783
  765MPD2    H211300   3.097   0.477  16.154 -0.4349 -0.9803  0.7696
  765MPD2    H311301   3.217   0.292  16.242 -0.5266 -0.6517 -1.0162
  765MPD2     N11302   3.549   0.314  15.932 -0.4944  0.7733 -0.7354
  765MPD2    H511303   3.572   0.346  15.839 -2.5517  1.8383 -0.8834
  765MPD2    N111304   3.184   0.634  15.964  0.0138 -0.2744  0.3232
  765MPD2    H711305   3.098   0.655  16.014 -0.7322 -1.6554 -0.3956
  766MPD2     C11306   2.642   0.751  15.503  0.2084 -0.2461 -0.8523
  766MPD2    C111307   2.772   0.709  15.534 -0.0732 -0.1860 -0.6517
  766MPD2    C211308   2.849   0.638  15.445 -0.0942  0.6259  0.5240
  766MPD2    C311309   2.797   0.600  15.321 -0.2298 -0.0914 -0.4091
  766MPD2    C411310   2.662   0.630  15.295 -0.3674  0.2557  0.5224
  766MPD2    C511311   2.587   0.714  15.384 -0.0396  0.4593 -0.3180
  766MPD2     H11312   2.950   0.611  15.473  0.2011 -0.3701 -1.4603
  766MPD2    H111313   2.614   0.586  15.209  0.9076  0.5933 -0.3661
  766MPD2    H211314   2.585   0.808  15.575 -1.3735 -2.9939  0.0711
  766MPD2    H311315   2.486   0.744  15.361 -0.4134  1.4274  2.6865
  766MPD2     N11316   2.865   0.531  15.218 -0.7742  0.4828  1.1510
  766MPD2    H511317   2.812   0.496  15.139  0.0886  1.0445  0.3234
  766MPD2    N111318   2.847   0.757  15.645  0.1648  0.3259 -0.4042
  766MPD2    H711319   2.940   0.722  15.667 -1.3028 -1.2873  3.0875
  767MPD2     C11320   2.419   0.807  14.987  0.8196  0.2602 -0.5982
  767MPD2    C111321   2.556   0.795  14.969  0.7267  0.0657 -0.3726
  767MPD2    C211322   2.608   0.716  14.869  0.0215 -0.2325  0.9903
  767MPD2    C311323   2.517   0.656  14.784 -0.1196 -0.1793  0.4337
  767MPD2    C411324   2.385   0.678  14.804 -0.2821 -0.3151 -0.0853
  767MPD2    C511325   2.327   0.751  14.901  0.8049 -0.2685 -0.5911
  767MPD2     H11326   2.714   0.697  14.853  0.3790  0.2081  2.7914
  767MPD2    H111327   2.315   0.647  14.728  1.0605  2.2333 -2.3443
  767MPD2    H211328   2.375   0.872  15.062  0.9215 -0.7545  0.3336
  767MPD2    H311329   2.219   0.759  14.904  0.8284 -0.1867 -0.0321
  767MPD2     N11330   2.564   0.570  14.682 -0.1228  0.6125  0.4233
  767MPD2    H511331   2.665   0.555  14.682  0.2925  3.4546 -0.9646
  767MPD2    N111332   2.634   0.857  15.069  0.1643  0.2663  0.1494
  767MPD2    H711333   2.589   0.903  15.148 -0.1616  1.3451 -0.6458
  768MPD2     C11334   3.100   3.816  10.912  0.8255  0.1205 -0.4934
  768MPD2    C111335   3.199   3.909  10.904 -1.3614  0.1977 -0.5315
  768MPD2    C211336   3.318   3.894  10.976  0.3771 -0.3042 -0.3127
  768MPD2    C311337   3.339   3.789  11.061  0.1271  0.1048 -0.0884
  768MPD2    C411338   3.243   3.695  11.061 -0.0560  0.3306 -0.1800
  768MPD2    C511339   3.126   3.712  10.992 -0.2152 -0.2336 -0.2769
  768MPD2     H11340   3.398   3.964  10.956  0.5213 -0.8391 -1.5803
  768MPD2    H111341   3.255   3.600  11.112 -1.3988 -0.0537 -0.5606
  768MPD2    H211342   3.007   3.831  10.858 -0.0272  1.3804  1.3196
  768MPD2    H311343   3.048   3.637  10.987 -1.7625  1.4132 -1.1517
  768MPD2     N11344   3.461   3.771  11.134 -0.4809 -0.1559 -0.6391
  768MPD2    H511345   3.496   3.681  11.165 -0.0534  0.3652  0.3906
  768MPD2    N111346   3.203   4.021  10.815  0.6029 -0.6073  0.2467
  768MPD2    H711347   3.296   4.060  10.808 -0.5291  1.4907 -2.9760
  769MPD2     C11348   4.673   1.841  14.849 -0.4137 -0.5557  0.4165
  769MPD2    C111349   4.568   1.853  14.933 -0.7638 -1.0649 -0.1325
  769MPD2    C211350   4.602   1.880  15.060 -0.3936 -0.1907 -0.4418
  769MPD2    C311351   4.725   1.891  15.107 -0.1182 -0.7346  0.4465
  769MPD2    C411352   0.103   1.883  15.021 -0.4158 -0.0086 -0.2327
  769MPD2    C511353   0.073   1.861  14.889 -1.5166  0.1149 -0.3799
  769MPD2     H11354   4.518   1.882  15.129 -0.1782 -0.4815 -0.1739
  769MPD2    H111355   0.206   1.900  15.051 -0.8900 -0.9620  1.9687
  769MPD2    H211356   4.650   1.803  14.750  0.5501  0.8832 -0.3743
  769MPD2    H311357   0.148   1.841  14.814  1.3366  2.2037  1.9353
  769MPD2     N11358   0.004   1.919  15.246 -0.0579  0.5316 -0.1618
  769MPD2    H511359   4.647   1.901  15.299 -1.0267  0.2563 -1.7862
  769MPD2    N111360   4.435   1.842  14.886  0.2127  0.0415 -0.3932
  769MPD2    H711361   4.421   1.825  14.787 -0.8030 -1.4747  0.0138
  770MPD2     C11362   3.650   1.371  14.956  0.0841 -0.6348 -0.1311
  770MPD2    C111363   3.775   1.363  14.893  0.0310  0.2221 -0.4700
  770MPD2    C211364   3.856   1.473  14.895 -0.5961 -0.0469  0.0426
  770MPD2    C311365   3.819   1.591  14.961  0.3769  0.2493  0.9690
  770MPD2    C411366   3.703   1.596  15.031 -0.1745  0.0333  0.4398
  770MPD2    C511367   3.616   1.489  15.031  0.5089 -0.2879 -0.2315
  770MPD2     H11368   3.952   1.463  14.845 -0.2826  0.6333  0.5147
  770MPD2    H111369   3.670   1.680  15.092 -0.0172  1.4061 -1.3741
  770MPD2    H211370   3.582   1.286  14.956  1.1125 -1.4467 -0.1755
  770MPD2    H311371   3.524   1.497  15.088 -0.1560 -2.6163 -0.9506
  770MPD2     N11372   3.910   1.700  14.957  0.2555  0.5101 -0.0829
  770MPD2    H511373   4.003   1.685  14.918  0.7194 -0.2917  1.3208
  770MPD2    N111374   3.823   1.248  14.826 -0.0621  0.0694 -0.4179
  770MPD2    H711375   3.917   1.238  14.788  0.0917 -0.1400  0.0205
  771MPD2     C11376   0.594   0.106  14.049  0.2350  0.2620  0.0615
  771MPD2    C111377   0.514   0.160  13.957 -0.4340 -0.6390  0.2081
  771MPD2    C211378   0.411   0.082  13.909 -0.6188  0.5694 -0.5147
  771MPD2    C311379   0.398   4.679  13.945 -0.1500  0.0911  0.6858
  771MPD2    C411380   0.490   4.620  14.034 -0.6945 -0.0933 -0.4919
  771MPD2    C511381   0.581   4.704  14.092 -0.0023 -0.0092 -0.3532
  771MPD2     H11382   0.344   0.127  13.837  0.2944  0.4120 -1.4661
  771MPD2    H111383   0.481   4.517  14.067  0.8151 -0.0207  0.1074
  771MPD2    H211384   0.688   0.149  14.080  1.1403 -0.2726 -1.9467
  771MPD2    H311385   0.651   4.660  14.163  0.3499  1.3330  0.1420
  771MPD2     N11386   0.297   4.605  13.879  0.0547 -0.6060 -0.1910
  771MPD2    H511387   0.236   4.656  13.816  0.6799 -1.2732 -1.3373
  771MPD2    N111388   0.535   0.296  13.912  0.5876 -0.3897  0.0364
  771MPD2    H711389   0.468   0.325  13.842  1.2441  0.3733 -0.2859
  772MPD2     C11390   0.179   0.785  13.530  0.1233  0.7485 -0.3811
  772MPD2    C111391   0.183   0.701  13.639  0.1920  0.8965 -1.0213
  772MPD2    C211392   0.074   0.621  13.655 -1.0444  0.2625 -0.1504
  772MPD2    C311393   4.695   0.624  13.566  0.6828 -0.4771  0.7609
  772MPD2    C411394   4.687   0.717  13.467 -0.5091  0.6521 -0.1961
  772MPD2    C511395   0.075   0.786  13.438  0.1676 -0.0561  0.1879
  772MPD2     H11396   0.067   0.548  13.735  1.7351 -0.1412 -0.2821
  772MPD2    H111397   4.607   0.720  13.394 -0.2981  0.2339 -0.4420
  772MPD2    H211398   0.269   0.839  13.504  0.3605  0.3209 -0.4672
  772MPD2    H311399   0.072   0.845  13.347  1.0131 -0.2511  0.0377
  772MPD2     N11400   4.580   0.542  13.581 -0.3937  0.1038 -0.2276
  772MPD2    H511401   4.506   0.558  13.513  0.9329  1.8942 -1.2276
  772MPD2    N111402   0.292   0.692  13.731 -0.6962  0.3061 -0.0295
  772MPD2    H711403   0.285   0.618  13.800 -1.9154 -1.3168 -1.8708
  773MPD2     C11404   4.283   1.352   0.366 -0.4213  0.0791 -0.6517
  773MPD2    C111405   4.245   1.257   0.270 -0.6722 -0.8015  0.5694
  773MPD2    C211406   4.273   1.124   0.303 -0.0554  0.1831 -0.1203
  773MPD2    C311407   4.334   1.086   0.429 -0.1813 -0.2171 -0.2046
  773MPD2    C411408   4.362   1.190   0.515 -0.1688  0.1356 -0.8410
  773MPD2    C511409   4.337   1.318   0.481 -0.1608 -0.1452 -0.9121
  773MPD2     H11410   4.232   1.047   0.238 -0.0793  2.5580 -2.9187
  773MPD2    H111411   4.407   1.176   0.612 -2.9900 -0.3126  0.3739
  773MPD2    H211412   4.256   1.457   0.360 -0.3330  0.0206 -2.2210
  773MPD2    H311413   4.364   1.394   0.553 -2.4713  0.4945 -0.7086
  773MPD2     N11414   4.370   0.951   0.448  0.1224 -0.0917  0.0531
  773MPD2    H511415   4.355   0.896   0.363 -0.3478  0.5937 -0.3009
  773MPD2    N111416   4.168   1.292   0.153 -0.6750 -0.7529 -0.3422
  773MPD2    H711417   4.120   1.222   0.097  0.0017 -0.5933 -1.1287
  774MPD2     C11418   3.134   0.433  12.703 -0.3824  0.0857  0.2473
  774MPD2    C111419   3.201   0.490  12.813 -0.2164 -0.1771 -0.9982
  774MPD2    C211420   3.244   0.623  12.803  1.2338  0.1875  0.1543
  774MPD2    C311421   3.216   0.705  12.696 -0.2451  0.2607 -0.1226
  774MPD2    C411422   3.141   0.651  12.594  0.0958 -1.1513 -0.5049
  774MPD2    C511423   3.105   0.515  12.598 -0.2442  0.3105 -0.0589
  774MPD2     H11424   3.309   0.664  12.879  1.2374 -0.0440  0.2754
  774MPD2    H111425   3.109   0.707  12.507  1.3001  0.0350 -0.1892
  774MPD2    H211426   3.092   0.333  12.697 -0.4654  0.1905 -0.9114
  774MPD2    H311427   3.058   0.472  12.510 -2.4811 -0.7407  1.6636
  774MPD2     N11428   3.263   0.835  12.698 -0.1307 -0.4716 -0.2424
  774MPD2    H511429   3.314   0.854  12.783  0.1681  1.1868 -0.7898
  774MPD2    N111430   3.227   0.418  12.932 -0.3658 -0.1652  0.2590
  774MPD2    H711431   3.223   0.318  12.921 -0.1078  0.1194 -2.3212
  775MPD2     C11432   0.249   1.716  15.847  0.2735  0.2587 -0.1971
  775MPD2    C111433   0.224   1.851  15.868  0.2744 -0.7780 -0.3168
  775MPD2    C211434   0.296   1.944  15.802 -0.2145  0.1597 -0.0186
  775MPD2    C311435   0.392   1.911  15.712  0.0974 -0.5588  0.3278
  775MPD2    C411436   0.397   1.778  15.676  0.1498 -0.4284 -0.7275
  775MPD2    C511437   0.324   1.683  15.738 -0.4349 -0.2860  0.3193
  775MPD2     H11438   0.276   2.049  15.821  0.5735  0.2559  0.2845
  775MPD2    H111439   0.469   1.738  15.606 -0.9369 -1.0253 -1.5180
  775MPD2    H211440   0.196   1.639  15.902 -0.0720  0.6578  0.0292
  775MPD2    H311441   0.332   1.581  15.703 -1.6479  0.2378 -1.4892
  775MPD2     N11442   0.466   2.009  15.637  0.3380 -0.1947 -0.3631
  775MPD2    H511443   0.516   1.988  15.552 -0.1730 -2.8704 -0.0132
  775MPD2    N111444   0.123   1.880  15.963  0.3784  0.0676 -0.3646
  775MPD2    H711445   0.065   1.804  15.998 -0.8381  0.8081 -0.7718
  776MPD2     C11446   3.669   2.652  11.203 -0.4003  0.3919 -0.4020
  776MPD2    C111447   3.795   2.621  11.226 -0.1915 -0.1275 -0.4881
  776MPD2    C211448   3.899   2.713  11.209 -0.6733  0.6577 -0.0688
  776MPD2    C311449   3.869   2.849  11.188 -0.0531 -0.2818 -0.1654
  776MPD2    C411450   3.736   2.881  11.174 -0.1354 -0.3338 -0.1026
  776MPD2    C511451   3.638   2.780  11.173  0.4737 -0.5156  0.9089
  776MPD2     H11452   4.000   2.676  11.220 -0.4688  0.3309 -3.1404
  776MPD2    H111453   3.699   2.980  11.149  1.3408  0.2695  0.1142
  776MPD2    H211454   3.594   2.576  11.220  0.3045 -0.7147 -2.2207
  776MPD2    H311455   3.534   2.807  11.165  0.9083  1.1325  0.7675
  776MPD2     N11456   3.966   2.944  11.178  0.5534  0.3474 -0.1679
  776MPD2    H511457   3.931   3.032  11.140  0.8767  2.0042  3.3635
  776MPD2    N111458   3.814   2.489  11.267 -0.1164  0.2394  0.1225
  776MPD2    H711459   3.734   2.430  11.285  2.5123 -3.7400 -0.9947
  777MPD2     C11460   3.935   0.293   0.733 -0.8833  0.7468 -0.1058
  777MPD2    C111461   4.037   0.256   0.810 -0.1066  0.1592 -0.3283
  777MPD2    C211462   4.109   0.142   0.778 -0.9704 -0.5594  0.0526
  777MPD2    C311463   4.073   0.071   0.663  0.1014 -0.5223  0.7569
  777MPD2    C411464   3.968   0.110   0.587  0.5143  0.0615 -0.3364
  777MPD2    C511465   3.895   0.219   0.627  0.0849 -0.1970 -0.5514
  777MPD2     H11466   4.195   0.106   0.833 -0.7933  2.7000  1.9315
  777MPD2    H111467   3.933   0.051   0.503  0.6209  0.2489 -0.5131
  777MPD2    H211468   3.880   0.382   0.760 -0.3065  0.6798  1.3121
  777MPD2    H311469   3.805   0.248   0.574  1.3198 -0.3115 -2.6984
  777MPD2     N11470   4.138   4.676   0.640 -0.4601 -0.5586 -0.6589
  777MPD2    H511471   4.218   4.654   0.698 -0.6201 -0.1687 -0.2823
  777MPD2    N111472   4.060   0.336   0.929  0.0950  0.1232 -0.0164
  777MPD2    H711473   3.988   0.407   0.938 -0.6243 -0.4505 -1.2539
  778MPD2     C11474   0.914   0.035  15.243  0.3279 -0.9615  0.1339
  778MPD2    C111475   0.821   4.727  15.157  0.3026  0.8619  0.3462
  778MPD2    C211476   0.818   0.054  15.031 -0.4572 -0.6133  0.4503
  778MPD2    C311477   0.917   0.146  14.995  0.5115 -0.0351 -0.4674
  778MPD2    C411478   1.015   0.181  15.090 -0.8144 -0.1602 -0.6533
  778MPD2    C511479   1.008   0.128  15.215 -0.2579 -0.7531  0.1818
  778MPD2     H11480   0.738   0.016  14.968 -1.0543  2.1835 -0.4845
  778MPD2    H111481   1.099   0.248  15.079 -0.3602 -0.6073  0.1480
  778MPD2    H211482   0.923   4.703  15.333 -0.8539  0.8736  1.4498
  778MPD2    H311483   1.090   0.147  15.283 -0.3902  1.7714 -0.3639
  778MPD2     N11484   0.923   0.192  14.866  0.0567  0.2203 -0.2446
  778MPD2    H511485   0.846   0.162  14.808 -0.9441 -0.3156  1.3645
  778MPD2    N111486   0.719   4.630  15.178  0.5515 -0.6002  0.6414
  778MPD2    H711487   0.644   4.631  15.110  1.5180 -0.0066 -0.4046
  779MPD2     C11488   4.581   3.532  14.182  0.0678 -0.2190 -0.4177
  779MPD2    C111489   4.707   3.534  14.250  0.2864  0.4439  0.7427
  779MPD2    C211490   0.059   3.654  14.252 -0.0687  0.7948 -0.2767
  779MPD2    C311491   0.001   3.770  14.202  0.7255 -0.3329  0.9234
  779MPD2    C411492   4.607   3.767  14.139 -0.2280 -0.2935 -0.6904
  779MPD2    C511493   4.536   3.650  14.133 -0.4050  0.1892  0.1538
  779MPD2     H11494   0.162   3.647  14.284 -0.4535  0.3082  0.8532
  779MPD2    H111495   4.567   3.852  14.085 -0.9515  0.9038  1.7262
  779MPD2    H211496   4.507   3.453  14.174  1.5573 -1.4219 -2.1714
  779MPD2    H311497   4.436   3.661  14.094 -0.3226  0.3374 -0.0147
  779MPD2     N11498   0.073   3.895  14.210 -0.1954  0.4871 -0.5399
  779MPD2    H511499   0.155   3.891  14.271  0.5207  1.6089 -1.4301
  779MPD2    N111500   0.021   3.410  14.294 -0.1671  0.0637  0.3726
  779MPD2    H711501   4.691   3.331  14.262  1.6848 -0.3497 -1.8274
  780MPD2     C11502   0.267   3.659   1.205 -0.4094 -0.7946 -0.0506
  780MPD2    C111503   0.273   3.546   1.124 -0.6190 -1.1372  0.5345
  780MPD2    C211504   0.299   3.566   0.990  0.8728  0.0080  0.5051
  780MPD2    C311505   0.337   3.695   0.940 -0.8323  0.0350  0.0995
  780MPD2    C411506   0.345   3.801   1.032 -0.0594  0.8918 -0.1332
  780MPD2    C511507   0.299   3.784   1.161 -0.3165  0.2531  0.1714
  780MPD2     H11508   0.307   3.479   0.926  0.3988 -1.0293  1.8405
  780MPD2    H111509   0.359   3.902   0.994  0.9751  0.9593  0.4176
  780MPD2    H211510   0.243   3.646   1.310 -1.9733  0.2063 -0.2725
  780MPD2    H311511   0.296   3.870   1.226 -3.2896  0.2555  0.0575
  780MPD2     N11512   0.359   3.721   0.804 -0.0273  0.1246 -0.8405
  780MPD2    H511513   0.365   3.821   0.786 -0.0490 -0.0694 -1.9258
  780MPD2    N111514   0.254   3.419   1.189 -0.3975  0.2642 -0.7924
  780MPD2    H711515   0.254   3.425   1.290  1.3548 -0.6129 -0.7485
  781MPD2     C11516   1.577   0.811  11.873  0.0392 -0.2307  0.4282
  781MPD2    C111517   1.687   0.801  11.952  0.2286 -0.1897 -0.1037
  781MPD2    C211518   1.812   0.792  11.899  0.2884 -0.3633  0.3514
  781MPD2    C311519   1.827   0.793  11.760  0.4005  0.5669  1.5354
  781MPD2    C411520   1.717   0.791  11.675 -0.1762  0.1143  0.2579
  781MPD2    C511521   1.597   0.812  11.733  0.6624 -0.3850  0.2721
  781MPD2     H11522   1.898   0.779  11.963  0.5708 -1.2635 -0.2090
  781MPD2    H111523   1.725   0.773  11.568  1.4499  0.9415  0.2430
  781MPD2    H211524   1.473   0.819  11.902 -0.2647 -1.0378 -0.4344
  781MPD2    H311525   1.506   0.826  11.676  1.1887 -0.3364 -0.5651
  781MPD2     N11526   1.952   0.779  11.695  0.5921  0.2769 -0.4511
  781MPD2    H511527   1.939   0.757  11.597 -0.3124 -0.7310 -0.1083
  781MPD2    N111528   1.680   0.791  12.098 -0.1119  0.1923  0.3206
  781MPD2    H711529   1.762   0.818  12.152  0.0650  0.4836 -0.0888
  782MPD2     C11530   0.129   1.554   9.832  0.1978  0.7359  0.0117
  782MPD2    C111531   0.232   1.491   9.888 -0.6934  0.6426 -0.1976
  782MPD2    C211532   0.313   1.558   9.976  0.0085  0.3673  0.1700
  782MPD2    C311533   0.285   1.683  10.027 -0.4206  0.0270  0.2852
  782MPD2    C411534   0.192   1.756   9.956  0.2784  0.6374  0.0270
  782MPD2    C511535   0.114   1.690   9.860 -0.4898  0.1092 -0.6087
  782MPD2     H11536   0.391   1.494  10.016  1.4922  3.0114  1.4784
  782MPD2    H111537   0.176   1.861   9.975  0.3778  0.3177  1.8196
  782MPD2    H211538   0.057   1.512   9.763  0.3502  2.3297 -1.0957
  782MPD2    H311539   0.043   1.755   9.810  0.8105  0.0767 -2.4903
  782MPD2     N11540   0.368   1.742  10.122 -0.4379  0.1829 -0.2049
  782MPD2    H511541   0.456   1.693  10.135 -1.8648 -2.4177 -0.1826
  782MPD2    N111542   0.244   1.349   9.882 -0.5048  0.2312 -0.0770
  782MPD2    H711543   0.328   1.303   9.914 -1.0910  1.2006  2.8110
  783MPD2     C11544   4.169   0.911  10.397 -0.0950 -0.2286  0.1942
  783MPD2    C111545   4.230   1.023  10.449 -0.0012  0.7875  0.4084
  783MPD2    C211546   4.361   1.059  10.407  0.1208 -0.0620  0.2048
  783MPD2    C311547   4.419   0.996  10.300 -0.6436 -0.8054 -0.7381
  783MPD2    C411548   4.347   0.894  10.243 -0.3216 -0.2401  1.0924
  783MPD2    C511549   4.230   0.851  10.292 -0.5599 -0.4020  0.2746
  783MPD2     H11550   4.421   1.141  10.446  0.7568  0.0176 -0.9483
  783MPD2    H111551   4.382   0.847  10.152 -3.1521 -1.4485  0.6255
  783MPD2    H211552   4.075   0.872  10.435 -0.1609  1.5670  1.8485
  783MPD2    H311553   4.187   0.769  10.234 -0.2497 -0.2538 -0.1667
  783MPD2     N11554   4.544   1.035  10.249  0.5127  0.0418 -0.2458
  783MPD2    H511555   4.597   1.103  10.302  0.9180  0.2840 -0.9574
  783MPD2    N111556   4.161   1.094  10.547 -0.0167  0.0117 -0.4049
  783MPD2    H711557   4.077   1.056  10.590 -0.0006  1.1107  0.6078
  784MPD2     C11558   2.353   2.028   0.382 -0.0809  0.3074  0.5468
  784MPD2    C111559   2.233   2.005   0.452 -0.2454  0.8968  0.7275
  784MPD2    C211560   2.110   2.002   0.380  1.4873  0.1340  0.1447
  784MPD2    C311561   2.100   2.038   0.252  0.3095  0.8833  0.1840
  784MPD2    C411562   2.217   2.053   0.180 -0.3475  0.1765 -0.0905
  784MPD2    C511563   2.336   2.046   0.245  0.0120 -0.6117  0.3116
  784MPD2     H11564   2.012   1.994   0.425  0.4586 -2.0941 -2.4510
  784MPD2    H111565   2.220   2.095   0.080  1.1861  1.5771  0.5316
  784MPD2    H211566   2.449   2.026   0.432 -0.6173 -0.8351  1.5193
  784MPD2    H311567   2.424   2.069   0.185  0.7926  0.0813  1.7043
  784MPD2     N11568   1.968   2.023   0.195 -0.0798  0.1309 -0.9330
  784MPD2    H511569   1.896   1.973   0.245  0.9288 -1.7254 -1.3561
  784MPD2    N111570   2.221   1.977   0.595  0.4241 -0.1823  0.2637
  784MPD2    H711571   2.130   1.954   0.636 -0.6756  0.1887 -1.9678
  785MPD2     C11572   2.285   4.471  10.221 -0.3294 -0.0964 -0.0769
  785MPD2    C111573   2.215   4.584  10.243 -0.3838  0.6085 -0.2402
  785MPD2    C211574   2.088   4.592  10.193 -0.5396  0.3792  0.2251
  785MPD2    C311575   2.033   4.489  10.121  0.1555  0.3558  0.1421
  785MPD2    C411576   2.104   4.375  10.095  0.0901 -0.0047  0.4504
  785MPD2    C511577   2.232   4.369  10.147  0.1468 -0.1015 -0.5711
  785MPD2     H11578   2.027   4.680  10.207  1.9313  2.5323 -2.2576
  785MPD2    H111579   2.060   4.290  10.044  0.3291  1.6298 -2.4619
  785MPD2    H211580   2.385   4.461  10.262 -0.5213  0.7223  0.5971
  785MPD2    H311581   2.298   4.283  10.139 -0.4540 -0.6304  0.1927
  785MPD2     N11582   1.902   4.517  10.079  0.4199 -0.0075 -0.6152
  785MPD2    H511583   1.864   4.607  10.107 -3.1552 -1.9738  0.8279
  785MPD2    N111584   2.283   4.695  10.306 -0.0559  0.3939  0.4978
  785MPD2    H711585   2.380   4.682  10.336 -0.6053  0.6450  2.4096
  786MPD2     C11586   0.765   2.770  15.035  0.0454  0.3780 -0.4273
  786MPD2    C111587   0.889   2.768  14.979 -0.1752 -0.4903 -0.4118
  786MPD2    C211588   0.993   2.811  15.060 -0.4181 -0.0856  0.1086
  786MPD2    C311589   0.974   2.866  15.189 -0.2452  0.4039  0.3508
  786MPD2    C411590   0.848   2.876  15.232  0.6031  0.1654  0.3856
  786MPD2    C511591   0.740   2.825  15.158 -0.4074  0.1759 -0.2428
  786MPD2     H11592   1.091   2.807  15.014 -1.3666 -0.6188 -1.8691
  786MPD2    H111593   0.815   2.906  15.330 -1.6963 -0.7134 -0.1022
  786MPD2    H211594   0.681   2.736  14.975 -2.5729  3.7663  1.3247
  786MPD2    H311595   0.638   2.824  15.194 -0.4080 -2.2185 -0.2835
  786MPD2     N11596   1.082   2.919  15.265  0.6136  0.0905  0.3281
  786MPD2    H511597   1.059   2.928  15.363  1.6890  2.1980  0.3666
  786MPD2    N111598   0.922   2.720  14.852 -0.6688  0.0330 -0.3631
  786MPD2    H711599   1.021   2.713  14.831 -0.2056  2.6563  0.8976
  787MPD2     C11600   1.296   2.235  14.964 -0.1056  0.0515 -0.1693
  787MPD2    C111601   1.291   2.240  14.827 -0.2303 -0.7899  0.1256
  787MPD2    C211602   1.378   2.158  14.753 -0.2925  0.7273 -0.7893
  787MPD2    C311603   1.457   2.057  14.812  0.4775 -0.0937 -0.4964
  787MPD2    C411604   1.458   2.055  14.945  0.1394 -0.1486  0.4780
  787MPD2    C511605   1.379   2.143  15.020 -0.8268  0.1739  0.2654
  787MPD2     H11606   1.394   2.181  14.649  0.0688  2.2205 -0.4009
  787MPD2    H111607   1.519   1.980  14.993 -0.7026 -2.0970 -1.4594
  787MPD2    H211608   1.236   2.300  15.026 -0.1308 -0.3355  0.2069
  787MPD2    H311609   1.381   2.125  15.127 -2.8755  2.3548  0.6703
  787MPD2     N11610   1.527   1.966  14.727  0.4694 -0.0171 -0.3714
  787MPD2    H511611   1.545   1.989  14.630 -2.1062  0.5969 -0.6983
  787MPD2    N111612   1.201   2.326  14.767  0.2123  1.1472  0.2865
  787MPD2    H711613   1.167   2.397  14.831  1.3888  0.6813  1.4391
  788MPD2     C11614   2.318   0.780   1.070 -0.9161 -0.1246  0.5867
  788MPD2    C111615   2.429   0.730   1.012 -0.0428  0.0773  0.3796
  788MPD2    C211616   2.493   0.822   0.924  0.2559 -0.3552 -0.7973
  788MPD2    C311617   2.438   0.941   0.883 -0.2462  0.7950  0.3742
  788MPD2    C411618   2.316   0.977   0.935  0.0911 -0.1190  0.2041
  788MPD2    C511619   2.259   0.899   1.035 -0.2374 -0.3406  0.7034
  788MPD2     H11620   2.590   0.785   0.892  0.1509 -0.2537 -1.2368
  788MPD2    H111621   2.253   1.061   0.906 -1.4801 -0.7325  1.8361
  788MPD2    H211622   2.263   0.730   1.149 -0.3510 -1.7387 -0.0575
  788MPD2    H311623   2.166   0.925   1.085  0.2081 -1.9082  2.3245
  788MPD2     N11624   2.496   1.033   0.792  0.4458 -0.0131 -0.8288
  788MPD2    H511625   2.457   1.124   0.769  1.4138  0.2116 -1.5857
  788MPD2    N111626   2.490   0.602   1.031  0.4487  0.0414 -0.1022
  788MPD2    H711627   2.583   0.598   0.991  0.2941  0.8217 -0.5300
  789MPD2     C11628   3.080   1.199  16.085 -0.2729  0.0288 -0.7463
  789MPD2    C111629   3.081   1.149  16.211  0.4082 -0.6159 -0.4316
  789MPD2    C211630   2.980   1.181  16.301 -1.3676  0.9532  0.1686
  789MPD2    C311631   2.878   1.274  16.276 -0.0454 -0.7430 -0.3163
  789MPD2    C411632   2.891   1.338  16.150  0.0688 -0.1040  0.6951
  789MPD2    C511633   2.986   1.295  16.061 -0.6032  0.1592  0.0216
  789MPD2     H11634   2.973   1.131  16.397 -1.1838  0.6173  0.0064
  789MPD2    H111635   2.826   1.412  16.106  1.7258  1.4506  0.8949
  789MPD2    H211636   3.135   1.163  15.999 -1.2790  0.9254 -1.7608
  789MPD2    H311637   2.980   1.345  15.966  1.0713  1.0549  0.3866
  789MPD2     N11638   2.770   1.312  16.365 -0.5219 -0.1128  0.1147
  789MPD2    H511639   2.709   1.382  16.323 -0.0497 -0.4676 -1.1449
  789MPD2    N111640   3.160   1.037  16.249 -0.2402  0.4036  0.6588
  789MPD2    H711641   3.149   0.998  16.342 -1.4929 -1.5730 -0.3118
  790MPD2     C11642   3.891   2.377  13.716 -0.2308 -0.3466 -0.5303
  790MPD2    C111643   4.005   2.331  13.661 -0.0423  0.2645  0.6337
  790MPD2    C211644   4.027   2.362  13.529 -0.3708 -0.1847 -0.6694
  790MPD2    C311645   3.933   2.436  13.452  0.6773 -0.5453  0.1389
  790MPD2    C411646   3.820   2.479  13.517 -0.0848  0.0380  0.4151
  790MPD2    C511647   3.794   2.442  13.645  0.3909  0.6344 -0.2863
  790MPD2     H11648   4.111   2.315  13.479  0.6741 -1.0404  1.9098
  790MPD2    H111649   3.742   2.541  13.475 -0.6773 -1.0797 -0.1262
  790MPD2    H211650   3.870   2.350  13.818 -0.4825  1.3469 -0.1383
  790MPD2    H311651   3.708   2.482  13.697 -0.0259 -0.2469 -0.3029
  790MPD2     N11652   3.952   2.447  13.309  0.1744  0.2108 -0.2573
  790MPD2    H511653   4.035   2.405  13.267 -0.0465 -0.8067  0.3247
  790MPD2    N111654   4.092   2.267  13.746  0.2929  0.2231  0.1602
  790MPD2    H711655   4.069   2.277  13.844  2.6035 -1.4982  0.8738
  791MPD2     C11656   3.429   2.651  12.796  0.1103 -0.7143 -0.0916
  791MPD2    C111657   3.489   2.541  12.746  0.1570  0.4691  0.3007
  791MPD2    C211658   3.424   2.453  12.662 -0.0345 -0.3576  0.0206
  791MPD2    C311659   3.300   2.491  12.614  1.2311 -0.4451 -0.5711
  791MPD2    C411660   3.241   2.605  12.660 -0.6353 -0.0944 -0.0611
  791MPD2    C511661   3.306   2.684  12.755 -0.2630  0.3455  0.1460
  791MPD2     H11662   3.464   2.361  12.621 -0.6094  0.0952 -1.5848
  791MPD2    H111663   3.142   2.642  12.636 -0.0173  1.7370  0.2685
  791MPD2    H211664   3.468   2.716  12.875 -0.1949  0.7242 -1.1212
  791MPD2    H311665   3.266   2.775  12.799 -0.5238  1.6430 -2.7961
  791MPD2     N11666   3.229   2.399  12.536  0.1044  0.3053 -0.0625
  791MPD2    H511667   3.280   2.325  12.489  1.9784  0.1454  2.2434
  791MPD2    N111668   3.612   2.505  12.805 -0.0418 -0.8294  0.3633
  791MPD2    H711669   3.668   2.575  12.852 -1.7798  1.0176 -0.2934
  792MPD2     C11670   0.214   2.144  11.026  0.3265  0.5015 -0.0350
  792MPD2    C111671   0.082   2.164  11.038  0.2090  0.0591 -0.2613
  792MPD2    C211672   0.002   2.069  10.973 -0.1015  0.1563  0.2810
  792MPD2    C311673   0.052   1.969  10.894 -0.8235  0.3340 -0.0526
  792MPD2    C411674   0.182   1.956  10.879 -0.1478 -0.6296  0.4963
  792MPD2    C511675   0.261   2.034  10.956  0.3895  0.0455 -0.2700
  792MPD2     H11676   4.621   2.077  10.971 -0.1337 -1.0902 -2.8686
  792MPD2    H111677   0.222   1.871  10.827 -0.8830 -0.6130 -0.0978
  792MPD2    H211678   0.276   2.219  11.075  0.8384 -1.9023  2.9896
  792MPD2    H311679   0.367   2.015  10.962  0.4613  0.2905 -0.7942
  792MPD2     N11680   4.696   1.886  10.815  0.0308  0.5823 -0.0397
  792MPD2    H511681   0.018   1.810  10.768  1.7547 -0.4220  3.3202
  792MPD2    N111682   0.038   2.274  11.120 -0.0247 -0.4298  0.2898
  792MPD2    H711683   0.112   2.334  11.153 -0.7427  2.0546 -2.6289
  793MPD2     C11684   3.964   1.956  10.203 -0.3830 -0.3948  0.8500
  793MPD2    C111685   4.098   1.937  10.176 -0.0223 -0.8047 -0.3410
  793MPD2    C211686   4.172   1.879  10.269  0.4490 -0.4685 -0.0099
  793MPD2    C311687   4.128   1.838  10.392  0.3576 -0.5185  0.6627
  793MPD2    C411688   3.987   1.853  10.416 -0.1448 -1.1395  0.0274
  793MPD2    C511689   3.912   1.917  10.321 -0.1432  0.6496  0.1188
  793MPD2     H11690   4.278   1.868  10.247  0.6277  1.6763 -0.2338
  793MPD2    H111691   3.934   1.809  10.500  0.4193 -0.5924  0.6644
  793MPD2    H211692   3.894   2.009  10.139  0.3069  1.7232  1.8589
  793MPD2    H311693   3.811   1.945  10.347 -0.0841  1.2899 -0.3542
  793MPD2     N11694   4.222   1.792  10.488  0.0218  0.7468 -0.4713
  793MPD2    H511695   4.317   1.776  10.456  0.8048  1.4036  1.4979
  793MPD2    N111696   4.157   1.981  10.059  0.1766  0.3290 -0.1533
  793MPD2    H711697   4.253   1.947  10.054  0.2211  0.4746 -0.2733
  794MPD2     C11698   4.144   1.757  17.100 -0.1925  0.3635  1.1537
  794MPD2    C111699   4.031   1.671  17.128 -0.3126 -0.5461 -0.5700
  794MPD2    C211700   3.935   1.657  17.029 -0.0168 -0.2491 -1.2742
  794MPD2    C311701   3.951   1.719  16.904  0.0550 -0.3783  0.9922
  794MPD2    C411702   4.067   1.787  16.878 -0.4044  0.6765  0.4427
  794MPD2    C511703   4.161   1.807  16.976 -0.1841 -0.4040 -0.3033
  794MPD2     H11704   3.846   1.599  17.050  0.5459  0.8501  4.2487
  794MPD2    H111705   4.086   1.829  16.780 -3.0627 -0.9911 -0.7732
  794MPD2    H211706   4.220   1.787  17.171  0.6892 -0.0579  0.3909
  794MPD2    H311707   4.250   1.866  16.958  0.1672 -0.6693  0.5832
  794MPD2     N11708   3.847   1.728  16.815  0.0598 -0.0043 -0.5730
  794MPD2    H511709   3.865   1.795  16.741  1.7972  1.5534  1.2679
  794MPD2    N111710   4.014   1.610  17.250  0.1554  0.1093 -0.9751
  794MPD2    H711711   3.936   1.545  17.255  1.6077 -1.7675 -2.5470
  795MPD2     C11712   2.077   3.911  12.818  0.5950  0.2177  0.3763
  795MPD2    C111713   2.029   3.823  12.911  0.0737 -0.3129  0.8554
  795MPD2    C211714   2.105   3.785  13.017 -0.6513  0.0469 -0.1278
  795MPD2    C311715   2.231   3.832  13.026 -0.2878  0.2592  0.9822
  795MPD2    C411716   2.270   3.932  12.946 -0.5774 -0.7828 -0.0842
  795MPD2    C511717   2.194   3.970  12.848  0.0735  0.7132  0.0088
  795MPD2     H11718   2.073   3.703  13.080  0.6197  0.3713  0.9380
  795MPD2    H111719   2.365   3.983  12.959 -1.0716  0.4456 -1.2146
  795MPD2    H211720   2.028   3.936  12.724 -0.2657  1.2635  1.0973
  795MPD2    H311721   2.233   4.048  12.785 -2.5465  1.2482 -0.9527
  795MPD2     N11722   2.323   3.786  13.122 -0.3626 -0.1385  0.1265
  795MPD2    H511723   2.417   3.823  13.116 -0.5850  0.3810 -0.1603
  795MPD2    N111724   1.911   3.750  12.884  0.1864  0.6552 -0.0296
  795MPD2    H711725   1.876   3.695  12.962 -1.1419  1.7726  0.1602
  796MPD2     C11726   1.314   0.819  15.783  0.2690  0.2729 -0.1617
  796MPD2    C111727   1.408   0.913  15.824  0.9476 -0.0172  0.4258
  796MPD2    C211728   1.391   1.048  15.781 -0.0832  0.1269  0.4025
  796MPD2    C311729   1.287   1.081  15.696 -0.0477 -0.0700 -1.0858
  796MPD2    C411730   1.196   0.983  15.654 -0.4636 -0.5511  0.5607
  796MPD2    C511731   1.218   0.860  15.693 -0.0606  0.4523 -0.3435
  796MPD2     H11732   1.463   1.124  15.809  0.1537 -0.2215  0.7359
  796MPD2    H111733   1.119   0.996  15.580 -0.1212  1.4556  0.5509
  796MPD2    H211734   1.313   0.716  15.816  0.2383 -0.6662 -3.1754
  796MPD2    H311735   1.152   0.783  15.656  0.3609  0.4228 -1.0230
  796MPD2     N11736   1.273   1.214  15.654 -0.1520 -0.0107  0.3167
  796MPD2    H511737   1.347   1.278  15.681 -0.0893 -0.0006  0.1201
  796MPD2    N111738   1.497   0.872  15.924 -0.0505 -0.5855  0.1435
  796MPD2    H711739   1.493   0.775  15.953 -0.3650 -0.4043  0.7141
  797MPD2     C11740   2.060   0.652  17.289 -0.5764 -0.0601  0.0958
  797MPD2    C111741   2.149   0.735  17.354 -0.8973  0.1320 -0.2145
  797MPD2    C211742   2.205   0.839  17.286 -0.1506  1.0275 -1.0104
  797MPD2    C311743   2.162   0.876  17.156 -0.2918 -0.6647  0.2267
  797MPD2    C411744   2.067   0.799  17.098  0.0863 -0.1705 -0.5167
  797MPD2    C511745   2.013   0.690  17.167 -0.1665  0.5535 -0.2151
  797MPD2     H11746   2.278   0.897  17.343  0.2145 -2.0205  1.6325
  797MPD2    H111747   2.035   0.828  16.998 -2.4515 -0.1545  0.3155
  797MPD2    H211748   2.019   0.560  17.328  1.3977 -0.8416  0.3252
  797MPD2    H311749   1.946   0.626  17.112  0.0950  0.8811 -0.9115
  797MPD2     N11750   2.236   0.980  17.089 -0.6194 -0.8583  0.2895
  797MPD2    H511751   2.199   1.000  16.996 -0.5029  1.0177  0.6528
  797MPD2    N111752   2.200   0.704  17.487  0.0955 -0.4373 -0.6186
  797MPD2    H711753   2.262   0.770  17.531 -2.4314  1.8671 -0.5012
  798MPD2     C11754   2.874   0.785  17.223  0.1223  0.7752  1.0810
  798MPD2    C111755   2.771   0.867  17.257  0.2019  0.0526 -0.3253
  798MPD2    C211756   2.714   0.858  17.385 -0.7312 -0.0678 -0.0968
  798MPD2    C311757   2.739   0.745  17.465  0.4283 -0.0194 -0.2969
  798MPD2    C411758   2.844   0.663  17.422 -0.1001 -0.5391  0.0482
  798MPD2    C511759   2.911   0.687  17.304 -0.2753  1.1115  0.5184
  798MPD2     H11760   2.639   0.928  17.420 -0.0177  0.3556  0.5694
  798MPD2    H111761   2.864   0.583  17.493 -0.1001 -1.2570 -0.7648
  798MPD2    H211762   2.928   0.802  17.131 -0.5032  1.3665  0.8256
  798MPD2    H311763   3.003   0.634  17.287 -0.4452  1.1794 -0.5836
  798MPD2     N11764   2.653   0.723  17.577 -0.0913  0.2259 -0.0105
  798MPD2    H511765   2.588   0.799  17.596  0.8671  0.3040  2.9219
  798MPD2    N111766   2.723   0.977  17.181 -0.6012 -0.1767 -0.3693
  798MPD2    H711767   2.637   1.013  17.221 -1.3813 -0.6124 -1.6464
  799MPD2     C11768   1.242   1.718  14.672  0.6185  0.3144 -0.0632
  799MPD2    C111769   1.213   1.657  14.552 -0.4089  0.3373 -0.7373
  799MPD2    C211770   1.125   1.723  14.463 -0.3059 -0.1188 -0.2677
  799MPD2    C311771   1.081   1.856  14.493  0.1820 -1.2143  0.3337
  799MPD2    C411772   1.134   1.916  14.608  0.2037 -0.5002 -0.3487
  799MPD2    C511773   1.209   1.846  14.695 -0.1945  0.2859  0.8695
  799MPD2     H11774   1.096   1.673  14.371 -1.0401  0.1969 -0.2037
  799MPD2    H111775   1.105   2.017  14.635  0.6729 -1.0084  2.1341
  799MPD2    H211776   1.303   1.673  14.749  0.2369 -1.4517 -0.7873
  799MPD2    H311777   1.248   1.889  14.786 -1.9807  0.0536  1.7416
  799MPD2     N11778   1.010   1.934  14.403  0.7140  0.4075 -0.3647
  799MPD2    H511779   0.989   2.027  14.438  0.2122  0.7327 -1.5274
  799MPD2    N111780   1.258   1.523  14.514 -0.4516 -0.2267 -0.0094
  799MPD2    H711781   1.244   1.500  14.417  2.5376  0.1997 -0.5593
  800MPD2     C11782   1.973   3.117  14.767 -0.5979  0.0412 -0.1316
  800MPD2    C111783   2.089   3.181  14.723 -0.5226  0.1781  0.7425
  800MPD2    C211784   2.128   3.156  14.591  0.1663 -0.7746 -0.0324
  800MPD2    C311785   2.043   3.082  14.506 -0.1115 -1.0406 -0.0780
  800MPD2    C411786   1.923   3.036  14.546  0.0361  0.5040  0.2924
  800MPD2    C511787   1.887   3.055  14.680  0.5833 -0.2525  0.2151
  800MPD2     H11788   2.217   3.198  14.545 -0.8699 -2.2062 -3.3775
  800MPD2    H111789   1.857   2.972  14.489  1.6237 -1.3156  0.5001
  800MPD2    H211790   1.947   3.114  14.872  1.1343 -0.4054  0.2821
  800MPD2    H311791   1.802   2.992  14.702 -0.7539  1.5779  0.3249
  800MPD2     N11792   2.099   3.058  14.372  0.6858 -0.0702 -0.2800
  800MPD2    H511793   2.189   3.102  14.358  0.2542  1.2134  0.9321
  800MPD2    N111794   2.165   3.253  14.817  0.2346 -0.0029  0.0551
  800MPD2    H711795   2.127   3.269  14.910 -0.6805  0.3290 -0.3719
  801MPD2     C11796   2.033   3.893  14.696 -0.0044  0.1085  0.7219
  801MPD2    C111797   2.020   3.761  14.720  0.3879  0.3119 -0.6248
  801MPD2    C211798   1.934   3.691  14.632  0.5688  0.3231  0.5214
  801MPD2    C311799   1.852   3.750  14.543 -0.3545 -0.3508 -0.6738
  801MPD2    C411800   1.872   3.886  14.516 -0.3975  0.4504  0.1162
  801MPD2    C511801   1.964   3.951  14.596 -0.3596  0.3103  0.1083
  801MPD2     H11802   1.913   3.588  14.657  0.2212  0.3153  0.1901
  801MPD2    H111803   1.812   3.951  14.453 -1.4870 -0.2175  0.4684
  801MPD2    H211804   2.080   3.955  14.772  1.6320  0.2800 -0.4358
  801MPD2    H311805   1.981   4.056  14.576  0.4108  0.4442  1.4561
  801MPD2     N11806   1.743   3.694  14.470 -0.7383  0.1911 -0.3378
  801MPD2    H511807   1.695   3.758  14.407  0.3897  0.7761 -0.5905
  801MPD2    N111808   2.084   3.685  14.823  0.2385  0.4089 -0.0885
  801MPD2    H711809   2.049   3.591  14.838 -1.2498  1.1234  0.8520
  802MPD2     C11810   0.725   4.217  17.321 -0.2345  0.2416 -0.2250
  802MPD2    C111811   0.798   4.201  17.438 -0.6056  0.3189 -0.3301
  802MPD2    C211812   0.849   4.078  17.468 -0.0523 -0.1925 -0.1994
  802MPD2    C311813   0.844   3.972  17.380  0.1952  0.1472  0.0922
  802MPD2    C411814   0.768   3.990  17.265  0.4448  0.2240  0.5013
  802MPD2    C511815   0.716   4.116  17.231  0.7200 -1.0363  0.2496
  802MPD2     H11816   0.911   4.073  17.557 -0.6258 -2.0383  0.0880
  802MPD2    H111817   0.754   3.908  17.194  1.6709 -0.9379  1.6016
  802MPD2    H211818   0.679   4.309  17.289 -0.1802  0.3848  0.1108
  802MPD2    H311819   0.661   4.128  17.138  1.5962  0.9305 -0.0080
  802MPD2     N11820   0.919   3.852  17.405 -0.3371 -0.6488 -0.0049
  802MPD2    H511821   0.994   3.855  17.473 -1.6457  1.9882  1.2949
  802MPD2    N111822   0.819   4.299  17.535  0.3591 -0.5969 -0.4366
  802MPD2    H711823   0.870   4.275  17.619  0.1391 -2.3454 -0.7979
  803MPD2     C11824   2.183   2.430  11.714  0.2349  0.6117  0.1053
  803MPD2    C111825   2.224   2.477  11.834  0.1172 -0.3142  0.4914
  803MPD2    C211826   2.142   2.463  11.944  0.5602 -0.7846  0.2727
  803MPD2    C311827   2.010   2.408  11.931 -0.6067  0.0157 -0.0020
  803MPD2    C411828   1.964   2.378  11.806 -0.5455  0.0152 -0.7759
  803MPD2    C511829   2.053   2.395  11.694 -0.0965 -0.0651 -0.2071
  803MPD2     H11830   2.187   2.490  12.039 -0.1634  1.3794  0.0029
  803MPD2    H111831   1.868   2.331  11.794  0.3547 -1.5244 -2.0156
  803MPD2    H211832   2.240   2.430  11.622 -1.9307  0.8144 -1.2317
  803MPD2    H311833   2.031   2.369  11.591 -1.0329  1.7435 -0.4702
  803MPD2     N11834   1.932   2.372  12.044  0.1168  0.0245  0.0409
  803MPD2    H511835   1.850   2.318  12.022  1.0989 -1.5946  0.3340
  803MPD2    N111836   2.349   2.537  11.850  0.7022  0.5175 -0.1474
  803MPD2    H711837   2.372   2.569  11.943 -2.5154 -3.5554  2.0164
  804MPD2     C11838   1.780   4.075  16.884 -0.5336  0.4554  0.5267
  804MPD2    C111839   1.790   3.993  16.998 -0.9548 -0.5452  0.1087
  804MPD2    C211840   1.853   4.037  17.115  0.3894  0.1509  0.0818
  804MPD2    C311841   1.897   4.165  17.124 -0.7242  0.3312  0.0433
  804MPD2    C411842   1.878   4.247  17.013  0.4788 -0.4940  0.0181
  804MPD2    C511843   1.814   4.209  16.899  0.2832  0.2686 -0.0105
  804MPD2     H11844   1.875   3.978  17.203 -0.0368 -1.0868 -0.6337
  804MPD2    H111845   1.904   4.351  17.026 -1.8601 -0.0849  1.4643
  804MPD2    H211846   1.739   4.041  16.790  1.3229 -1.6918  0.4830
  804MPD2    H311847   1.802   4.272  16.811  0.8066 -1.5955 -1.4164
  804MPD2     N11848   1.960   4.194  17.249 -0.2866 -0.0488 -0.6263
  804MPD2    H511849   1.966   4.118  17.317 -2.1945  0.8132  0.4951
  804MPD2    N111850   1.740   3.860  17.008 -0.5481  0.8316  0.0982
  804MPD2    H711851   1.739   3.826  17.104 -0.9843 -2.0109 -0.9028
  805MPD2     C11852   0.936   1.613  15.258  0.1547  0.0191  0.6214
  805MPD2    C111853   0.856   1.719  15.248  0.0142  0.0571 -0.2642
  805MPD2    C211854   0.892   1.836  15.305  0.0500 -0.5105  0.5455
  805MPD2    C311855   1.012   1.854  15.375 -0.5179 -0.1625  0.7939
  805MPD2    C411856   1.094   1.742  15.378  0.3613 -0.5457 -0.3939
  805MPD2    C511857   1.059   1.623  15.319 -0.0871  0.0595 -0.0601
  805MPD2     H11858   0.830   1.925  15.301  1.1087  0.2889  2.1024
  805MPD2    H111859   1.183   1.748  15.440 -1.1344 -1.6819  1.8518
  805MPD2    H211860   0.918   1.516  15.214  2.9857  0.5309 -1.6178
  805MPD2    H311861   1.121   1.535  15.329  1.7961  1.4906  0.8698
  805MPD2     N11862   1.041   1.974  15.437 -0.5353  0.6023 -0.0118
  805MPD2    H511863   0.979   2.052  15.419 -2.0418 -0.7021 -0.4218
  805MPD2    N111864   0.737   1.724  15.173 -0.5193  0.5351 -0.1829
  805MPD2    H711865   0.696   1.816  15.158 -0.4402  0.8930  1.7132
  806MPD2     C11866   1.002   1.076   0.301  0.0033  0.5685  0.1084
  806MPD2    C111867   1.071   1.032   0.407  0.4072  0.2364  0.3678
  806MPD2    C211868   1.208   1.037   0.395 -0.5856 -0.2931 -0.4821
  806MPD2    C311869   1.264   1.048   0.268 -0.2307 -0.2868 -0.4938
  806MPD2    C411870   1.192   1.082   0.155  0.6502  0.7390 -0.0333
  806MPD2    C511871   1.056   1.100   0.175  0.1274 -0.3484  0.5329
  806MPD2     H11872   1.278   1.030   0.477 -0.4790  0.1492 -0.5349
  806MPD2    H111873   1.235   1.104   0.058 -1.0347  1.1107 -0.6879
  806MPD2    H211874   0.897   1.102   0.308 -0.2664 -0.4420 -0.2203
  806MPD2    H311875   0.996   1.133   0.092  1.6115  0.3018 -0.2933
  806MPD2     N11876   1.401   1.052   0.257  0.1044 -0.7651 -0.1465
  806MPD2    H511877   1.450   1.051   0.346 -1.2187  0.9346  0.6027
  806MPD2    N111878   1.009   1.040   0.535 -0.4879 -0.1502  0.3361
  806MPD2    H711879   0.910   1.063   0.533 -0.8152 -1.4412  1.5176
  807MPD2     C11880   0.591   0.692   1.163  0.2578 -0.0915  0.2492
  807MPD2    C111881   0.719   0.717   1.199 -0.5758 -0.1267 -0.0753
  807MPD2    C211882   0.766   0.661   1.316 -0.4282  0.1691 -0.2460
  807MPD2    C311883   0.679   0.596   1.403  0.2993 -0.5881 -0.2658
  807MPD2    C411884   0.554   0.578   1.363  0.6988 -0.6383  0.7240
  807MPD2    C511885   0.508   0.623   1.246  0.2936  0.7682 -0.2541
  807MPD2     H11886   0.870   0.667   1.346 -0.4896 -1.8017  0.3825
  807MPD2    H111887   0.486   0.526   1.429 -2.8052  0.0820 -2.2612
  807MPD2    H211888   0.551   0.734   1.072  0.7986 -0.6223 -0.2286
  807MPD2    H311889   0.404   0.609   1.220  0.3696 -0.2502  0.0110
  807MPD2     N11890   0.731   0.552   1.526 -0.0101 -0.4619  0.0416
  807MPD2    H511891   0.830   0.575   1.526 -0.3138  0.8636  3.0454
  807MPD2    N111892   0.800   0.804   1.120 -0.1534  0.7242  0.0797
  807MPD2    H711893   0.887   0.829   1.165 -0.1958  0.6255  0.2188
  808MPD2     C11894   2.284   2.331   9.824  0.5089  0.0942 -0.1793
  808MPD2    C111895   2.201   2.385   9.721  0.0017 -0.0086  0.2881
  808MPD2    C211896   2.248   2.502   9.655 -0.0109 -0.0061  0.9172
  808MPD2    C311897   2.374   2.545   9.692 -0.2226 -0.1415 -0.0490
  808MPD2    C411898   2.456   2.476   9.778  0.2532 -0.1430 -0.3317
  808MPD2    C511899   2.409   2.370   9.846 -0.0693 -0.2646  0.4466
  808MPD2     H11900   2.188   2.544   9.575 -1.6098  0.8806  2.5933
  808MPD2    H111901   2.561   2.497   9.799 -0.2541  0.3889  1.6548
  808MPD2    H211902   2.246   2.257   9.894 -1.0583  0.2159 -0.8914
  808MPD2    H311903   2.471   2.312   9.912  1.2545 -1.3889 -1.7889
  808MPD2     N11904   2.435   2.651   9.625  0.3715 -0.0097 -0.0829
  808MPD2    H511905   2.529   2.673   9.656 -0.5402  3.2545  0.3504
  808MPD2    N111906   2.076   2.329   9.683  0.6389  0.3337 -0.7754
  808MPD2    H711907   2.012   2.373   9.618 -1.2111 -0.4048  0.5357
  809MPD2     C11908   3.271   2.921   9.201 -0.5136  0.1602 -0.3324
  809MPD2    C111909   3.227   2.881   9.331  1.0346 -0.0595 -0.4470
  809MPD2    C211910   3.095   2.895   9.365 -0.0867 -0.0146  0.1156
  809MPD2    C311911   3.005   2.952   9.274 -0.2757 -0.0096 -0.1905
  809MPD2    C411912   3.051   2.997   9.152  0.2195 -0.2921  0.2256
  809MPD2    C511913   3.184   2.987   9.121  0.1296  0.4538  0.7167
  809MPD2     H11914   3.065   2.868   9.465 -0.4975  0.3570  0.0991
  809MPD2    H111915   2.987   3.042   9.077  1.1748  0.0764 -0.3735
  809MPD2    H211916   3.371   2.903   9.166 -0.9491 -0.3897 -1.2674
  809MPD2    H311917   3.219   3.008   9.020 -2.1459  1.2845  0.1055
  809MPD2     N11918   2.867   2.959   9.299 -0.4269  0.1519 -0.5293
  809MPD2    H511919   2.815   3.030   9.248 -0.3334  2.8054  3.1135
  809MPD2    N111920   3.310   2.824   9.429 -0.0157  0.1622 -0.3309
  809MPD2    H711921   3.270   2.798   9.518  1.7554 -0.0049  0.4118
  810MPD2     C11922   1.522   2.459   9.808 -0.0409 -0.6070 -0.1758
  810MPD2    C111923   1.551   2.350   9.890  0.3556 -0.2487 -0.2753
  810MPD2    C211924   1.670   2.360   9.964 -0.5234  0.8319 -0.8421
  810MPD2    C311925   1.754   2.465   9.941 -0.9589  0.6166  0.7369
  810MPD2    C411926   1.716   2.571   9.860 -0.3768 -0.8571 -0.4366
  810MPD2    C511927   1.600   2.566   9.796 -0.1205  0.0260  0.1691
  810MPD2     H11928   1.693   2.274  10.026  0.7331  2.3028  0.7107
  810MPD2    H111929   1.788   2.651   9.847 -1.2363 -0.1900 -1.0873
  810MPD2    H211930   1.427   2.475   9.758  0.0511  0.7581  0.0878
  810MPD2    H311931   1.567   2.658   9.750 -0.4255 -0.1707 -0.0042
  810MPD2     N11932   1.885   2.471   9.991  0.2821  0.3213 -0.1164
  810MPD2    H511933   1.947   2.546   9.964  0.8528  0.0772  0.5209
  810MPD2    N111934   1.453   2.241   9.893  0.1481 -0.0347 -0.3142
  810MPD2    H711935   1.364   2.251   9.846  0.9376 -1.2590 -2.1068
  811MPD2     C11936   0.755   2.149   9.704  0.0131  0.2074  0.5445
  811MPD2    C111937   0.824   2.198   9.814 -0.4831 -0.8212  0.7412
  811MPD2    C211938   0.808   2.326   9.853  0.1103 -0.2256 -0.2081
  811MPD2    C311939   0.707   2.403   9.794  0.1483 -0.0254  0.1533
  811MPD2    C411940   0.638   2.351   9.686  0.2372 -0.0465  0.3495
  811MPD2    C511941   0.666   2.228   9.643 -0.4952  0.5058 -0.5246
  811MPD2     H11942   0.863   2.383   9.927  0.0979 -0.0978 -0.2966
  811MPD2    H111943   0.561   2.402   9.630  0.5791  0.8246  0.6639
  811MPD2    H211944   0.762   2.047   9.667  0.1933 -0.8004  3.3444
  811MPD2    H311945   0.612   2.192   9.556 -0.4649 -3.2237  1.0168
  811MPD2     N11946   0.681   2.529   9.851  0.4143 -0.1879  0.4448
  811MPD2    H511947   0.738   2.569   9.924  1.0184 -0.9137  0.3666
  811MPD2    N111948   0.916   2.112   9.874 -0.5719 -0.4039 -0.5521
  811MPD2    H711949   0.917   2.018   9.835 -0.8622 -0.3043 -0.8010
  812MPD2     C11950   0.342   2.252  12.095  0.5071 -0.5218  0.0916
  812MPD2    C111951   0.269   2.321  12.181  0.2704  0.4565  0.2488
  812MPD2    C211952   0.275   2.285  12.313  0.3735 -0.0176  0.5599
  812MPD2    C311953   0.347   2.174  12.352 -0.4769 -0.2162  0.5342
  812MPD2    C411954   0.434   2.115  12.265  0.0194  0.0706 -0.1166
  812MPD2    C511955   0.438   2.162  12.140 -0.3364 -0.6041 -0.3735
  812MPD2     H11956   0.205   2.335  12.379  1.7850  0.5495  1.6242
  812MPD2    H111957   0.497   2.032  12.296  0.2355  1.3150  2.8538
  812MPD2    H211958   0.348   2.289  11.993 -0.5744 -1.1714 -0.2106
  812MPD2    H311959   0.523   2.133  12.080  0.7824 -1.1954  1.4971
  812MPD2     N11960   0.315   2.114  12.474  0.6270  0.0239 -0.4296
  812MPD2    H511961   0.244   2.166  12.525  1.3417  1.2676 -0.7069
  812MPD2    N111962   0.192   2.424  12.125 -0.5161  0.5187  0.1613
  812MPD2    H711963   0.220   2.438  12.028  0.3286 -0.9469  0.1979
  813MPD2     C11964   4.437   4.089  12.656 -0.3034 -0.0092 -0.1064
  813MPD2    C111965   4.395   4.218  12.671  0.2703  0.0693 -0.8501
  813MPD2    C211966   4.303   4.253  12.768  0.1825 -0.0639  0.3381
  813MPD2    C311967   4.264   4.159  12.859  0.7944  0.0770  0.1966
  813MPD2    C411968   4.292   4.024  12.841  0.7095  0.4458 -0.4390
  813MPD2    C511969   4.377   3.994  12.738  0.0960  0.4277  0.7271
  813MPD2     H11970   4.265   4.354  12.777  0.5207  0.0259  0.7885
  813MPD2    H111971   4.240   3.944  12.892  3.7815 -0.9280  0.5732
  813MPD2    H211972   4.504   4.071  12.573 -1.3422  0.4850 -1.0398
  813MPD2    H311973   4.391   3.890  12.710 -0.3095  1.1174 -2.0737
  813MPD2     N11974   4.180   4.204  12.959 -0.2469  0.2438  0.1448
  813MPD2    H511975   4.156   4.303  12.960 -1.4720 -0.0433  0.0986
  813MPD2    N111976   4.447   4.304  12.571 -0.1064  0.3380 -0.1041
  813MPD2    H711977   4.513   4.264  12.504  0.4620  1.6248 -0.3267
  814MPD2     C11978   0.027   0.734  12.366 -0.0858  0.3624  0.2505
  814MPD2    C111979   0.075   0.778  12.241  0.3087 -0.3732 -0.9519
  814MPD2    C211980   0.162   0.883  12.235 -0.2883 -0.0342  0.2366
  814MPD2    C311981   0.179   0.967  12.344  0.3050  0.1789  0.2533
  814MPD2    C411982   0.123   0.932  12.462  0.1297 -0.1498  0.0139
  814MPD2    C511983   0.060   0.810  12.475  0.1541 -1.0436  0.3803
  814MPD2     H11984   0.201   0.903  12.136 -1.7797  3.0815  0.2638
  814MPD2    H111985   0.147   1.002  12.542 -0.0287  0.6116 -0.6032
  814MPD2    H211986   4.693   0.644  12.361  0.7453 -0.1028 -1.3528
  814MPD2    H311987   0.015   0.775  12.567 -0.8334  0.6374  0.5325
  814MPD2     N11988   0.233   1.095  12.336 -0.3725  0.2937  0.7066
  814MPD2    H511989   0.202   1.156  12.412  0.8621  3.6591 -1.5093
  814MPD2    N111990   0.045   0.718  12.114  0.5940 -0.0410  0.1075
  814MPD2    H711991   0.107   0.736  12.036 -1.3274  2.5054 -0.8191
  815MPD2     C11992   0.075   4.474  11.453  0.5583  0.1686 -0.2971
  815MPD2    C111993   0.100   4.340  11.501  0.1479  0.5729  0.2808
  815MPD2    C211994   0.013   4.292  11.597 -0.5105  0.2158  0.5051
  815MPD2    C311995   4.631   4.363  11.638 -0.5841 -0.2823  0.2311
  815MPD2    C411996   4.613   4.491  11.590  0.1630  0.1419  0.4227
  815MPD2    C511997   4.700   4.548  11.500  0.2645 -0.2568 -0.5214
  815MPD2     H11998   0.032   4.194  11.639  2.0793  1.0134  1.1772
  815MPD2    H111999   4.528   4.548  11.625  0.0688  0.0771  0.3044
  815MPD2    H212000   0.139   4.522  11.380  1.2300 -1.3153 -0.6928
  815MPD2    H312001   4.691   4.650  11.465 -2.3999 -0.0471  0.7579
  815MPD2     N12002   4.532   4.298  11.716 -0.1866 -0.0410  0.2117
  815MPD2    H512003   4.545   4.205  11.756  0.6012  0.7799  1.8720
  815MPD2    N112004   0.203   4.262  11.447  0.3346 -0.2951  0.2750
  815MPD2    H712005   0.242   4.298  11.361  1.1521  0.1957  0.8501
  816MPD2     C12006   0.095   2.954  17.209  0.0555 -0.0450  0.0588
  816MPD2    C112007   0.126   3.060  17.122 -0.6977 -0.6535 -0.1765
  816MPD2    C212008   0.218   3.044  17.021 -0.1819  0.2879 -0.4114
  816MPD2    C312009   0.286   2.925  17.007 -0.2961 -0.4353 -0.4120
  816MPD2    C412010   0.249   2.815  17.082 -0.1209 -0.6889 -0.3685
  816MPD2    C512011   0.152   2.831  17.182 -0.1911  0.7175  0.0567
  816MPD2     H12012   0.252   3.133  16.970 -0.3068 -0.8837 -2.5062
  816MPD2    H112013   0.314   2.730  17.098  1.9683  1.3004  1.5014
  816MPD2    H212014   0.018   2.968  17.284  0.5444 -0.5570  0.6572
  816MPD2    H312015   0.140   2.753  17.256  1.3073 -0.2296 -0.7105
  816MPD2     N12016   0.396   2.911  16.911 -0.2708  0.8709 -0.2672
  816MPD2    H512017   0.417   2.996  16.860 -0.5164  0.7944 -0.4966
  816MPD2    N112018   0.067   3.179  17.160 -0.0424  0.4954 -0.1347
  816MPD2    H712019   0.004   3.180  17.239 -0.3611  0.0582 -0.3792
  817MPD2     C12020   4.137   4.620   9.415  0.2199  0.6976 -0.2021
  817MPD2    C112021   4.146   4.548   9.297 -0.0213 -0.0901 -1.0167
  817MPD2    C212022   4.078   4.590   9.184  0.4993 -0.1178 -0.0367
  817MPD2    C312023   3.985   4.692   9.183  0.5621  0.6144 -0.4703
  817MPD2    C412024   3.977   0.037   9.300 -0.2483  0.0358  0.4037
  817MPD2    C512025   4.049   0.001   9.412 -0.3478 -0.1262 -0.3084
  817MPD2     H12026   4.092   4.540   9.089  1.3412  0.7844 -0.3855
  817MPD2    H112027   3.899   0.111   9.313 -0.2977 -0.0124  0.3770
  817MPD2    H212028   4.178   4.594   9.512 -1.2331  0.0979  0.2438
  817MPD2    H312029   4.037   0.058   9.504  2.6655  1.0458 -0.6236
  817MPD2     N12030   3.905   4.703   9.069 -0.0914 -0.2534  0.2171
  817MPD2    H512031   3.920   4.635   8.995 -2.4515  2.4039 -2.6956
  817MPD2    N112032   4.225   4.428   9.292 -0.0099  0.3039 -0.8802
  817MPD2    H712033   4.230   4.375   9.205 -1.2254 -0.7983 -0.2703
  818MPD2     C12034   3.520   4.555   9.713 -0.8685 -0.7030  0.0790
  818MPD2    C112035   3.409   4.575   9.794  0.4022  0.2363 -0.4418
  818MPD2    C212036   3.369   4.467   9.872  0.1868  0.4980  0.5487
  818MPD2    C312037   3.424   4.340   9.861  0.1070 -0.7742 -0.2831
  818MPD2    C412038   3.526   4.319   9.771 -0.2430 -0.3156  0.2964
  818MPD2    C512039   3.582   4.434   9.714 -0.0888  0.5069 -0.3209
  818MPD2     H12040   3.286   4.478   9.941  0.3215 -1.9237  1.0997
  818MPD2    H112041   3.562   4.221   9.741  0.9596  0.9967 -2.5057
  818MPD2    H212042   3.564   4.632   9.651  2.9042 -1.1146  2.2637
  818MPD2    H312043   3.670   4.412   9.654 -0.8901 -0.6886 -1.0688
  818MPD2     N12044   3.370   4.229   9.930  0.1215  0.6335  0.5843
  818MPD2    H512045   3.393   4.140   9.886  1.9803  0.1994  2.3978
  818MPD2    N112046   3.312   4.679   9.798  0.1482  0.1977  0.6256
  818MPD2    H712047   3.240   4.672   9.870  0.7351 -0.5432  1.1363
  819MPD2     C12048   1.397   1.902  15.290  0.0457 -0.0347 -0.0849
  819MPD2    C112049   1.422   1.765  15.283  0.4582 -0.7834  0.0135
  819MPD2    C212050   1.519   1.709  15.367  0.4638 -0.1421 -0.2156
  819MPD2    C312051   1.580   1.780  15.465 -0.7337 -0.1086 -0.6752
  819MPD2    C412052   1.549   1.916  15.468  0.9883 -0.1759 -0.0041
  819MPD2    C512053   1.468   1.974  15.382 -0.8557  0.2024 -0.2372
  819MPD2     H12054   1.541   1.604  15.356  1.7985  0.1433 -0.2897
  819MPD2    H112055   1.595   1.978  15.545  0.1988  3.7580 -2.6876
  819MPD2    H212056   1.316   1.943  15.230 -1.4303 -1.2035  1.1434
  819MPD2    H312057   1.440   2.077  15.401 -0.1031  0.3845 -0.1270
  819MPD2     N12058   1.675   1.712  15.550 -0.3756  0.1532 -0.5523
  819MPD2    H512059   1.686   1.611  15.539  0.4146  0.0777  0.8287
  819MPD2    N112060   1.349   1.686  15.193  0.3609  0.1160  0.3742
  819MPD2    H712061   1.286   1.745  15.140  1.3683 -0.4579 -1.4733
  820MPD2     C12062   0.655   1.797  14.520 -0.2262  0.1523  0.2051
  820MPD2    C112063   0.677   1.842  14.647  0.5146  0.6939 -0.0093
  820MPD2    C212064   0.756   1.769  14.738  0.2187  0.2927 -0.3822
  820MPD2    C312065   0.828   1.663  14.687  0.2768  0.3218 -0.2864
  820MPD2    C412066   0.811   1.624  14.556 -0.2474  0.4319  0.1229
  820MPD2    C512067   0.728   1.694  14.476 -0.3230 -0.2028 -0.1366
  820MPD2     H12068   0.774   1.819  14.832 -1.1795  1.9213 -0.9737
  820MPD2    H112069   0.876   1.549  14.513 -0.1303 -0.1427  1.3034
  820MPD2    H212070   0.595   1.846  14.444  1.5119  1.4120 -0.3466
  820MPD2    H312071   0.728   1.665  14.371 -0.5628 -2.0913  0.4037
  820MPD2     N12072   0.921   1.594  14.767  0.0887 -0.2125 -0.6469
  820MPD2    H512073   0.955   1.506  14.729  2.0736  0.2061  0.1881
  820MPD2    N112074   0.577   1.928  14.684 -0.2474  0.4540  0.4917
  820MPD2    H712075   0.556   1.990  14.606  1.7013 -2.2957 -2.2391
  821MPD2     C12076   2.034   2.888  13.510  0.5051  0.1529  0.2569
  821MPD2    C112077   2.158   2.891  13.564  0.3176  0.0116 -0.1553
  821MPD2    C212078   2.261   2.881  13.482 -0.8062 -0.1549  0.0014
  821MPD2    C312079   2.259   2.891  13.343 -0.0752 -0.3952  0.2593
  821MPD2    C412080   2.133   2.895  13.282  0.3053 -0.0862  0.1400
  821MPD2    C512081   2.021   2.881  13.367  0.0204  0.5186  0.6977
  821MPD2     H12082   2.355   2.879  13.534 -0.2002  1.3516 -1.0314
  821MPD2    H112083   2.120   2.892  13.174 -0.5276 -0.3032  0.2472
  821MPD2    H212084   1.945   2.882  13.571 -0.7692  0.1561 -1.6328
  821MPD2    H312085   1.927   2.866  13.314  0.7046 -0.6884 -0.1753
  821MPD2     N12086   2.384   2.894  13.276 -0.7311  0.9428 -0.0852
  821MPD2    H512087   2.467   2.891  13.334  0.8788 -0.1901 -2.4456
  821MPD2    N112088   2.185   2.892  13.703 -0.2947 -0.2482  0.3648
  821MPD2    H712089   2.281   2.891  13.735  0.3268 -1.1256 -1.5529
  822MPD2     C12090   2.882   3.506  15.737  0.1159  0.1888 -0.2537
  822MPD2    C112091   2.838   3.432  15.849  0.7718 -0.0131 -0.4797
  822MPD2    C212092   2.731   3.484  15.921  0.1437  0.4232 -0.2188
  822MPD2    C312093   2.677   3.608  15.889 -0.5597  0.4381 -0.1979
  822MPD2    C412094   2.712   3.672  15.774 -0.5933  0.3097  0.2072
  822MPD2    C512095   2.817   3.624  15.705 -0.9457 -0.2535 -0.2188
  822MPD2     H12096   2.706   3.432  16.013 -0.5530  0.6393 -0.2856
  822MPD2    H112097   2.663   3.760  15.734 -2.1592 -1.2905 -1.3967
  822MPD2    H212098   2.966   3.479  15.674 -0.0022  3.0502 -1.6484
  822MPD2    H312099   2.853   3.671  15.614 -2.2113 -0.7924 -1.0012
  822MPD2     N12100   2.580   3.663  15.974 -0.4193 -0.2141 -0.2892
  822MPD2    H512101   2.552   3.605  16.053  0.9384 -0.2254  0.1915
  822MPD2    N112102   2.894   3.309  15.891 -0.6916 -0.2816 -0.1268
  822MPD2    H712103   2.859   3.267  15.977  4.6952 -1.8286  1.3431
  823MPD2     C12104   2.046   3.709  16.620 -0.1742 -0.1810  0.1416
  823MPD2    C112105   2.102   3.638  16.517 -0.3609  0.2106  0.2108
  823MPD2    C212106   2.097   3.493  16.521 -0.5522  0.2942 -0.1201
  823MPD2    C312107   2.058   3.426  16.641  0.4823  0.0473  0.1773
  823MPD2    C412108   2.007   3.501  16.743  0.0002  0.1829 -0.0321
  823MPD2    C512109   1.992   3.641  16.729  0.3066 -0.3359 -0.1065
  823MPD2     H12110   2.138   3.441  16.435 -1.0993  0.3003 -0.3841
  823MPD2    H112111   1.961   3.463  16.834  0.7160  1.6043  0.9374
  823MPD2    H212112   2.025   3.815  16.619 -0.7500 -0.2950  0.0328
  823MPD2    H312113   1.929   3.699  16.796  0.5742  1.0190 -1.0144
  823MPD2     N12114   2.065   3.286  16.654 -0.0348 -0.5889  0.7843
  823MPD2    H512115   2.029   3.254  16.744 -2.4558 -0.1239 -0.0258
  823MPD2    N112116   2.156   3.726  16.413 -0.0442 -0.1822  0.8594
  823MPD2    H712117   2.166   3.825  16.433 -3.9791  0.1037  1.5468
  824MPD2     C12118   2.954   2.508  15.648 -0.0442 -0.5743 -0.2479
  824MPD2    C112119   3.061   2.529  15.735  0.3964  0.3983 -0.1222
  824MPD2    C212120   3.154   2.421  15.744  0.6313  0.2231  0.9587
  824MPD2    C312121   3.131   2.302  15.674 -0.0018  0.2268  0.4322
  824MPD2    C412122   3.013   2.287  15.608 -0.5444  0.1514  0.0762
  824MPD2    C512123   2.922   2.387  15.597  0.1460  0.0216 -0.6357
  824MPD2     H12124   3.246   2.445  15.796  1.6336  4.5042 -2.7941
  824MPD2    H112125   2.986   2.190  15.567 -0.1556 -0.9525  2.4212
  824MPD2    H212126   2.878   2.582  15.626  0.5121 -0.5110 -2.0134
  824MPD2    H312127   2.842   2.371  15.525 -0.6063  1.0431 -0.0140
  824MPD2     N12128   3.226   2.204  15.663 -0.1575  0.1440  0.3799
  824MPD2    H512129   3.316   2.231  15.700 -0.3309 -0.1492  1.0087
  824MPD2    N112130   3.078   2.650  15.809  0.0142  0.3163  0.0656
  824MPD2    H712131   3.162   2.661  15.866  1.3401 -1.6160 -1.5488
  825MPD2     C12132   3.976   2.111  15.244 -0.0817 -0.1812 -0.0757
  825MPD2    C112133   3.888   2.176  15.328 -0.4982  0.1809  0.1791
  825MPD2    C212134   3.925   2.306  15.366 -0.4198 -0.0164 -0.0488
  825MPD2    C312135   4.038   2.368  15.311 -0.0862  0.9754 -0.7282
  825MPD2    C412136   4.117   2.298  15.223  0.1868 -0.7563  0.3989
  825MPD2    C512137   4.087   2.166  15.190  0.2594 -0.4720 -0.3483
  825MPD2     H12138   3.861   2.363  15.433 -0.2829  0.0043  0.0651
  825MPD2    H112139   4.201   2.340  15.169 -0.3632 -0.0559  0.0909
  825MPD2    H212140   3.946   2.012  15.211  1.5500 -0.8858  0.5933
  825MPD2    H312141   4.162   2.109  15.137  0.1005 -1.1332  0.1389
  825MPD2     N12142   4.067   2.507  15.324  0.3328  0.0293 -0.3842
  825MPD2    H512143   4.142   2.549  15.269  1.4915 -0.2055  1.0254
  825MPD2    N112144   3.775   2.101  15.372  0.5232  0.9232 -0.2279
  825MPD2    H712145   3.760   2.011  15.327  0.2069  0.5918  0.5423
  826MPD2     C12146   3.237   2.141  13.661 -0.3525 -0.2168 -0.8620
  826MPD2    C112147   3.158   2.221  13.587  0.4349 -0.1063  0.2288
  826MPD2    C212148   3.075   2.314  13.648 -0.0772 -0.6834 -0.4136
  826MPD2    C312149   3.078   2.334  13.785  0.5598  0.1141  0.3143
  826MPD2    C412150   3.166   2.257  13.858  0.3692 -0.8115 -0.0231
  826MPD2    C512151   3.244   2.159  13.798 -0.2381 -0.1313 -0.3493
  826MPD2     H12152   3.023   2.387  13.586  0.4780 -0.3221 -0.4551
  826MPD2    H112153   3.179   2.259  13.965  0.0340  1.1151 -0.0108
  826MPD2    H212154   3.299   2.062  13.620  1.0773  0.9221 -0.8589
  826MPD2    H312155   3.322   2.105  13.850  0.7857 -0.0609 -1.8083
  826MPD2     N12156   2.998   2.433  13.853 -0.4173  0.1792 -0.4686
  826MPD2    H512157   3.027   2.464  13.945  0.6226 -0.3266 -0.6198
  826MPD2    N112158   3.138   2.187  13.454 -0.4535 -0.5207  0.0088
  826MPD2    H712159   3.202   2.113  13.428 -0.4314 -0.5501  0.1443
  827MPD2     C12160   3.659   2.986  10.222 -0.0644  0.7714  0.0106
  827MPD2    C112161   3.722   2.965  10.341 -0.5243 -0.1693 -1.1687
  827MPD2    C212162   3.769   2.838  10.375 -0.9076  0.2665 -0.6361
  827MPD2    C312163   3.758   2.740  10.287 -0.8231 -0.9426  0.8509
  827MPD2    C412164   3.707   2.761  10.163 -0.3718 -0.2357  0.3408
  827MPD2    C512165   3.653   2.886  10.135  0.0825 -0.5833 -0.6328
  827MPD2     H12166   3.814   2.820  10.471 -2.5847  0.7407  0.2476
  827MPD2    H112167   3.690   2.681  10.092  1.1787 -2.9288  2.9529
  827MPD2    H212168   3.610   3.079  10.194 -0.1778  0.5880 -0.3939
  827MPD2    H312169   3.599   2.905  10.043  1.7697  2.7764 -0.9236
  827MPD2     N12170   3.823   2.614  10.314 -0.3127 -0.8698 -0.2054
  827MPD2    H512171   3.872   2.609  10.402  0.4165  0.9688 -0.4971
  827MPD2    N112172   3.731   3.078  10.425  0.3998 -0.2397 -0.7010
  827MPD2    H712173   3.695   3.168  10.393 -1.3185 -0.6627  0.0434
  828MPD2     C12174   2.294   3.429  12.452  1.2449 -0.0697  0.3775
  828MPD2    C112175   2.249   3.448  12.323  0.2523  0.8563  0.2153
  828MPD2    C212176   2.345   3.414  12.226 -0.3174 -0.2724  0.1540
  828MPD2    C312177   2.472   3.383  12.263 -0.7091  0.2785  0.3094
  828MPD2    C412178   2.514   3.377  12.396  0.1456  0.0413  0.3238
  828MPD2    C512179   2.424   3.403  12.490 -0.4001 -0.0144 -0.2829
  828MPD2     H12180   2.331   3.428  12.119  2.5466  0.2882 -0.1489
  828MPD2    H112181   2.616   3.359  12.427  0.5806 -0.1167 -1.1765
  828MPD2    H212182   2.226   3.459  12.531 -1.6634  0.5240 -2.3599
  828MPD2    H312183   2.464   3.402  12.591 -0.2685  1.1296 -0.3162
  828MPD2     N12184   2.566   3.342  12.165  0.4655  0.9510 -0.3175
  828MPD2    H512185   2.651   3.301  12.203  0.4854  0.8080 -0.5162
  828MPD2    N112186   2.117   3.491  12.285  0.2556  0.1746  0.5470
  828MPD2    H712187   2.102   3.504  12.185  1.4856  0.8379  0.4432
  829MPD2     C12188   1.973   3.718  11.512 -0.2285  0.2204 -0.2163
  829MPD2    C112189   1.847   3.735  11.550  0.0521  0.3046 -0.3960
  829MPD2    C212190   1.812   3.715  11.683 -0.0344 -0.4943  0.5483
  829MPD2    C312191   1.906   3.665  11.775  0.1632 -0.3289  0.7346
  829MPD2    C412192   2.038   3.650  11.729 -0.2866  0.5455 -0.1418
  829MPD2    C512193   2.071   3.690  11.598  0.0428  0.0856  1.1338
  829MPD2     H12194   1.710   3.732  11.716 -1.2433 -0.4606 -3.2830
  829MPD2    H112195   2.117   3.622  11.798 -3.1256 -2.7056  1.8043
  829MPD2    H212196   2.001   3.738  11.409  0.5362 -0.1316 -0.0755
  829MPD2    H312197   2.170   3.687  11.554  0.3746 -1.7037  2.0064
  829MPD2     N12198   1.879   3.635  11.915 -0.3112  0.0387 -0.1355
  829MPD2    H512199   1.951   3.579  11.958 -0.6478  0.2928  0.7442
  829MPD2    N112200   1.763   3.785  11.448 -0.2226 -0.4889 -0.2814
  829MPD2    H712201   1.801   3.801  11.355  2.1285 -1.3029  0.5483
  830MPD2     C12202   2.463   1.490  15.418 -0.7919 -0.7512 -0.0304
  830MPD2    C112203   2.329   1.493  15.402 -0.2481 -0.3068  0.1365
  830MPD2    C212204   2.280   1.513  15.273  0.4307  0.5705  0.2004
  830MPD2    C312205   2.365   1.510  15.159 -0.0785  0.5745  0.1378
  830MPD2    C412206   2.501   1.505  15.181 -0.3259 -0.1538 -0.7010
  830MPD2    C512207   2.546   1.503  15.308  0.0043  0.0389 -0.1780
  830MPD2     H12208   2.174   1.529  15.257  1.1270 -0.1617 -5.0931
  830MPD2    H112209   2.572   1.513  15.099  1.7902 -1.6735  0.9933
  830MPD2    H212210   2.509   1.477  15.515  1.3823  2.5527 -0.6397
  830MPD2    H312211   2.653   1.494  15.322  0.1454  0.3360 -1.0975
  830MPD2     N12212   2.317   1.536  15.029 -0.2719  0.1661 -0.0855
  830MPD2    H512213   2.385   1.519  14.956 -0.3362  0.1580 -0.1431
  830MPD2    N112214   2.249   1.481  15.519  0.1556 -0.5057  0.1904
  830MPD2    H712215   2.289   1.516  15.606  0.9127 -0.5413 -0.1424
  831MPD2     C12216   2.624   3.594  16.437  0.0155  0.1180 -0.1931
  831MPD2    C112217   2.671   3.524  16.323  0.0218 -0.4223 -0.0062
  831MPD2    C212218   2.598   3.423  16.274 -0.0488  0.0209  0.7849
  831MPD2    C312219   2.470   3.392  16.314  0.4662 -0.4178 -0.0714
  831MPD2    C412220   2.434   3.444  16.436  0.0648 -0.6398  0.2601
  831MPD2    C512221   2.503   3.547  16.492 -0.5523  0.5012  0.2276
  831MPD2     H12222   2.635   3.363  16.192 -0.0371 -0.9859  1.5358
  831MPD2    H112223   2.352   3.404  16.494 -0.5671 -0.1338 -0.2846
  831MPD2    H212224   2.680   3.668  16.493  0.8246  0.5708 -1.5888
  831MPD2    H312225   2.473   3.583  16.590  2.2341  3.4447 -0.0173
  831MPD2     N12226   2.381   3.303  16.256  0.5718 -0.3723 -0.4326
  831MPD2    H512227   2.309   3.280  16.323 -0.0098  1.1331 -0.5335
  831MPD2    N112228   2.797   3.560  16.280  1.4682 -0.5133  0.1989
  831MPD2    H712229   2.840   3.643  16.320 -1.2149  0.7473  0.4792
  832MPD2     C12230   1.094   3.950  17.056  0.1377 -0.3762  0.6013
  832MPD2    C112231   1.051   4.076  17.073  0.6481 -0.0990 -0.7765
  832MPD2    C212232   0.945   4.121  17.004 -0.0546  0.2915  0.1710
  832MPD2    C312233   0.877   4.035  16.923 -0.5400  0.0689  0.2569
  832MPD2    C412234   0.915   3.904  16.905  0.2650 -0.6280 -0.3688
  832MPD2    C512235   1.018   3.868  16.978 -0.1156 -0.1796  0.1886
  832MPD2     H12236   0.901   4.214  17.038  0.9518  0.9281 -0.2327
  832MPD2    H112237   0.867   3.832  16.840  0.8807 -1.3421 -0.0386
  832MPD2    H212238   1.175   3.908  17.115  1.5863 -0.2007 -1.2352
  832MPD2    H312239   1.057   3.767  16.981 -1.3793 -0.6516  0.8575
  832MPD2     N12240   0.761   4.075  16.851 -0.1009 -0.0723  0.0980
  832MPD2    H512241   0.700   4.004  16.812  0.2564 -0.0225 -0.5465
  832MPD2    N112242   1.110   4.160  17.177 -0.0061  0.2371 -0.2626
  832MPD2    H712243   1.177   4.115  17.238 -0.6471 -1.1103 -0.5348
  833MPD2     C12244   2.784   0.701  12.530  0.1866 -0.3625  0.0524
  833MPD2    C112245   2.822   0.789  12.426 -0.3668 -0.0188  0.0030
  833MPD2    C212246   2.825   0.745  12.297 -0.4414  0.0876  0.2099
  833MPD2    C312247   2.790   0.610  12.273 -0.0314  0.1436 -0.0094
  833MPD2    C412248   2.755   0.524  12.378 -0.1898 -0.2191  0.2309
  833MPD2    C512249   2.739   0.576  12.507  0.6679  0.3193  0.5969
  833MPD2     H12250   2.838   0.815  12.215 -0.7632 -0.3131 -0.1860
  833MPD2    H112251   2.727   0.420  12.364  2.8782 -1.3625  2.5096
  833MPD2    H212252   2.776   0.736  12.632  0.2604  1.8127 -0.6935
  833MPD2    H312253   2.718   0.514  12.593 -0.2354  2.3515  1.8381
  833MPD2     N12254   2.799   0.568  12.137  0.1222 -0.6149  0.4993
  833MPD2    H512255   2.760   0.476  12.117 -3.3956  0.9460  0.2007
  833MPD2    N112256   2.870   0.914  12.459  0.1932  0.3361  0.1769
  833MPD2    H712257   2.870   0.933  12.559  0.9762 -1.8276  0.5695
  834MPD2     C12258   2.443   0.239  11.264  0.8119 -0.8812  0.0759
  834MPD2    C112259   2.557   0.308  11.214 -0.1225 -0.2603 -0.1246
  834MPD2    C212260   2.626   0.385  11.303  0.0637  0.5030 -0.7920
  834MPD2    C312261   2.590   0.396  11.435  0.2430 -0.0672 -0.7872
  834MPD2    C412262   2.482   0.325  11.479  0.5776  0.3009 -0.1404
  834MPD2    C512263   2.406   0.251  11.393 -0.3966 -0.3722 -0.2040
  834MPD2     H12264   2.712   0.434  11.259  1.5217 -0.5721  0.8729
  834MPD2    H112265   2.452   0.323  11.583  0.8174  0.5292 -0.0669
  834MPD2    H212266   2.392   0.167  11.201 -0.1603  0.4549 -0.6662
  834MPD2    H312267   2.325   0.182  11.413 -0.6294 -0.0154  0.0754
  834MPD2     N12268   2.673   0.464  11.522  0.1480  0.1617  0.1050
  834MPD2    H512269   2.763   0.492  11.484  0.4262 -0.9752 -0.0493
  834MPD2    N112270   2.604   0.275  11.083 -0.5096 -0.2598  0.1334
  834MPD2    H712271   2.544   0.206  11.040 -0.3120 -0.2508 -0.1565
  835MPD2     C12272   3.252   3.326  11.280 -0.8410  0.1582  0.2102
  835MPD2    C112273   3.186   3.437  11.325 -0.2573  0.2596 -0.0637
  835MPD2    C212274   3.259   3.525  11.403  0.4202 -0.3317  0.3027
  835MPD2    C312275   3.390   3.508  11.435 -0.4367 -0.1088  0.2208
  835MPD2    C412276   3.456   3.393  11.396  0.2628 -0.4181  0.2009
  835MPD2    C512277   3.382   3.307  11.316  0.3344 -0.3089 -0.0347
  835MPD2     H12278   3.212   3.617  11.435  0.6449  0.6540 -2.1878
  835MPD2    H112279   3.561   3.377  11.418  0.4957  1.6896  0.5633
  835MPD2    H212280   3.202   3.243  11.231 -0.8069  0.3165 -0.0981
  835MPD2    H312281   3.439   3.222  11.279 -0.3500 -0.7529 -0.0683
  835MPD2     N12282   3.460   3.598  11.523 -0.1519 -0.5126  0.3624
  835MPD2    H512283   3.555   3.570  11.542  0.6160  1.9852  0.2977
  835MPD2    N112284   3.045   3.466  11.298  0.5530 -0.3186  0.3194
  835MPD2    H712285   3.009   3.544  11.352  0.0332 -0.0473 -0.4312
  836MPD2     C12286   3.158   4.265  11.909 -0.0778  0.4427  0.2026
  836MPD2    C112287   3.200   4.148  11.973  0.5450 -0.1949  0.0719
  836MPD2    C212288   3.130   4.088  12.073 -0.5411  0.2527  0.2388
  836MPD2    C312289   3.011   4.139  12.107 -0.2109  0.4638  0.7047
  836MPD2    C412290   2.965   4.256  12.053 -0.9715  0.0619  0.2701
  836MPD2    C512291   3.034   4.318  11.956  0.3297 -0.3958 -0.9594
  836MPD2     H12292   3.166   3.993  12.109  1.2900  0.2412 -1.6353
  836MPD2    H112293   2.876   4.303  12.093 -1.8512  0.6307 -2.4018
  836MPD2    H212294   3.211   4.323  11.834 -0.2155 -1.0979 -1.0989
  836MPD2    H312295   2.999   4.410  11.912  1.7729 -0.3257 -1.9589
  836MPD2     N12296   2.937   4.075  12.215  0.5749 -0.6602 -0.3458
  836MPD2    H512297   2.839   4.100  12.215  0.4786 -1.0244  0.4266
  836MPD2    N112298   3.309   4.087  11.916 -0.1337 -0.1602 -0.4799
  836MPD2    H712299   3.357   4.138  11.842  0.3993  0.6739  0.4272
  837MPD2     C12300   0.897   3.230  10.123  0.0019  0.1930 -0.1828
  837MPD2    C112301   0.781   3.228  10.048 -0.1995 -0.1474  0.5826
  837MPD2    C212302   0.728   3.350  10.001 -0.3711  1.2954 -0.4177
  837MPD2    C312303   0.783   3.474  10.027  0.0930 -0.0341 -0.4400
  837MPD2    C412304   0.902   3.473  10.103 -0.5655 -0.4384 -0.4801
  837MPD2    C512305   0.957   3.356  10.150 -1.1858  0.5873  0.4489
  837MPD2     H12306   0.632   3.346   9.949 -1.1927  1.4343  1.0802
  837MPD2    H112307   0.948   3.563  10.141  0.2647 -1.1062  0.1199
  837MPD2    H212308   0.942   3.138  10.159 -0.1732  0.6977  1.3528
  837MPD2    H312309   1.051   3.359  10.203 -1.5570  0.0489  1.1326
  837MPD2     N12310   0.702   3.586  10.001 -0.1640 -0.6615 -0.1595
  837MPD2    H512311   0.621   3.574   9.941  1.2595 -1.6410 -1.8749
  837MPD2    N112312   0.705   3.113  10.026 -0.3314 -0.0705 -0.5133
  837MPD2    H712313   0.617   3.124   9.975 -0.2966  0.7301 -0.4135
  838MPD2     C12314   0.130   1.920  11.774 -0.0640  0.5590  0.0000
  838MPD2    C112315   0.061   1.799  11.761  0.1606  0.0967 -0.8156
  838MPD2    C212316   4.720   1.753  11.869 -0.3586 -0.2050  0.7537
  838MPD2    C312317   4.692   1.835  11.979 -0.9325 -0.0259  0.2740
  838MPD2    C412318   0.029   1.952  11.993  0.1399  0.0138  0.1801
  838MPD2    C512319   0.117   1.988  11.894  0.0561 -0.4581  0.0575
  838MPD2     H12320   4.674   1.656  11.858  2.1445 -0.9876 -2.6662
  838MPD2    H112321   0.016   2.022  12.074  2.3620 -0.1057  0.6551
  838MPD2    H212322   0.178   1.973  11.692  1.8540 -0.2732  0.5925
  838MPD2    H312323   0.168   2.084  11.901  4.0773 -2.9193  4.2289
  838MPD2     N12324   4.588   1.791  12.064 -0.4387 -0.0724  0.1303
  838MPD2    H512325   4.568   1.692  12.070 -1.6690 -0.0240 -3.3079
  838MPD2    N112326   0.044   1.730  11.636 -0.0152  0.0283  0.2231
  838MPD2    H712327   0.008   1.636  11.647  0.3672 -0.4616 -2.5631
  839MPD2     C12328   4.112   1.275  11.371 -0.2554  0.8371  0.4452
  839MPD2    C112329   4.223   1.197  11.338 -0.1813  0.3749 -0.5620
  839MPD2    C212330   4.348   1.261  11.313 -0.5682  0.7356  0.0095
  839MPD2    C312331   4.357   1.398  11.330  0.4244 -0.6954  0.2437
  839MPD2    C412332   4.242   1.469  11.357  0.5388 -0.1164 -0.0329
  839MPD2    C512333   4.117   1.403  11.372 -0.0087 -0.4963 -0.2091
  839MPD2     H12334   4.440   1.205  11.302 -0.9394  0.2057 -0.3856
  839MPD2    H112335   4.237   1.576  11.371 -0.5187  0.0321 -1.5151
  839MPD2    H212336   4.012   1.233  11.369 -1.0784  2.7967  0.7067
  839MPD2    H312337   4.028   1.459  11.396  0.6166  0.0597  0.8126
  839MPD2     N12338   4.471   1.475  11.320 -0.3515 -1.0421 -0.0801
  839MPD2    H512339   4.462   1.569  11.359 -2.7833 -1.9803  1.6155
  839MPD2    N112340   4.220   1.055  11.341  0.1392  0.3154  0.1635
  839MPD2    H712341   4.310   1.009  11.334 -0.9466 -1.6146 -1.0463
  840MPD2     C12342   3.956   3.621  10.257  0.0724 -0.4122  0.3425
  840MPD2    C112343   3.982   3.628  10.393 -0.1229 -0.3473  0.0127
  840MPD2    C212344   4.090   3.703  10.436  0.1507 -0.1895  0.1555
  840MPD2    C312345   4.165   3.765  10.344 -0.7858  0.1105  0.0599
  840MPD2    C412346   4.137   3.749  10.211  0.3208 -0.6047  0.2205
  840MPD2    C512347   4.037   3.669  10.163 -0.1343  0.6704  0.7905
  840MPD2     H12348   4.110   3.707  10.543  1.0151  0.5649 -0.0328
  840MPD2    H112349   4.203   3.802  10.143  0.5322  1.2561  1.8692
  840MPD2    H212350   3.878   3.555  10.220  0.5394  0.2850 -1.8641
  840MPD2    H312351   4.015   3.660  10.057  0.5005 -1.0053  0.8066
  840MPD2     N12352   4.276   3.835  10.379 -0.0405  0.1617  0.3369
  840MPD2    H512353   4.332   3.866  10.300 -1.4134  1.4669 -0.1558
  840MPD2    N112354   3.902   3.538  10.473 -0.2926  0.8906 -0.5092
  840MPD2    H712355   3.823   3.488  10.433 -0.2337 -0.7499  1.4002
  841MPD2     C12356   4.302   3.135  14.364  0.0734 -0.9964 -0.0482
  841MPD2    C112357   4.320   3.072  14.479 -0.2868  0.0230 -0.3063
  841MPD2    C212358   4.399   3.132  14.569  0.3440 -0.4140 -0.3430
  841MPD2    C312359   4.464   3.246  14.554 -0.0080  0.2805  0.5453
  841MPD2    C412360   4.437   3.321  14.435  0.1835 -0.3485 -0.0557
  841MPD2    C512361   4.360   3.260  14.343 -0.6232  0.4755 -0.3710
  841MPD2     H12362   4.423   3.074  14.657 -2.0072  0.0517  0.5911
  841MPD2    H112363   4.466   3.425  14.423 -1.6064  0.4008  2.0486
  841MPD2    H212364   4.239   3.111  14.278  0.4097  0.7279 -0.7701
  841MPD2    H312365   4.347   3.303  14.244 -0.6943  0.4864 -0.3574
  841MPD2     N12366   4.544   3.292  14.657 -0.5324  0.0216 -0.1057
  841MPD2    H512367   4.562   3.228  14.734  0.4728 -2.0388 -2.0420
  841MPD2    N112368   4.256   2.951  14.514 -0.2566 -0.1777 -0.1653
  841MPD2    H712369   4.277   2.907  14.602 -0.6993  0.5735  0.3158
  842MPD2     C12370   0.359   4.626  16.680 -0.0657  0.0613 -0.4293
  842MPD2    C112371   0.255   4.540  16.698  1.1159 -0.2268 -0.1878
  842MPD2    C212372   0.251   4.471  16.819  0.5740  0.0385  0.2288
  842MPD2    C312373   0.339   4.512  16.918  0.4303 -0.5533  0.2325
  842MPD2    C412374   0.429   4.614  16.903  0.3634  0.0215  0.8605
  842MPD2    C512375   0.449   4.658  16.782  0.0217 -0.4576 -0.5997
  842MPD2     H12376   0.168   4.409  16.849  1.6946 -0.6672  1.8869
  842MPD2    H112377   0.503   4.634  16.979  1.3025  0.0445 -0.0641
  842MPD2    H212378   0.366   4.675  16.583 -0.9034  0.8249 -0.1037
  842MPD2    H312379   0.540   4.714  16.765  0.4163 -0.8696  0.1388
  842MPD2     N12380   0.343   4.467  17.053 -0.2796 -0.5035  0.5678
  842MPD2    H512381   0.409   4.511  17.116  0.9373 -1.8584  0.2211
  842MPD2    N112382   0.169   4.526  16.589  0.1436  0.0854 -0.4291
  842MPD2    H712383   0.190   4.577  16.504 -0.3953  0.0405 -0.5887
  843MPD2     C12384   1.738   0.130  17.361  0.1635 -0.3561  0.1306
  843MPD2    C112385   1.726   0.082  17.498 -0.0298  1.0775  0.3677
  843MPD2    C212386   1.775   0.164  17.594  0.0204 -0.0498 -0.3081
  843MPD2    C312387   1.837   0.282  17.562  0.0664 -0.2659 -0.3167
  843MPD2    C412388   1.849   0.326  17.431 -0.0892 -0.1886  0.1749
  843MPD2    C512389   1.797   0.252  17.329 -0.0650  0.1194  0.2050
  843MPD2     H12390   1.769   0.136  17.698 -2.9769 -0.8800 -0.7057
  843MPD2    H112391   1.887   0.423  17.403  0.9662 -0.4377  0.7499
  843MPD2    H212392   1.718   0.061  17.280 -0.8715 -1.6882  1.5111
  843MPD2    H312393   1.814   0.279  17.225  2.6719 -1.6794  0.1869
  843MPD2     N12394   1.891   0.372  17.661 -0.1782  0.5465  0.5255
  843MPD2    H512395   1.957   0.439  17.622  2.0674 -2.9778 -1.7334
  843MPD2    N112396   1.668   4.676  17.517 -0.3188  0.0859 -0.1191
  843MPD2    H712397   1.655   4.609  17.441 -2.0660 -0.2440  0.4796
  844MPD2     C12398   0.596   3.947  16.248 -0.3172  0.3394  0.1670
  844MPD2    C112399   0.696   3.856  16.275  0.4625 -0.0922  0.4061
  844MPD2    C212400   0.793   3.883  16.374 -0.2393 -0.4293  0.2669
  844MPD2    C312401   0.796   4.010  16.424 -0.2142  0.3522  0.8586
  844MPD2    C412402   0.698   4.104  16.386 -0.0807 -0.2790 -0.2068
  844MPD2    C512403   0.592   4.064  16.306 -0.0153  0.1304 -0.4971
  844MPD2     H12404   0.870   3.815  16.407  0.9754  1.1190  0.6166
  844MPD2    H112405   0.704   4.207  16.418 -1.4948 -0.1625 -0.3344
  844MPD2    H212406   0.522   3.923  16.172 -1.5055 -0.6443  1.6190
  844MPD2    H312407   0.510   4.130  16.278  1.0446  0.8694 -1.9137
  844MPD2     N12408   0.908   4.039  16.514 -0.3400 -0.2967 -0.2575
  844MPD2    H512409   0.973   3.965  16.540 -0.2694  0.5419  1.8887
  844MPD2    N112410   0.698   3.738  16.195 -0.0649 -0.3251  0.3763
  844MPD2    H712411   0.748   3.663  16.241 -2.0109 -0.4399  2.3429
  845MPD2     C12412   1.194   0.174  16.913  0.6638 -0.5238  0.1380
  845MPD2    C112413   1.113   0.097  16.995  0.0260 -0.1771 -0.3950
  845MPD2    C212414   1.117   4.684  16.983  0.3645 -0.1498  0.0065
  845MPD2    C312415   1.198   4.619  16.893 -0.5269  0.2574  0.0293
  845MPD2    C412416   1.265   4.698  16.810 -0.3115  1.0016 -0.3133
  845MPD2    C512417   1.261   0.110  16.816 -0.0192 -0.0773  0.0453
  845MPD2     H12418   1.048   4.621  17.040  1.1918  0.0792  1.2552
  845MPD2    H112419   1.319   4.651  16.728  2.0900  1.9980  0.6910
  845MPD2    H212420   1.191   0.281  16.927 -1.2194 -0.3960 -1.1823
  845MPD2    H312421   1.319   0.163  16.742 -0.0245 -0.0565  0.0560
  845MPD2     N12422   1.182   4.479  16.867 -0.0715 -0.3195  0.1786
  845MPD2    H512423   1.110   4.425  16.913  0.7394 -0.9749  0.6750
  845MPD2    N112424   1.024   0.170  17.080  0.5634 -0.0122 -0.1794
  845MPD2    H712425   1.021   0.271  17.066  1.1237 -0.1845 -1.4814
  846MPD2     C12426   2.385   0.440  13.416 -0.4786  0.1845  0.5275
  846MPD2    C112427   2.340   0.552  13.483 -0.3996 -0.8304 -0.3682
  846MPD2    C212428   2.331   0.540  13.622 -0.0281 -1.0431 -0.1793
  846MPD2    C312429   2.376   0.433  13.696 -0.1978  0.5487 -0.1319
  846MPD2    C412430   2.427   0.326  13.626  0.5320 -0.5835  0.2518
  846MPD2    C512431   2.429   0.336  13.483  0.1173  0.9681 -0.2461
  846MPD2     H12432   2.287   0.627  13.671 -0.4627 -1.7018  0.6140
  846MPD2    H112433   2.451   0.234  13.678  0.7590 -0.9262 -0.4629
  846MPD2    H212434   2.395   0.431  13.309  2.1189  1.7892  0.6352
  846MPD2    H312435   2.478   0.256  13.429  0.2162  0.0820  1.1288
  846MPD2     N12436   2.364   0.434  13.836  0.5564  0.2297  0.0922
  846MPD2    H512437   2.316   0.514  13.876  0.2506  0.5627 -0.9180
  846MPD2    N112438   2.298   0.674  13.425  0.4405  0.2296 -0.4982
  846MPD2    H712439   2.279   0.752  13.487 -0.7849 -0.5476  0.1023
  847MPD2     C12440   2.555   1.526  14.236  0.2328 -0.1412 -0.0433
  847MPD2    C112441   2.650   1.556  14.333 -1.0605  0.0416  0.3682
  847MPD2    C212442   2.668   1.461  14.433  0.1493 -0.2642  0.0155
  847MPD2    C312443   2.598   1.341  14.435  0.2824 -0.2327  0.1908
  847MPD2    C412444   2.510   1.312  14.331 -0.2931 -0.0658 -0.0859
  847MPD2    C512445   2.493   1.402  14.231 -0.2628 -0.4873  0.2886
  847MPD2     H12446   2.739   1.466  14.515  1.6173  2.9665 -1.4331
  847MPD2    H112447   2.454   1.219  14.324  2.4027 -1.7692  0.8694
  847MPD2    H212448   2.526   1.592  14.155  3.1357  1.7943  0.4753
  847MPD2    H312449   2.416   1.385  14.156  0.4682  0.3728 -0.6580
  847MPD2     N12450   2.626   1.260  14.549 -0.5396  0.6008 -0.1775
  847MPD2    H512451   2.698   1.295  14.611 -1.2429  1.3449  0.2278
  847MPD2    N112452   2.721   1.674  14.341  0.2541  0.0852  0.0257
  847MPD2    H712453   2.772   1.684  14.428 -2.6028  1.6897  1.5014
  848MPD2     C12454   0.407   4.504  16.228 -0.1746 -0.3429 -0.3635
  848MPD2    C112455   0.483   4.549  16.336 -0.1952  0.1504  0.5000
  848MPD2    C212456   0.554   4.668  16.337  0.9422  0.3183 -0.9910
  848MPD2    C312457   0.548   0.023  16.231  0.1799  0.3219 -0.3288
  848MPD2    C412458   0.466   4.716  16.125  0.4353  0.2081 -0.2680
  848MPD2    C512459   0.397   4.595  16.126 -0.5036  0.7878 -0.4559
  848MPD2     H12460   0.599   4.700  16.430 -0.6551 -0.3664  0.0333
  848MPD2    H112461   0.443   0.056  16.043  0.4048  1.2229  0.5615
  848MPD2    H212462   0.338   4.424  16.208  0.6355 -0.8732 -1.0517
  848MPD2    H312463   0.332   4.576  16.042 -1.0062  1.6724 -0.2632
  848MPD2     N12464   0.605   0.151  16.224  0.7245 -0.5480  0.3275
  848MPD2    H512465   0.574   0.204  16.143  1.5945  2.0191  1.6776
  848MPD2    N112466   0.489   4.476  16.461  0.7915  0.3653 -0.0617
  848MPD2    H712467   0.532   4.519  16.543 -2.1109 -0.8512  2.0689
  849MPD2     C12468   4.294   4.492  13.242 -0.0538 -0.2222  0.0186
  849MPD2    C112469   4.340   4.373  13.295  0.4756 -1.1728 -0.1901
  849MPD2    C212470   4.317   4.347  13.428 -0.3892  0.3405  0.3958
  849MPD2    C312471   4.250   4.432  13.513 -0.1775  0.2877  0.5880
  849MPD2    C412472   4.201   4.550  13.456 -0.4109  0.3718  0.4138
  849MPD2    C512473   4.233   4.582  13.327  0.1527  0.0999  0.5249
  849MPD2     H12474   4.361   4.258  13.470 -2.3645 -2.5884 -3.6993
  849MPD2    H112475   4.149   4.626  13.514  0.5456  0.8352  0.6643
  849MPD2    H212476   4.317   4.526  13.141  1.2395 -1.7704 -0.1958
  849MPD2    H312477   4.214   4.674  13.272 -0.1240 -1.7769 -2.5060
  849MPD2     N12478   4.254   4.406  13.649  0.6409  0.9101  0.4206
  849MPD2    H512479   4.310   4.325  13.674 -2.3453 -1.7145 -1.3732
  849MPD2    N112480   4.420   4.281  13.219  0.0637 -0.6210  0.3520
  849MPD2    H712481   4.449   4.200  13.273  0.4018 -0.6028  0.2017
  850MPD2     C12482   2.860   2.598  14.927 -0.3168  0.1203 -0.1606
  850MPD2    C112483   2.850   2.702  15.020  0.3031  0.7942 -0.3078
  850MPD2    C212484   2.962   2.773  15.048 -0.5902  0.9611  0.3456
  850MPD2    C312485   3.087   2.729  15.008  0.3502 -0.3903 -0.1342
  850MPD2    C412486   3.092   2.626  14.914 -0.3381 -0.0124 -0.3922
  850MPD2    C512487   2.979   2.565  14.875 -0.3294  0.2985  0.1030
  850MPD2     H12488   2.953   2.867  15.101 -0.2576  1.2351 -0.0829
  850MPD2    H112489   3.186   2.598  14.870 -0.5814  0.3267 -1.1264
  850MPD2    H212490   2.781   2.530  14.898 -1.7482  1.3153  1.0157
  850MPD2    H312491   2.983   2.477  14.812 -4.0088 -0.0126  0.3419
  850MPD2     N12492   3.208   2.781  15.057 -0.0998  0.1760  0.0440
  850MPD2    H512493   3.293   2.737  15.022 -0.0467 -0.1172  0.5426
  850MPD2    N112494   2.716   2.728  15.058 -0.1853 -0.1976  0.2272
  850MPD2    H712495   2.651   2.657  15.025  0.6001 -0.1078 -1.5392
  851MPD2     C12496   2.646   2.315  15.050  0.4070  0.4752  0.0192
  851MPD2    C112497   2.515   2.341  15.063 -0.2832  0.6801 -0.6721
  851MPD2    C212498   2.423   2.251  15.001 -0.0684 -0.0664 -0.1272
  851MPD2    C312499   2.465   2.139  14.945  0.1353  0.0113  0.0880
  851MPD2    C412500   2.600   2.119  14.920 -0.3987  0.2574  0.1635
  851MPD2    C512501   2.690   2.212  14.969 -0.6120  0.1272  0.2132
  851MPD2     H12502   2.317   2.264  15.018  0.0334  2.5033 -1.4648
  851MPD2    H112503   2.638   2.027  14.877  1.1227  1.1412 -0.4135
  851MPD2    H212504   2.721   2.385  15.087  0.0795 -0.3041  2.1493
  851MPD2    H312505   2.795   2.195  14.951 -0.8751 -0.9052 -0.3229
  851MPD2     N12506   2.364   2.053  14.903  0.3219 -0.1618 -0.1292
  851MPD2    H512507   2.266   2.069  14.924  0.8349  1.7331  0.8494
  851MPD2    N112508   2.479   2.454  15.137 -0.6707 -0.4493 -0.6210
  851MPD2    H712509   2.557   2.510  15.170 -1.0348  0.8056 -1.8672
  852MPD2     C12510   1.900   0.036   9.340 -0.0256 -0.2270 -0.7012
  852MPD2    C112511   1.955   0.066   9.461  0.2273  1.0127 -0.4898
  852MPD2    C212512   2.064   0.145   9.475  0.2181 -0.1557 -0.3627
  852MPD2    C312513   2.114   0.206   9.359 -0.4375  0.1106  0.0377
  852MPD2    C412514   2.060   0.174   9.238 -0.3247  0.0616 -0.1514
  852MPD2    C512515   1.954   0.094   9.226  0.6212 -0.0333  0.1800
  852MPD2     H12516   2.095   0.157   9.578 -0.4395 -0.3353 -0.1446
  852MPD2    H112517   2.094   0.223   9.147  0.3466  2.4881  1.4093
  852MPD2    H212518   1.816   4.699   9.319 -1.4800  0.8204  2.0055
  852MPD2    H312519   1.921   0.061   9.129  0.9202 -0.7526  0.3189
  852MPD2     N12520   2.229   0.285   9.378 -0.3319  0.1518 -0.3037
  852MPD2    H512521   2.271   0.307   9.468 -1.0276 -0.4101  0.1587
  852MPD2    N112522   1.896   0.013   9.582  0.2857 -0.0653  0.4471
  852MPD2    H712523   1.948   0.031   9.668 -2.2840 -0.2841  2.0438
  853MPD2     C12524   4.447   0.317  12.234  0.1848  0.0222 -0.0666
  853MPD2    C112525   4.311   0.309  12.266  0.1472 -0.0250 -0.1706
  853MPD2    C212526   4.228   0.245  12.176 -0.2222  0.4389 -0.4639
  853MPD2    C312527   4.275   0.192  12.057 -0.1900 -0.2263  0.7727
  853MPD2    C412528   4.403   0.195  12.029  0.0392 -0.1806 -0.1018
  853MPD2    C512529   4.491   0.257  12.120 -0.0633 -0.8706 -0.1727
  853MPD2     H12530   4.121   0.237  12.195 -0.0514 -0.2404  0.2174
  853MPD2    H112531   4.437   0.139  11.943  0.0712 -3.0059  1.7278
  853MPD2    H212532   4.519   0.365  12.299  0.9399 -1.9590  0.5738
  853MPD2    H312533   4.596   0.250  12.095  0.1653  1.2580  0.2340
  853MPD2     N12534   4.181   0.148  11.959 -0.3007 -0.1280  0.0597
  853MPD2    H512535   4.083   0.160  11.979 -0.2659 -0.7018  0.5933
  853MPD2    N112536   4.271   0.367  12.390  0.4790  0.0778  0.7234
  853MPD2    H712537   4.334   0.421  12.448 -0.8921  1.1556  1.2107
  854MPD2     C12538   0.559   0.284  13.205 -0.5427 -0.2275  0.0475
  854MPD2    C112539   0.611   0.257  13.079  0.5533  0.4274  0.2317
  854MPD2    C212540   0.639   0.124  13.048  0.0942 -0.5701  0.1332
  854MPD2    C312541   0.598   0.027  13.137 -0.7924 -0.1465 -0.8360
  854MPD2    C412542   0.538   0.056  13.256 -0.5625  0.1356  0.1061
  854MPD2    C512543   0.514   0.188  13.293 -0.2362  0.5408 -0.1086
  854MPD2     H12544   0.678   0.091  12.952  0.9880 -1.5123  0.8090
  854MPD2    H112545   0.522   4.700  13.324  0.2108  0.1014  0.2534
  854MPD2    H212546   0.529   0.386  13.225  0.9999  0.3616 -0.6206
  854MPD2    H312547   0.465   0.209  13.387  0.1685 -0.9991  0.4409
  854MPD2     N12548   0.621   4.611  13.109 -0.1217 -0.2884  0.2290
  854MPD2    H512549   0.595   4.546  13.182 -0.2898 -0.6077 -0.1179
  854MPD2    N112550   0.654   0.368  13.002  0.3455  0.4047 -0.0447
  854MPD2    H712551   0.659   0.458  13.048 -0.7900  0.6373 -0.3723
  855MPD2     C12552   0.784   4.259  13.745  0.1707 -0.4180 -0.1260
  855MPD2    C112553   0.877   4.209  13.662 -0.1539  0.7873 -1.0607
  855MPD2    C212554   0.838   4.184  13.531  0.2713 -0.4962  0.5771
  855MPD2    C312555   0.723   4.236  13.485 -0.0059  0.4557 -0.0589
  855MPD2    C412556   0.625   4.283  13.572 -0.8884  0.0114 -0.1229
  855MPD2    C512557   0.654   4.270  13.704 -0.3836 -0.4719  0.3928
  855MPD2     H12558   0.918   4.142  13.471 -0.7073 -0.9663 -0.4042
  855MPD2    H112559   0.523   4.303  13.544 -1.0704  0.4007  0.8070
  855MPD2    H212560   0.809   4.281  13.848  1.1258  1.2257 -0.6959
  855MPD2    H312561   0.588   4.308  13.780  0.8855 -0.0972  1.3157
  855MPD2     N12562   0.684   4.223  13.348  0.9947  0.8010 -0.3051
  855MPD2    H512563   0.613   4.289  13.317 -1.2773 -1.5493 -0.0628
  855MPD2    N112564   1.005   4.178  13.705 -0.3037  0.1218  0.1453
  855MPD2    H712565   1.072   4.159  13.631 -1.2590 -0.4936 -0.5557
  856MPD2     C12566   3.176   0.626  14.204 -0.2963  0.8076 -0.5560
  856MPD2    C112567   3.234   0.733  14.131 -0.4518 -0.1213  0.5808
  856MPD2    C212568   3.156   0.833  14.078  0.1807  0.5820 -0.6528
  856MPD2    C312569   3.020   0.839  14.102  0.0188  0.1640  0.2601
  856MPD2    C412570   2.969   0.732  14.181  0.1594 -0.2787  0.4436
  856MPD2    C512571   3.046   0.633  14.242  0.6125 -0.0115 -0.4028
  856MPD2     H12572   3.203   0.900  14.007 -0.8316  1.6451 -0.2979
  856MPD2    H112573   2.861   0.735  14.194  0.0662  1.0676 -0.6785
  856MPD2    H212574   3.230   0.537  14.233 -0.5889  0.6322 -0.5553
  856MPD2    H312575   2.995   0.554  14.297 -0.9178  1.4889  0.3232
  856MPD2     N12576   2.936   0.949  14.066  0.5477  0.0202 -0.2457
  856MPD2    H512577   2.852   0.956  14.123  0.8868 -0.0503  0.2679
  856MPD2    N112578   3.371   0.745  14.090 -0.8534 -0.1633 -0.0205
  856MPD2    H712579   3.392   0.832  14.043 -1.0320 -0.1663 -0.1083
  857MPD2     C12580   0.142   2.958  13.415  0.2136 -0.1775 -0.1004
  857MPD2    C112581   0.247   2.960  13.328 -0.1814  0.1132  0.4580
  857MPD2    C212582   0.352   3.054  13.348 -0.5310  0.3619 -0.3632
  857MPD2    C312583   0.359   3.131  13.461 -0.5739  0.9291  0.4636
  857MPD2    C412584   0.256   3.126  13.551  0.5535  0.0303 -0.0818
  857MPD2    C512585   0.149   3.040  13.523  0.3437 -0.0906 -0.0071
  857MPD2     H12586   0.437   3.072  13.283 -0.1250  2.7818  0.8507
  857MPD2    H112587   0.254   3.199  13.631 -1.7376 -0.0150 -0.0757
  857MPD2    H212588   0.053   2.900  13.398 -0.4941  0.3646  1.6747
  857MPD2    H312589   0.055   3.048  13.576 -0.7740  0.4844 -2.0666
  857MPD2     N12590   0.457   3.232  13.466  0.1736 -0.7706 -0.5239
  857MPD2    H512591   0.508   3.251  13.381  1.3835 -0.4549  0.2582
  857MPD2    N112592   0.253   2.867  13.229 -0.1133 -0.0038  0.5375
  857MPD2    H712593   0.203   2.779  13.241  0.2808 -0.2067  0.6780
  858MPD2     C12594   0.350   1.605  16.641 -0.8148  0.2157  0.0951
  858MPD2    C112595   0.456   1.658  16.566  0.2629  0.0939 -0.2000
  858MPD2    C212596   0.516   1.777  16.609 -0.2503 -0.4232 -0.1843
  858MPD2    C312597   0.475   1.837  16.723 -0.1593 -0.3354  0.0049
  858MPD2    C412598   0.363   1.786  16.794 -0.0928 -0.6168  0.0487
  858MPD2    C512599   0.296   1.675  16.748  0.1434  0.0719 -0.4535
  858MPD2     H12600   0.601   1.812  16.550 -0.5282 -1.2989 -1.1053
  858MPD2    H112601   0.334   1.834  16.887  2.6182  0.4904  0.3374
  858MPD2    H212602   0.308   1.509  16.611 -0.2650 -0.8314  2.6798
  858MPD2    H312603   0.210   1.646  16.807  1.0300  1.8148  1.7500
  858MPD2     N12604   0.538   1.948  16.770 -0.5639  0.4321 -0.4070
  858MPD2    H512605   0.502   1.982  16.858  0.4329 -1.5114  0.7489
  858MPD2    N112606   0.507   1.585  16.461 -0.1534  0.2246  0.4826
  858MPD2    H712607   0.464   1.494  16.446  1.0686 -0.0810 -1.1846
  859MPD2     C12608   4.203   4.384  15.768 -0.8872  0.7335  0.5844
  859MPD2    C112609   4.239   4.299  15.669  0.3222  0.3950  0.6690
  859MPD2    C212610   4.232   4.155  15.687  0.7345 -0.1599 -0.6380
  859MPD2    C312611   4.190   4.104  15.812 -0.2993 -0.5752 -0.7948
  859MPD2    C412612   4.162   4.189  15.914 -0.2750 -0.2963 -0.3963
  859MPD2    C512613   4.169   4.326  15.891 -0.0940 -0.7562 -0.4683
  859MPD2     H12614   4.251   4.093  15.600  0.9048  0.1007 -0.7893
  859MPD2    H112615   4.143   4.156  16.015  0.5289 -2.6083 -1.0013
  859MPD2    H212616   4.197   4.493  15.771  1.6556  0.8823  0.5218
  859MPD2    H312617   4.140   4.390  15.973  1.7427  1.0311 -1.2272
  859MPD2     N12618   4.188   3.967  15.842  0.0417  0.2658  0.0352
  859MPD2    H512619   4.170   3.945  15.939 -1.3651 -0.7034 -0.4401
  859MPD2    N112620   4.288   4.348  15.543 -0.6518  0.2472 -0.7852
  859MPD2    H712621   4.334   4.278  15.486 -1.3575 -0.1845 -0.8124
  860MPD2     C12622   1.453   4.642  11.314  0.1427 -0.3157  0.5834
  860MPD2    C112623   1.514   4.703  11.418  0.4366 -0.5202  0.4136
  860MPD2    C212624   1.460   4.693  11.548 -0.1644 -0.5150 -0.4210
  860MPD2    C312625   1.363   4.606  11.572 -0.0021 -0.0301 -0.1797
  860MPD2    C412626   1.313   4.525  11.468 -0.3554  0.4303  0.1659
  860MPD2    C512627   1.361   4.546  11.340  0.3931  0.3823  0.5289
  860MPD2     H12628   1.519   0.008  11.629 -1.4465  1.0192 -0.2835
  860MPD2    H112629   1.237   4.448  11.482 -2.3399  1.9024 -2.6124
  860MPD2    H212630   1.480   4.661  11.210 -1.3927 -2.6840 -0.2543
  860MPD2    H312631   1.307   4.506  11.255 -1.0196  0.6982  1.2777
  860MPD2     N12632   1.325   4.594  11.710  0.5989 -0.2279 -0.1924
  860MPD2    H512633   1.375   4.649  11.778 -1.6617  3.2044 -1.3197
  860MPD2    N112634   1.641   0.038  11.402 -0.3525 -0.3372  0.0850
  860MPD2    H712635   1.688   0.070  11.486 -1.9060  2.9165 -0.2897
  861MPD2     C12636   0.783   2.960  11.016  0.6338 -0.3289  0.1315
  861MPD2    C112637   0.677   2.959  11.097  0.1343  0.1374  0.2735
  861MPD2    C212638   0.546   2.951  11.040  0.6132  0.0873  0.1181
  861MPD2    C312639   0.526   2.948  10.905  0.4373  0.3065 -0.3367
  861MPD2    C412640   0.637   2.944  10.822  0.2335 -0.3433  0.5862
  861MPD2    C512641   0.766   2.947  10.876 -0.3756  0.3092  0.2953
  861MPD2     H12642   0.460   2.953  11.106  1.1718 -0.9891  0.8701
  861MPD2    H112643   0.615   2.954  10.716  1.7256  2.5393  0.5681
  861MPD2    H212644   0.882   2.953  11.058  1.3947  0.5049 -1.5066
  861MPD2    H312645   0.854   2.941  10.814 -0.7004  0.4406 -0.1802
  861MPD2     N12646   0.401   2.969  10.838  0.8471 -0.1932 -0.1411
  861MPD2    H512647   0.401   2.965  10.737 -2.7771  1.3679 -0.1738
  861MPD2    N112648   0.678   2.978  11.237  0.0918  0.5871  0.6022
  861MPD2    H712649   0.593   2.960  11.289  0.0860  0.8216  0.6754
  862MPD2     C12650   4.686   2.829  10.250 -0.2890 -0.9137  0.1062
  862MPD2    C112651   0.064   2.809  10.337 -0.3542 -0.0284  0.1362
  862MPD2    C212652   0.175   2.731  10.292  0.2954  0.2051 -0.0917
  862MPD2    C312653   0.175   2.664  10.172  0.4946 -0.4693  0.3976
  862MPD2    C412654   0.066   2.682  10.088  0.2393  0.5540  0.0355
  862MPD2    C512655   4.690   2.764  10.128 -0.2714  0.4630  1.1932
  862MPD2     H12656   0.249   2.719  10.370  1.1539  0.8365 -0.8238
  862MPD2    H112657   0.067   2.635   9.990  2.2507 -0.3535  0.4974
  862MPD2    H212658   4.602   2.892  10.276  0.4387 -0.3200  1.0318
  862MPD2    H312659   4.603   2.782  10.066  1.1673  2.6017 -0.2186
  862MPD2     N12660   0.281   2.575  10.131  0.3098 -0.6764  0.0452
  862MPD2    H512661   0.265   2.529  10.042 -0.2377 -1.8076  0.7304
  862MPD2    N112662   0.078   2.868  10.464 -0.0253 -0.3909  0.3806
  862MPD2    H712663   0.172   2.868  10.501  0.0402  1.5270  0.1707
  863MPD2     C12664   3.541   1.087  17.044  0.5683  0.2028  0.1922
  863MPD2    C112665   3.628   1.109  16.940 -0.0113  0.3023 -0.2227
  863MPD2    C212666   3.760   1.076  16.962  0.2351 -0.6010  0.1126
  863MPD2    C312667   3.810   1.015  17.077 -0.0946  0.1612  0.3773
  863MPD2    C412668   3.722   1.006  17.183 -0.2292  0.0504  0.0860
  863MPD2    C512669   3.592   1.035  17.157  0.1884  0.1510 -0.2808
  863MPD2     H12670   3.834   1.098  16.886 -1.4878 -0.6902 -1.5980
  863MPD2    H112671   3.742   0.971  17.284  1.5907 -2.8423 -1.2657
  863MPD2    H212672   3.436   1.114  17.033 -0.4202 -3.1736  1.0973
  863MPD2    H312673   3.525   1.038  17.242 -0.2840  1.1684 -0.6873
  863MPD2     N12674   3.947   0.975  17.087  0.6356  0.3672 -0.4186
  863MPD2    H512675   3.970   0.903  17.155  0.9925  0.5237 -0.3753
  863MPD2    N112676   3.573   1.160  16.816  0.3893 -0.6030  0.3710
  863MPD2    H712677   3.472   1.163  16.807  0.2797  1.8414  2.4541
  864MPD2     C12678   4.374   1.992  17.421 -0.0723  0.1071  0.9558
  864MPD2    C112679   4.461   1.932  17.337  0.0928  0.3503  0.4118
  864MPD2    C212680   4.559   2.011  17.280  0.2692 -0.0782 -0.4970
  864MPD2    C312681   4.558   2.151  17.286 -0.2646  0.1079 -0.4647
  864MPD2    C412682   4.461   2.206  17.367 -0.5651  0.3914  0.2716
  864MPD2    C512683   4.381   2.129  17.437 -0.4470  0.4333  0.0736
  864MPD2     H12684   4.640   1.971  17.218  2.4245  3.6090 -0.0406
  864MPD2    H112685   4.446   2.312  17.387 -0.2074  0.5166 -0.1358
  864MPD2    H212686   4.289   1.930  17.446  0.1073  0.0996  1.5407
  864MPD2    H312687   4.312   2.172  17.508 -0.2548  2.6020 -1.0762
  864MPD2     N12688   4.652   2.224  17.206 -0.4208 -0.2986  0.8556
  864MPD2    H512689   4.723   2.172  17.155  1.1510  2.5405  0.1558
  864MPD2    N112690   4.439   1.790  17.306  0.0882 -0.2104  0.5128
  864MPD2    H712691   4.362   1.743  17.351  0.2352 -0.1120  0.8630
  865MPD2     C12692   4.634   2.563  16.290 -0.1260 -0.5735 -0.0091
  865MPD2    C112693   4.642   2.458  16.380 -0.2086 -0.3871  0.3450
  865MPD2    C212694   4.658   2.486  16.514 -0.1014  1.0024 -0.0887
  865MPD2    C312695   4.669   2.616  16.563  0.4392 -0.1631  0.4018
  865MPD2    C412696   4.672   2.719  16.473  0.6182 -0.0771 -0.3253
  865MPD2    C512697   4.646   2.692  16.340 -0.8802  0.4237 -0.2537
  865MPD2     H12698   4.675   2.405  16.584 -2.0730  0.3470 -0.3901
  865MPD2    H112699   4.694   2.822  16.500 -1.1687  0.5963 -1.4109
  865MPD2    H212700   4.625   2.546  16.184 -2.3853 -0.0182  0.1019
  865MPD2    H312701   4.627   2.773  16.271  0.4258  1.6234  0.7951
  865MPD2     N12702   4.710   2.637  16.694 -0.0927 -0.2929 -0.2618
  865MPD2    H512703   0.034   2.722  16.718  0.1601 -0.4157 -0.3665
  865MPD2    N112704   4.628   2.333  16.324 -0.3809  0.0480  0.3523
  865MPD2    H712705   4.624   2.332  16.222  1.3566 -0.5139  0.3024
  866MPD2     C12706   1.339   3.527  11.409  0.5656 -0.1825  0.3783
  866MPD2    C112707   1.325   3.506  11.274 -0.9430  0.5789 -0.1888
  866MPD2    C212708   1.202   3.484  11.224  0.1418  0.0021  0.8722
  866MPD2    C312709   1.087   3.489  11.305  0.1795  0.3404 -0.5498
  866MPD2    C412710   1.101   3.533  11.441 -0.3289 -0.1090 -0.2058
  866MPD2    C512711   1.232   3.539  11.486  0.1460  0.0137 -0.0042
  866MPD2     H12712   1.199   3.450  11.121  2.3811  0.9570  0.4880
  866MPD2    H112713   1.023   3.548  11.515 -0.0289  1.8358 -0.3001
  866MPD2    H212714   1.437   3.560  11.441  0.1966 -0.5188  1.8613
  866MPD2    H312715   1.262   3.553  11.590  0.1479  0.8586 -0.1195
  866MPD2     N12716   0.958   3.454  11.260  0.6724 -0.1834 -0.3882
  866MPD2    H512717   0.875   3.480  11.312  0.5307 -1.0074 -0.2014
  866MPD2    N112718   1.445   3.532  11.203 -0.0057  0.4624 -0.2332
  866MPD2    H712719   1.527   3.549  11.261  1.3874  1.0733 -2.3897
  867MPD2     C12720   3.429   2.237  16.320 -0.6912 -0.2365  0.2843
  867MPD2    C112721   3.485   2.226  16.448 -0.2007  0.3794 -0.5401
  867MPD2    C212722   3.499   2.338  16.527 -1.0165 -0.7071 -0.9630
  867MPD2    C312723   3.464   2.464  16.477  0.0263  0.1423 -0.0913
  867MPD2    C412724   3.427   2.473  16.347  0.1053 -0.6073 -0.5897
  867MPD2    C512725   3.414   2.362  16.265  0.2622 -0.2994 -0.1085
  867MPD2     H12726   3.526   2.320  16.630 -0.4684 -3.3402 -1.5772
  867MPD2    H112727   3.413   2.572  16.304 -2.7356  0.2856  2.3991
  867MPD2    H212728   3.404   2.151  16.259  0.6208 -0.9592  0.7644
  867MPD2    H312729   3.359   2.368  16.172  0.6890  3.1471 -0.1526
  867MPD2     N12730   3.474   2.579  16.551 -0.5348 -0.5177 -0.7757
  867MPD2    H512731   3.437   2.665  16.513  1.1347 -0.2402 -1.7556
  867MPD2    N112732   3.508   2.092  16.483 -0.4129  0.0134 -0.3912
  867MPD2    H712733   3.482   2.029  16.408 -2.4262 -0.7228  0.9243
  868MPD2     C12734   0.525   1.632  13.007 -0.4486 -0.6192 -0.1356
  868MPD2    C112735   0.531   1.516  13.086 -0.1588 -0.3769 -0.2237
  868MPD2    C212736   0.487   1.528  13.219  0.5562 -0.1410 -0.2463
  868MPD2    C312737   0.426   1.643  13.262  0.1231  0.5213  0.1581
  868MPD2    C412738   0.430   1.753  13.187 -0.7598  0.4236  0.2200
  868MPD2    C512739   0.476   1.748  13.056 -0.1106  0.3119 -0.0045
  868MPD2     H12740   0.492   1.435  13.276  0.0373  1.0056  1.6714
  868MPD2    H112741   0.400   1.853  13.219  1.8484  0.5067  2.3997
  868MPD2    H212742   0.572   1.635  12.909 -1.1585  0.6521 -0.4417
  868MPD2    H312743   0.490   1.841  13.002  2.6775 -0.0196  0.1710
  868MPD2     N12744   0.374   1.645  13.393 -0.8155  0.4608  0.0346
  868MPD2    H512745   0.384   1.561  13.449  1.5329  0.1564 -0.8577
  868MPD2    N112746   0.603   1.409  13.029  1.0981  0.0730  0.5945
  868MPD2    H712747   0.641   1.414  12.936 -1.9020  1.7939 -0.5465
  869MPD2     C12748   1.400   3.326   1.354  0.2244  0.1911 -0.5287
  869MPD2    C112749   1.490   3.361   1.257 -0.0619  0.0823 -0.9156
  869MPD2    C212750   1.488   3.488   1.200 -0.1375 -0.2865  0.3514
  869MPD2    C312751   1.395   3.578   1.247 -0.0442  0.4546  0.7400
  869MPD2    C412752   1.313   3.547   1.345  0.2304  0.5053 -0.1734
  869MPD2    C512753   1.313   3.425   1.399 -0.1204 -0.1489  0.8201
  869MPD2     H12754   1.555   3.509   1.117  0.6334 -2.2732  0.4682
  869MPD2    H112755   1.250   3.615   1.401 -0.3856  0.2169 -0.5258
  869MPD2    H212756   1.408   3.228   1.400 -0.1379  1.1648  1.6062
  869MPD2    H312757   1.238   3.402   1.474 -1.6308  0.2164 -0.5935
  869MPD2     N12758   1.373   3.704   1.184 -0.0187  0.4658 -0.1456
  869MPD2    H512759   1.314   3.776   1.226  3.8765  2.3516  2.1003
  869MPD2    N112760   1.582   3.254   1.222  0.0391 -0.0446  0.0054
  869MPD2    H712761   1.549   3.171   1.271 -1.4434  0.1943 -0.5814
  870MPD2     C12762   0.547   3.041   1.533 -0.2253  1.0907 -1.0361
  870MPD2    C112763   0.631   2.975   1.444 -0.4272 -0.7497  0.5302
  870MPD2    C212764   0.649   3.025   1.317  0.6710 -0.9451 -0.3298
  870MPD2    C312765   0.604   3.155   1.290  0.3841 -0.2858  0.0038
  870MPD2    C412766   0.519   3.225   1.376  1.0516 -0.1452 -0.0448
  870MPD2    C512767   0.483   3.153   1.490  0.3949  0.2013 -0.2158
  870MPD2     H12768   0.722   2.978   1.252  1.6142 -3.4372  2.5436
  870MPD2    H112769   0.479   3.323   1.357  0.1728 -0.5288 -0.1739
  870MPD2    H212770   0.528   3.006   1.634  2.1060  3.1810  0.1308
  870MPD2    H312771   0.414   3.200   1.559  3.0814  1.7387  1.3844
  870MPD2     N12772   0.652   3.205   1.169  0.1048 -1.0042  0.0051
  870MPD2    H512773   0.720   3.144   1.126  1.3979 -1.1091  2.1640
  870MPD2    N112774   0.674   2.847   1.490 -0.1881  0.5723 -0.5027
  870MPD2    H712775   0.633   2.821   1.579 -2.1854  2.4304 -0.9022
  871MPD2     C12776   2.538   2.979  16.219 -0.0033  0.0102 -0.0955
  871MPD2    C112777   2.456   2.868  16.246 -0.2752  0.3071  0.6946
  871MPD2    C212778   2.485   2.751  16.183 -0.1192  0.1714 -0.3309
  871MPD2    C312779   2.593   2.741  16.098  0.4180  0.8098  0.3006
  871MPD2    C412780   2.675   2.850  16.065  0.2809 -0.1151 -0.5607
  871MPD2    C512781   2.630   2.970  16.122  0.5908  0.4594  0.1711
  871MPD2     H12782   2.425   2.666  16.209  1.8937 -0.6082  1.7145
  871MPD2    H112783   2.752   2.847  15.989  0.5760  0.4009 -0.2799
  871MPD2    H212784   2.541   3.071  16.277  0.1389  1.2525 -2.0972
  871MPD2    H312785   2.701   3.052  16.112  2.3518 -0.8434  1.9113
  871MPD2     N12786   2.609   2.615  16.035 -0.4325 -0.0243 -0.4127
  871MPD2    H512787   2.543   2.541  16.055  0.9461 -1.4531 -1.1721
  871MPD2    N112788   2.360   2.893  16.347 -0.0995  0.4098 -0.4325
  871MPD2    H712789   2.342   2.987  16.382  2.8414  1.0444 -0.6032
  872MPD2     C12790   3.135   4.547  13.455 -0.1361  0.2458 -0.0352
  872MPD2    C112791   3.065   4.661  13.492 -0.0292  0.2701  0.3696
  872MPD2    C212792   2.983   4.662  13.602 -0.0456 -0.0570 -0.1521
  872MPD2    C312793   2.970   4.549  13.678  0.0547 -0.2055 -0.6271
  872MPD2    C412794   3.051   4.444  13.648 -0.4095  0.0952 -0.2321
  872MPD2    C512795   3.129   4.440  13.536 -0.2805 -0.1328  0.7926
  872MPD2     H12796   2.928   0.024  13.631  0.6084  0.4689 -0.5178
  872MPD2    H112797   3.054   4.354  13.708 -0.6035  0.3563  0.1667
  872MPD2    H212798   3.202   4.541  13.370 -0.9434 -2.0222 -0.5162
  872MPD2    H312799   3.197   4.358  13.517 -0.5066 -0.3149  0.7649
  872MPD2     N12800   2.883   4.541  13.786 -0.3062 -0.2732 -0.0611
  872MPD2    H512801   2.892   4.455  13.840 -2.0242 -0.7171 -0.4761
  872MPD2    N112802   3.088   0.059  13.426 -0.6426  0.0225 -0.0208
  872MPD2    H712803   3.039   0.142  13.457  1.3285  1.2827 -0.2348
  873MPD2     C12804   4.450   0.107   0.748 -0.0333  0.8889 -0.0359
  873MPD2    C112805   4.525   0.054   0.858 -0.3046  0.6955  0.2695
  873MPD2    C212806   4.591   4.665   0.831 -0.0958  0.1820 -0.1997
  873MPD2    C312807   4.580   4.598   0.708 -0.9025 -0.4122  0.8627
  873MPD2    C412808   4.499   4.649   0.606  0.0618 -0.9694  0.3770
  873MPD2    C512809   4.437   0.041   0.627  0.0836 -0.1818 -0.0898
  873MPD2     H12810   4.661   4.629   0.906 -1.4084 -2.1338 -0.0894
  873MPD2    H112811   4.503   4.597   0.511  2.8783  0.5616 -0.3662
  873MPD2    H212812   4.402   0.204   0.753  0.0163  0.8131  1.9587
  873MPD2    H312813   4.376   0.088   0.550 -2.4742 -2.1909  0.7096
  873MPD2     N12814   4.649   4.477   0.685 -0.4482 -0.5040  0.5248
  873MPD2    H512815   4.626   4.415   0.608  0.8125 -1.5284  0.9796
  873MPD2    N112816   4.532   0.137   0.973  0.5640  0.3390  0.1539
  873MPD2    H712817   4.460   0.208   0.985 -0.2633 -0.8133  2.0182
  874MPD2     C12818   0.004   0.242  15.972 -0.0550  0.2633 -0.2868
  874MPD2    C112819   0.074   0.191  16.076 -0.0609  0.0387 -0.0563
  874MPD2    C212820   0.194   0.245  16.115  0.6065 -0.1676 -0.1687
  874MPD2    C312821   0.239   0.360  16.054 -0.3782 -0.8142 -1.1673
  874MPD2    C412822   0.170   0.417  15.951 -0.4076  0.7193  0.4463
  874MPD2    C512823   0.049   0.359  15.911  0.0857  0.2522 -0.1129
  874MPD2     H12824   0.258   0.187  16.180 -0.2053  1.9468  2.5224
  874MPD2    H112825   0.200   0.509  15.903  0.0175  0.6963  0.6747
  874MPD2    H212826   4.635   0.212  15.931  1.0614 -2.7198 -0.7075
  874MPD2    H312827   4.720   0.403  15.829 -1.8541  0.4195  1.2789
  874MPD2     N12828   0.360   0.409  16.105  0.0344  0.0522 -0.2936
  874MPD2    H512829   0.384   0.377  16.199 -0.1989 -0.0025 -0.2539
  874MPD2    N112830   0.016   0.077  16.151 -0.3099  0.6459  0.0089
  874MPD2    H712831   4.646   0.050  16.134  0.7370 -1.3895 -2.7285
  875MPD2     C12832   0.752   2.987  14.530  0.6442  0.7599  0.1574
  875MPD2    C112833   0.637   3.008  14.605 -0.4843 -0.7344 -0.1388
  875MPD2    C212834   0.648   3.044  14.734  0.2942  0.0676  0.4013
  875MPD2    C312835   0.770   3.078  14.792  0.9072  0.0262 -0.4778
  875MPD2    C412836   0.883   3.065  14.716 -0.5992 -0.5825 -0.4581
  875MPD2    C512837   0.873   3.008  14.591  0.2687  0.9224  0.3347
  875MPD2     H12838   0.564   3.046  14.803 -0.3954  1.9414 -0.4918
  875MPD2    H112839   0.984   3.073  14.754 -0.8244 -2.1117  0.4573
  875MPD2    H212840   0.738   2.962  14.426 -0.6089 -1.0948  0.7703
  875MPD2    H312841   0.963   2.993  14.533  0.3245  0.4404  0.5451
  875MPD2     N12842   0.782   3.127  14.925 -0.2953 -0.8144 -0.2573
  875MPD2    H512843   0.874   3.156  14.959 -2.2696  2.3902  2.2998
  875MPD2    N112844   0.515   3.018  14.532 -0.1151 -1.0515  0.2582
  875MPD2    H712845   0.521   3.001  14.432 -1.0749  2.3233 -0.3756
  876MPD2     C12846   4.459   4.437  16.040  0.6209  0.0947 -0.5740
  876MPD2    C112847   4.594   4.427  16.022  0.1266  1.4507  0.9549
  876MPD2    C212848   4.664   4.322  16.087  0.0977 -0.2744  0.0207
  876MPD2    C312849   4.597   4.237  16.172  0.4136 -0.1956 -0.4830
  876MPD2    C412850   4.463   4.248  16.187 -0.8810  0.0527 -0.6230
  876MPD2    C512851   4.398   4.350  16.123 -0.2820 -0.3884 -0.6664
  876MPD2     H12852   0.043   4.303  16.076  0.2432  1.0191 -0.7724
  876MPD2    H112853   4.412   4.171  16.244  0.4186 -0.6022 -0.3370
  876MPD2    H212854   4.403   4.520  15.999 -0.8072 -0.1354  0.9087
  876MPD2    H312855   4.291   4.365  16.128 -0.8157 -3.5780 -2.5218
  876MPD2     N12856   4.681   4.140  16.240  0.6538  0.3054  0.2245
  876MPD2    H512857   0.050   4.127  16.210  0.0548  0.7467 -1.8837
  876MPD2    N112858   4.649   4.519  15.931 -0.0799 -0.2894  0.3452
  876MPD2    H712859   4.583   4.593  15.911 -1.2980 -2.1452 -2.5495
  877MPD2     C12860   4.458   0.236  15.352 -0.4593 -0.1140  0.2915
  877MPD2    C112861   4.597   0.219  15.329 -0.4070 -0.0548  0.5679
  877MPD2    C212862   4.654   0.240  15.202 -0.2740 -0.4393  0.5794
  877MPD2    C312863   4.579   0.300  15.097  0.0115 -0.1386 -1.0015
  877MPD2    C412864   4.448   0.309  15.123  0.4587 -0.0588  0.0308
  877MPD2    C512865   4.389   0.280  15.244  0.4614 -0.8942  0.4029
  877MPD2     H12866   0.034   0.226  15.191 -0.1145 -0.2758  1.9009
  877MPD2    H112867   4.384   0.353  15.046 -2.2713 -1.6940  1.3539
  877MPD2    H212868   4.409   0.216  15.447 -2.2039  4.7154  0.4014
  877MPD2    H312869   4.282   0.299  15.245  0.4414 -1.0158  0.5622
  877MPD2     N12870   4.623   0.330  14.972 -0.2388 -0.0996 -0.0959
  877MPD2    H512871   4.556   0.352  14.899  0.7343 -1.1330 -1.3111
  877MPD2    N112872   4.686   0.170  15.430 -0.5044 -0.1598 -0.1768
  877MPD2    H712873   0.056   0.153  15.403 -0.4079  1.7680 -1.0464
  878MPD2     C12874   0.320   4.555  12.665 -0.2715 -0.3891  0.7047
  878MPD2    C112875   0.231   4.450  12.633  0.0312  0.6383  0.0441
  878MPD2    C212876   0.218   4.336  12.702 -0.0053 -0.5489 -0.1264
  878MPD2    C312877   0.268   4.341  12.832  0.2191 -0.6030 -0.3690
  878MPD2    C412878   0.361   4.442  12.871 -0.1673  0.3496 -0.8788
  878MPD2    C512879   0.381   4.549  12.787  0.1290 -0.2973  0.0472
  878MPD2     H12880   0.161   4.251  12.665  0.4745  0.0772 -2.3135
  878MPD2    H112881   0.394   4.458  12.973 -4.7050 -0.4061  0.7136
  878MPD2    H212882   0.327   4.646  12.606 -0.1387 -2.2230 -2.0664
  878MPD2    H312883   0.447   4.627  12.823  1.9183 -2.4356  1.3661
  878MPD2     N12884   0.195   4.253  12.915  0.0206 -0.3103  0.9035
  878MPD2    H512885   0.125   4.199  12.868 -1.4737  2.4571 -0.0457
  878MPD2    N112886   0.145   4.463  12.519 -0.0027 -0.4143 -0.2466
  878MPD2    H712887   0.086   4.382  12.510  0.2369 -0.5168 -0.9040
  879MPD2     C12888   4.708   1.072  16.905 -0.3147  0.4595  0.2387
  879MPD2    C112889   0.061   0.971  16.964 -0.0980  0.4880  0.2060
  879MPD2    C212890   0.074   0.844  16.906  0.9345 -0.7874 -0.0706
  879MPD2    C312891   0.019   0.825  16.779 -0.0526  0.1972 -0.2360
  879MPD2    C412892   4.667   0.924  16.719  0.1058  0.3807  0.9982
  879MPD2    C512893   4.659   1.047  16.788 -0.4687  0.2647  0.3920
  879MPD2     H12894   0.142   0.768  16.943  0.9252 -1.3262 -1.1718
  879MPD2    H112895   4.630   0.909  16.618 -1.4727  0.3367  1.5753
  879MPD2    H212896   4.692   1.174  16.938 -2.2597  0.1784  0.2132
  879MPD2    H312897   4.613   1.131  16.737  0.6722 -0.0892 -1.2492
  879MPD2     N12898   0.046   0.715  16.695 -0.5145 -0.3927  0.2377
  879MPD2    H512899   0.004   0.715  16.603 -1.6473 -0.4997  0.7590
  879MPD2    N112900   0.120   1.009  17.083 -0.0623  0.4558  1.1543
  879MPD2    H712901   0.111   1.103  17.119  0.2971 -0.2521  3.0658
  880MPD2     C12902   1.206   2.483  17.419 -0.2205  0.3571  0.3716
  880MPD2    C112903   1.293   2.524  17.522 -1.4747 -0.2971  0.0034
  880MPD2    C212904   1.382   2.432  17.586 -0.1553  0.5176  0.0265
  880MPD2    C312905   1.379   2.298  17.563 -0.2425 -0.0579  0.3246
  880MPD2    C412906   1.290   2.261  17.457 -0.1895 -0.1022 -0.6288
  880MPD2    C512907   1.212   2.350  17.384  0.5115  0.5317  0.4180
  880MPD2     H12908   1.455   2.459  17.662  0.9740  0.4624 -1.0320
  880MPD2    H112909   1.284   2.156  17.432  2.8038 -0.9098  1.9676
  880MPD2    H212910   1.129   2.543  17.371 -2.1138 -0.5777  2.2580
  880MPD2    H312911   1.141   2.312  17.312 -0.7131 -0.1652  1.9795
  880MPD2     N12912   1.468   2.210  17.633  0.1444  0.4740 -0.2001
  880MPD2    H512913   1.532   2.252  17.699 -0.3983 -1.3833  1.5004
  880MPD2    N112914   1.281   2.658  17.570 -0.0806 -0.5124  0.4221
  880MPD2    H712915   1.223   2.720  17.515 -1.5152 -0.7955  1.6160
  881MPD2     C12916   1.417   3.641  17.515 -0.3554 -0.0834 -0.6374
  881MPD2    C112917   1.467   3.529  17.452  0.8218  0.5003 -0.1204
  881MPD2    C212918   1.406   3.410  17.492 -0.0964 -0.3884  0.2846
  881MPD2    C312919   1.298   3.399  17.583  1.0017 -0.2204  0.3796
  881MPD2    C412920   1.261   3.513  17.653  0.1131  0.0796 -0.4955
  881MPD2    C512921   1.336   3.626  17.624  0.0791  0.1454 -0.4125
  881MPD2     H12922   1.432   3.314  17.448 -0.8968 -0.1629 -0.6953
  881MPD2    H112923   1.191   3.519   0.028  0.2759 -1.3470 -0.2624
  881MPD2    H212924   1.455   3.740  17.495  0.3335 -0.6025 -1.8970
  881MPD2    H312925   1.304   3.719  17.671  1.7846  1.0746 -1.1006
  881MPD2     N12926   1.235   3.279  17.617 -0.5026  0.3103 -0.0687
  881MPD2    H512927   1.157   3.292  17.680 -0.1122 -1.7980  0.8539
  881MPD2    N112928   1.541   3.555  17.334 -0.1716  0.2468  0.6929
  881MPD2    H712929   1.552   3.651  17.304 -3.2155 -0.2184 -1.9608
  882MPD2     C12930   4.578   0.485  14.157 -0.0052 -0.5991 -0.4287
  882MPD2    C112931   4.518   0.447  14.280 -0.2194  0.4129 -0.0557
  882MPD2    C212932   4.383   0.438  14.279 -0.4827 -0.9675 -0.5276
  882MPD2    C312933   4.301   0.457  14.167 -0.6881 -0.1992  0.1067
  882MPD2    C412934   4.360   0.493  14.048 -0.7396 -0.0816 -0.3256
  882MPD2    C512935   4.496   0.499  14.043 -0.3244  1.2337 -0.1464
  882MPD2     H12936   4.340   0.424  14.378  1.0870 -2.0025  0.0132
  882MPD2    H112937   4.293   0.531  13.973  0.2409 -0.8043 -1.5673
  882MPD2    H212938   4.685   0.501  14.150 -0.5615  3.1435 -0.0496
  882MPD2    H312939   4.538   0.537  13.951 -2.1725 -0.3303 -1.6442
  882MPD2     N12940   4.157   0.436  14.186 -0.0772  0.0304 -0.5078
  882MPD2    H512941   4.139   0.388  14.273  2.3438  1.8476  1.0051
  882MPD2    N112942   4.599   0.430  14.389 -0.1383 -0.6841  0.0777
  882MPD2    H712943   4.699   0.442  14.379 -0.3086 -1.7459 -2.8816
  883MPD2     C12944   1.739   0.282  16.092 -0.2295  1.0506 -0.2940
  883MPD2    C112945   1.810   0.353  15.985 -1.1848  0.2565 -0.6833
  883MPD2    C212946   1.910   0.442  16.027  0.2156  0.2497  0.0684
  883MPD2    C312947   1.937   0.458  16.162 -0.4067 -0.6697 -0.4968
  883MPD2    C412948   1.863   0.401  16.261 -0.1847 -0.2135  0.3434
  883MPD2    C512949   1.768   0.308  16.225  0.1544  0.3595 -0.8516
  883MPD2     H12950   1.975   0.488  15.953 -1.2108 -0.3435 -1.5482
  883MPD2    H112951   1.873   0.426  16.366 -2.8089  0.3266  0.4690
  883MPD2    H212952   1.658   0.213  16.072 -0.6927  1.7843 -0.9513
  883MPD2    H312953   1.695   0.264  16.292  1.1761 -0.1848 -0.1048
  883MPD2     N12954   2.040   0.547  16.187 -0.1748 -0.1489 -0.5657
  883MPD2    H512955   2.082   0.584  16.103  0.1341  0.8086  0.0110
  883MPD2    N112956   1.800   0.322  15.846 -0.1404  0.4365  0.0985
  883MPD2    H712957   1.873   0.362  15.788  0.8494  0.4173  1.3202
  884MPD2     C12958   3.631   0.843  15.317  0.3859  0.3276 -0.5554
  884MPD2    C112959   3.565   0.815  15.195  0.8434  0.1706  0.0012
  884MPD2    C212960   3.428   0.809  15.193  0.1579 -0.1519 -0.1354
  884MPD2    C312961   3.354   0.835  15.304  0.3953  0.0924  0.5136
  884MPD2    C412962   3.420   0.851  15.426 -0.1945  0.1026 -0.2799
  884MPD2    C512963   3.551   0.854  15.425  1.0256 -0.3518 -0.1348
  884MPD2     H12964   3.385   0.793  15.094 -1.2652  0.9817  0.3019
  884MPD2    H112965   3.379   0.865  15.526 -0.6148  2.5494 -0.7992
  884MPD2    H212966   3.737   0.855  15.333  0.1304 -1.3725  2.5063
  884MPD2    H312967   3.600   0.866  15.521  2.6553 -0.8421 -0.9082
  884MPD2     N12968   3.211   0.855  15.287 -0.3819  0.3293  0.3869
  884MPD2    H512969   3.178   0.857  15.192  0.3834  0.2603  0.1171
  884MPD2    N112970   3.628   0.806  15.069  0.1482 -0.3796  0.6825
  884MPD2    H712971   3.568   0.792  14.988 -0.8213  1.3041  1.1027
  885MPD2     C12972   1.576   0.482   0.036 -0.7510 -0.0544 -0.3854
  885MPD2    C112973   1.637   0.583   0.112  0.6448 -0.0958 -0.1772
  885MPD2    C212974   1.691   0.697   0.053  0.2906 -0.1803 -0.2756
  885MPD2    C312975   1.706   0.704  17.623  0.3481  1.1754  0.7747
  885MPD2    C412976   1.635   0.611  17.550  0.1934 -0.4187 -0.0096
  885MPD2    C512977   1.570   0.506  17.615 -0.7464 -0.2215  0.6873
  885MPD2     H12978   1.725   0.776   0.119  2.6304 -0.6947 -0.8751
  885MPD2    H112979   1.636   0.604  17.442 -0.9563 -0.9271  0.0089
  885MPD2    H212980   1.532   0.386   0.060 -1.6907  0.2757 -0.7787
  885MPD2    H312981   1.535   0.433  17.543 -0.6133 -0.0782  0.4799
  885MPD2     N12982   1.775   0.805  17.562  0.1041 -0.0914 -0.0637
  885MPD2    H512983   1.832   0.860  17.625 -1.3249 -1.3501  2.2962
  885MPD2    N112984   1.628   0.558   0.248  0.0102  0.1148  0.0074
  885MPD2    H712985   1.576   0.475   0.272 -0.1913  1.2837  3.6367
  886MPD2     C12986   3.459   4.617  15.763 -0.6819  0.0659  0.5112
  886MPD2    C112987   3.490   4.572  15.638 -0.5135 -0.1422  0.6270
  886MPD2    C212988   3.459   4.656  15.530 -0.2545 -0.7149  0.3065
  886MPD2    C312989   3.397   0.048  15.548 -0.0591 -0.3955 -0.8777
  886MPD2    C412990   3.372   0.092  15.674 -0.8102 -0.3909 -0.4700
  886MPD2    C512991   3.409   0.019  15.785  0.2322  0.1236 -0.1735
  886MPD2     H12992   3.490   4.632  15.429  1.2827  0.1027  0.5822
  886MPD2    H112993   3.311   0.181  15.688  2.4501  2.1803 -2.7512
  886MPD2    H212994   3.505   4.573  15.851 -0.3624  2.1448  1.3693
  886MPD2    H312995   3.389   0.058  15.884  1.2680 -0.0355  0.0985
  886MPD2     N12996   3.363   0.131  15.438  0.0470  1.0358  0.7013
  886MPD2    H512997   3.341   0.224  15.473  1.1305  0.2382  3.4699
  886MPD2    N112998   3.557   4.452  15.618  0.1508 -0.1166 -0.0500
  886MPD2    H712999   3.577   4.443  15.519  1.4061 -0.5252  0.2405
  887MPD2     C13000   3.862   4.489  15.186 -0.4598 -0.3550 -0.4132
  887MPD2    C113001   3.880   4.421  15.302  0.6733  0.8064 -0.7766
  887MPD2    C213002   3.878   4.492  15.422  0.0543 -0.2918 -0.7642
  887MPD2    C313003   3.845   4.626  15.421 -0.1482 -1.2027 -0.1417
  887MPD2    C413004   3.802   4.682  15.298  0.5266  0.1153 -0.2672
  887MPD2    C513005   3.812   4.615  15.184 -0.3829 -0.4987 -0.5381
  887MPD2     H13006   3.909   4.444  15.514 -0.5473  0.1178 -0.3436
  887MPD2    H113007   3.769   0.059  15.294 -0.5453 -0.2170  0.0320
  887MPD2    H213008   3.861   4.449  15.085 -1.5096  0.9920 -0.9411
  887MPD2    H313009   3.769   4.653  15.092 -0.0871  1.3828  0.0951
  887MPD2     N13010   3.869   4.706  15.544 -0.1902  0.8871  0.9231
  887MPD2    H513011   3.896   4.651  15.624 -0.3963  0.2356  0.5461
  887MPD2    N113012   3.912   4.285  15.288 -0.1468  0.5419  0.4238
  887MPD2    H713013   3.930   4.254  15.193 -0.3821 -1.9836  1.1889
  888MPD2     C13014   0.924   4.415  14.685  1.2470 -0.4897  0.6057
  888MPD2    C113015   0.998   4.415  14.805 -0.1038 -0.0186  0.0174
  888MPD2    C213016   1.096   4.510  14.830 -0.1708 -0.1236  0.1208
  888MPD2    C313017   1.120   4.601  14.729 -0.9523  0.0268  1.4787
  888MPD2    C413018   1.047   4.604  14.606  0.1865  0.4378  0.0114
  888MPD2    C513019   0.944   4.510  14.586 -0.0665  0.0708 -0.3246
  888MPD2     H13020   1.139   4.503  14.929  0.9697  0.3335 -0.3356
  888MPD2    H113021   1.058   4.678  14.528 -1.0733  1.1003  0.4624
  888MPD2    H213022   0.837   4.350  14.682  2.5682 -2.1359 -1.5625
  888MPD2    H313023   0.883   4.505  14.496  1.4974 -0.7938 -1.3409
  888MPD2     N13024   1.217   4.699  14.755  0.4237  0.2175 -0.3278
  888MPD2    H513025   1.256   4.700  14.848 -0.1785 -0.1958 -0.0691
  888MPD2    N113026   0.985   4.311  14.902 -0.0746  0.0446  0.4569
  888MPD2    H713027   1.028   4.320  14.994  1.9459 -0.3200 -0.4516
  889MPD2     C13028   0.483   3.931  13.268  0.1148 -0.2992  0.0700
  889MPD2    C113029   0.482   3.886  13.396 -0.4239 -0.7406 -0.2285
  889MPD2    C213030   0.388   3.940  13.478 -0.1991 -0.1675 -0.1065
  889MPD2    C313031   0.334   4.064  13.456 -0.2002 -0.4872 -0.9498
  889MPD2    C413032   0.349   4.115  13.330  0.0930  0.0080 -0.1349
  889MPD2    C513033   0.426   4.046  13.242 -0.9465 -0.0366  0.0039
  889MPD2     H13034   0.382   3.899  13.578 -1.5947 -0.1565 -0.1875
  889MPD2    H113035   0.308   4.212  13.304 -0.9229 -0.4515 -0.2632
  889MPD2    H213036   0.551   3.900  13.190  2.6226 -2.5092  3.1670
  889MPD2    H313037   0.449   4.078  13.141 -0.8395  2.0656  0.6862
  889MPD2     N13038   0.248   4.128  13.551 -0.4318  0.0546 -0.1705
  889MPD2    H513039   0.254   4.085  13.643  3.1133  0.4260 -0.2366
  889MPD2    N113040   0.527   3.759  13.430 -0.2966  0.3858 -0.1345
  889MPD2    H713041   0.491   3.721  13.517 -0.6295  2.3874  0.5882
  890MPD2     C13042   4.286   0.705  14.547 -0.4728 -0.4108 -0.3118
  890MPD2    C113043   4.420   0.737  14.550  0.3269 -0.1870  0.0645
  890MPD2    C213044   4.479   0.708  14.674  0.4457 -1.1087 -0.0097
  890MPD2    C313045   4.415   0.678  14.788  1.3535 -0.0615 -0.9536
  890MPD2    C413046   4.280   0.643  14.778 -0.0365 -0.3320 -0.1715
  890MPD2    C513047   4.220   0.654  14.657 -0.5076 -0.1561  0.2106
  890MPD2     H13048   4.586   0.722  14.681  0.3659 -0.1855 -0.5561
  890MPD2    H113049   4.226   0.617  14.869  1.5793 -2.4361  0.1993
  890MPD2    H213050   4.225   0.721  14.458  1.4617  1.3362 -1.3175
  890MPD2    H313051   4.114   0.634  14.644 -0.3392 -0.7305 -0.2901
  890MPD2     N13052   4.491   0.675  14.904 -0.1923 -0.4927 -0.2660
  890MPD2    H513053   4.590   0.692  14.884 -0.6963  0.2111 -2.1797
  890MPD2    N113054   4.491   0.786  14.439  0.0425  0.0267 -0.1940
  890MPD2    H713055   4.431   0.799  14.358  0.9796 -2.2121 -1.2431
  891MPD2     C13056   2.857   0.110  16.554 -0.8724 -0.0440 -0.2898
  891MPD2    C113057   2.771   0.116  16.659 -0.9698  0.3400 -0.2291
  891MPD2    C213058   2.819   0.099  16.787 -0.0566  0.1615 -0.6154
  891MPD2    C313059   2.952   0.071  16.808 -0.4795  0.0997  0.1264
  891MPD2    C413060   3.041   0.071  16.698 -0.7337  0.5599  0.1468
  891MPD2    C513061   2.988   0.097  16.575  0.1131  0.3613 -0.1829
  891MPD2     H13062   2.768   0.127  16.878  0.0009 -0.1901 -0.4763
  891MPD2    H113063   3.148   0.061  16.712 -0.6284 -1.1017 -1.8664
  891MPD2    H213064   2.833   0.142  16.453 -0.6526  0.3245 -0.2246
  891MPD2    H313065   3.052   0.107  16.488  0.0446 -1.7583 -0.4597
  891MPD2     N13066   2.990   0.045  16.941  0.5231  0.6059  0.1430
  891MPD2    H513067   2.922   0.057  17.016  0.8972 -1.1670  0.7613
  891MPD2    N113068   2.641   0.155  16.630  0.1848 -0.2021  0.3005
  891MPD2    H713069   2.629   0.181  16.533 -2.3863 -0.3241  0.5962
  892MPD2     C13070   3.664   0.530  14.884  0.0650  0.7407  0.2434
  892MPD2    C113071   3.571   0.494  14.795  0.5417  0.7755 -0.0073
  892MPD2    C213072   3.609   0.453  14.669 -0.5155  0.1294 -0.6471
  892MPD2    C313073   3.740   0.434  14.640 -0.4321  0.1730 -0.5292
  892MPD2    C413074   3.837   0.481  14.728  0.4733 -0.1329  0.6708
  892MPD2    C513075   3.795   0.523  14.849  0.0730  0.6030  1.1298
  892MPD2     H13076   3.530   0.432  14.598 -0.3204 -0.0090 -0.8263
  892MPD2    H113077   3.944   0.471  14.713  0.1849 -0.6228 -1.0149
  892MPD2    H213078   3.629   0.567  14.980 -0.7333 -1.8208  0.9355
  892MPD2    H313079   3.864   0.550  14.928 -0.7843  0.6307  1.8738
  892MPD2     N13080   3.789   0.392  14.517  0.1843 -0.8625  0.0931
  892MPD2    H513081   3.889   0.385  14.501 -0.0117 -1.2152 -1.0129
  892MPD2    N113082   3.435   0.495  14.830  0.5081 -0.2696 -0.8123
  892MPD2    H713083   3.377   0.493  14.747 -0.2959 -0.2972 -0.2517
  893MPD2     C13084   0.739   2.704   2.236  0.3364  0.6370  0.5060
  893MPD2    C113085   0.799   2.633   2.131 -0.5684 -0.4309 -0.3278
  893MPD2    C213086   0.796   2.492   2.132  0.6554 -0.8310  0.4104
  893MPD2    C313087   0.732   2.424   2.240 -0.1661 -0.0661 -0.0757
  893MPD2    C413088   0.659   2.496   2.334 -0.3476  0.5367  0.2465
  893MPD2    C513089   0.666   2.632   2.330 -0.6004  1.2946 -0.0556
  893MPD2     H13090   0.833   2.429   2.052  1.6824  0.3505 -0.0575
  893MPD2    H113091   0.600   2.459   2.416 -1.2155  0.1047 -0.5733
  893MPD2    H213092   0.745   2.812   2.243  0.0207  0.5598  1.8284
  893MPD2    H313093   0.613   2.690   2.404 -1.7682 -1.2114  1.0656
  893MPD2     N13094   0.738   2.287   2.251 -0.5247 -0.4116 -0.4535
  893MPD2    H513095   0.679   2.244   2.322 -1.1242  1.2818  0.0719
  893MPD2    N113096   0.867   2.709   2.033  0.3801 -0.0869  0.0443
  893MPD2    H713097   0.848   2.809   2.036  1.4101  0.1041  0.3668
  894MPD2     C13098   3.262   1.565   0.864 -0.6566 -0.3086 -0.0384
  894MPD2    C113099   3.320   1.562   0.994  0.0626  0.6129 -0.2996
  894MPD2    C213100   3.451   1.593   1.007 -0.2057 -0.1936 -0.3924
  894MPD2    C313101   3.532   1.602   0.893 -0.0067 -0.9572 -0.5117
  894MPD2    C413102   3.478   1.593   0.764 -0.6260 -0.2461  0.3980
  894MPD2    C513103   3.344   1.570   0.755 -0.2794 -0.1267 -1.1467
  894MPD2     H13104   3.497   1.606   1.104 -0.6684 -1.0569 -0.0615
  894MPD2    H113105   3.535   1.589   0.672  0.5711 -0.7591  1.1627
  894MPD2    H213106   3.159   1.534   0.850 -0.9357  0.6934 -0.2214
  894MPD2    H313107   3.308   1.552   0.655 -3.0499 -0.6428 -0.0459
  894MPD2     N13108   3.661   1.655   0.915  0.2984 -0.1795  0.3833
  894MPD2    H513109   3.699   1.662   1.009 -1.7142 -1.3102  1.2696
  894MPD2    N113110   3.248   1.546   1.110  0.2809 -0.3256 -0.4062
  894MPD2    H713111   3.312   1.527   1.186 -1.2950 -0.8951  0.7666
  895MPD2     C13112   2.553   4.404  13.467  0.5870  0.6640 -0.1272
  895MPD2    C113113   2.528   4.494  13.366  0.6641 -0.0769 -0.0433
  895MPD2    C213114   2.629   4.524  13.285  0.2059  0.2850  0.3352
  895MPD2    C313115   2.756   4.474  13.307 -0.1174  0.3541 -0.1920
  895MPD2    C413116   2.781   4.396  13.416 -0.3741  0.0343 -0.4571
  895MPD2    C513117   2.677   4.359  13.503 -0.5663 -0.3869 -0.1727
  895MPD2     H13118   2.605   4.581  13.196  1.2747 -0.1550 -0.2339
  895MPD2    H113119   2.874   4.353  13.450  0.0457  0.5190 -0.9895
  895MPD2    H213120   2.470   4.392  13.535  0.0955 -1.7989 -1.1415
  895MPD2    H313121   2.694   4.300  13.592  2.4883  2.6742  1.2339
  895MPD2     N13122   2.859   4.490  13.211  0.0629  0.3389 -0.6797
  895MPD2    H513123   2.944   4.438  13.230  0.8773  1.3531 -1.4823
  895MPD2    N113124   2.400   4.545  13.331  0.0687 -0.0619 -0.2647
  895MPD2    H713125   2.407   4.617  13.260 -4.5260  2.2529  1.6666
  896MPD2     C13126   0.145   1.455   2.169 -0.0797  0.7446  0.4033
  896MPD2    C113127   0.199   1.418   2.049 -0.1469  0.3389  0.7402
  896MPD2    C213128   0.118   1.386   1.943  0.3932  0.3450 -0.6360
  896MPD2    C313129   4.716   1.410   1.944  0.1166 -0.3610 -0.0459
  896MPD2    C413130   4.658   1.442   2.069 -0.1937 -0.1561  0.1086
  896MPD2    C513131   0.004   1.465   2.180 -0.0293  0.2137  0.2204
  896MPD2     H13132   0.158   1.368   1.844 -0.9830 -0.8850 -0.9569
  896MPD2    H113133   4.555   1.473   2.085 -0.0623  1.8179 -2.8522
  896MPD2    H213134   0.210   1.477   2.253  0.1968  0.5855  0.2314
  896MPD2    H313135   4.683   1.491   2.274 -1.0710 -0.1168 -0.2210
  896MPD2     N13136   4.642   1.407   1.820 -0.1179 -0.0092  0.4492
  896MPD2    H513137   4.693   1.406   1.732 -0.6323 -1.9812  0.1628
  896MPD2    N113138   0.342   1.427   2.049  0.3526 -0.4490  0.0684
  896MPD2    H713139   0.389   1.445   2.138  0.3584  1.4979 -0.3148
  897MPD2     C13140   1.362   4.115  10.315  0.3106  0.1336 -0.0245
  897MPD2    C113141   1.233   4.155  10.288 -0.0703 -0.5313  0.1727
  897MPD2    C213142   1.126   4.077  10.328  0.0656 -0.4049  0.4887
  897MPD2    C313143   1.152   3.960  10.398  0.7856  0.2952 -0.1731
  897MPD2    C413144   1.281   3.918  10.433 -0.0207  0.1541  0.5097
  897MPD2    C513145   1.386   3.997  10.384 -0.3299 -0.1362 -0.1661
  897MPD2     H13146   1.025   4.115  10.315  1.0293  1.6267 -1.0544
  897MPD2    H113147   1.295   3.827  10.491 -1.5366 -0.0237  0.5866
  897MPD2    H213148   1.447   4.182  10.305  0.8241 -0.5877 -0.5893
  897MPD2    H313149   1.487   3.968  10.412  0.2417  0.7976 -1.2783
  897MPD2     N13150   1.035   3.877  10.424  0.1232  0.7158  0.0562
  897MPD2    H513151   0.946   3.916  10.394 -1.0912  0.7363  3.6759
  897MPD2    N113152   1.214   4.276  10.212  0.3276 -0.3526  0.1592
  897MPD2    H713153   1.300   4.317  10.178  0.3886 -1.3314 -0.8775
  898MPD2     C13154   3.079   4.589   0.274  0.3800 -0.1377 -0.1353
  898MPD2    C113155   3.201   4.619   0.214 -0.4254  0.6742 -0.8815
  898MPD2    C213156   3.223   0.016   0.167 -0.0904  0.2278 -0.2098
  898MPD2    C313157   3.127   0.116   0.166 -0.3969  0.1142 -0.3785
  898MPD2    C413158   3.004   0.087   0.214 -0.2981 -0.9007 -0.3718
  898MPD2    C513159   2.982   4.691   0.272 -0.0494  0.6456  0.2877
  898MPD2     H13160   3.322   0.032   0.126 -1.0192  1.1590 -2.1072
  898MPD2    H113161   2.919   0.153   0.219 -1.4324 -2.3413 -0.5035
  898MPD2    H213162   3.059   4.494   0.322 -2.5155 -0.0659 -1.2005
  898MPD2    H313163   2.886   4.675   0.318  0.4961 -0.2306  1.1297
  898MPD2     N13164   3.163   0.236   0.102  0.7850  0.3898  0.4755
  898MPD2    H513165   3.258   0.246   0.069 -0.0086  0.2845 -1.8718
  898MPD2    N113166   3.313   4.538   0.205  0.0595  0.2910  0.1178
  898MPD2    H713167   3.404   4.573   0.177  0.3911 -0.3800  0.3557
  899MPD2     C13168   4.410   0.454  17.464 -0.2340 -0.4022 -0.4602
  899MPD2    C113169   4.294   0.524  17.436 -0.1219  0.7472 -0.3951
  899MPD2    C213170   4.180   0.511  17.512  0.5137  0.1214 -0.2386
  899MPD2    C313171   4.181   0.439  17.634  0.3817 -0.3096 -0.1685
  899MPD2    C413172   4.304   0.386  17.671 -0.1924  0.5513 -0.1181
  899MPD2    C513173   4.405   0.382  17.581  0.3391  0.4375  0.7832
  899MPD2     H13174   4.091   0.565  17.480 -0.3273 -1.2333 -0.1773
  899MPD2    H113175   4.320   0.341   0.061 -0.3196 -1.8560 -1.2099
  899MPD2    H213176   4.500   0.444  17.406  0.6950 -0.6308  1.0215
  899MPD2    H313177   4.487   0.322  17.620  0.3114 -0.6106 -0.7457
  899MPD2     N13178   4.072   0.427   0.015  0.3631  0.5163  0.6948
  899MPD2    H513179   4.088   0.377   0.102 -0.4156  3.1684  2.3632
  899MPD2    N113180   4.299   0.588  17.315 -0.5883 -0.6155 -0.2868
  899MPD2    H713181   4.392   0.596  17.276 -0.3267  1.1347  0.6740
  900MPD2     C13182   4.055   2.359  12.468 -0.0122 -0.2251 -0.1321
  900MPD2    C113183   3.972   2.254  12.495 -0.0350  1.1288  0.3498
  900MPD2    C213184   3.839   2.273  12.454  0.5215  0.2170 -0.4092
  900MPD2    C313185   3.795   2.389  12.398  0.1037 -0.3615 -0.1760
  900MPD2    C413186   3.881   2.498  12.377  0.0285  0.1392  0.3463
  900MPD2    C513187   4.010   2.477  12.411 -0.7901  0.2656 -0.2788
  900MPD2     H13188   3.771   2.189  12.455  1.7045 -0.7089  2.9685
  900MPD2    H113189   3.863   2.596  12.334 -1.9930 -1.1906 -1.8823
  900MPD2    H213190   4.155   2.349  12.510  0.8910 -0.4788 -2.3307
  900MPD2    H313191   4.070   2.566  12.401 -1.8792  0.9267 -0.9544
  900MPD2     N13192   3.651   2.408  12.372 -0.1857  0.0310 -0.0790
  900MPD2    H513193   3.579   2.336  12.374 -1.5882  1.4745  1.2090
  900MPD2    N113194   4.026   2.138  12.551 -0.5142  0.3918 -0.0531
  900MPD2    H713195   4.124   2.150  12.576 -0.1347 -0.3345 -1.2019
  901MPD2     C13196   4.037   1.202  13.158  0.8713  0.1114 -0.1539
  901MPD2    C113197   4.129   1.215  13.059 -0.3726 -0.6621 -0.3756
  901MPD2    C213198   4.148   1.335  12.995 -1.2174 -0.5210  0.5399
  901MPD2    C313199   4.071   1.445  13.017  0.0265  0.3145  0.1210
  901MPD2    C413200   3.976   1.433  13.115 -0.6956 -0.0719 -0.6374
  901MPD2    C513201   3.959   1.318  13.184  0.7418  0.0883 -0.5243
  901MPD2     H13202   4.226   1.344  12.920 -0.5511 -1.8229  1.0660
  901MPD2    H113203   3.911   1.515  13.143  1.1157  1.2238 -0.2221
  901MPD2    H213204   4.007   1.115  13.215  1.1882 -0.7057 -1.2558
  901MPD2    H313205   3.875   1.309  13.252  0.7096 -1.8109 -0.7983
  901MPD2     N13206   4.088   1.550  12.925  0.2139  0.1334  0.0320
  901MPD2    H513207   4.155   1.549  12.849  1.5627 -0.8421  1.2241
  901MPD2    N113208   4.205   1.113  13.004 -0.6074 -0.4002 -0.1379
  901MPD2    H713209   4.275   1.149  12.941  0.4970  0.4268  1.5450
  902MPD2     C13210   1.804   0.365  12.702  0.8376 -0.5261  0.2000
  902MPD2    C113211   1.931   0.392  12.741 -0.2516 -0.3755  0.0536
  902MPD2    C213212   2.036   0.303  12.713 -0.3704  0.4793  0.7056
  902MPD2    C313213   2.017   0.195  12.623  0.0983 -0.1974  0.2081
  902MPD2    C413214   1.887   0.169  12.583 -0.1047  0.1028 -0.5383
  902MPD2    C513215   1.781   0.252  12.631  0.7980  0.3629  0.1522
  902MPD2     H13216   2.130   0.326  12.762  0.5082  0.7496 -1.0771
  902MPD2    H113217   1.870   0.084  12.519 -1.8962 -1.0324  1.4291
  902MPD2    H213218   1.718   0.419  12.740  2.3158  2.6335 -0.9236
  902MPD2    H313219   1.678   0.227  12.609  0.5461  1.8824 -0.3699
  902MPD2     N13220   2.122   0.121  12.570 -0.8043 -0.3216 -0.1518
  902MPD2    H513221   2.097   0.039  12.516 -0.0934  0.3472 -1.4820
  902MPD2    N113222   1.944   0.505  12.821 -0.5078  0.1601  0.2074
  902MPD2    H713223   1.860   0.542  12.864 -1.3800 -0.6460 -0.7753
  903MPD2     C13224   2.116   0.401  12.018  0.5929  0.5640  0.2956
  903MPD2    C113225   2.169   0.269  12.003 -0.8016  0.0169  0.4755
  903MPD2    C213226   2.169   0.222  11.878 -0.0132  0.5851 -0.7985
  903MPD2    C313227   2.111   0.284  11.774 -0.0652  0.2237 -0.4656
  903MPD2    C413228   2.053   0.404  11.790  0.0987 -0.7587 -0.2273
  903MPD2    C513229   2.060   0.465  11.913  0.3153 -0.0883  0.9217
  903MPD2     H13230   2.212   0.124  11.862 -0.9480  0.2527 -1.2188
  903MPD2    H113231   2.001   0.451  11.707 -1.1958  0.4892  1.2804
  903MPD2    H213232   2.115   0.450  12.115  0.7933  0.7786  0.1900
  903MPD2    H313233   2.009   0.561  11.924  0.9429  0.3939 -0.3187
  903MPD2     N13234   2.097   0.212  11.654 -0.2565  0.1420 -0.4771
  903MPD2    H513235   2.147   0.124  11.656 -1.8151 -0.7662 -1.8806
  903MPD2    N113236   2.229   0.205  12.115 -0.2594 -0.1685  0.2531
  903MPD2    H713237   2.219   0.250  12.205 -1.0116 -0.5136  0.3370
  904MPD2     C13238   2.937   4.095  13.508  0.3664 -0.8973  0.0576
  904MPD2    C113239   2.880   4.021  13.613 -0.2336  0.1529 -0.7304
  904MPD2    C213240   2.956   3.980  13.721  0.3074 -0.0807 -0.4209
  904MPD2    C313241   3.085   4.035  13.730 -0.1830  0.4741 -0.0727
  904MPD2    C413242   3.130   4.118  13.634  0.0165  0.5096 -0.5587
  904MPD2    C513243   3.062   4.135  13.516  0.4420 -0.3803  0.6057
  904MPD2     H13244   2.926   3.907  13.795  1.2559  1.5548  1.5691
  904MPD2    H113245   3.231   4.157  13.631 -0.3631  1.6571  1.3111
  904MPD2    H213246   2.885   4.109  13.414  0.5738  0.5319  0.1542
  904MPD2    H313247   3.100   4.185  13.427  1.0114  0.5042  1.3497
  904MPD2     N13248   3.168   3.998  13.845  0.1616 -0.4531 -0.1060
  904MPD2    H513249   3.132   3.934  13.915  0.4543  1.2349  1.5443
  904MPD2    N113250   2.750   3.966  13.600  0.0775 -0.2996  0.6103
  904MPD2    H713251   2.720   3.901  13.673  1.6800 -0.5906  1.0070
  905MPD2     C13252   2.247   4.261  13.083  0.4722  0.5436 -0.3258
  905MPD2    C113253   2.364   4.220  13.143  0.0818 -0.4564  0.2140
  905MPD2    C213254   2.486   4.250  13.085 -0.4771  0.8495  0.5653
  905MPD2    C313255   2.497   4.298  12.957 -0.2465  0.1824  0.3686
  905MPD2    C413256   2.378   4.314  12.889  0.3683 -0.0458  0.2383
  905MPD2    C513257   2.261   4.305  12.948  0.0693 -0.8292 -0.0582
  905MPD2     H13258   2.576   4.223  13.139 -0.8728 -0.4117  0.5901
  905MPD2    H113259   2.382   4.319  12.781  3.2920  0.6459  0.3965
  905MPD2    H213260   2.146   4.239  13.116  0.5203  1.3541  0.3763
  905MPD2    H313261   2.171   4.304  12.887 -0.4001 -0.6887  0.6351
  905MPD2     N13262   2.619   4.326  12.899 -0.4276 -0.1923 -0.2474
  905MPD2    H513263   2.610   4.377  12.812 -1.2793 -0.3639 -0.2683
  905MPD2    N113264   2.365   4.148  13.266 -0.6035 -0.6337  0.3856
  905MPD2    H713265   2.459   4.136  13.301 -0.5145  0.6609  0.6103
  906MPD2     C13266   4.652   4.176  11.070  0.3095 -0.1865  0.1839
  906MPD2    C113267   4.590   4.066  11.007  0.4578 -0.4421 -1.0341
  906MPD2    C213268   4.557   3.957  11.087  0.2602  0.3550 -0.9382
  906MPD2    C313269   4.571   3.978  11.231 -0.6960  0.1977 -0.4391
  906MPD2    C413270   4.645   4.079  11.285 -0.2560  0.0288  0.2419
  906MPD2    C513271   4.681   4.184  11.200 -0.5332 -0.1246  0.0189
  906MPD2     H13272   4.516   3.866  11.046 -0.8328 -0.5072  2.0464
  906MPD2    H113273   4.663   4.089  11.392  1.3226 -0.5797  0.0224
  906MPD2    H213274   4.679   4.266  11.015 -1.7551 -0.1895 -0.8133
  906MPD2    H313275   4.726   4.274  11.242  1.7949 -1.0755 -0.4492
  906MPD2     N13276   4.529   3.864  11.306  0.7296  0.2365  0.4721
  906MPD2    H513277   4.519   3.780  11.249 -1.9397 -0.0702  1.3938
  906MPD2    N113278   4.558   4.051  10.871  0.5576  0.1820  0.0015
  906MPD2    H713279   4.501   3.970  10.846 -0.9809  1.1912  0.2091
  907MPD2     C13280   4.043   3.131  15.918 -0.5940  0.0476  0.5894
  907MPD2    C113281   4.107   3.012  15.890  0.0102  0.9102  0.4026
  907MPD2    C213282   4.162   2.938  15.992 -0.2482  0.3318  0.3897
  907MPD2    C313283   4.172   2.988  16.118 -0.0167 -0.1391 -0.1678
  907MPD2    C413284   4.122   3.110  16.145  0.0178 -0.2764  0.3348
  907MPD2    C513285   4.055   3.179  16.044  0.5683  0.7690  0.2952
  907MPD2     H13286   4.199   2.838  15.975  0.7864  0.9903 -1.1832
  907MPD2    H113287   4.144   3.160  16.239 -1.2275 -0.5296  0.7613
  907MPD2    H213288   3.985   3.187  15.846 -0.4806  0.3873  0.7618
  907MPD2    H313289   4.014   3.274  16.075  1.0623  0.7991  0.8427
  907MPD2     N13290   4.251   2.911  16.207 -0.4942 -0.1284 -0.1549
  907MPD2    H513291   4.276   2.817  16.177 -1.3057  0.8462 -3.8481
  907MPD2    N113292   4.098   2.949  15.765  0.6556  0.5920 -0.2110
  907MPD2    H713293   4.150   2.863  15.751 -1.6538 -0.6481 -1.1589
  908MPD2     C13294   0.705   4.358   9.365  0.4499 -0.2352  0.5185
  908MPD2    C113295   0.701   4.266   9.469  0.1611 -0.2746  0.1719
  908MPD2    C213296   0.791   4.282   9.573 -0.1330 -0.2626  1.0906
  908MPD2    C313297   0.852   4.397   9.593  0.2584 -0.2473  0.1136
  908MPD2    C413298   0.853   4.491   9.495 -0.3748  0.0431 -0.5193
  908MPD2    C513299   0.784   4.462   9.373 -0.5928  0.5337 -0.2121
  908MPD2     H13300   0.793   4.214   9.658 -0.1302 -1.5546  0.0471
  908MPD2    H113301   0.913   4.581   9.493 -0.0200 -0.1278  1.9941
  908MPD2    H213302   0.664   4.326   9.270 -0.4063  1.2043  0.4093
  908MPD2    H313303   0.795   4.528   9.288 -1.9238  0.6271 -0.3048
  908MPD2     N13304   0.915   4.417   9.716 -0.1001  0.5520  0.6012
  908MPD2    H513305   0.919   4.334   9.775 -2.7657  2.1878  3.0872
  908MPD2    N113306   0.626   4.147   9.444 -0.2692  0.2304 -0.1476
  908MPD2    H713307   0.554   4.133   9.374  1.8702 -2.8493 -1.6689
  909MPD2     C13308   1.718   1.853  12.329 -0.2926 -0.9214 -0.3698
  909MPD2    C113309   1.716   1.950  12.224  0.4657  0.3239 -0.6304
  909MPD2    C213310   1.619   2.050  12.228  0.0491  0.0777  0.4108
  909MPD2    C313311   1.524   2.047  12.331  0.1768  0.7920  0.1239
  909MPD2    C413312   1.544   1.962  12.437  0.3969 -0.3818 -0.3093
  909MPD2    C513313   1.634   1.860  12.434 -0.7593  0.9500  0.1222
  909MPD2     H13314   1.615   2.131  12.156 -2.3963 -0.5714 -0.2077
  909MPD2    H113315   1.485   1.970  12.528  0.8060  2.2581 -0.2833
  909MPD2    H213316   1.797   1.779  12.319  0.4628  0.1276 -1.9991
  909MPD2    H313317   1.641   1.787  12.514  1.7963  2.5685  1.3772
  909MPD2     N13318   1.425   2.144  12.319  0.8613  0.2220  0.2948
  909MPD2    H513319   1.439   2.212  12.244 -2.1293  1.2566  0.7006
  909MPD2    N113320   1.802   1.952  12.113 -0.1219 -0.7301 -0.5303
  909MPD2    H713321   1.790   2.032  12.051  1.2400 -0.8514 -0.9395
  910MPD2     C13322   3.419   3.993  15.743  0.0033  0.4761  0.7427
  910MPD2    C113323   3.505   3.891  15.711 -0.6822 -0.5147  0.2134
  910MPD2    C213324   3.553   3.875  15.583 -0.3291 -0.5244 -0.1634
  910MPD2    C313325   3.517   3.964  15.484  0.3102  0.5588 -0.5560
  910MPD2    C413326   3.433   4.071  15.514  0.2591 -0.0061 -0.2573
  910MPD2    C513327   3.387   4.083  15.643 -0.6418  0.2083 -0.1721
  910MPD2     H13328   3.619   3.792  15.563 -2.2640 -2.2819  0.7522
  910MPD2    H113329   3.380   4.133  15.442  0.4515 -1.0293 -1.2827
  910MPD2    H213330   3.361   4.000  15.834 -0.2705 -1.8209  0.7396
  910MPD2    H313331   3.311   4.154  15.672  0.0665  0.7704  0.2947
  910MPD2     N13332   3.553   3.942  15.347  0.4120 -0.0269  0.6005
  910MPD2    H513333   3.498   4.000  15.284 -0.4836 -1.0730  0.4274
  910MPD2    N113334   3.541   3.793  15.801 -0.0130  0.1313 -0.1597
  910MPD2    H713335   3.595   3.717  15.762 -0.3301 -0.2202  0.0928
  911MPD2     C13336   1.123   4.031  16.207  0.4141 -0.0137  0.3849
  911MPD2    C113337   1.149   4.157  16.242  0.7927  0.0247 -0.3936
  911MPD2    C213338   1.051   4.254  16.220 -0.0725  0.1052 -0.7967
  911MPD2    C313339   0.931   4.217  16.159  0.4811  0.1693  0.5419
  911MPD2    C413340   0.906   4.082  16.126 -0.9793  0.0161  0.2506
  911MPD2    C513341   1.002   3.987  16.157  0.1570 -0.0816 -0.2642
  911MPD2     H13342   1.069   4.356  16.253  1.1056  0.1061 -1.4378
  911MPD2    H113343   0.821   4.048  16.067 -0.6889 -0.1434 -0.0698
  911MPD2    H213344   1.204   3.960  16.218  0.1363 -0.1850  1.2975
  911MPD2    H313345   0.993   3.882  16.132 -1.4819 -0.3703  1.5062
  911MPD2     N13346   0.834   4.307  16.119 -0.4145 -0.0391 -0.0946
  911MPD2    H513347   0.772   4.258  16.056 -0.2393 -0.2455 -0.1053
  911MPD2    N113348   1.279   4.179  16.293  0.4094  0.2947 -0.0782
  911MPD2    H713349   1.342   4.099  16.296 -1.0551 -0.8001  1.5876
  912MPD2     C13350   0.629   4.085  15.465  0.3992 -0.4606  0.9273
  912MPD2    C113351   0.631   4.095  15.605 -0.4925  0.7076  0.0982
  912MPD2    C213352   0.613   3.976  15.678  0.4706 -0.0586 -0.1417
  912MPD2    C313353   0.618   3.850  15.615  0.3721  0.1643  0.5431
  912MPD2    C413354   0.628   3.839  15.474  0.1251  0.3759  0.3598
  912MPD2    C513355   0.627   3.960  15.404 -0.1550 -0.0245 -0.3849
  912MPD2     H13356   0.610   3.972  15.787  2.0490 -0.2134 -0.0980
  912MPD2    H113357   0.636   3.742  15.428  1.1089  0.1121  1.1057
  912MPD2    H213358   0.638   4.178  15.410  0.7277 -0.8100  0.3903
  912MPD2    H313359   0.639   3.964  15.296  1.2910  0.6534 -0.2013
  912MPD2     N13360   0.618   3.743  15.705  0.1237 -0.2167 -0.3086
  912MPD2    H513361   0.618   3.766  15.804  3.5424 -1.5813 -0.0146
  912MPD2    N113362   0.634   4.222  15.670  0.2477 -0.1350 -0.6018
  912MPD2    H713363   0.633   4.307  15.614  1.2200  0.1184 -0.2292
  913MPD2     C13364   0.683   0.496   9.957 -0.0887  0.4368  0.2676
  913MPD2    C113365   0.759   0.571  10.044 -0.3385 -0.3547 -0.3087
  913MPD2    C213366   0.845   0.660   9.998  0.5079 -0.3073 -0.4448
  913MPD2    C313367   0.862   0.681   9.862 -0.2213 -0.1854 -0.1415
  913MPD2    C413368   0.782   0.613   9.771 -0.3185  0.1060  0.1207
  913MPD2    C513369   0.686   0.521   9.821 -0.2011 -0.6928  0.5346
  913MPD2     H13370   0.920   0.705  10.063  1.8069  1.8692 -3.4869
  913MPD2    H113371   0.783   0.632   9.665  1.5180 -1.3279 -0.1142
  913MPD2    H213372   0.622   0.415   9.994 -0.0477  0.4860  0.4412
  913MPD2    H313373   0.616   0.476   9.752 -0.1867 -1.2156  0.8623
  913MPD2     N13374   0.962   0.765   9.800  0.6947 -0.2471 -0.8511
  913MPD2    H513375   0.972   0.757   9.700 -3.2983  0.2410 -1.3110
  913MPD2    N113376   0.738   0.537  10.177 -0.1867  0.4153  0.2201
  913MPD2    H713377   0.676   0.459  10.193 -0.2447  0.9079  2.3193
  914MPD2     C13378   4.538   1.210  12.229  0.2062  0.2650  0.4938
  914MPD2    C113379   4.457   1.275  12.322 -0.2686 -0.1551  0.3565
  914MPD2    C213380   4.426   1.207  12.439 -0.4546  0.0416  0.5729
  914MPD2    C313381   4.467   1.082  12.459 -0.3681  0.6251 -0.2134
  914MPD2    C413382   4.531   1.014  12.361  0.1180  0.4249 -0.2676
  914MPD2    C513383   4.583   1.082  12.255 -0.0886 -0.1513  0.2775
  914MPD2     H13384   4.372   1.258  12.519  0.2847  0.6081  0.7067
  914MPD2    H113385   4.565   0.912  12.375  0.8116  0.9007  1.5921
  914MPD2    H213386   4.581   1.258  12.141 -1.9558  1.4714  0.1138
  914MPD2    H313387   4.647   1.029  12.186  0.1407  0.4411  0.0358
  914MPD2     N13388   4.439   1.027  12.587 -0.1023  0.0118 -0.2448
  914MPD2    H513389   4.415   1.096  12.657 -0.5257  0.7930 -1.1566
  914MPD2    N113390   4.420   1.410  12.289 -0.3839  0.7832  0.0182
  914MPD2    H713391   4.466   1.455  12.211  0.1021 -1.2397 -0.8492
  915MPD2     C13392   2.166   1.005  15.629 -0.2624  0.5206 -0.1290
  915MPD2    C113393   2.026   1.001  15.612  0.3707  0.0632 -0.8288
  915MPD2    C213394   1.956   1.075  15.706  0.4763  0.3112  0.4725
  915MPD2    C313395   2.020   1.155  15.798 -0.5594 -0.6400 -0.3855
  915MPD2    C413396   2.152   1.152  15.814  0.0873  0.0530  0.6589
  915MPD2    C513397   2.231   1.073  15.729  0.3577  0.1314  0.2443
  915MPD2     H13398   1.848   1.082  15.704  0.5853  1.3480 -1.4468
  915MPD2    H113399   2.207   1.201  15.894 -1.1599  0.7037  1.1233
  915MPD2    H213400   2.228   0.962  15.552  0.1442 -2.1591  1.7210
  915MPD2    H313401   2.339   1.072  15.737  0.4249  2.8375 -0.3339
  915MPD2     N13402   1.951   1.229  15.901 -1.1760  0.0610  0.1834
  915MPD2    H513403   2.008   1.265  15.977 -1.5023 -0.3705  0.6348
  915MPD2    N113404   1.959   0.925  15.504 -0.5759  0.7236  0.1878
  915MPD2    H713405   2.025   0.882  15.440 -2.2403 -2.4126  0.5575
  916MPD2     C13406   0.274   3.817  15.795  0.2778  0.7041  0.5748
  916MPD2    C113407   0.232   3.728  15.893 -0.3737  0.0586 -0.2632
  916MPD2    C213408   0.214   3.599  15.856 -0.4510  0.2149 -0.1881
  916MPD2    C313409   0.237   3.561  15.723  0.2953 -0.5778  0.4302
  916MPD2    C413410   0.283   3.645  15.624 -0.2635  0.0571 -0.5693
  916MPD2    C513411   0.291   3.774  15.666 -0.3031  0.1053  0.4216
  916MPD2     H13412   0.173   3.527  15.926 -0.8261  2.0522  1.4856
  916MPD2    H113413   0.300   3.631  15.518 -0.2399 -0.6206 -0.4768
  916MPD2    H213414   0.290   3.923  15.811 -0.3928  0.8351  0.3690
  916MPD2    H313415   0.336   3.852  15.606 -0.6855  0.2450  0.3139
  916MPD2     N13416   0.209   3.424  15.697  0.3098 -0.0722 -0.2119
  916MPD2    H513417   0.182   3.370  15.778 -1.5796  0.2292 -0.6373
  916MPD2    N113418   0.195   3.781  16.020  0.5315 -0.0177  0.8210
  916MPD2    H713419   0.195   3.881  16.038 -1.0814 -0.0479  1.0026
  917MPD2     C13420   0.538   1.391  11.005  0.5095 -0.0064  0.7237
  917MPD2    C113421   0.635   1.429  11.095 -0.4295 -0.2363 -0.1530
  917MPD2    C213422   0.741   1.507  11.051  0.1488  0.1580 -0.8588
  917MPD2    C313423   0.743   1.545  10.912  0.1532 -0.0016 -0.1445
  917MPD2    C413424   0.642   1.504  10.823  0.1191  0.0420  0.1964
  917MPD2    C513425   0.537   1.431  10.872  0.4008  0.1344 -0.2427
  917MPD2     H13426   0.832   1.503  11.110 -0.0636 -2.4060 -0.7132
  917MPD2    H113427   0.633   1.525  10.717 -0.2711 -3.1531 -0.4008
  917MPD2    H213428   0.458   1.329  11.044 -1.1260  2.0320  0.6112
  917MPD2    H313429   0.460   1.396  10.805 -1.5302  0.8772  1.5808
  917MPD2     N13430   0.853   1.623  10.860  0.1643  0.1810 -0.2069
  917MPD2    H513431   0.838   1.665  10.769 -0.3800 -1.1258 -0.7056
  917MPD2    N113432   0.620   1.393  11.228 -0.8113 -0.6515  0.0792
  917MPD2    H713433   0.547   1.326  11.250 -1.0319 -0.2346  0.5945
  918MPD2     C13434   0.998   1.893  11.998  0.3727  0.1453 -0.4391
  918MPD2    C113435   1.037   1.762  12.020 -0.2341 -0.3197 -0.2373
  918MPD2    C213436   0.966   1.657  11.955  0.2380  0.6491  0.0816
  918MPD2    C313437   0.869   1.692  11.863 -0.1518 -0.1084  0.4579
  918MPD2    C413438   0.838   1.823  11.842  0.8598 -0.0850 -0.1382
  918MPD2    C513439   0.901   1.924  11.905 -0.5992 -0.7815 -0.6595
  918MPD2     H13440   0.993   1.555  11.980  0.7841  1.1638  1.5410
  918MPD2    H113441   0.771   1.855  11.763 -0.0780  1.8137  1.4241
  918MPD2    H213442   1.027   1.979  12.057  1.4672  0.4771 -1.4719
  918MPD2    H313443   0.882   2.026  11.873 -2.7188 -0.6273  1.0841
  918MPD2     N13444   0.787   1.608  11.789 -0.9169  0.2045 -0.2619
  918MPD2    H513445   0.722   1.653  11.726 -1.9441 -1.7867 -0.6330
  918MPD2    N113446   1.150   1.723  12.100  0.0020  0.0105  0.6299
  918MPD2    H713447   1.175   1.625  12.115 -3.0793 -1.0002 -0.9631
  919MPD2     C13448   1.223   0.584  11.726  0.1390 -0.4101  0.0008
  919MPD2    C113449   1.141   0.495  11.666  0.2027  0.4987 -0.3397
  919MPD2    C213450   1.083   0.540  11.547 -0.5060 -0.1378 -0.2855
  919MPD2    C313451   1.102   0.669  11.501 -0.2035 -0.2283 -0.2177
  919MPD2    C413452   1.175   0.760  11.568  0.1438  0.1239 -0.6911
  919MPD2    C513453   1.239   0.713  11.681  0.1096  0.2008  0.4607
  919MPD2     H13454   1.008   0.474  11.505 -1.0856  1.5383 -1.8407
  919MPD2    H113455   1.183   0.866  11.546 -0.8144  0.0441 -1.4550
  919MPD2    H213456   1.284   0.561  11.812  0.9477  1.8875  0.0392
  919MPD2    H313457   1.308   0.781  11.728  1.4702 -2.1947  1.9304
  919MPD2     N13458   1.020   0.713  11.397 -0.3651 -0.6508  0.0125
  919MPD2    H513459   1.016   0.812  11.373 -0.5958 -0.4232  0.9703
  919MPD2    N113460   1.112   0.369  11.721  0.4413 -0.5313 -0.1820
  919MPD2    H713461   1.043   0.315  11.671  0.4756  0.4831 -1.3257
  920MPD2     C13462   1.131   1.091  10.436 -0.4747 -0.4682  0.6159
  920MPD2    C113463   1.012   1.015  10.430  0.7695  1.0268 -1.5533
  920MPD2    C213464   0.980   0.938  10.536 -0.2684 -0.0493  0.4808
  920MPD2    C313465   1.056   0.944  10.654 -0.1916 -0.1183 -0.9896
  920MPD2    C413466   1.170   1.020  10.662 -0.2617 -0.2189 -0.3019
  920MPD2    C513467   1.215   1.071  10.546 -0.3366  0.5206  0.1114
  920MPD2     H13468   0.886   0.884  10.530 -0.8327  1.0771 -0.9361
  920MPD2    H113469   1.226   1.037  10.753  2.0383 -0.6691 -1.6391
  920MPD2    H213470   1.168   1.146  10.350  0.1420 -0.0268  1.1531
  920MPD2    H313471   1.313   1.117  10.534  0.1435 -0.4830  0.1560
  920MPD2     N13472   0.992   0.888  10.776 -0.2202 -0.0128 -0.3326
  920MPD2    H513473   0.910   0.830  10.759  0.7514 -2.4513  3.4049
  920MPD2    N113474   0.924   1.008  10.317 -0.1557  0.1806  0.2048
  920MPD2    H713475   0.845   0.943  10.317  0.6714 -0.8358 -0.6127
  921MPD2     C13476   1.730   0.278  16.573 -0.4210 -0.3242 -0.1827
  921MPD2    C113477   1.823   0.178  16.609  0.2876 -0.4188 -0.2797
  921MPD2    C213478   1.777   0.045  16.617  0.3556  0.2216 -0.5297
  921MPD2    C313479   1.647   0.011  16.608  0.1770 -0.7166  0.1493
  921MPD2    C413480   1.553   0.112  16.601 -0.8285 -0.3214  0.0406
  921MPD2    C513481   1.593   0.240  16.573  0.3849  0.2357  0.7582
  921MPD2     H13482   1.851   4.693  16.621 -1.0189 -1.0554 -0.1130
  921MPD2    H113483   1.447   0.090  16.600 -0.9404  0.1310  1.0484
  921MPD2    H213484   1.753   0.383  16.565 -1.7358 -0.0729 -0.6091
  921MPD2    H313485   1.520   0.318  16.552  0.4373  0.9526  3.2588
  921MPD2     N13486   1.599   4.607  16.591 -0.3047  0.3655  0.3882
  921MPD2    H513487   1.499   4.601  16.572 -0.0041 -0.4490 -0.9410
  921MPD2    N113488   1.958   0.215  16.628  0.0545 -0.0166 -0.4557
  921MPD2    H713489   1.978   0.311  16.606  0.6974 -0.4694 -1.8012
  922MPD2     C13490   2.460   1.776  16.936  0.0267  0.1354 -0.2613
  922MPD2    C113491   2.515   1.843  16.829  1.3387  0.4197 -0.2245
  922MPD2    C213492   2.434   1.873  16.722  0.5009 -0.5988  0.5137
  922MPD2    C313493   2.298   1.857  16.733 -0.5773  0.2063  0.0349
  922MPD2    C413494   2.243   1.785  16.836 -0.0437  0.2929 -0.9594
  922MPD2    C513495   2.326   1.754  16.938  0.3394 -0.0045 -0.2694
  922MPD2     H13496   2.474   1.918  16.632  2.2436 -0.3562  1.4057
  922MPD2    H113497   2.141   1.750  16.847  0.6338 -0.9330  1.2628
  922MPD2    H213498   2.511   1.755  17.028  2.6574 -0.8834 -1.9599
  922MPD2    H313499   2.282   1.712  17.028  0.0342  2.4880  0.7369
  922MPD2     N13500   2.214   1.903  16.627 -0.1789 -0.2433 -0.0990
  922MPD2    H513501   2.248   1.947  16.543 -0.5629  0.5196  0.1373
  922MPD2    N113502   2.656   1.881  16.816  0.2833 -0.0034 -0.3118
  922MPD2    H713503   2.683   1.940  16.738  2.0321  0.0723  0.3626
  923MPD2     C13504   3.927   3.281   9.144 -0.1719 -0.7176 -0.1856
  923MPD2    C113505   3.852   3.374   9.209  0.0830  0.6931  0.5401
  923MPD2    C213506   3.907   3.431   9.324 -0.0970 -0.0166 -0.1488
  923MPD2    C313507   4.030   3.388   9.374 -0.0065  0.0252  0.1023
  923MPD2    C413508   4.091   3.292   9.307  0.4497 -0.2724 -0.1188
  923MPD2    C513509   4.048   3.244   9.186 -0.0769 -0.6678  0.1583
  923MPD2     H13510   3.855   3.513   9.372 -2.6458 -0.0144 -2.9025
  923MPD2    H113511   4.191   3.265   9.339  1.0557  0.3675 -1.4809
  923MPD2    H213512   3.901   3.249   9.043  1.5476 -3.3093  0.2018
  923MPD2    H313513   4.119   3.185   9.128 -0.4151 -0.4171 -0.5150
  923MPD2     N13514   4.089   3.435   9.501  0.0039  0.0993  0.6475
  923MPD2    H513515   4.182   3.396   9.516  0.8567  1.2805 -1.5147
  923MPD2    N113516   3.740   3.432   9.142  0.2479  0.7283  0.6390
  923MPD2    H713517   3.725   3.401   9.047  0.2045 -0.5863  1.0632
  924MPD2     C13518   4.018   2.247  16.018  0.0771 -0.0567  0.2415
  924MPD2    C113519   3.998   2.265  16.159  0.0453 -0.1251 -0.6149
  924MPD2    C213520   4.101   2.312  16.237 -0.0996 -0.3620 -0.1085
  924MPD2    C313521   4.214   2.368  16.184 -0.3579 -0.2686  0.3321
  924MPD2    C413522   4.234   2.357  16.047  0.4783 -0.6634 -0.5708
  924MPD2    C513523   4.140   2.287  15.970  0.0653  0.0836 -0.4949
  924MPD2     H13524   4.075   2.336  16.340  3.6350 -0.4143  0.8492
  924MPD2    H113525   4.325   2.394  16.002  1.5158 -2.7035 -0.1223
  924MPD2    H213526   3.938   2.213  15.953 -0.1800  0.4061  0.3166
  924MPD2    H313527   4.173   2.261  15.870 -1.7066 -3.6754 -0.0961
  924MPD2     N13528   4.295   2.456  16.260 -0.8577 -0.1703 -0.2784
  924MPD2    H513529   4.346   2.532  16.216 -0.5195 -1.6078 -2.3610
  924MPD2    N113530   3.874   2.234  16.211 -0.5613 -0.1053 -0.0069
  924MPD2    H713531   3.801   2.244  16.141  1.0061  2.0709 -1.3419
  925MPD2     C13532   2.924   4.640  14.536 -0.5191  0.9370  0.6859
  925MPD2    C113533   2.806   4.704  14.499  0.5105  0.3081  0.3420
  925MPD2    C213534   2.742   0.061  14.597 -0.5994 -0.0326  0.2678
  925MPD2    C313535   2.795   0.074  14.724 -0.6833 -0.4030  0.3641
  925MPD2    C413536   2.907   0.002  14.757  0.5610  0.1223  0.2751
  925MPD2    C513537   2.970   4.658  14.662 -0.2334  0.2897 -0.4235
  925MPD2     H13538   2.647   0.106  14.571 -0.7534 -0.6128 -0.1850
  925MPD2    H113539   2.950   0.016  14.855 -0.2958 -0.5408  0.7431
  925MPD2    H213540   2.977   4.565  14.478  0.1828  1.8048  0.2149
  925MPD2    H313541   3.067   4.614  14.682 -0.5549 -0.0976  0.2964
  925MPD2     N13542   2.741   0.159  14.825  0.6944  0.4929 -0.1843
  925MPD2    H513543   2.788   0.161  14.914 -0.5318  3.7835  0.3948
  925MPD2    N113544   2.743   4.701  14.372  0.3095 -0.5058  0.3377
  925MPD2    H713545   2.662   0.035  14.370  1.2494  0.7038 -0.7713
  926MPD2     C13546   2.414   3.341  13.109  0.4611 -0.4009 -0.4269
  926MPD2    C113547   2.296   3.382  13.055  0.2267  1.0653 -0.2573
  926MPD2    C213548   2.292   3.452  12.936 -0.2095  0.9329 -0.0953
  926MPD2    C313549   2.404   3.499  12.880  0.0889 -1.2159 -0.2374
  926MPD2    C413550   2.524   3.468  12.937 -0.2485  0.7971 -0.1226
  926MPD2    C513551   2.526   3.393  13.049 -0.6744 -0.5580  0.1749
  926MPD2     H13552   2.192   3.465  12.896 -1.0404 -2.1888  0.9519
  926MPD2    H113553   2.617   3.510  12.899  0.3590 -1.6831 -1.3791
  926MPD2    H213554   2.424   3.289  13.203 -0.3739 -0.8602 -0.5958
  926MPD2    H313555   2.618   3.375  13.103 -0.0762  2.5297  0.1995
  926MPD2     N13556   2.402   3.592  12.771  0.2988  0.1476  0.1816
  926MPD2    H513557   2.488   3.631  12.735 -0.1420  0.0533 -0.9692
  926MPD2    N113558   2.167   3.356  13.112 -0.0600  0.7576  0.8452
  926MPD2    H713559   2.084   3.382  13.060 -0.1113  0.2699  0.6840
  927MPD2     C13560   0.732   0.889   0.056 -0.9065  0.5185 -0.3310
  927MPD2    C113561   0.819   0.833   0.140  0.3188  0.3433 -0.0501
  927MPD2    C213562   0.934   0.789   0.084 -0.2170  0.6592  0.2039
  927MPD2    C313563   0.973   0.820  17.664 -0.2881 -0.7875 -0.8110
  927MPD2    C413564   0.884   0.879  17.576 -1.0010  0.2868 -0.0598
  927MPD2    C513565   0.759   0.910  17.630  0.8733 -0.7082  0.3769
  927MPD2     H13566   1.013   0.741   0.142  0.0602  1.5909  0.5968
  927MPD2    H113567   0.909   0.921  17.479 -3.1582 -0.6408 -1.0188
  927MPD2    H213568   0.636   0.917   0.098 -1.4733 -0.4568 -0.9851
  927MPD2    H313569   0.680   0.948  17.566  1.1773 -1.1333 -0.2405
  927MPD2     N13570   1.105   0.797  17.634 -0.3428 -0.0455 -0.5088
  927MPD2    H513571   1.166   0.788   0.007  0.3594 -1.3066 -1.1850
  927MPD2    N113572   0.776   0.807   0.271  1.1309 -0.4538 -0.2753
  927MPD2    H713573   0.679   0.823   0.297  1.6949 -0.2103  1.7197
  928MPD2     C13574   4.403   3.896   1.129  0.4009 -0.0655  0.2852
  928MPD2    C113575   4.350   4.025   1.136  0.9228 -0.7808 -0.2360
  928MPD2    C213576   4.310   4.096   1.026  0.1065  0.0065 -0.1957
  928MPD2    C313577   4.347   4.040   0.901 -0.0224  0.0913 -0.4989
  928MPD2    C413578   4.387   3.913   0.893 -0.1844  0.4789 -0.3641
  928MPD2    C513579   4.416   3.840   1.005 -0.3736  0.0961 -0.4167
  928MPD2     H13580   4.270   4.197   1.029 -0.1189 -0.0966  0.2434
  928MPD2    H113581   4.411   3.869   0.798  2.6096  0.3120  0.4133
  928MPD2    H213582   4.433   3.838   1.216 -0.0154  0.2629  0.6436
  928MPD2    H313583   4.458   3.741   0.993  1.5773  0.7821  0.7191
  928MPD2     N13584   4.346   4.116   0.779  0.2260 -0.0735  0.3097
  928MPD2    H513585   4.353   4.067   0.691 -1.9998 -0.6036  0.4302
  928MPD2    N113586   4.342   4.086   1.269  0.7017 -0.3638 -0.0810
  928MPD2    H713587   4.397   4.054   1.348  0.6857 -2.1042 -0.7687
  929MPD2     C13588   3.360   3.574   9.487  0.0032 -0.7902 -0.8401
  929MPD2    C113589   3.370   3.548   9.620 -1.0745  0.8527  0.1554
  929MPD2    C213590   3.300   3.615   9.712 -0.1325 -0.1338 -0.1002
  929MPD2    C313591   3.247   3.738   9.669  0.0851  0.3954  0.1181
  929MPD2    C413592   3.253   3.778   9.543 -0.1161 -1.2769 -0.7945
  929MPD2    C513593   3.300   3.686   9.448 -0.1655  0.5196  0.8154
  929MPD2     H13594   3.294   3.605   9.819  3.3174 -0.9744  0.0134
  929MPD2    H113595   3.213   3.874   9.512  1.6009 -0.3756 -0.2569
  929MPD2    H213596   3.418   3.520   9.412  1.8752 -0.4911  0.3884
  929MPD2    H313597   3.311   3.710   9.343  0.3033  0.9202  0.9535
  929MPD2     N13598   3.182   3.824   9.755  0.3150  0.0410 -0.6374
  929MPD2    H513599   3.177   3.922   9.729  0.2610  0.0078 -0.7485
  929MPD2    N113600   3.429   3.424   9.658  0.5204 -0.0669 -0.3657
  929MPD2    H713601   3.436   3.360   9.579 -1.7431 -1.3165  0.4342
  930MPD2     C13602   0.874   1.490  14.110 -0.1765  0.4069  0.4708
  930MPD2    C113603   0.942   1.522  13.991 -0.2196  0.3285 -0.1412
  930MPD2    C213604   0.920   1.449  13.877  0.1475 -0.6891 -0.1142
  930MPD2    C313605   0.830   1.344  13.873  0.3082 -0.4179 -0.1485
  930MPD2    C413606   0.757   1.317  13.988 -0.5190  0.0981 -0.3089
  930MPD2    C513607   0.789   1.384  14.111 -0.0530 -1.0557 -0.5640
  930MPD2     H13608   0.980   1.474  13.790 -0.0862 -0.4234 -0.1996
  930MPD2    H113609   0.681   1.240  13.988  0.4849 -0.9013  0.8539
  930MPD2    H213610   0.885   1.552  14.198  0.5103 -0.3687  0.9327
  930MPD2    H313611   0.744   1.355  14.206 -1.3908 -0.3911 -0.9924
  930MPD2     N13612   0.797   1.278  13.752 -0.7614 -0.3841  0.4196
  930MPD2    H513613   0.708   1.230  13.750 -0.8283 -0.2352 -0.0791
  930MPD2    N113614   1.024   1.634  14.004 -0.2207  0.1609 -0.4130
  930MPD2    H713615   1.033   1.677  14.095  0.4947  1.0656 -0.9179
  931MPD2     C13616   1.233   0.616   0.898  0.4784 -0.2639  0.1223
  931MPD2    C113617   1.104   0.564   0.903  0.4860 -0.1598  0.4169
  931MPD2    C213618   1.076   0.473   1.008  0.6331 -0.3848 -0.1605
  931MPD2    C313619   1.168   0.436   1.099  0.2293 -0.2679  0.1043
  931MPD2    C413620   1.298   0.485   1.080 -0.2919 -0.1511 -0.6025
  931MPD2    C513621   1.323   0.575   0.992 -0.0301  0.3008 -0.0638
  931MPD2     H13622   0.980   0.425   1.018  1.2047 -1.3030  0.8910
  931MPD2    H113623   1.377   0.451   1.146  0.5502  3.8389  0.4446
  931MPD2    H213624   1.263   0.697   0.833  1.5529 -1.2315 -0.5886
  931MPD2    H313625   1.421   0.620   0.999 -0.1539  0.5803 -0.1394
  931MPD2     N13626   1.136   0.353   1.213  0.6429 -0.2840 -0.5701
  931MPD2    H513627   1.206   0.313   1.275  0.9606 -0.0513 -0.7770
  931MPD2    N113628   1.005   0.614   0.808 -0.3256  0.3301 -0.7263
  931MPD2    H713629   1.037   0.690   0.749 -0.9212  1.5706  0.5468
  932MPD2     C13630   2.971   4.365  11.018  0.4289  0.0621 -0.0155
  932MPD2    C113631   2.951   4.492  11.070  0.6004 -0.0191  0.7391
  932MPD2    C213632   2.977   4.510  11.200  0.5908  0.2648 -0.2560
  932MPD2    C313633   3.051   4.413  11.272  0.7122 -0.2780 -1.1390
  932MPD2    C413634   3.089   4.298  11.208 -0.0852  1.1502 -0.1976
  932MPD2    C513635   3.041   4.271  11.084  0.5280  0.5376  0.2730
  932MPD2     H13636   2.947   4.604  11.246  0.1275  0.2721 -0.5711
  932MPD2    H113637   3.142   4.221  11.264  1.7976  2.1112 -0.6534
  932MPD2    H213638   2.965   4.349  10.911  0.8472 -1.5780  0.2059
  932MPD2    H313639   3.063   4.174  11.040  0.7640  2.8710 -4.6994
  932MPD2     N13640   3.096   4.434  11.402  0.3367 -0.1164  0.1803
  932MPD2    H513641   3.157   4.366  11.446 -1.6528 -1.2840  1.1239
  932MPD2    N113642   2.888   4.596  10.995 -0.2128 -0.1028 -0.1431
  932MPD2    H713643   2.880   4.683  11.047  0.8254  0.2239 -0.5276
  933MPD2     C13644   4.101   4.619   2.004 -0.4468  0.1549 -0.1797
  933MPD2    C113645   4.074   4.614   1.865  0.1352  0.2905 -0.2599
  933MPD2    C213646   3.965   4.687   1.814  0.0648  0.0515  0.1903
  933MPD2    C313647   3.885   0.039   1.904 -0.3921 -0.0263 -1.0131
  933MPD2    C413648   3.918   0.044   2.039 -0.3509  0.1711 -0.2772
  933MPD2    C513649   4.026   4.696   2.086 -0.2164  0.2547 -0.8270
  933MPD2     H13650   3.944   4.682   1.708 -0.8105  1.4200  0.2966
  933MPD2    H113651   3.866   0.102   2.115 -0.0045  2.5806 -1.8573
  933MPD2    H213652   4.185   4.575   2.057 -2.2887 -0.6608  2.0520
  933MPD2    H313653   4.042   4.704   2.193 -4.0314  0.7386 -0.3162
  933MPD2     N13654   3.778   0.113   1.841 -0.3092 -0.0951  0.1485
  933MPD2    H513655   3.774   0.096   1.741  0.8442  4.3806 -0.6287
  933MPD2    N113656   4.151   4.528   1.783 -0.1597 -0.2861 -0.2233
  933MPD2    H713657   4.226   4.479   1.831  0.4502  2.8541  2.0407
  934MPD2     C13658   4.317   1.248   2.393  0.4285  0.0891  0.0482
  934MPD2    C113659   4.434   1.242   2.325 -0.1886 -0.1998  0.2443
  934MPD2    C213660   4.427   1.220   2.186 -0.6065  0.4129 -0.5035
  934MPD2    C313661   4.301   1.198   2.123 -0.1950  0.3108 -0.3325
  934MPD2    C413662   4.184   1.197   2.197 -0.1299 -0.3998  0.1527
  934MPD2    C513663   4.197   1.224   2.334  0.1597  0.0788 -0.1546
  934MPD2     H13664   4.515   1.222   2.124 -1.6971  0.9328 -2.0431
  934MPD2    H113665   4.092   1.165   2.150  0.3746  0.2196 -1.2394
  934MPD2    H213666   4.312   1.270   2.499 -2.1343 -1.0989  0.1555
  934MPD2    H313667   4.113   1.217   2.402  0.5596  1.2072  0.4660
  934MPD2     N13668   4.282   1.174   1.988  0.3083  0.0121 -0.2407
  934MPD2    H513669   4.187   1.168   1.952  0.2229  1.3706 -0.2401
  934MPD2    N113670   4.559   1.256   2.391 -0.0312 -0.4972 -0.7235
  934MPD2    H713671   4.635   1.222   2.333 -1.7765 -1.5217 -2.4213
  935MPD2     C13672   0.148   0.604   1.358  0.0942 -0.1355  0.1142
  935MPD2    C113673   0.055   0.667   1.281 -0.7404  0.1167  0.1864
  935MPD2    C213674   4.687   0.748   1.338 -0.0179  0.0437  0.4442
  935MPD2    C313675   4.689   0.787   1.472  0.2627  0.4178  0.2222
  935MPD2    C413676   0.065   0.731   1.549  0.8549  0.2018  0.2892
  935MPD2    C513677   0.139   0.630   1.490  0.0588  0.0139  0.2061
  935MPD2     H13678   4.609   0.776   1.269  0.5340  1.4042  0.3540
  935MPD2    H113679   0.077   0.750   1.655  0.2480 -0.7146  0.5250
  935MPD2    H213680   0.217   0.525   1.331  1.6647  1.1305  0.4696
  935MPD2    H313681   0.204   0.571   1.554  1.0284  0.6331 -0.2210
  935MPD2     N13682   4.594   0.870   1.535 -0.2705  0.0268 -0.2789
  935MPD2    H513683   4.600   0.875   1.636 -0.3850 -0.9141 -0.2313
  935MPD2    N113684   0.033   0.643   1.141 -0.7277 -0.4985 -0.2214
  935MPD2    H713685   4.687   0.690   1.089 -0.8490  0.1651  0.5637
  936MPD2     C13686   3.419   3.337  12.191  0.0175  0.2790  0.4793
  936MPD2    C113687   3.385   3.344  12.329  0.3250 -0.2243  0.4528
  936MPD2    C213688   3.359   3.461  12.386  0.5834 -0.3737  0.3896
  936MPD2    C313689   3.345   3.574  12.305 -0.1440 -0.1356 -0.0116
  936MPD2    C413690   3.370   3.567  12.176  0.3179  0.1841  0.0976
  936MPD2    C513691   3.406   3.449  12.119  0.6758 -0.1763  1.1116
  936MPD2     H13692   3.324   3.463  12.489 -2.4023  1.3261 -0.6710
  936MPD2    H113693   3.361   3.656  12.114  0.8079 -1.0996 -1.7961
  936MPD2    H213694   3.423   3.243  12.138  0.6344  0.3650  0.3747
  936MPD2    H313695   3.426   3.437  12.014  1.3571 -3.3814  1.5981
  936MPD2     N13696   3.293   3.693  12.355  1.2533  0.5631 -0.3814
  936MPD2    H513697   3.305   3.772  12.292  0.6645 -0.7308 -2.0896
  936MPD2    N113698   3.404   3.227  12.404 -0.6615  0.2920 -0.0651
  936MPD2    H713699   3.389   3.245  12.503  0.7373  1.7685 -0.1187
  937MPD2     C13700   1.000   4.625  11.304 -0.7182  0.1514  0.1018
  937MPD2    C113701   1.035   0.026  11.360  0.3340 -0.0498  0.0245
  937MPD2    C213702   1.105   0.114  11.284 -0.0027  0.4519  0.0939
  937MPD2    C313703   1.142   0.082  11.150 -0.4148 -0.0421 -0.5773
  937MPD2    C413704   1.097   4.688  11.092  0.1623  0.0011 -0.1573
  937MPD2    C513705   1.028   4.596  11.171 -0.2244  0.3721 -0.0469
  937MPD2     H13706   1.143   0.207  11.325  0.1562 -0.5197  2.1277
  937MPD2    H113707   1.116   4.671  10.987 -3.4820  1.1361 -1.0183
  937MPD2    H213708   0.962   4.543  11.364  1.0737  0.0682  1.1194
  937MPD2    H313709   1.014   4.500  11.124  2.3065 -0.4888  0.9786
  937MPD2     N13710   1.220   0.177  11.073  0.2859  0.0566 -0.7255
  937MPD2    H513711   1.257   0.257  11.123  0.9764 -0.4009 -0.5024
  937MPD2    N113712   1.040   0.047  11.496  0.2792  0.3588  0.0954
  937MPD2    H713713   1.081   0.135  11.525 -0.7516  0.4555  1.2512
  938MPD2     C13714   3.728   1.434   0.272  0.7426 -0.1143  0.3540
  938MPD2    C113715   3.782   1.430   0.400 -0.1926 -0.2938  0.2653
  938MPD2    C213716   3.710   1.372   0.504  0.0132  0.1302  0.1085
  938MPD2    C313717   3.581   1.331   0.486 -0.4941  0.0241  0.3122
  938MPD2    C413718   3.525   1.332   0.361 -0.3928  0.4094  0.4950
  938MPD2    C513719   3.600   1.379   0.261  0.0914 -0.2661 -1.1488
  938MPD2     H13720   3.755   1.372   0.603 -3.0259  1.7656  1.5002
  938MPD2    H113721   3.424   1.307   0.332 -0.2262  1.4017 -0.9614
  938MPD2    H213722   3.770   1.481   0.183 -0.2830  0.2401  0.0478
  938MPD2    H313723   3.549   1.380   0.165 -0.5504 -1.1783 -0.8231
  938MPD2     N13724   3.498   1.284   0.591  0.3272 -0.7298  0.0076
  938MPD2    H513725   3.398   1.283   0.575  0.2599  0.2345  0.3677
  938MPD2    N113726   3.905   1.497   0.439 -0.1054 -0.3228  0.3655
  938MPD2    H713727   3.947   1.476   0.529 -0.5870  0.6859  0.8255
  939MPD2     C13728   0.991   1.865   0.985  0.1735 -0.8851  0.3610
  939MPD2    C113729   0.933   1.986   0.953  0.3981 -0.1332  0.3555
  939MPD2    C213730   0.909   2.014   0.820 -1.1399 -0.0403 -0.6896
  939MPD2    C313731   0.958   1.926   0.725  0.3790  0.4487  0.5508
  939MPD2    C413732   1.014   1.808   0.762  0.2215  0.1103 -0.2233
  939MPD2    C513733   1.032   1.772   0.891 -0.6106 -0.3447 -0.0038
  939MPD2     H13734   0.860   2.105   0.787 -0.3943  0.7277  0.3290
  939MPD2    H113735   1.061   1.740   0.690 -0.0986  2.0535 -2.2658
  939MPD2    H213736   1.013   1.847   1.089 -2.3601  1.0564  1.2324
  939MPD2    H313737   1.089   1.683   0.911  0.3946  0.5464  1.0815
  939MPD2     N13738   0.951   1.965   0.593  0.7904  0.1598 -0.5520
  939MPD2    H513739   0.925   2.060   0.567  0.8182  0.3988  0.3006
  939MPD2    N113740   0.890   2.070   1.055 -0.1326  0.0826  0.4003
  939MPD2    H713741   0.895   2.031   1.148 -1.5468  1.9056  1.2252
  940MPD2     C13742   3.877   3.144  13.073 -0.0558 -0.3500 -0.5689
  940MPD2    C113743   3.961   3.043  13.116  0.1903  1.3318  0.7045
  940MPD2    C213744   4.076   3.016  13.037 -1.1613  0.0999 -0.0047
  940MPD2    C313745   4.098   3.087  12.919 -0.6758  0.4672  0.4169
  940MPD2    C413746   4.003   3.178  12.880 -0.3496 -0.1144  0.1911
  940MPD2    C513747   3.896   3.204  12.953  0.2325  0.4660  0.6132
  940MPD2     H13748   4.136   2.928  13.061 -0.3601  1.0984  1.6759
  940MPD2    H113749   4.003   3.228  12.784  1.5733 -2.8975 -1.2446
  940MPD2    H213750   3.787   3.173  13.124 -0.3937 -0.8510 -0.8705
  940MPD2    H313751   3.821   3.272  12.914  1.1548  2.4117  2.2160
  940MPD2     N13752   4.190   3.041  12.823 -0.6839 -0.2121 -0.3026
  940MPD2    H513753   4.176   3.081  12.731 -0.3484 -1.1729 -0.7735
  940MPD2    N113754   3.940   2.960  13.225 -0.9729 -0.6286 -0.3735
  940MPD2    H713755   4.023   2.907  13.251 -0.5372  0.1859 -0.1141
  941MPD2     C13756   3.475   2.540   9.272  0.5108  0.2625  0.0554
  941MPD2    C113757   3.571   2.475   9.348 -0.0341 -0.0795  0.0171
  941MPD2    C213758   3.531   2.401   9.460 -0.4001  0.0580  0.1074
  941MPD2    C313759   3.397   2.391   9.488  0.2975 -0.5951 -0.0952
  941MPD2    C413760   3.304   2.455   9.415 -0.0112 -0.0930  0.4620
  941MPD2    C513761   3.343   2.527   9.305  0.7287 -0.2345  0.0386
  941MPD2     H13762   3.602   2.350   9.524  1.3482  0.8097 -1.2141
  941MPD2    H113763   3.197   2.450   9.433 -0.1570 -0.5359 -0.5158
  941MPD2    H213764   3.494   2.606   9.188 -0.0810  0.3160 -0.0343
  941MPD2    H313765   3.275   2.593   9.253 -0.8043 -0.8432  1.2797
  941MPD2     N13766   3.353   2.319   9.600  0.2626  0.2815 -0.1362
  941MPD2    H513767   3.255   2.321   9.626  0.0039  0.2286 -1.1291
  941MPD2    N113768   3.710   2.474   9.314  0.4866  0.0276  0.3312
  941MPD2    H713769   3.773   2.426   9.378 -0.3116  0.1197  1.1936
  942MPD2     C13770   3.223   3.337   9.029 -0.9153 -0.0883  0.4765
  942MPD2    C113771   3.235   3.368   9.162  0.2647  0.0577  0.1103
  942MPD2    C213772   3.331   3.306   9.243  0.4808  1.1672 -0.2428
  942MPD2    C313773   3.433   3.218   9.185  0.1014 -0.3730 -1.0162
  942MPD2    C413774   3.426   3.206   9.050  0.5125 -0.1360  0.0060
  942MPD2    C513775   3.316   3.249   8.977  0.5268  0.0593 -0.3368
  942MPD2     H13776   3.335   3.325   9.349  3.0144 -1.1364  0.0662
  942MPD2    H113777   3.504   3.151   8.998  1.9782  1.6208  0.3244
  942MPD2    H213778   3.151   3.381   8.960 -1.5382 -0.3576  0.9514
  942MPD2    H313779   3.320   3.219   8.873  3.4358 -0.5565 -0.0598
  942MPD2     N13780   3.549   3.177   9.250  0.9851  0.2805  0.2265
  942MPD2    H513781   3.602   3.105   9.202 -0.2425 -0.7943  0.4647
  942MPD2    N113782   3.149   3.466   9.224 -0.3969 -0.1128 -0.0177
  942MPD2    H713783   3.137   3.466   9.325 -1.8460  2.2395 -0.1765
  943MPD2     C13784   2.151   2.130   9.426  0.2270 -0.3249  0.9535
  943MPD2    C113785   2.049   2.038   9.429 -0.4807  0.8897 -0.5031
  943MPD2    C213786   1.937   2.050   9.349  0.2780 -0.2670 -0.0199
  943MPD2    C313787   1.919   2.162   9.266 -0.6246  1.3754 -0.6240
  943MPD2    C413788   2.019   2.255   9.263  0.2392  0.0296 -0.3390
  943MPD2    C513789   2.137   2.241   9.341  0.2322 -0.1877 -1.0491
  943MPD2     H13790   1.852   1.983   9.356 -0.5578  0.8541  0.5760
  943MPD2    H113791   2.009   2.341   9.198 -0.8710  0.9331  1.0055
  943MPD2    H213792   2.240   2.111   9.485 -1.1547  0.0502  3.1536
  943MPD2    H313793   2.217   2.313   9.338 -1.1964  1.3860 -1.5967
  943MPD2     N13794   1.804   2.173   9.186 -0.1709 -0.1071 -0.1071
  943MPD2    H513795   1.788   2.253   9.126  0.5113  0.8056  0.9316
  943MPD2    N113796   2.062   1.930   9.520  0.0544 -0.0075 -0.3707
  943MPD2    H713797   2.146   1.929   9.576  0.7579 -2.1422 -1.4481
  944MPD2     C13798   1.655   0.760  10.882  0.4626 -0.3130  0.3183
  944MPD2    C113799   1.702   0.884  10.841  0.2283  0.1637 -0.1690
  944MPD2    C213800   1.751   0.971  10.943 -0.6410 -0.3073  0.0570
  944MPD2    C313801   1.753   0.930  11.074  0.7152  0.0828  0.0862
  944MPD2    C413802   1.707   0.800  11.107  0.2632 -0.6836  0.2934
  944MPD2    C513803   1.664   0.718  11.008 -0.0165  0.0478  0.1469
  944MPD2     H13804   1.779   1.072  10.912 -0.2302 -0.4963 -0.1972
  944MPD2    H113805   1.699   0.764  11.209  1.6023  0.9860  0.9811
  944MPD2    H213806   1.609   0.688  10.815  1.1787 -1.2549  0.8221
  944MPD2    H313807   1.631   0.617  11.029  1.0463 -0.3651 -0.1508
  944MPD2     N13808   1.789   1.033  11.175 -0.1155 -0.1600 -0.2611
  944MPD2    H513809   1.839   1.112  11.135  2.6901 -1.7099  0.1725
  944MPD2    N113810   1.705   0.908  10.698  0.2537  0.1793  0.1693
  944MPD2    H713811   1.640   0.857  10.639 -1.7273  3.2472 -0.3486
    1TCq1    O113812   4.141   1.720  14.135  0.3050 -0.7933 -0.5123
    1TCq1    C113813   4.158   1.589  14.159  0.0239 -0.0225  0.1934
    1TCq1    O213814   4.093   1.502  14.106  0.1833  0.0709  0.3449
    1TCq1    C213815   4.211   1.582  14.292  0.1808 -0.3511  0.2512
    1TCq1    C313816   4.148   1.486  14.376  0.2836  0.4804 -0.1090
    1TCq1    C413817   4.178   1.500  14.507 -0.0323 -0.4746  0.1248
    1TCq1    C513818   4.253   1.603  14.552  0.4058 -0.1641  0.7189
    1TCq1    C613819   4.300   1.701  14.463  0.5659 -0.2571 -0.3647
    1TCq1    C713820   4.285   1.684  14.333  0.4461 -0.1230 -0.3628
    1TCq1    C813821   4.403   1.781  14.505  0.0213 -0.3915  0.4551
    1TCq1    O413822   4.443   1.756  14.619 -0.1416 -0.4445  0.0178
    1TCq1    C913823   4.136   1.398  14.601 -0.8413 -0.7635 -0.4412
    1TCq1    O513824   4.162   1.421  14.719  0.3497 -0.4359  0.1992
    1TCq1    O613825   4.048   1.320  14.558  0.5389 -0.3761  0.1298
    1TCq1    H113826   4.185   1.784  14.196  1.2869 -0.5549 -1.4823
    1TCq1    H213827   4.093   1.401  14.338  0.7172  0.6486 -1.1174
    1TCq1    H313828   4.263   1.625  14.658 -1.3023  0.4966  0.7412
    1TCq1    H413829   4.338   1.741  14.258 -0.9159  2.6104  0.7234
    2MPD2     C13830   4.720   2.180  14.529 -0.2646  1.2880 -0.7333
    2MPD2    C113831   4.618   2.212  14.451 -0.2361 -0.1628  0.4064
    2MPD2    C213832   4.525   2.117  14.409 -0.1727  0.0026  0.1627
    2MPD2    C313833   4.536   1.984  14.448 -0.3300 -0.0405  0.4407
    2MPD2    C413834   4.644   1.953  14.526  0.0656 -0.2502  0.2491
    2MPD2    C513835   0.003   2.049  14.569  0.2479  0.3415 -0.5444
    2MPD2     H13836   4.430   2.148  14.368  0.5854  0.1477 -1.4925
    2MPD2    H113837   4.653   1.853  14.566  0.0567  0.7415  2.6981
    2MPD2    H213838   0.058   2.261  14.562 -0.6893  0.4991  2.0281
    2MPD2    H313839   0.080   2.023  14.641  1.7144  0.1898 -2.1767
    2MPD2     N13840   4.436   1.887  14.423  0.3841 -0.1194 -0.4245
    2MPD2    H513841   4.372   1.911  14.347 -0.6529  1.5609  0.9800
    2MPD2    N113842   4.605   2.356  14.425  0.1953  1.3466  0.7781
    2MPD2    H713843   4.672   2.415  14.474  0.7222  0.8395  0.6665
    3TMC2    C113844   4.546   2.568  14.344  0.0250  0.0051  0.1044
    3TMC2    C213845   4.638   2.630  14.432  0.9576 -0.1683 -0.1423
    3TMC2    C313846   4.641   2.765  14.426 -0.0918 -0.6600 -0.2886
    3TMC2    C413847   4.487   2.644  14.246 -0.5970  0.8319 -0.4631
    3TMC2    C513848   4.502   2.772  14.240 -0.4008  0.2514  0.0601
    3TMC2    C613849   4.579   2.841  14.329  0.4597 -0.3254  0.3016
    3TMC2     C13850   4.522   2.421  14.338  0.7131  0.6153 -0.1208
    3TMC2     O13851   4.431   2.379  14.270  0.1430 -0.1552  0.1441
    3TMC2     H13852   4.678   2.576  14.518 -1.4170  0.4559  1.3407
    3TMC2    H113853   4.416   2.591  14.184 -0.4830 -1.9896  1.8224
    3TMC2    H213854   4.593   2.947  14.343 -2.1626 -0.1782  1.5926
    3TMC2    C713855   4.413   2.844  14.154  0.4179 -0.7342  0.2685
    3TMC2    C813856   4.679   2.841  14.548 -0.5555 -0.1847 -0.8289
    3TMC2    O113857   4.329   2.781  14.093 -0.6085  0.6199  0.1471
    3TMC2    O213858   4.726   2.954  14.552  0.0452 -0.5007  0.0207
    3TMC2    O513859   4.630   2.773  14.659 -0.2697 -0.2805 -0.8215
    3TMC2    H513860   4.575   2.693  14.644  0.0057 -0.6033 -0.0755
    4MPD2     C13861   4.401   3.759  13.111  0.9999 -0.0169  0.2904
    4MPD2    C113862   4.340   3.737  13.230 -0.2836 -0.3519 -0.1876
    4MPD2    C213863   4.403   3.672  13.337  0.0851 -0.1457 -0.1663
    4MPD2    C313864   4.535   3.638  13.316 -0.8942 -0.1695 -0.4240
    4MPD2    C413865   4.602   3.656  13.192 -0.8104 -0.1337  0.0821
    4MPD2    C513866   4.530   3.718  13.090 -0.6359  0.1682 -0.2408
    4MPD2     H13867   4.356   3.649  13.431 -1.7873 -2.5482 -1.6838
    4MPD2    H113868   4.699   3.609  13.175 -1.2681 -1.1673  0.3233
    4MPD2    H213869   4.344   3.803  13.030 -3.6592 -2.4342  2.2620
    4MPD2    H313870   4.572   3.733  12.991 -0.5402 -0.8267 -0.3515
    4MPD2     N13871   4.605   3.575  13.429 -0.7877 -1.0077 -0.2031
    4MPD2    H513872   4.555   3.574  13.518  0.0869 -0.5861  0.2911
    4MPD2    N113873   4.205   3.775  13.239  0.6708 -0.0738  0.1788
    4MPD2    H713874   4.168   3.836  13.165  0.2205  1.0199  1.3017
    5TCq2    C113875   0.014   3.536  13.430 -0.3291  0.4206  0.6719
    5TCq2    O213876   0.097   3.544  13.342 -0.3848 -0.1414  0.3889
    5TCq2    C213877   0.067   3.495  13.554 -0.0503 -0.4986  0.1450
    5TCq2    C313878   0.195   3.536  13.582  0.0720 -0.6327  0.2927
    5TCq2    C413879   0.235   3.540  13.713  0.6182 -0.1122 -0.3495
    5TCq2    C513880   0.148   3.507  13.813 -0.4323 -0.2401  0.5192
    5TCq2    C613881   0.030   3.452  13.777  0.4059 -0.2377  0.2867
    5TCq2    C713882   4.705   3.454  13.650  1.3388 -0.2204  0.5523
    5TCq2    C813883   4.695   3.363  13.876  0.1083  0.5004  0.7077
    5TCq2    O413884   0.040   3.327  13.964 -0.4272 -0.8147  0.0720
    5TCq2    C913885   0.351   3.627  13.758  0.0779 -0.7813  0.5457
    5TCq2    O513886   0.370   3.649  13.881  0.4491  0.0734  0.2722
    5TCq2    O613887   0.415   3.684  13.664  0.5637 -0.2993 -0.2773
    5TCq2    H213888   0.272   3.569  13.512  0.0193 -0.0606  0.5070
    5TCq2    H313889   0.178   3.513  13.917  1.5895 -1.1019 -0.0138
    5TCq2    H413890   4.606   3.422  13.618  0.6293  1.4040  1.1484
    6MPD1     C13891   3.773   0.678  13.052  0.4772  0.5556 -0.0716
    6MPD1    C113892   3.704   0.626  12.940 -0.5830  0.1487  0.3762
    6MPD1    C213893   3.637   0.506  12.951  0.4620 -0.5894 -0.0494
    6MPD1    C313894   3.666   0.429  13.066  0.0816 -0.0649 -0.3256
    6MPD1    C413895   3.744   0.478  13.171 -0.3150 -0.5223 -0.7902
    6MPD1    C513896   3.795   0.605  13.164  0.0167  0.7166 -0.4648
    6MPD1     H13897   3.576   0.482  12.865 -0.2345  1.2922 -0.0975
    6MPD1    H113898   3.774   0.413  13.252  0.0300  0.2228 -0.3169
    6MPD1    H213899   3.823   0.774  13.044  1.8761 -0.3435 -2.3191
    6MPD1    H313900   3.841   0.641  13.255 -2.1240 -0.5107  1.1137
    6MPD1     N13901   3.625   0.295  13.085 -0.1516  0.2123  0.1534
    6MPD1    H513902   3.641   0.259  13.178  2.1227 -2.0844 -1.1124
    6MPD1    N113903   3.686   0.711  12.828  0.4873 -0.0300 -0.1135
    6MPD1    H613904   3.664   0.669  12.738  1.7252  0.6596 -0.7314
    6MPD1    H713905   3.768   0.769  12.814  0.0533  0.6861  0.3220
    7MPD2     C13906   3.502   4.360  13.524 -0.6611 -0.9433 -1.0170
    7MPD2    C113907   3.510   4.334  13.392 -0.1530 -0.5890 -0.1675
    7MPD2    C213908   3.533   4.204  13.362  0.0218  0.9552 -0.3776
    7MPD2    C313909   3.553   4.104  13.449  0.2114  0.3230  0.1315
    7MPD2    C413910   3.552   4.135  13.584  0.3045  0.0047  0.2386
    7MPD2    C513911   3.532   4.264  13.616 -0.0644 -0.0155  0.1895
    7MPD2     H13912   3.535   4.178  13.257  0.2982  0.4406 -0.2447
    7MPD2    H113913   3.580   4.071  13.666 -0.7695 -0.4603  0.2284
    7MPD2    H213914   3.505   4.460  13.566  1.2805 -1.0848 -0.8232
    7MPD2    H313915   3.534   4.286  13.722 -1.4223 -0.0113  0.2211
    7MPD2     N13916   3.607   3.980  13.400  0.5380  0.5336  0.1366
    7MPD2    H513917   3.617   3.979  13.299  1.2396  0.3854  0.2083
    7MPD2    N113918   3.488   4.428  13.287 -0.1592  0.0981 -0.0478
    7MPD2    H713919   3.469   4.395  13.193 -0.6069  2.0652 -0.6429
    8TMC3    C113920   3.744   3.804  13.384 -0.8376 -1.0587 -0.1101
    8TMC3    C213921   3.880   3.788  13.411 -0.1835  0.2031 -0.0031
    8TMC3    C313922   3.974   3.793  13.304  0.7689  0.6189 -0.4630
    8TMC3    C413923   3.710   3.811  13.252 -0.7940  0.6406  0.2667
    8TMC3    C513924   3.805   3.821  13.153 -0.0101 -0.5770 -0.1971
    8TMC3    C613925   3.941   3.821  13.175 -0.3678  0.0822 -0.0091
    8TMC3     C13926   3.669   3.886  13.478 -0.3322  0.3052  0.2685
    8TMC3     O13927   3.672   3.858  13.597  0.3057 -0.7740  0.3512
    8TMC3     H13928   3.923   3.809  13.508  2.7386 -3.5426 -0.4780
    8TMC3    H113929   3.608   3.794  13.220 -0.4118  3.2486 -2.3577
    8TMC3    H213930   4.017   3.815  13.099 -1.3183  1.2225 -1.0526
    8TMC3    C713931   3.746   3.910  13.052  0.3512 -0.7424  0.1146
    8TMC3    C813932   4.113   3.756  13.338  0.4440 -0.0697 -0.1357
    8TMC3    O113933   3.650   3.971  13.092 -0.1894 -0.1871  0.3702
    8TMC3    O213934   4.133   3.696  13.444 -0.2473 -0.4713 -0.4526
    9TMC3    C113935   3.563   0.079  13.016  0.6885 -0.0044 -0.1215
    9TMC3    C213936   3.594   4.725  12.908 -0.0381  0.1151  0.7159
    9TMC3    C313937   3.607   4.590  12.929  0.3872 -0.4799 -0.3439
    9TMC3    C413938   3.517   0.031  13.138 -0.2775 -0.5113  0.3781
    9TMC3    C513939   3.534   4.620  13.157 -0.3422 -0.0584  0.1290
    9TMC3    C613940   3.577   4.538  13.055 -0.0899  0.4199  0.7425
    9TMC3     C13941   3.564   0.226  12.988 -0.7531  0.3950 -0.5315
    9TMC3     O13942   3.512   0.256  12.880 -0.1246  0.8444 -0.3045
    9TMC3     H13943   3.622   0.051  12.818 -1.9541  1.5618  0.9615
    9TMC3    H113944   3.489   0.085  13.227  0.3055  1.4841 -0.6605
    9TMC3    H213945   3.601   4.435  13.081 -0.7773  0.2512  0.7258
    9TMC3    C713946   3.521   4.567  13.298  0.2312  1.0703 -0.6781
    9TMC3    C813947   3.668   4.510  12.827  0.3874  0.7401  0.6096
    9TMC3    O113948   3.528   4.640  13.394  0.1005 -0.0571 -0.6378
    9TMC3    O213949   3.711   4.565  12.727  0.1405  0.2637  0.5522
   10MPD2     C13950   3.909   4.060  12.760  0.0432 -0.7178  0.8930
   10MPD2    C113951   3.823   4.046  12.863  0.1259 -0.5975  1.0349
   10MPD2    C213952   3.742   4.154  12.896  0.5649  0.4672  0.9392
   10MPD2    C313953   3.746   4.273  12.821  0.9011 -0.1941 -0.2271
   10MPD2    C413954   3.844   4.288  12.724  0.0595 -0.4211  0.4641
   10MPD2    C513955   3.925   4.180  12.696 -0.5055  0.2125  0.4263
   10MPD2     H13956   3.664   4.159  12.971 -2.2952 -2.8660 -1.8092
   10MPD2    H113957   3.852   4.379  12.666 -1.1595 -0.8954 -0.4315
   10MPD2    H213958   3.981   3.982  12.736  0.3451 -0.3552  0.6263
   10MPD2    H313959   4.001   4.195  12.620 -3.0246 -1.0251 -2.3300
   10MPD2     N13960   3.670   4.379  12.867 -0.3830 -0.1191 -0.1534
   10MPD2    H513961   3.605   4.363  12.944 -0.1826 -0.5568 -0.0766
   10MPD2    N113962   3.835   3.928  12.951 -0.1659 -0.1882  0.1240
   10MPD2    H713963   3.912   3.862  12.944  0.9320  0.9072  1.8058
   11MPD2     C13964   4.286   3.068  13.993 -0.3987 -0.0355 -0.2039
   11MPD2    C113965   4.415   3.064  14.041  0.6744  0.5768 -0.4297
   11MPD2    C213966   4.500   3.164  14.002  0.1660 -1.1111 -0.4796
   11MPD2    C313967   4.468   3.260  13.911  0.2733 -0.8575  0.4715
   11MPD2    C413968   4.340   3.254  13.857 -0.0381  0.2055  0.3737
   11MPD2    C513969   4.254   3.162  13.906 -0.0412 -0.1731  0.1986
   11MPD2     H13970   4.600   3.156  14.041  0.6251 -1.0558 -1.6383
   11MPD2    H113971   4.309   3.315  13.773  2.3948 -1.0057 -1.4094
   11MPD2    H213972   4.214   2.994  14.026 -0.3697 -0.1031 -0.2915
   11MPD2    H313973   4.160   3.173  13.852  0.3341 -0.0451 -0.4282
   11MPD2     N13974   4.562   3.344  13.847 -0.2608 -0.1030  0.2425
   11MPD2    H513975   4.519   3.405  13.778 -1.8354 -0.2177  1.1021
   11MPD2    N113976   4.461   2.962  14.130  0.5086 -0.3487 -0.2257
   11MPD2    H713977   4.558   2.977  14.156  0.4927 -0.9982  0.2159
    1MPD1     C13978   1.994   4.550   0.093 -0.4529 -0.2896 -0.0162
    1MPD1    C113979   2.066   4.668   0.119 -0.2335 -0.2464 -0.4928
    1MPD1    C213980   2.106   0.018   0.011 -0.5217  0.0560 -0.2979
    1MPD1    C313981   2.083   4.702  17.585 -0.5082 -0.0021 -0.2458
    1MPD1    C413982   2.011   4.584  17.570  0.0909  0.1868 -0.1049
    1MPD1    C513983   1.964   4.507  17.672  0.5788 -0.1531 -0.6340
    1MPD1     H13984   2.155   0.112   0.035 -1.3134  0.0998  1.1358
    1MPD1    H113985   1.996   4.546  17.470  0.5406 -0.9044  0.2461
    1MPD1    H213986   1.958   4.498   0.181 -2.1729 -1.0252 -1.1684
    1MPD1    H313987   1.894   4.427  17.653  1.0633 -0.1583 -2.3587
    1MPD1     N13988   2.135   0.049  17.482  0.0402 -0.8386 -0.0190
    1MPD1    H513989   2.094   0.027  17.392  0.9847  0.6921 -0.8133
    1MPD1    N113990   2.065   4.713   0.252 -0.2561 -0.2408 -0.4236
    1MPD1    H613991   2.138   0.053   0.274 -0.3002 -0.2317 -0.3009
    1MPD1    H713992   2.082   4.634   0.315  1.0299  1.3604  1.2400
    2MPD1     C13993   3.081   0.236  17.393  0.1259 -1.0926 -0.2769
    2MPD1    C113994   2.990   0.170  17.472 -0.0469  0.4898 -0.0029
    2MPD1    C213995   2.853   0.178  17.442  0.0402  0.4732  0.2415
    2MPD1    C313996   2.806   0.261  17.347  0.0387 -0.3964 -0.3535
    2MPD1    C413997   2.898   0.331  17.273 -0.3505 -0.2928  0.3740
    2MPD1    C513998   3.035   0.312  17.290 -0.3241  0.1330 -0.5915
    2MPD1     H13999   2.778   0.121  17.494  1.1312 -0.2036  1.0526
    2MPD1    H114000   2.862   0.393  17.192  0.0115  1.7662  1.7879
    2MPD1    H214001   3.188   0.239  17.413 -0.2897 -0.3851  1.8962
    2MPD1    H314002   3.096   0.370  17.222 -0.2324  0.2083 -0.4455
    2MPD1     N14003   2.664   0.257  17.327 -0.0448  0.1957 -0.3260
    2MPD1    H514004   2.616   0.204  17.398 -1.1657  0.5100 -0.8532
    2MPD1    N114005   3.038   0.075  17.568 -0.0118 -0.4337 -0.2768
    2MPD1    H614006   3.102   0.127  17.628  0.9711 -0.4820 -1.2731
    2MPD1    H714007   2.962   0.035  17.622  0.3927  1.4977  1.6837
    3TMC3    C114008   2.445   0.316  17.250  0.0551  0.3735  0.2914
    3TMC3    C214009   2.359   0.335  17.140 -0.3776 -0.6551 -0.0886
    3TMC3    C314010   2.225   0.293  17.152 -0.4234 -0.2584  0.3839
    3TMC3    C414011   2.395   0.270  17.364 -0.3057  0.4115  0.3626
    3TMC3    C514012   2.263   0.222  17.369 -0.4552 -0.3358  0.1924
    3TMC3    C614013   2.175   0.235  17.265 -0.1759 -0.2300 -0.7380
    3TMC3     C14014   2.591   0.313  17.228 -0.6434 -0.1370  0.5121
    3TMC3     O14015   2.631   0.368  17.130  0.5055  0.1444 -0.2911
    3TMC3     H14016   2.402   0.372  17.048  1.7175  1.4345  1.7435
    3TMC3    H114017   2.463   0.242  17.443  1.4760  2.4076 -0.4714
    3TMC3    H214018   2.072   0.210  17.288  0.1968 -0.6978  0.4366
    3TMC3    C714019   2.222   0.156  17.492  0.0378 -0.4608 -0.5769
    3TMC3    C814020   2.116   0.332  17.061 -0.3394  0.0632 -0.0668
    3TMC3    O114021   2.284   0.189  17.592 -0.7206  0.0694  0.2436
    3TMC3    O214022   2.014   0.266  17.066 -0.4752  0.1772  0.4985
    4MPD1     C14023   1.919   0.639  16.701 -0.3296  0.4737 -0.2702
    4MPD1    C114024   2.048   0.654  16.703  0.1906  0.0546 -0.6636
    4MPD1    C214025   2.129   0.588  16.788 -0.4093 -0.4202  0.1648
    4MPD1    C314026   2.077   0.490  16.872  0.9008 -0.2651 -0.1857
    4MPD1    C414027   1.938   0.465  16.863  0.0675  0.7065  0.1473
    4MPD1    C514028   1.861   0.546  16.784 -0.0016  0.6475  0.4321
    4MPD1     H14029   2.237   0.602  16.789 -0.5648  0.4893  2.3307
    4MPD1    H114030   1.881   0.395  16.923 -1.8262  1.9715 -0.1320
    4MPD1    H214031   1.860   0.711  16.645  1.7094  2.3033 -0.0814
    4MPD1    H314032   1.755   0.529  16.776 -0.0975  0.5008  1.9837
    4MPD1     N14033   2.158   0.431  16.971 -0.1318 -0.5205 -1.1319
    4MPD1    H514034   2.251   0.471  16.979 -1.0405  1.1897  1.0295
    4MPD1    N114035   2.097   0.763  16.628  0.1812  0.0041  0.7080
    4MPD1    H614036   2.034   0.791  16.553 -1.4131  0.1199  2.0931
    4MPD1    H714037   2.187   0.757  16.582 -0.4434  0.1648 -0.5342
    1TCq1    O114038   3.472   0.697  11.984  0.2235  0.1309 -0.4795
    1TCq1    C114039   3.379   0.632  11.904  0.3325  0.5239 -0.3476
    1TCq1    O214040   3.312   0.684  11.815 -0.5368 -0.2667  0.3249
    1TCq1    C214041   3.417   0.496  11.892 -0.1262 -0.8610  0.2392
    1TCq1    C314042   3.474   0.431  11.999 -0.2424  0.1553 -0.1499
    1TCq1    C414043   3.500   0.298  11.967  0.7292 -0.6597 -0.2734
    1TCq1    C514044   3.494   0.238  11.843  0.7498 -0.0019  0.2150
    1TCq1    C614045   3.407   0.298  11.763  0.3768  0.6602 -0.5962
    1TCq1    C714046   3.364   0.426  11.787  0.2505 -0.1668 -0.1680
    1TCq1    C814047   3.364   0.241  11.631  0.2943 -0.7404 -0.6218
    1TCq1    O414048   3.261   0.290  11.584 -0.2330  0.3974 -0.0616
    1TCq1    C914049   3.579   0.231  12.067 -0.3665 -0.5168 -0.1458
    1TCq1    O514050   3.612   0.115  12.035  0.7480 -0.0657 -0.1879
    1TCq1    O614051   3.602   0.300  12.174 -0.2313 -0.4945  0.4175
    1TCq1    H114052   3.492   0.643  12.063 -0.1704  0.1188 -0.3869
    1TCq1    H214053   3.472   0.470  12.100 -0.3915 -0.2516  0.0042
    1TCq1    H314054   3.530   0.137  11.828  0.1502 -0.0114 -1.1444
    1TCq1    H414055   3.308   0.478  11.711 -1.4734 -1.4332  0.2398
    2MPD1     C14056   3.406   4.657  11.213 -0.2246  0.6631  0.0429
    2MPD1    C114057   3.522   4.656  11.289  0.0140  0.5373 -0.5407
    2MPD1    C214058   3.538   4.725  11.406 -0.7656  0.8277 -0.1813
    2MPD1    C314059   3.440   0.082  11.456  0.0567 -0.0000  0.0847
    2MPD1    C414060   3.326   0.092  11.375  0.2320  0.0485  0.0122
    2MPD1    C514061   3.307   0.016  11.267 -0.4089  0.2665  0.3482
    2MPD1     H14062   3.633   4.717  11.457 -1.1440  0.5069  0.4858
    2MPD1    H114063   3.242   0.154  11.405  1.0628  0.7997  0.8361
    2MPD1    H214064   3.390   4.591  11.129 -1.1073  1.7800 -0.6563
    2MPD1    H314065   3.212   0.015  11.215  0.4340  1.7783 -1.2431
    2MPD1     N14066   3.455   0.142  11.579  0.2844 -0.3646  0.1656
    2MPD1    H514067   3.543   0.119  11.623  1.3497  2.6499 -0.4099
    2MPD1    N114068   3.619   4.563  11.249  0.1375  0.4171  0.5423
    2MPD1    H614069   3.715   4.588  11.273  0.6875 -1.5390  0.4488
    2MPD1    H714070   3.615   4.547  11.149  0.9633 -0.9081  0.7028
    1TCq1    O114071   3.524   1.537   1.548  0.3345 -0.1485 -0.0709
    1TCq1    C114072   3.563   1.499   1.424 -0.0059 -0.2585  0.1357
    1TCq1    O214073   3.511   1.538   1.316  0.2413  0.4234  0.5479
    1TCq1    C214074   3.668   1.394   1.427  0.3594 -0.4341  0.5025
    1TCq1    C314075   3.704   1.330   1.542  0.1801  0.4740 -0.8182
    1TCq1    C414076   3.798   1.232   1.536  0.1010 -0.5304  0.1257
    1TCq1    C514077   3.848   1.192   1.417  0.2854 -0.6016 -0.0007
    1TCq1    C614078   3.817   1.263   1.308  0.3766 -0.8820  0.9730
    1TCq1    C714079   3.721   1.362   1.308 -0.6199  0.8955  0.0369
    1TCq1    C814080   3.859   1.217   1.178  0.5471  0.3358 -0.3181
    1TCq1    O414081   3.787   1.220   1.082  0.3757  0.0985 -0.2319
    1TCq1    C914082   3.796   1.132   1.642  0.5146  0.5589  0.3421
    1TCq1    O514083   3.726   1.158   1.739 -0.0247 -0.7783 -0.2239
    1TCq1    O614084   3.885   1.040   1.639 -0.2610 -0.3889  0.3308
    1TCq1    H114085   3.590   1.503   1.612 -0.6101  0.8275  1.4333
    1TCq1    H214086   3.659   1.342   1.640 -1.0727  0.0562 -1.3386
    1TCq1    H314087   3.907   1.102   1.411  2.1116  0.6147 -0.0963
    1TCq1    H414088   3.705   1.431   1.226 -0.1708 -0.2101 -0.9847
    2MPD1     C14089   4.243   1.069   0.863  0.6123  0.4746  0.4086
    2MPD1    C114090   4.302   1.116   0.979 -0.2202 -0.1799  0.9117
    2MPD1    C214091   4.209   1.138   1.082  0.2503  0.3953 -0.3259
    2MPD1    C314092   4.071   1.133   1.069 -0.1067  0.1498 -0.2058
    2MPD1    C414093   4.016   1.093   0.947 -0.1143 -0.4158 -0.5100
    2MPD1    C514094   4.109   1.055   0.845  0.1468  0.8373 -0.4067
    2MPD1     H14095   4.250   1.159   1.180  0.2345 -1.4846  0.0723
    2MPD1    H114096   3.911   1.079   0.924 -0.0539 -0.3980 -0.7962
    2MPD1    H214097   4.305   1.031   0.783  0.3153 -0.3353  0.5587
    2MPD1    H314098   4.073   0.996   0.762  1.0355 -1.8808  1.1359
    2MPD1     N14099   3.994   1.182   1.178  0.1251 -0.2637 -0.2897
    2MPD1    H514100   4.038   1.190   1.269  0.7914 -0.6847 -0.5754
    2MPD1    N114101   4.433   1.103   1.006  0.3221  0.0048 -0.2725
    2MPD1    H614102   4.497   1.121   0.928  1.8895 -0.4126  0.9229
    2MPD1    H714103   4.455   1.178   1.071 -0.1040 -0.6269  0.5888
    1MPD1     C14104   4.045   4.399  12.273  0.3606 -0.3278 -0.4471
    1MPD1    C114105   4.066   4.518  12.209 -0.3716  0.1036  0.2068
    1MPD1    C214106   4.188   4.551  12.157  0.5349  0.1853 -0.3412
    1MPD1    C314107   4.287   4.458  12.147  0.8487  0.4183 -0.1026
    1MPD1    C414108   4.271   4.339  12.210 -0.5911 -0.1400  0.6172
    1MPD1    C514109   4.152   4.313  12.272  0.1424 -0.4033  0.4033
    1MPD1     H14110   4.210   4.645  12.107 -0.5047  0.5114 -0.2014
    1MPD1    H114111   4.353   4.268  12.221  0.2550  0.7514  0.1099
    1MPD1    H214112   3.950   4.369  12.315 -0.4355  0.3575 -1.7954
    1MPD1    H314113   4.143   4.227  12.338 -2.1627  0.3327  1.0446
    1MPD1     N14114   4.411   4.497  12.082  0.4187 -0.1048 -0.4944
    1MPD1    H514115   4.417   4.592  12.046 -3.1334 -0.0133 -0.7918
    1MPD1    N114116   3.966   4.616  12.217 -0.1795  0.2331 -0.3301
    1MPD1    H614117   3.873   4.585  12.244 -1.1096  2.4112 -1.0378
    1MPD1    H714118   3.964   4.663  12.126  0.0737  0.2384 -0.3330
    2MPD1     C14119   4.423   4.240   9.981 -0.2391 -0.5559 -0.3260
    2MPD1    C114120   4.422   4.229  10.121 -0.2596  0.4180 -0.1967
    2MPD1    C214121   4.526   4.297  10.192  0.0328 -0.3861  0.5983
    2MPD1    C314122   4.613   4.381  10.131  0.6758  0.6879 -0.2108
    2MPD1    C414123   4.591   4.408   9.995  1.1740  0.2938 -0.0411
    2MPD1    C514124   4.497   4.335   9.924  0.7362 -0.1589 -0.9039
    2MPD1     H14125   4.549   4.279  10.296  0.7072 -1.8857  0.1835
    2MPD1    H114126   4.642   4.494   9.954 -0.0500  1.6376  1.2088
    2MPD1    H214127   4.366   4.176   9.916  1.1254 -2.6470  0.5275
    2MPD1    H314128   4.502   4.331   9.815 -0.8011 -0.0891 -0.9711
    2MPD1     N14129   4.716   4.450  10.199  0.1829 -0.0175  0.6509
    2MPD1    H514130   0.037   4.525  10.149 -0.9636  0.6564  0.5725
    2MPD1    N114131   4.344   4.131  10.182 -0.3709  0.1558  0.3165
    2MPD1    H614132   4.313   4.169  10.271  1.0747 -2.3707  1.8870
    2MPD1    H714133   4.264   4.098  10.128  0.4994 -0.0111 -0.8816
    3MPD1     C14134   0.321   0.443   9.941  0.7189 -0.5426  0.3558
    3MPD1    C114135   0.280   0.329   9.879 -0.1272 -0.2208 -0.3319
    3MPD1    C214136   0.266   0.217   9.963  0.4161 -0.3304 -0.0032
    3MPD1    C314137   0.308   0.217  10.097 -0.3899  0.5977  0.1781
    3MPD1    C414138   0.359   0.334  10.149  0.8127 -0.2651 -0.0785
    3MPD1    C514139   0.360   0.449  10.074  0.5092  0.1149 -0.2244
    3MPD1     H14140   0.217   0.127   9.929 -0.1963  0.3298 -0.8732
    3MPD1    H114141   0.382   0.344  10.255 -1.1321 -2.1024  0.5240
    3MPD1    H214142   0.325   0.540   9.891  3.3285 -0.9339 -0.2166
    3MPD1    H314143   0.381   0.545  10.120 -1.0998  0.1104  0.5101
    3MPD1     N14144   0.292   0.097  10.167  0.3762  0.1811  0.7273
    3MPD1    H514145   0.235   0.022  10.129 -0.0776  1.2205 -0.6608
    3MPD1    N114146   0.214   0.335   9.758 -0.9403  0.0053  0.2800
    3MPD1    H614147   0.225   0.246   9.709 -1.6183 -0.1902  0.4737
    3MPD1    H714148   0.239   0.416   9.703  1.4114 -0.2505  0.9791
    4MPD2     C14149   0.095   0.121  11.569  0.1217  0.5909  0.3633
    4MPD2    C114150   0.167   0.042  11.653 -0.1347  0.8009  0.5604
    4MPD2    C214151   0.286   4.715  11.611  0.3445 -0.0222  0.8305
    4MPD2    C314152   0.333   0.009  11.479 -0.5488  0.3896 -1.2019
    4MPD2    C414153   0.260   0.083  11.400  0.3001 -0.9019  0.4662
    4MPD2    C514154   0.143   0.137  11.443  0.4322  0.0148  0.5380
    4MPD2     H14155   0.344   4.655  11.681  1.2515  0.2417  0.3127
    4MPD2    H114156   0.294   0.092  11.298 -1.1477  0.7151  0.1269
    4MPD2    H214157   0.003   0.159  11.612 -1.7343 -0.5555 -2.5271
    4MPD2    H314158   0.084   0.206  11.384  0.4477  1.2597  1.9722
    4MPD2     N14159   0.447   4.675  11.421 -0.1832  0.4667 -0.4001
    4MPD2    H514160   0.460   4.702  11.324  0.3534 -1.4350 -0.8634
    4MPD2    N114161   0.130   0.006  11.785  0.1465  0.1809 -0.4769
    4MPD2    H714162   0.183   4.661  11.833 -0.7004  1.2392  2.0811
    5TMC3    C114163   0.005   4.696  11.968  0.9492  0.6583  0.1792
    5TMC3    C214164   4.618   4.626  11.974  0.8758 -0.0439  0.0405
    5TMC3    C314165   4.631   4.494  12.026 -0.2245 -0.5683 -0.2661
    5TMC3    C414166   0.125   4.661  12.030  0.1979  0.0295  0.7168
    5TMC3    C514167   0.136   4.526  12.061 -0.0348  0.7893 -0.9191
    5TMC3    C614168   0.029   4.443  12.063  0.4258 -0.6362  0.4001
    5TMC3     C14169   0.015   0.045  11.843 -1.2057 -0.1034 -0.5374
    5TMC3     O14170   4.646   0.113  11.807  0.3523  0.0796  0.1546
    5TMC3     H14171   4.532   4.662  11.919  0.6308 -0.8285 -0.0859
    5TMC3    H114172   0.206   0.005  12.031 -0.3463  0.6413  1.8559
    5TMC3    H214173   0.038   4.337  12.084 -3.0930 -0.7653  1.3476
    5TMC3    C714174   0.245   4.477  11.985 -0.5202 -0.2697 -0.4917
    5TMC3    C814175   4.523   4.419  12.072  0.2938  0.7075  0.2074
    5TMC3    O114176   0.287   4.553  11.897 -0.5661  0.4211  0.3764
    5TMC3    O214177   4.543   4.308  12.120  0.1111 -0.0927 -0.2287
    6TMC3    C114178   0.145   4.501  10.369  0.3786 -0.0735  0.1119
    6TMC3    C214179   0.177   4.615  10.302  0.3077 -0.2297  0.0531
    6TMC3    C314180   0.301   4.661  10.338  0.1885  0.6251  0.1885
    6TMC3    C414181   0.231   4.432  10.457 -0.2685 -0.2243 -0.5002
    6TMC3    C514182   0.352   4.487  10.478  0.5319 -0.0526  0.2924
    6TMC3    C614183   0.384   4.604  10.431 -0.0986 -0.0596  0.0168
    6TMC3     C14184   0.034   4.424  10.326 -0.5017  0.5205 -0.2144
    6TMC3     O14185   0.019   4.321  10.393 -0.4497  0.0617 -0.4186
    6TMC3     H14186   0.104   4.671  10.245  0.3306 -1.1151 -0.8335
    6TMC3    H114187   0.195   4.341  10.502  0.0041  0.4079  1.0149
    6TMC3    H214188   0.479   4.648  10.459 -0.1559  0.3830 -0.4886
    6TMC3    C714189   0.428   4.436  10.586  0.1645  0.0923 -0.5859
    6TMC3    C814190   0.346   0.066  10.290  0.6199 -0.0996 -0.0756
    6TMC3    O114191   0.493   4.512  10.658  0.3964 -0.1433 -0.2747
    6TMC3    O214192   0.443   0.127  10.337 -0.3255 -0.0940  0.3148
    7MPD2     C14193   0.540   4.099  11.809  0.1165 -0.6840  0.7963
    7MPD2    C114194   0.504   4.226  11.760 -0.4203 -0.0708  0.3078
    7MPD2    C214195   0.426   4.307  11.836 -0.3599  0.0433  0.0354
    7MPD2    C314196   0.358   4.264  11.945  0.0759  0.1337 -1.0002
    7MPD2    C414197   0.373   4.131  11.981 -0.3472 -0.1725  0.0979
    7MPD2    C514198   0.470   4.056  11.917  0.2409 -0.1664 -0.5107
    7MPD2     H14199   0.422   4.408  11.798 -1.4673 -0.2489 -0.6174
    7MPD2    H114200   0.318   4.089  12.065 -1.1787  0.2405 -0.2407
    7MPD2    H214201   0.623   4.051  11.759  0.8468  2.3582 -0.9111
    7MPD2    H314202   0.503   3.957  11.948 -0.2595 -0.1839 -0.0326
    7MPD2     N14203   0.278   4.342  12.024 -0.4318  0.1888 -0.6042
    7MPD2    H514204   0.234   4.297  12.104  1.9080  0.6926  0.9446
    7MPD2    N114205   0.560   4.275  11.644  0.3630  0.8815 -0.3444
    7MPD2    H714206   0.536   4.371  11.621  0.1802  0.9368  0.0898
    8TMC3    C114207   0.676   4.295  11.454  0.0744  0.0058  0.0602
    8TMC3    C214208   0.635   4.271  11.324 -0.5111  0.1149 -1.1914
    8TMC3    C314209   0.607   4.376  11.241  0.1701  0.4604 -0.2553
    8TMC3    C414210   0.688   4.423  11.498  0.0164 -0.5505 -0.6733
    8TMC3    C514211   0.645   4.523  11.419 -0.6878 -1.0137 -0.5810
    8TMC3    C614212   0.608   4.503  11.288  0.3905 -0.3622 -0.1773
    8TMC3     C14213   0.632   4.204  11.555 -0.0440  0.3776 -0.6125
    8TMC3     O14214   0.671   4.087  11.552  0.0956 -0.3400 -0.2909
    8TMC3     H14215   0.602   4.171  11.297 -1.2709  0.7059 -2.4411
    8TMC3    H114216   0.729   4.456  11.592 -0.1142  0.7499 -1.0704
    8TMC3    H214217   0.570   4.580  11.222 -1.5805 -0.2825  1.0356
    8TMC3    C714218   0.536   4.598  11.496 -0.1243 -0.9780  0.2463
    8TMC3    C814219   0.574   4.366  11.097  0.7564  0.2073  0.6609
    8TMC3    O114220   0.528   4.571  11.613  0.2103  0.2423  0.1829
    8TMC3    O214221   0.524   4.461  11.043  0.6616  0.4254  0.6173
    9MPD2     C14222   0.601   4.067  10.900 -0.0053 -0.2447  0.1254
    9MPD2    C114223   0.560   4.195  10.920  0.4858 -0.1929 -0.0301
    9MPD2    C214224   0.504   4.269  10.824 -0.7555  0.2960  0.6207
    9MPD2    C314225   0.479   4.218  10.698 -0.5506  0.5032  0.4626
    9MPD2    C414226   0.489   4.080  10.689 -0.0780 -0.0233  1.1329
    9MPD2    C514227   0.556   4.007  10.786  0.0354 -0.3537  0.7708
    9MPD2     H14228   0.480   4.374  10.840 -1.5449  0.1216  0.5916
    9MPD2    H114229   0.463   4.032  10.595 -1.8302  0.7337  1.2269
    9MPD2    H214230   0.644   4.006  10.978  2.0239  0.4051 -0.4916
    9MPD2    H314231   0.564   3.899  10.783  0.2297 -0.2956 -1.2740
    9MPD2     N14232   0.427   4.297  10.592 -0.8359  0.2868 -0.2713
    9MPD2    H514233   0.404   4.246  10.508 -0.0472  2.8005 -1.9923
    9MPD2    N114234   0.591   4.238  11.049 -0.2889 -0.5261  0.3470
    9MPD2    H714235   0.648   4.171  11.099  0.8977 -0.4801 -0.9370
    1MPD1     C14236   1.105   3.619  16.072  0.4002 -0.5738 -0.8876
    1MPD1    C114237   1.023   3.516  16.033 -0.1282  0.1311  0.0987
    1MPD1    C214238   0.950   3.437  16.129 -0.3460  0.1524  0.3163
    1MPD1    C314239   0.954   3.474  16.264 -0.0501 -0.0594  0.1393
    1MPD1    C414240   1.021   3.590  16.300  0.2844 -0.0666  0.2893
    1MPD1    C514241   1.106   3.649  16.208 -0.2157  0.8382  0.1166
    1MPD1     H14242   0.898   3.345  16.102 -0.1505  0.6115 -1.6203
    1MPD1    H114243   1.025   3.632  16.400 -2.1184  0.5614  0.1158
    1MPD1    H214244   1.155   3.683  16.000  1.0999 -2.3055 -1.9537
    1MPD1    H314245   1.172   3.729  16.239 -0.0163  0.5333  0.4763
    1MPD1     N14246   0.868   3.418  16.364 -0.5472 -0.6519  0.2192
    1MPD1    H514247   0.893   3.454  16.456  1.4263  1.8786 -1.2855
    1MPD1    N114248   1.039   3.469  15.905 -0.3838  0.4268 -0.0194
    1MPD1    H614249   0.968   3.407  15.866  0.2093  0.6495 -1.4394
    1MPD1    H714250   1.063   3.539  15.836  2.0917 -1.6453 -1.2319
    2MPD1     C14251   4.648   3.119  16.523 -0.2038 -1.2382  0.1641
    2MPD1    C114252   4.715   3.163  16.412  0.1420  0.4259  0.1072
    2MPD1    C214253   0.128   3.184  16.422 -0.0085  0.1819  0.1239
    2MPD1    C314254   0.188   3.181  16.546 -0.2049 -0.0083 -0.2168
    2MPD1    C414255   0.115   3.157  16.656  1.0621  0.2945 -0.1649
    2MPD1    C514256   4.710   3.132  16.650  0.1103 -0.3635 -0.3150
    2MPD1     H14257   0.174   3.209  16.327 -0.5420 -2.6059 -0.8739
    2MPD1    H114258   0.162   3.162  16.754  2.0166  3.4253 -0.7920
    2MPD1    H214259   4.542   3.097  16.513 -0.2244 -0.4642 -1.2593
    2MPD1    H314260   4.663   3.109  16.744  1.4049 -0.6167  0.2680
    2MPD1     N14261   0.330   3.214  16.545 -0.0195 -0.2174 -0.3164
    2MPD1    H514262   0.368   3.247  16.457 -2.4189 -2.2432 -2.1372
    2MPD1    N114263   4.654   3.163  16.285 -0.1280  0.6811  0.5482
    2MPD1    H614264   4.560   3.201  16.288  0.7008  2.8803 -1.2703
    2MPD1    H714265   4.701   3.215  16.211 -0.9128  0.9495  0.2423
    3TCq2    C114266   0.414   3.202  16.650  0.4682  0.1894 -0.7280
    3TCq2    O214267   0.401   3.143  16.756 -0.0853 -0.0849 -0.6355
    3TCq2    C214268   0.543   3.262  16.618  0.4602  0.0996  0.3408
    3TCq2    C314269   0.635   3.232  16.712 -0.2209 -0.1434  0.8802
    3TCq2    C414270   0.765   3.236  16.689 -0.4656 -0.6001  0.7394
    3TCq2    C514271   0.808   3.256  16.568 -0.0488 -0.3814 -1.1637
    3TCq2    C614272   0.722   3.268  16.467  0.1503 -0.2975 -0.2707
    3TCq2    C714273   0.584   3.276  16.490 -0.8327  0.0253 -0.1557
    3TCq2    C814274   0.770   3.319  16.344 -0.6594  0.7781 -0.2543
    3TCq2    O414275   0.718   3.299  16.237  0.4225  0.5797 -0.8235
    3TCq2    C914276   0.852   3.203  16.795  0.0567  0.0175  0.4012
    3TCq2    O514277   0.809   3.205  16.915 -0.9028 -0.4006 -0.1718
    3TCq2    O614278   0.974   3.193  16.763 -0.7354  0.2595 -0.0395
    3TCq2    H214279   0.607   3.206  16.814 -0.2575  3.3679  1.7872
    3TCq2    H314280   0.914   3.253  16.546  0.1406  1.8919 -0.6230
    3TCq2    H414281   0.510   3.284  16.411 -1.1826 -2.1390 -0.0263
    1TCq1    O114282   2.802   2.788  12.731  0.6137  0.4578 -0.4864
    1TCq1    C114283   2.902   2.819  12.816  0.0888  0.3236  0.4917
    1TCq1    O214284   2.932   2.934  12.847 -0.2959 -0.3191  0.2983
    1TCq1    C214285   2.913   2.718  12.921  0.8150 -0.4048 -0.4500
    1TCq1    C314286   2.793   2.670  12.975  0.4263  0.2755  0.2495
    1TCq1    C414287   2.810   2.629  13.100 -0.1877  0.1503 -0.3775
    1TCq1    C514288   2.924   2.636  13.173  0.5834  0.6562  0.9841
    1TCq1    C614289   3.038   2.672  13.110  0.4727  0.4164 -0.1040
    1TCq1    C714290   3.038   2.708  12.979 -0.3183  0.4731  0.3677
    1TCq1    C814291   3.153   2.599  13.158  0.0539  0.6156 -0.0109
    1TCq1    O414292   3.235   2.552  13.077 -0.3198  0.6440 -0.2304
    1TCq1    C914293   2.694   2.581  13.174  0.8917  0.1074  0.1646
    1TCq1    O514294   2.582   2.610  13.119  0.1623  0.4308 -0.0959
    1TCq1    O614295   2.702   2.541  13.296  0.0809  0.2120  0.3721
    1TCq1    H114296   2.786   2.692  12.743 -1.6626  0.7749 -1.0948
    1TCq1    H214297   2.699   2.684  12.924 -0.4906 -3.1103  1.0197
    1TCq1    H314298   2.937   2.606  13.276 -0.8062 -1.2133  0.6211
    1TCq1    H414299   3.124   2.757  12.935  1.4269 -2.3169  0.6521
    2MPD2     C14300   3.345   2.451  13.335  0.0526 -0.1787 -0.4459
    2MPD2    C114301   3.256   2.556  13.373 -0.0666 -0.2604 -0.5154
    2MPD2    C214302   3.256   2.595  13.506  0.1457 -0.0927  0.0366
    2MPD2    C314303   3.343   2.536  13.597 -0.3778 -0.0585  0.4026
    2MPD2    C414304   3.424   2.431  13.562 -0.7271 -0.1917  1.2256
    2MPD2    C514305   3.425   2.396  13.429  0.9783 -0.5160  0.7773
    2MPD2     H14306   3.193   2.676  13.539  1.5263  2.0535 -2.5888
    2MPD2    H114307   3.498   2.388  13.629  1.1840  0.5368 -0.4243
    2MPD2    H214308   3.360   2.423  13.232  0.4664 -1.1951 -0.1037
    2MPD2    H314309   3.498   2.318  13.412  1.1903 -0.1818  0.1513
    2MPD2     N14310   3.337   2.580  13.728 -0.7180 -0.0288 -0.3834
    2MPD2    H514311   3.271   2.655  13.749 -0.5676  0.3645 -1.3523
    2MPD2    N114312   3.170   2.618  13.290  0.6044 -0.2925 -0.5583
    2MPD2    H714313   3.105   2.680  13.337 -2.6628 -4.7997  0.8646
    3TCq1    O114314   3.351   2.966  14.184  0.2397  0.0635 -0.3734
    3TCq1    C114315   3.311   2.919  14.063  0.3127  0.5560  0.6120
    3TCq1    O214316   3.274   2.982  13.966  0.0569 -0.4603 -0.1093
    3TCq1    C214317   3.297   2.780  14.067 -0.3041  0.1155 -0.2466
    3TCq1    C314318   3.302   2.715  14.193  0.1875  0.3343 -0.4663
    3TCq1    C414319   3.322   2.580  14.192 -0.5529  0.4335 -0.2799
    3TCq1    C514320   3.361   2.517  14.078  0.2244  0.1166  1.0758
    3TCq1    C614321   3.369   2.588  13.961  0.0330 -0.0401 -0.3341
    3TCq1    C714322   3.336   2.723  13.954 -0.4080 -0.1053 -1.2455
    3TCq1    C814323   3.396   2.522  13.835 -0.6470 -0.1212  0.9606
    3TCq1    O414324   3.474   2.427  13.849 -0.6040  0.4787 -0.2472
    3TCq1    C914325   3.277   2.496  14.311  0.2635 -0.3143 -0.4031
    3TCq1    O514326   3.162   2.518  14.359  0.1665 -0.3862 -0.3667
    3TCq1    O614327   3.335   2.386  14.330 -0.1845 -0.2424 -0.5084
    3TCq1    H114328   3.399   2.904  14.243 -0.3631  1.1130  1.2175
    3TCq1    H214329   3.258   2.761  14.280  0.5357  1.2301 -0.7704
    3TCq1    H314330   3.363   2.409  14.088 -0.5747  0.1140  1.2113
    3TCq1    H414331   3.342   2.787  13.866  0.4783  0.0080 -1.0982
    1MPD2     C14332   3.137   3.317  15.427 -0.1783 -0.1794 -0.4132
    1MPD2    C114333   3.018   3.298  15.359 -0.2498  0.2035 -0.0372
    1MPD2    C214334   3.023   3.260  15.227  0.5485 -0.1712 -0.8471
    1MPD2    C314335   3.144   3.241  15.162  0.1286  0.4247  0.0522
    1MPD2    C414336   3.263   3.260  15.232 -0.8518 -0.1097  0.3612
    1MPD2    C514337   3.253   3.305  15.361  0.5587 -0.4761 -0.2540
    1MPD2     H14338   2.930   3.232  15.178  1.0034 -2.2684 -0.5180
    1MPD2    H114339   3.360   3.246  15.186 -1.8253 -1.7175 -1.2416
    1MPD2    H214340   3.145   3.352  15.529  2.3564  0.6366 -0.8874
    1MPD2    H314341   3.343   3.326  15.418  1.1792  0.7368 -1.6889
    1MPD2     N14342   3.153   3.212  15.024 -0.2196  0.5716  0.2863
    1MPD2    H514343   3.245   3.190  14.986 -0.5640  0.8961 -0.7575
    1MPD2    N114344   2.897   3.312  15.434  0.8275  0.1455  0.2453
    1MPD2    H714345   2.903   3.316  15.536 -1.2089  2.4670  0.2903
    2TMC3    C114346   2.662   3.306  15.480  0.3698 -0.0250 -0.1739
    2TMC3    C214347   2.552   3.232  15.448  0.4422  0.0242  0.4420
    2TMC3    C314348   2.432   3.294  15.410  0.1217 -0.0077  0.1000
    2TMC3    C414349   2.641   3.442  15.491  0.1221  0.0128 -0.3628
    2TMC3    C514350   2.518   3.497  15.468  1.0954  0.2024 -0.7446
    2TMC3    C614351   2.412   3.425  15.421  0.0862 -0.4368 -0.6874
    2TMC3     C14352   2.767   3.274  15.397 -0.0494 -0.2004 -0.5529
    2TMC3     O14353   2.721   3.232  15.288 -0.4632  0.0437 -0.8894
    2TMC3     H14354   2.566   3.129  15.417  0.0627 -0.0610  0.5496
    2TMC3    H114355   2.725   3.499  15.529 -1.0845  0.0793  2.1865
    2TMC3    H214356   2.320   3.460  15.377 -0.8656 -0.4797  1.3101
    2TMC3    C714357   2.486   3.641  15.475  0.8076  0.0156  0.0217
    2TMC3    C814358   2.377   3.236  15.287 -0.1820 -0.0553  0.3997
    2TMC3    O114359   2.369   3.672  15.495 -0.3700  0.0272  0.1805
    2TMC3    O214360   2.262   3.256  15.253 -0.1495  0.1809 -0.1091
    3TCq1    O114361   3.216   4.544  14.952  0.2546 -0.3942 -0.2663
    3TCq1    C114362   3.132   4.540  15.058 -0.4801 -0.0269 -0.4214
    3TCq1    O214363   3.055   4.629  15.089  0.1574 -0.2469 -0.0939
    3TCq1    C214364   3.111   4.402  15.084 -0.0999 -0.2160  0.2167
    3TCq1    C314365   3.219   4.310  15.101 -0.0281 -1.0734  0.7406
    3TCq1    C414366   3.182   4.182  15.143 -0.7543  0.2331  0.8714
    3TCq1    C514367   3.054   4.138  15.154 -0.1198 -0.8555 -0.3667
    3TCq1    C614368   2.957   4.228  15.129  0.2759  0.1520 -0.2372
    3TCq1    C714369   2.981   4.359  15.103  0.6147  0.1584 -0.5569
    3TCq1    C814370   2.816   4.204  15.160 -0.4322  0.3253 -0.5722
    3TCq1    O414371   2.735   4.292  15.139 -0.4095 -0.1459 -0.2224
    3TCq1    C914372   3.288   4.088  15.161  0.0378 -0.5386  0.2681
    3TCq1    O514373   3.250   3.974  15.171  0.0632 -0.6639  0.3210
    3TCq1    O614374   3.400   4.134  15.173  0.5010  0.0425 -0.5430
    3TCq1    H114375   3.248   4.455  14.927 -1.3175 -0.8289 -0.7399
    3TCq1    H214376   3.323   4.333  15.080 -0.4942  0.2802 -0.1228
    3TCq1    H314377   3.035   4.032  15.162 -0.4476 -0.6303  1.9096
    3TCq1    H414378   2.904   4.434  15.092 -0.7873 -1.2928 -0.6175
    4MPD2     C14379   2.578   4.133  15.330 -0.2611 -0.1803 -0.1626
    4MPD2    C114380   2.687   4.057  15.312 -0.0946 -0.8851  0.2692
    4MPD2    C214381   2.692   3.931  15.363 -0.0071  0.2052 -0.0482
    4MPD2    C314382   2.581   3.858  15.408  0.0536  0.3644 -0.6999
    4MPD2    C414383   2.471   3.933  15.415 -0.8117  0.1155 -0.2768
    4MPD2    C514384   2.475   4.068  15.390  0.0863  0.1351  0.4914
    4MPD2     H14385   2.791   3.886  15.360  1.7220  4.0593 -1.3292
    4MPD2    H114386   2.377   3.905  15.463 -0.2274 -1.0155  0.1985
    4MPD2    H214387   2.583   4.234  15.290 -0.9922  0.1293  0.5370
    4MPD2    H314388   2.388   4.131  15.406 -0.9449 -1.0067 -0.6546
    4MPD2     N14389   2.590   3.721  15.442  0.8394  0.4103  0.4513
    4MPD2    H514390   2.677   3.672  15.428  0.2834 -0.5103  0.2396
    4MPD2    N114391   2.807   4.109  15.262  0.2499  0.6346 -0.1541
    4MPD2    H714392   2.894   4.059  15.279  1.6699  2.4380 -2.1707
    5TMC2    C114393   2.929   3.019  14.701  0.7716  0.0111  0.3530
    5TMC2    C214394   3.024   2.923  14.694  0.7999  0.6781  0.0976
    5TMC2    C314395   3.147   2.951  14.739 -0.1323 -0.1009  1.3120
    5TMC2    C414396   2.958   3.140  14.757  0.3022  0.6419 -0.3031
    5TMC2    C514397   3.078   3.165  14.807 -0.2698 -0.4339 -0.0823
    5TMC2    C614398   3.170   3.065  14.807  0.4031  0.0356 -0.1935
    5TMC2     C14399   2.796   2.975  14.735  0.2165  0.2239  0.0230
    5TMC2     O14400   2.759   2.866  14.690  0.1805 -0.0660  0.0824
    5TMC2     H14401   3.001   2.822  14.661 -0.1343  0.9746 -0.1754
    5TMC2    H114402   2.886   3.221  14.747 -0.0395  0.3944  0.1807
    5TMC2    H214403   3.266   3.085  14.853 -0.8187  0.2141  2.2724
    5TMC2    C714404   3.050   3.217  14.940  1.3414 -0.0838  0.1134
    5TMC2    C814405   3.260   2.862  14.722 -0.9987 -0.5579  0.0656
    5TMC2    O114406   2.931   3.234  14.966  0.0114  0.0198  0.3925
    5TMC2    O214407   3.368   2.898  14.768 -0.4788  0.3847 -0.2014
    5TMC2    O514408   3.252   2.817  14.594 -0.0120  0.5374  0.2600
    5TMC2    H514409   3.164   2.804  14.551 -0.9503  1.9518  1.7676
    6MPD2     C14410   2.364   3.073  15.016 -0.2079  0.3429  0.0371
    6MPD2    C114411   2.473   3.122  15.076 -0.3140  0.2392 -0.0700
    6MPD2    C214412   2.597   3.125  15.008  0.7291  0.0837  0.2994
    6MPD2    C314413   2.611   3.055  14.894 -0.8048 -0.4054 -1.1958
    6MPD2    C414414   2.501   3.001  14.833 -0.0491  0.2773 -0.6168
    6MPD2    C514415   2.379   3.014  14.890  0.3378  0.0502  0.0625
    6MPD2     H14416   2.685   3.167  15.054  0.1735 -0.0175  1.4647
    6MPD2    H114417   2.516   2.951  14.738  0.9487  0.1434 -0.3858
    6MPD2    H214418   2.266   3.082  15.061  0.2938 -1.2360  1.4075
    6MPD2    H314419   2.292   2.971  14.842  0.2978  0.4649 -0.2311
    6MPD2     N14420   2.745   3.043  14.846 -0.2198 -0.1620  0.2720
    6MPD2    H514421   2.805   3.111  14.891  1.2521 -0.3418 -1.4109
    6MPD2    N114422   2.475   3.190  15.200  0.0925  0.1810  0.5283
    6MPD2    H714423   2.571   3.202  15.231 -0.3480  1.2975  1.4460
  945NH4     N114424   2.056   2.829  12.829  0.4231  0.1026  0.1037
  945NH4     H214425   1.992   2.757  12.791 -1.5116  1.5309  0.6785
  945NH4     H314426   2.128   2.863  12.762  0.0991 -2.2597 -1.4570
  945NH4     H414427   2.103   2.781  12.909  0.0299  1.0805  0.9085
  945NH4     H514428   2.005   2.907  12.873  0.5431 -2.0907  4.1475
  946SOD     NA14429   1.868   0.559   3.649 -0.3546 -0.2083  0.2258
  947SOD     NA14430   2.169   2.899  17.690  0.2166  0.0513 -0.2489
  948SOD     NA14431   2.292   0.719   9.923 -0.2076  0.9727  0.0706
  949SOD     NA14432   4.048   0.827  16.475  0.1378 -0.2976 -0.2910
  950SOD     NA14433   1.830   4.120   4.564 -0.2192 -0.4529  0.2408
  951SOD     NA14434   1.810   1.613  10.544  0.1331  0.1975 -0.0171
  952SOD     NA14435   1.523   0.710   5.288 -0.3916  0.3031  0.1392
  953SOD     NA14436   3.517   2.259  11.760  0.3947 -0.0089 -0.3977
  954SOD     NA14437   2.965   3.217  10.956  0.3174 -0.0236 -0.1700
  955SOD     NA14438   1.500   2.112  11.003 -0.3045 -0.0303  0.2811
  956SOD     NA14439   2.459   2.468  13.245  0.2823 -0.3337  0.1327
  957SOD     NA14440   1.000   1.545  12.725  0.2682 -0.4621 -0.7705
  958SOD     NA14441   0.912   4.686  16.529  0.6610 -0.3312  0.5357
  959SOD     NA14442   3.562   3.982  14.497 -0.2082  0.6321 -0.2569
  960SOD     NA14443   3.207   2.423  11.731 -0.4201 -0.4161 -0.1585
  961SOD     NA14444   1.140   3.064  16.806 -0.0734  0.2290  0.0616
  962SOD     NA14445   1.914   1.452  10.799 -0.0679  0.2240  0.0889
  963SOD     NA14446   1.515   3.655  10.560  0.0786 -0.2053 -0.4952
  964SOD     NA14447   3.961   0.046  12.385  0.0415 -0.2487  0.1254
  965SOD     NA14448   1.685   3.001   4.680 -0.0260  0.0184 -0.3560
  966SOD     NA14449   1.931   2.979   9.560 -0.0072  0.7897  0.1020
  967SOD     NA14450   3.113   2.158  11.877  0.2848 -0.3128  0.1391
  968SOD     NA14451   3.628   1.088  12.158  0.0361  0.1687  0.3691
  969SOD     NA14452   2.787   2.425  13.455 -0.4170  0.0579 -0.7191
  970SOD     NA14453   1.753   1.800   9.016  0.1861 -0.4699 -0.3169
  971SOD     NA14454   3.558   2.145  10.574 -0.6111  0.1016  0.0629
  972SOD     NA14455   2.062   3.992  13.939 -0.1914  0.3506 -0.1964
  973SOD     NA14456   4.440   1.617   0.081 -0.0546  0.8399 -0.4439
  974SOD     NA14457   1.946   2.922   0.595 -0.7112 -0.4330  0.2680
  975SOD     NA14458   0.516   3.813  13.812 -0.2268  0.1770  0.1808
  976SOD     NA14459   4.707   2.502  15.368 -0.0172 -0.3443 -0.0283
  977SOD     NA14460   4.527   0.021  13.936 -0.1240  0.4357 -0.1272
  978SOD     NA14461   1.731   0.906   1.702  0.4325 -0.1018 -0.0325
  979SOD     NA14462   3.395   1.006   5.309  0.2381  0.1786 -0.4628
  980SOD     NA14463   1.526   2.769  14.408 -0.3331 -0.0158  0.5579
  981SOD     NA14464   2.476   0.761  11.105 -0.4133  0.9550 -0.5887
  982SOD     NA14465   1.873   1.936  10.841 -0.0605 -0.3583 -0.2272
  983SOD     NA14466   2.521   2.447  10.514 -0.1041 -0.4667 -0.1458
  984SOD     NA14467   3.575   2.001  15.004  0.2746 -0.3542 -0.0350
  985SOD     NA14468   0.370   3.425   2.487 -0.8069 -0.1554  0.6553
  986SOD     NA14469   1.732   1.422  15.050  0.0841 -0.3105 -0.4908
  987SOD     NA14470   4.398   3.868  14.613 -0.1242  0.1741 -0.0985
  988SOD     NA14471   3.776   2.160  17.091  0.2654  0.1581  0.4044
  989SOD     NA14472   2.222   2.951   0.773  0.3984 -0.1846 -0.0287
  990SOD     NA14473   0.404   0.128   0.792 -0.1728  0.2211 -0.0410
  991SOD     NA14474   4.697   1.213   9.575 -0.2169  0.0891  0.0754
  992SOD     NA14475   4.547   2.393  14.787 -0.1611  0.0482  0.1579
  993SOD     NA14476   4.112   2.079  14.389  0.0037 -0.2872 -0.7269
  994SOD     NA14477   4.469   3.714  15.351 -0.0228 -0.0560 -0.0193
  995SOD     NA14478   4.651   4.008  17.185 -0.5837  0.4736  0.0377
  996SOD     NA14479   2.831   1.701  11.974 -0.2155 -0.3240 -0.1867
  997SOD     NA14480   2.316   0.715   7.639  0.1371  0.2317 -0.0131
  998SOD     NA14481   3.173   2.751  11.712  0.0048 -0.0844 -0.1221
  999SOD     NA14482   3.599   4.630  12.039 -0.5778  0.0725 -0.0047
 1000SOD     NA14483   3.598   0.121   2.250  0.2362  0.2333  0.1029
 1001SOD     NA14484   3.887   0.217  16.408 -0.1788 -0.1163 -0.0265
 1002SOD     NA14485   3.062   4.237   2.653  0.8576 -0.0145 -0.6735
 1003SOD     NA14486   1.847   0.092   0.296 -0.0038 -0.7350 -0.6478
 1004SOD     NA14487   4.030   1.168  14.383 -0.4979  0.1896 -0.3883
 1005SOD     NA14488   3.664   3.549  15.429 -0.4179 -0.2183  0.6199
 1006SOD     NA14489   0.583   3.602  13.072  0.2303 -0.1803 -0.4915
 1007SOD     NA14490   0.468   1.581   1.500  0.0239 -0.0894 -0.0351
 1008SOD     NA14491   0.973   2.559   9.370  0.4445 -0.4699 -0.4894
 1009SOD     NA14492   4.160   3.506  10.824  0.2939  0.4893  0.2612
 1010SOD     NA14493   1.928   0.123   3.928 -1.0837 -0.5266  0.1449
 1011SOL     OW14494   2.197   2.638   3.045  0.1194 -0.1849  0.2930
 1011SOL    HW114495   2.287   2.671   3.042  1.2247 -3.1549  0.0793
 1011SOL    HW214496   2.209   2.567   3.108 -0.8460 -0.3923  0.2465
 1012SOL     OW14497   0.401   1.374   0.244 -0.3482 -0.3767  0.2525
 1012SOL    HW114498   0.402   1.448   0.184 -1.1428 -0.3366  0.2809
 1012SOL    HW214499   0.370   1.300   0.192  0.6664 -1.7035  1.5603
 1013SOL     OW14500   2.961   0.839   5.191  0.0262  0.6721 -0.1582
 1013SOL    HW114501   2.995   0.878   5.110  2.3326 -2.1102 -0.5146
 1013SOL    HW214502   2.880   0.801   5.155 -0.8663 -0.4584  3.1048
 1014SOL     OW14503   2.139   3.374   5.802  0.2699 -0.1098 -0.3163
 1014SOL    HW114504   2.208   3.410   5.858 -0.1228 -0.8999  0.6705
 1014SOL    HW214505   2.175   3.301   5.751  0.4333 -1.7522  2.1477
 1015SOL     OW14506   2.984   2.381  14.182  0.1936  0.0342 -0.4712
 1015SOL    HW114507   2.907   2.420  14.223 -1.2655 -0.6448 -2.5494
 1015SOL    HW214508   3.050   2.420  14.239 -0.8175  0.2686  0.5425
 1016SOL     OW14509   4.308   1.563   2.505  0.4333  0.3258  0.2019
 1016SOL    HW114510   4.346   1.622   2.439 -3.6779  1.7792 -0.8273
 1016SOL    HW214511   4.368   1.489   2.512  0.0727 -0.2305 -2.4782
 1017SOL     OW14512   1.361   4.033  16.975 -0.2994  0.2933  0.4684
 1017SOL    HW114513   1.294   4.075  17.029 -3.0671 -3.6204  0.0879
 1017SOL    HW214514   1.438   4.084  17.000 -0.6507  0.4219  1.2781
 1018SOL     OW14515   0.400   4.061  16.006 -0.1860 -0.7434  0.4792
 1018SOL    HW114516   0.492   4.081  15.989  0.0511 -0.3987  2.2198
 1018SOL    HW214517   0.357   4.124  15.948  3.1390  0.2372 -0.9451
 1019SOL     OW14518   0.867   0.827   8.672 -1.1019  0.6665 -0.5178
 1019SOL    HW114519   0.958   0.804   8.655 -0.5453  1.8066  0.9291
 1019SOL    HW214520   0.859   0.793   8.761  0.4302 -3.6274 -1.9876
 1020SOL     OW14521   2.327   2.409  12.275 -0.0404  0.8254 -0.3376
 1020SOL    HW114522   2.234   2.425  12.255 -0.1637  0.2669 -0.1995
 1020SOL    HW214523   2.314   2.384  12.366 -0.5388 -0.8889 -0.8746
 1021SOL     OW14524   1.347   1.862  13.537 -0.1926  0.3931  0.1251
 1021SOL    HW114525   1.261   1.894  13.508 -0.5549  0.1341  0.9221
 1021SOL    HW214526   1.386   1.830  13.456  0.8194 -4.2617  2.4745
 1022SOL     OW14527   3.324   2.822   8.409 -0.3215  0.4829 -0.4307
 1022SOL    HW114528   3.369   2.870   8.478  1.4414 -0.4622 -0.9140
 1022SOL    HW214529   3.244   2.787   8.449 -0.6933  0.6136 -1.0594
 1023SOL     OW14530   1.505   3.137   7.349 -0.6084 -0.0389 -0.0698
 1023SOL    HW114531   1.501   3.071   7.419  2.5949  0.8566  0.9820
 1023SOL    HW214532   1.513   3.209   7.412 -0.7683  0.2396 -0.3700
 1024SOL     OW14533   1.590   2.630   7.139 -0.7355  0.0137  0.4387
 1024SOL    HW114534   1.635   2.700   7.186  0.5673 -2.2098  2.5044
 1024SOL    HW214535   1.610   2.554   7.195 -2.3426 -0.1926  0.7281
 1025SOL     OW14536   4.455   3.856  15.170  0.1696 -0.3988  0.1822
 1025SOL    HW114537   4.370   3.899  15.175  0.5421  0.3661 -0.0558
 1025SOL    HW214538   4.496   3.927  15.120  1.3363 -1.0948  0.1426
 1026SOL     OW14539   1.100   1.257   2.648 -0.5998  0.2847 -0.4747
 1026SOL    HW114540   1.089   1.170   2.687 -3.0989  0.4787 -0.7514
 1026SOL    HW214541   1.023   1.245   2.592 -0.5457 -0.9725 -0.2904
 1027SOL     OW14542   4.476   3.479   8.760 -0.3336  0.1970  0.0935
 1027SOL    HW114543   4.471   3.473   8.665  2.9769 -0.1430 -0.0750
 1027SOL    HW214544   4.486   3.574   8.765  1.0286  0.0607 -0.0204
 1028SOL     OW14545   0.625   1.979   1.587 -0.3213 -0.5303  0.2189
 1028SOL    HW114546   0.704   2.032   1.600 -0.1462 -0.7554  0.0649
 1028SOL    HW214547   0.639   1.913   1.655  3.1679  1.4763  1.4678
 1029SOL     OW14548   3.664   4.144   1.136  0.2132 -0.5502  0.2639
 1029SOL    HW114549   3.710   4.226   1.155 -1.1024  0.0717  0.7875
 1029SOL    HW214550   3.586   4.140   1.191  1.4876 -1.3308  2.0188
 1030SOL     OW14551   2.273   0.187   7.836 -0.0465 -0.5349  0.1981
 1030SOL    HW114552   2.277   0.105   7.885 -1.9710 -1.3464 -1.0378
 1030SOL    HW214553   2.208   0.225   7.895 -1.1416 -1.9588 -0.0904
 1031SOL     OW14554   1.676   2.596   7.976  0.7684 -0.0967  0.4264
 1031SOL    HW114555   1.768   2.610   7.955  0.6955 -3.1175 -1.8465
 1031SOL    HW214556   1.684   2.623   8.068  1.7275  0.7293  0.1004
 1032SOL     OW14557   0.013   1.436   8.853  0.6645 -0.0734 -0.1588
 1032SOL    HW114558   4.658   1.388   8.863  0.8302 -0.2964  0.1376
 1032SOL    HW214559   4.727   1.450   8.760  3.3386 -0.0668 -0.5342
 1033SOL     OW14560   0.690   3.268   5.144  0.2122  0.6342  0.8124
 1033SOL    HW114561   0.711   3.207   5.073 -0.6277  1.1880  0.0793
 1033SOL    HW214562   0.687   3.214   5.223 -2.1924 -0.1034  0.2154
 1034SOL     OW14563   3.133   1.541  13.667  0.2075 -0.0889  0.2828
 1034SOL    HW114564   3.185   1.621  13.676 -0.6118  0.3479  1.1784
 1034SOL    HW214565   3.049   1.588  13.664  0.4944  0.5160  1.6732
 1035SOL     OW14566   3.262   1.764   7.489  0.0534  0.2106 -0.4523
 1035SOL    HW114567   3.351   1.786   7.517 -0.1930 -0.1808  0.6330
 1035SOL    HW214568   3.243   1.847   7.444  0.3787 -0.3987 -1.6991
 1036SOL     OW14569   4.334   3.773   8.018  0.0178  0.0682 -0.3394
 1036SOL    HW114570   4.381   3.841   7.971 -1.7851 -0.7109 -3.2212
 1036SOL    HW214571   4.248   3.808   7.993 -0.7449 -0.2032  1.8642
 1037SOL     OW14572   0.265   1.779   6.000  0.1850  0.1187  0.1902
 1037SOL    HW114573   0.212   1.781   5.920  0.0800  0.9834  0.2831
 1037SOL    HW214574   0.303   1.691   5.990  0.5045  0.3069 -0.2621
 1038SOL     OW14575   2.655   2.332   6.379 -0.4097 -0.0881 -0.1675
 1038SOL    HW114576   2.686   2.334   6.469 -0.8554  3.3253 -0.1174
 1038SOL    HW214577   2.682   2.420   6.353 -0.5111 -0.7267 -2.4382
 1039SOL     OW14578   3.479   4.655   9.412  0.3185 -0.0669  0.4982
 1039SOL    HW114579   3.393   4.623   9.440 -0.3341  0.7905 -0.5111
 1039SOL    HW214580   3.490   4.601   9.334 -1.5466 -0.4781  0.5228
 1040SOL     OW14581   1.929   4.002   4.738  0.2610 -0.4889  0.0874
 1040SOL    HW114582   1.992   3.940   4.774  0.1123 -0.9529 -0.4471
 1040SOL    HW214583   1.914   4.054   4.817  0.7410  0.9764 -0.7751
 1041SOL     OW14584   2.767   4.396  16.465 -0.0986  0.2239  0.3416
 1041SOL    HW114585   2.787   4.304  16.452 -3.6907 -0.5384  0.3462
 1041SOL    HW214586   2.684   4.399  16.417 -0.3491  1.8889  0.8591
 1042SOL     OW14587   0.042   2.173   5.502  0.5872 -0.3921 -0.2785
 1042SOL    HW114588   4.703   2.111   5.534  1.5522 -1.2622  0.0011
 1042SOL    HW214589   0.119   2.145   5.552 -0.2924 -0.1890  1.2090
 1043SOL     OW14590   2.561   1.464   6.364 -0.9701  0.6516  0.6915
 1043SOL    HW114591   2.523   1.537   6.413 -0.5925  2.1114 -1.2047
 1043SOL    HW214592   2.591   1.408   6.436 -0.6479 -0.7242 -0.4993
 1044SOL     OW14593   3.754   2.229  16.869  0.2248  0.3196  0.4425
 1044SOL    HW114594   3.830   2.199  16.819 -0.3212 -0.7982  0.2910
 1044SOL    HW214595   3.679   2.206  16.815  0.3777  0.6943  0.0714
 1045SOL     OW14596   2.640   2.573   0.065  0.4355 -0.3447  0.5356
 1045SOL    HW114597   2.732   2.568   0.037 -0.2647  0.2412 -1.8147
 1045SOL    HW214598   2.610   2.636   0.000 -0.1136 -1.5571 -0.3972
 1046SOL     OW14599   3.838   2.313   5.700 -0.5262  0.3394 -0.0970
 1046SOL    HW114600   3.871   2.353   5.619  1.1263  1.6148  1.2001
 1046SOL    HW214601   3.918   2.310   5.753  0.1835  2.5136 -1.0027
 1047SOL     OW14602   4.178   0.758   0.181 -0.0559 -0.2201  0.4763
 1047SOL    HW114603   4.204   0.666   0.170 -0.5864 -0.0785 -1.8815
 1047SOL    HW214604   4.260   0.804   0.165 -1.0661  1.6890  0.8674
 1048SOL     OW14605   1.520   3.258   3.740  0.0795  0.0660  0.0266
 1048SOL    HW114606   1.523   3.193   3.809 -3.0683  0.6925  0.7327
 1048SOL    HW214607   1.534   3.204   3.662 -0.0214 -0.2685  0.2436
 1049SOL     OW14608   2.352   4.366   0.637 -0.0688 -0.1128  0.8008
 1049SOL    HW114609   2.373   4.368   0.544 -1.8089  1.3023  0.4468
 1049SOL    HW214610   2.257   4.369   0.645 -0.1890  0.6686 -1.0902
 1050SOL     OW14611   3.363   3.452   1.505  0.4744  0.1588 -0.1837
 1050SOL    HW114612   3.298   3.450   1.575  1.9604 -2.0189  1.1390
 1050SOL    HW214613   3.426   3.384   1.527 -0.7880 -1.2442 -0.9250
 1051SOL     OW14614   1.425   3.487  13.632 -0.0849  0.3689 -0.4714
 1051SOL    HW114615   1.445   3.471  13.539  0.4941 -0.3345 -0.2260
 1051SOL    HW214616   1.444   3.580  13.639  3.7142 -0.3022 -1.9305
 1052SOL     OW14617   2.556   4.131  17.122  0.2189  0.1010 -0.3717
 1052SOL    HW114618   2.598   4.099  17.202 -2.4395  0.7143  1.2480
 1052SOL    HW214619   2.552   4.226  17.127 -1.3311  0.0264 -0.4242
 1053SOL     OW14620   0.239   2.292   6.643  0.2836 -0.2816 -0.7452
 1053SOL    HW114621   0.215   2.377   6.607  0.1511  1.0510  2.5092
 1053SOL    HW214622   0.204   2.292   6.732  1.6414  0.1905 -0.2202
 1054SOL     OW14623   1.146   2.093   6.210  0.0179 -0.1606 -0.2088
 1054SOL    HW114624   1.067   2.076   6.262  0.0664 -0.9257 -0.3749
 1054SOL    HW214625   1.212   2.057   6.269  1.7116  0.8496 -1.5271
 1055SOL     OW14626   3.393   1.436  14.163  0.0861 -0.4875 -0.0211
 1055SOL    HW114627   3.459   1.401  14.103 -0.4115  1.2389 -1.5549
 1055SOL    HW214628   3.388   1.514  14.109  1.7521 -0.3709 -0.0248
 1056SOL     OW14629   3.777   0.510   7.886 -0.3644 -0.0803 -0.1158
 1056SOL    HW114630   3.703   0.563   7.916 -0.1579  0.0227  0.2141
 1056SOL    HW214631   3.842   0.580   7.874 -1.9740  1.0198 -2.5452
 1057SOL     OW14632   2.745   3.519   0.134  1.1279  0.4173 -0.0985
 1057SOL    HW114633   2.740   3.552   0.223  1.1951 -0.9731  0.4173
 1057SOL    HW214634   2.696   3.437   0.140 -0.4280  1.4354  0.9714
 1058SOL     OW14635   1.122   2.822  11.050 -0.2356  0.1338  0.1251
 1058SOL    HW114636   1.181   2.873  11.105 -0.1347 -0.9956  1.0728
 1058SOL    HW214637   1.052   2.796  11.111 -0.9764 -1.2598 -1.2952
 1059SOL     OW14638   2.892   2.363   3.905  0.0889  0.2221 -0.4152
 1059SOL    HW114639   2.797   2.364   3.920  0.1046  2.7271 -0.4781
 1059SOL    HW214640   2.917   2.431   3.969  0.7697  1.1571 -1.6774
 1060SOL     OW14641   3.763   3.699   7.546  0.0987 -0.5619  0.5055
 1060SOL    HW114642   3.733   3.719   7.635  0.6937 -0.1029  0.6037
 1060SOL    HW214643   3.685   3.732   7.502  1.5292 -1.9048 -3.0147
 1061SOL     OW14644   1.982   2.659   6.449 -0.3709 -0.2327  0.3614
 1061SOL    HW114645   2.045   2.632   6.517  1.6532  0.5399 -1.2105
 1061SOL    HW214646   1.911   2.597   6.463 -0.0246 -0.7552 -0.1897
 1062SOL     OW14647   0.628   1.551   8.861 -0.3130  1.1303  0.3376
 1062SOL    HW114648   0.622   1.647   8.865 -0.7761  1.1296 -0.5513
 1062SOL    HW214649   0.708   1.549   8.808 -0.3247  0.3956  0.3441
 1063SOL     OW14650   4.306   2.239  14.883  0.3238 -0.0741 -0.4560
 1063SOL    HW114651   4.212   2.224  14.868  0.3731  0.1891 -1.0329
 1063SOL    HW214652   4.328   2.294  14.808 -0.1697  1.9543  0.8721
 1064SOL     OW14653   0.839   1.997   3.251 -0.0947 -0.1579 -0.1456
 1064SOL    HW114654   0.903   2.038   3.309  1.9784 -1.3955 -1.5251
 1064SOL    HW214655   0.762   2.054   3.243 -1.0334 -1.4823 -0.5241
 1065SOL     OW14656   3.057   1.704   4.249 -0.3066 -0.1454 -0.3461
 1065SOL    HW114657   3.057   1.787   4.202 -0.2853 -0.9474 -1.7548
 1065SOL    HW214658   3.073   1.643   4.176 -0.6483 -2.1460  1.2554
 1066SOL     OW14659   0.530   0.650  17.349 -0.3507 -0.0117  0.5153
 1066SOL    HW114660   0.569   0.735  17.371 -0.0056  0.1624 -0.7287
 1066SOL    HW214661   0.559   0.599  17.424  0.0685  0.1936  0.4962
 1067SOL     OW14662   2.537   0.440   3.696 -0.2904 -0.4388  0.0581
 1067SOL    HW114663   2.445   0.418   3.682 -0.2039 -0.5545 -0.3552
 1067SOL    HW214664   2.567   0.419   3.607  0.1225 -0.0412  0.1048
 1068SOL     OW14665   0.640   1.270   4.752 -0.2757 -0.0087  0.0935
 1068SOL    HW114666   0.665   1.327   4.680 -0.5112  1.4021  1.1305
 1068SOL    HW214667   0.667   1.184   4.719 -0.0195  0.2370 -0.3489
 1069SOL     OW14668   1.083   2.247   3.417 -0.7618  0.5780  0.5298
 1069SOL    HW114669   1.088   2.324   3.473 -0.0603  0.8190  0.1355
 1069SOL    HW214670   1.104   2.284   3.331 -0.1642 -0.0733  0.3926
 1070SOL     OW14671   2.199   4.466  10.774  0.2582 -0.7338 -0.0539
 1070SOL    HW114672   2.278   4.437  10.728 -0.6745  0.2805 -2.3485
 1070SOL    HW214673   2.143   4.488  10.699 -0.1004  1.6950  0.9364
 1071SOL     OW14674   0.802   2.811  10.469  0.4511  0.3920  0.0431
 1071SOL    HW114675   0.843   2.880  10.521  1.5189  0.9547 -1.5348
 1071SOL    HW214676   0.859   2.810  10.392  2.3807 -0.7463  1.5161
 1072SOL     OW14677   3.647   3.348   7.399 -0.0459  0.4885  0.2851
 1072SOL    HW114678   3.552   3.346   7.384  0.2021 -0.2692 -1.1608
 1072SOL    HW214679   3.651   3.359   7.494  0.5375  1.4268  0.1560
 1073SOL     OW14680   2.039   1.586   7.418  0.6168  0.2437  0.1279
 1073SOL    HW114681   1.948   1.608   7.402  1.6713  3.5453 -1.3519
 1073SOL    HW214682   2.033   1.555   7.509  1.5880  1.6897  0.6928
 1074SOL     OW14683   3.348   0.781   8.012  0.6765  0.5335 -0.3011
 1074SOL    HW114684   3.277   0.723   7.985  0.1974  0.2095  1.6309
 1074SOL    HW214685   3.311   0.840   8.077 -1.3609  0.5149 -1.4337
 1075SOL     OW14686   3.174   1.864   3.028 -0.4662 -0.0243 -0.5574
 1075SOL    HW114687   3.247   1.802   3.035 -0.3081  0.4658  2.0866
 1075SOL    HW214688   3.173   1.900   3.116 -0.9781 -0.3818 -0.4140
 1076SOL     OW14689   2.960   3.526   7.252 -0.7177 -0.2860  0.0392
 1076SOL    HW114690   2.985   3.439   7.222 -3.5604 -0.9482 -0.3577
 1076SOL    HW214691   2.890   3.503   7.313 -0.4456 -2.3831 -0.4357
 1077SOL     OW14692   1.817   2.018   8.611  0.2257 -0.4158 -0.3370
 1077SOL    HW114693   1.877   2.092   8.618 -1.2113  0.7750 -0.6562
 1077SOL    HW214694   1.867   1.946   8.649  0.4241  0.7373  1.5911
 1078SOL     OW14695   1.234   2.471   2.595  0.3216 -0.6686 -1.4200
 1078SOL    HW114696   1.291   2.402   2.559 -2.5363 -3.0522 -1.3844
 1078SOL    HW214697   1.293   2.528   2.644  0.1292  0.5842 -2.6753
 1079SOL     OW14698   0.731   1.528   7.860 -0.1892  0.1115  0.2560
 1079SOL    HW114699   0.669   1.511   7.789  1.5260 -1.7972 -0.7908
 1079SOL    HW214700   0.764   1.613   7.832 -0.4179  0.4663  1.0612
 1080SOL     OW14701   2.406   0.444   5.536  1.1145  0.1661 -0.0710
 1080SOL    HW114702   2.428   0.352   5.549 -4.2834 -0.9256  1.3066
 1080SOL    HW214703   2.423   0.454   5.443 -0.6477  2.1246 -0.1982
 1081SOL     OW14704   0.869   2.016   2.846  0.0154  0.0644  0.2130
 1081SOL    HW114705   0.871   2.077   2.919  0.0260  2.0331 -1.4305
 1081SOL    HW214706   0.872   1.932   2.892  0.7737  1.5411  2.8546
 1082SOL     OW14707   3.859   0.047   4.760 -0.6838 -0.1431  0.3680
 1082SOL    HW114708   3.824   0.033   4.848 -0.2462  1.4464  0.7801
 1082SOL    HW214709   3.867   4.689   4.715 -1.4558  0.1111 -0.2608
 1083SOL     OW14710   2.380   3.279   3.476  0.0391  0.1304  0.5283
 1083SOL    HW114711   2.448   3.336   3.512  1.2170 -0.8121 -0.1877
 1083SOL    HW214712   2.435   3.206   3.447  0.3814  1.0250 -1.0530
 1084SOL     OW14713   0.696   1.191   6.156 -0.6456  0.3874 -0.1960
 1084SOL    HW114714   0.751   1.209   6.079  1.9641 -0.0132  1.5608
 1084SOL    HW214715   0.686   1.102   6.122  2.0457 -0.6366  1.6692
 1085SOL     OW14716   4.084   0.690  16.294 -0.2239 -0.5325 -0.3216
 1085SOL    HW114717   4.124   0.633  16.229  2.7943 -0.4885  1.4852
 1085SOL    HW214718   3.993   0.707  16.269 -0.1171  0.3185 -0.1551
 1086SOL     OW14719   0.469   4.163  14.024  0.3705 -0.6695  0.2392
 1086SOL    HW114720   0.560   4.188  14.042  0.5715 -1.3937  0.1995
 1086SOL    HW214721   0.434   4.247  13.992 -3.1089 -1.9820  0.6356
 1087SOL     OW14722   3.302   3.998   5.833 -0.1969  0.1619  0.0113
 1087SOL    HW114723   3.258   3.921   5.867  1.1784  0.8377  3.2810
 1087SOL    HW214724   3.262   4.028   5.751  0.7762  0.4544 -0.3605
 1088SOL     OW14725   2.631   1.557   9.735  0.4573  0.3375 -0.4768
 1088SOL    HW114726   2.571   1.489   9.704  0.5569 -0.7041  1.6223
 1088SOL    HW214727   2.591   1.601   9.810 -2.4163 -0.2699 -1.6810
 1089SOL     OW14728   1.955   4.028   6.228  0.2004 -0.9748  0.4540
 1089SOL    HW114729   1.868   4.063   6.206  0.3502 -0.1421  1.1654
 1089SOL    HW214730   2.005   4.073   6.161 -1.4984 -1.6785 -1.2867
 1090SOL     OW14731   3.720   2.622  15.675 -0.1175  0.2813 -0.3399
 1090SOL    HW114732   3.762   2.599  15.592  0.3004 -4.7452  1.2655
 1090SOL    HW214733   3.630   2.591  15.663  0.6736 -2.0926 -0.2409
 1091SOL     OW14734   0.412   2.951  15.171  0.1870  0.6292  0.3670
 1091SOL    HW114735   0.466   3.014  15.123  1.1306 -0.4319  0.0520
 1091SOL    HW214736   0.325   2.990  15.175 -0.4034 -0.7499  0.9239
 1092SOL     OW14737   3.110   0.512   1.145  1.2268 -0.0128  0.0307
 1092SOL    HW114738   3.022   0.549   1.151  0.6635 -1.1588 -1.1588
 1092SOL    HW214739   3.075   0.424   1.133 -1.5407  1.6065 -3.8780
 1093SOL     OW14740   3.512   1.823  14.837 -0.2576  0.0565 -0.1508
 1093SOL    HW114741   3.523   1.733  14.808 -2.4091  0.2277 -1.4583
 1093SOL    HW214742   3.481   1.861  14.755  2.1523 -1.3153 -1.6617
 1094SOL     OW14743   0.248   0.520  17.369 -0.3718 -0.7097 -0.1350
 1094SOL    HW114744   0.220   0.550  17.282 -0.5090  0.9316  0.4925
 1094SOL    HW214745   0.302   0.444  17.346  1.0365  0.3591 -0.3995
 1095SOL     OW14746   4.644   3.811  12.722  0.1567 -0.4778 -0.3249
 1095SOL    HW114747   4.682   3.754  12.789  0.4313 -1.1503 -1.0459
 1095SOL    HW214748   4.576   3.753  12.687 -0.0993  0.4189 -1.3015
 1096SOL     OW14749   4.095   0.683   5.978  0.0166 -0.5613 -0.3167
 1096SOL    HW114750   4.129   0.772   5.979 -1.6371  0.0704 -1.0541
 1096SOL    HW214751   4.173   0.629   5.963  2.5823  2.6915  1.5109
 1097SOL     OW14752   0.099   1.463  13.332 -0.2629  0.6596  0.4793
 1097SOL    HW114753   0.102   1.554  13.305  0.1147  1.2546  2.5540
 1097SOL    HW214754   0.171   1.427  13.281 -1.3126  0.7460 -1.0639
 1098SOL     OW14755   2.480   3.094   4.999  0.0823  0.4874  0.0434
 1098SOL    HW114756   2.412   3.027   5.008 -0.4934  0.7547 -2.3620
 1098SOL    HW214757   2.461   3.154   4.927  1.8120 -0.4760 -1.2132
 1099SOL     OW14758   1.502   2.376  14.510 -0.0286 -0.4885 -0.8750
 1099SOL    HW114759   1.438   2.312  14.479 -2.8176  1.5589  0.6485
 1099SOL    HW214760   1.529   2.427  14.433 -1.8599  0.0385 -1.1550
 1100SOL     OW14761   3.246   2.054  14.678  0.2063 -0.5145 -0.2389
 1100SOL    HW114762   3.290   2.122  14.627  0.7856 -1.9502 -1.6722
 1100SOL    HW214763   3.292   1.973  14.656 -0.4181 -0.0313 -3.3370
 1101SOL     OW14764   1.577   3.038  11.282  0.7509 -0.0310  0.3262
 1101SOL    HW114765   1.508   2.985  11.323  1.1076 -0.6530  0.1129
 1101SOL    HW214766   1.600   3.093  11.357  0.8128 -1.0148  1.0377
 1102SOL     OW14767   2.682   1.239   4.646 -0.5237  0.9794  0.2349
 1102SOL    HW114768   2.609   1.267   4.591  0.1071  1.3188 -0.4388
 1102SOL    HW214769   2.725   1.321   4.670  0.0477  0.4331  1.0637
 1103SOL     OW14770   2.705   3.532   2.938  0.2696  0.0044 -0.2951
 1103SOL    HW114771   2.760   3.460   2.968  1.2113  0.3858 -1.1411
 1103SOL    HW214772   2.761   3.601   2.973  0.2449  1.0997 -2.4450
 1104SOL     OW14773   0.262   2.300   8.921  0.4229  0.0006  0.0800
 1104SOL    HW114774   0.315   2.378   8.904  0.0838  0.6852  2.1773
 1104SOL    HW214775   0.192   2.359   8.948  0.1806  1.1438 -3.0945
 1105SOL     OW14776   3.596   4.067   4.509  0.5461 -0.5898  0.2149
 1105SOL    HW114777   3.682   4.101   4.486 -0.3061  4.0117  3.7565
 1105SOL    HW214778   3.599   4.071   4.605 -3.1042  1.1430  0.2260
 1106SOL     OW14779   1.056   2.041   4.461 -0.3890 -0.6300  0.4030
 1106SOL    HW114780   0.989   2.067   4.397  0.0635 -1.1553 -0.2873
 1106SOL    HW214781   1.008   1.984   4.520 -1.8743 -2.1024 -2.2050
 1107SOL     OW14782   1.783   0.103  11.672  0.2081  0.1054  0.1174
 1107SOL    HW114783   1.734   0.119  11.753  0.5767 -0.9062  0.5325
 1107SOL    HW214784   1.860   0.155  11.696  2.0797 -2.2487 -0.9214
 1108SOL     OW14785   4.568   4.391   5.775 -0.5290  0.0474  0.0794
 1108SOL    HW114786   4.588   4.451   5.846  0.3235  1.7918 -1.6368
 1108SOL    HW214787   4.480   4.425   5.756 -1.3170 -2.5808 -0.9063
 1109SOL     OW14788   4.259   0.130   4.760  0.3665 -0.5040 -0.1570
 1109SOL    HW114789   4.281   0.218   4.791  1.4167 -0.7447 -0.2246
 1109SOL    HW214790   4.343   0.088   4.778 -1.1301 -2.8538  1.2860
 1110SOL     OW14791   2.458   4.116   0.498  0.3324 -0.3491 -0.3531
 1110SOL    HW114792   2.488   4.177   0.566  0.1251  1.0955 -1.5618
 1110SOL    HW214793   2.519   4.044   0.511 -1.0221 -1.6278 -0.9779
 1111SOL     OW14794   3.829   2.970  13.936 -0.1066 -0.4305 -0.1149
 1111SOL    HW114795   3.875   3.054  13.942  1.9951 -1.7628  2.2726
 1111SOL    HW214796   3.880   2.920  13.999 -1.3464  0.4122  1.5580
 1112SOL     OW14797   2.194   1.295   9.755 -0.8889 -0.8995 -0.2284
 1112SOL    HW114798   2.123   1.262   9.701  0.3046  1.3575 -3.2007
 1112SOL    HW214799   2.205   1.237   9.831 -0.1975 -0.1827  0.2183
 1113SOL     OW14800   4.527   2.470  15.004 -0.8486 -0.2544  0.0676
 1113SOL    HW114801   4.602   2.468  15.063 -0.4036  0.6854 -0.4695
 1113SOL    HW214802   4.497   2.555  15.036 -0.4728  0.1208 -0.5801
 1114SOL     OW14803   1.678   2.755   4.610 -0.3224  0.3137  0.4023
 1114SOL    HW114804   1.728   2.781   4.532 -1.7500 -1.4920 -1.1252
 1114SOL    HW214805   1.723   2.684   4.656  1.7237 -0.2123 -2.3995
 1115SOL     OW14806   1.360   0.087   5.421  0.1615 -0.1946  0.6535
 1115SOL    HW114807   1.351   0.157   5.356  1.1203 -0.2145  0.5027
 1115SOL    HW214808   1.272   0.049   5.423  1.1867 -2.5473  1.7031
 1116SOL     OW14809   1.473   4.462   6.841  0.3938 -0.0844 -0.3104
 1116SOL    HW114810   1.538   4.475   6.910  0.4046  1.4406 -0.6084
 1116SOL    HW214811   1.533   4.429   6.774 -0.3520  0.9543 -1.4932
 1117SOL     OW14812   2.949   3.734  16.433 -0.4937  0.0309  0.3322
 1117SOL    HW114813   2.903   3.739  16.517 -0.0185 -1.0325  0.6622
 1117SOL    HW214814   3.014   3.799  16.459 -1.2627  0.6250  0.7615
 1118SOL     OW14815   1.809   4.017   1.131 -0.2944  0.3271 -0.1013
 1118SOL    HW114816   1.793   4.093   1.075 -2.3387 -0.7757 -1.0346
 1118SOL    HW214817   1.814   3.951   1.061  3.0836 -0.6946  1.1010
 1119SOL     OW14818   0.775   3.600   7.480  0.4330  0.3384 -0.0813
 1119SOL    HW114819   0.684   3.588   7.454  0.5333  0.5089 -0.5154
 1119SOL    HW214820   0.817   3.617   7.395 -0.8568 -0.0234 -0.7855
 1120SOL     OW14821   0.042   1.189   8.599 -0.2223  0.1396  0.3320
 1120SOL    HW114822   4.710   1.253   8.560  1.1370  1.4109  0.3835
 1120SOL    HW214823   0.061   1.128   8.527  1.9390  1.5406 -0.2660
 1121SOL     OW14824   4.386   2.057  16.983 -0.0818 -0.5178 -0.6017
 1121SOL    HW114825   4.460   2.118  16.982  1.3263 -2.2693 -1.9194
 1121SOL    HW214826   4.332   2.113  16.927  0.3806  0.6551  0.1225
 1122SOL     OW14827   3.868   0.087   6.399  0.3100 -0.3459 -0.1300
 1122SOL    HW114828   3.812   0.096   6.476 -0.6852  2.5625 -1.1934
 1122SOL    HW214829   3.855   0.172   6.359  0.2630 -0.0438  0.5317
 1123SOL     OW14830   0.645   2.877   3.011  0.2729 -0.3900 -0.3382
 1123SOL    HW114831   0.680   2.789   3.027 -2.3628 -1.2795  0.4356
 1123SOL    HW214832   0.715   2.925   2.966  1.5298 -2.4292 -0.5614
 1124SOL     OW14833   1.803   2.184   2.892 -0.1557  0.0330  0.3547
 1124SOL    HW114834   1.754   2.241   2.832 -2.6428 -2.5555 -0.0983
 1124SOL    HW214835   1.730   2.134   2.929  0.7274 -0.9067  0.8286
 1125SOL     OW14836   0.554   3.855   7.329 -0.3483 -0.5670  0.7772
 1125SOL    HW114837   0.526   3.920   7.394 -1.4125 -1.1017  0.8548
 1125SOL    HW214838   0.523   3.775   7.371 -2.7598 -0.4535 -0.7956
 1126SOL     OW14839   0.855   0.537   3.979  0.1657  0.2264 -0.0489
 1126SOL    HW114840   0.858   0.604   3.912  1.2379  1.4028  1.1703
 1126SOL    HW214841   0.855   0.455   3.929  3.3737  0.5514 -0.5693
 1127SOL     OW14842   1.491   1.159   7.179  0.2276 -0.1332 -0.0159
 1127SOL    HW114843   1.560   1.128   7.238  0.9978  1.2299 -0.2000
 1127SOL    HW214844   1.419   1.115   7.224 -0.6423 -1.9494 -3.2543
 1128SOL     OW14845   2.662   2.136   0.306  0.0514  0.1272  0.0126
 1128SOL    HW114846   2.730   2.188   0.262  2.6116 -2.1547  1.2519
 1128SOL    HW214847   2.660   2.067   0.239  0.3456  1.5586 -1.4559
 1129SOL     OW14848   2.544   2.180   6.169  0.0060  0.3766  0.5928
 1129SOL    HW114849   2.563   2.248   6.233 -0.7891  1.1025  0.0539
 1129SOL    HW214850   2.453   2.163   6.194 -0.9138  3.0332 -0.9148
 1130SOL     OW14851   0.716   2.224   4.537 -0.0300 -0.1643 -0.1990
 1130SOL    HW114852   0.689   2.133   4.549  1.4025 -0.3336  1.6671
 1130SOL    HW214853   0.765   2.213   4.455 -0.1915  0.6580 -0.4058
 1131SOL     OW14854   3.373   1.825   2.804  0.3252 -0.8849  0.3153
 1131SOL    HW114855   3.322   1.900   2.835  0.9211  0.4235 -1.8528
 1131SOL    HW214856   3.458   1.862   2.826  0.2025 -0.0517 -0.5842
 1132SOL     OW14857   4.066   0.782  13.861  0.5161 -0.5173  0.4221
 1132SOL    HW114858   4.042   0.708  13.916 -1.6864  0.7752  1.2225
 1132SOL    HW214859   4.109   0.740  13.787 -1.5289 -2.5684  0.4100
 1133SOL     OW14860   1.372   2.349  11.675 -0.2603 -0.4293 -0.0348
 1133SOL    HW114861   1.359   2.394  11.759 -0.4460  2.2235 -1.4715
 1133SOL    HW214862   1.466   2.339  11.664 -0.6666 -3.3317 -0.9618
 1134SOL     OW14863   1.819   4.458   2.142 -0.0113  0.2840  0.1659
 1134SOL    HW114864   1.757   4.409   2.086  0.2425  0.2085 -0.0472
 1134SOL    HW214865   1.807   4.546   2.105  0.9831 -0.9502 -3.0890
 1135SOL     OW14866   0.785   0.993   4.326 -0.4934  0.4215  0.1367
 1135SOL    HW114867   0.819   0.973   4.239 -1.2743  0.1406 -0.1045
 1135SOL    HW214868   0.840   0.933   4.377 -1.4381 -0.1683  0.4653
 1136SOL     OW14869   0.530   4.482   8.937 -0.0122  0.3588 -0.4145
 1136SOL    HW114870   0.435   4.487   8.928 -0.1735  0.1309  1.1280
 1136SOL    HW214871   0.543   4.506   9.028  0.0193 -1.8572  0.1712
 1137SOL     OW14872   1.626   0.109   0.253 -0.8505  0.2114 -0.2483
 1137SOL    HW114873   1.564   0.181   0.260 -1.6374 -0.4455 -0.5603
 1137SOL    HW214874   1.585   0.071   0.176  0.3825 -2.4960  0.4407
 1138SOL     OW14875   1.907   1.657   5.460 -0.3555  0.0223  0.4636
 1138SOL    HW114876   1.815   1.642   5.482 -0.1048 -1.5877  0.3825
 1138SOL    HW214877   1.922   1.749   5.481 -1.0231  0.4429 -0.9183
 1139SOL     OW14878   3.571   3.280   3.950 -0.1542 -0.1570 -0.2586
 1139SOL    HW114879   3.665   3.271   3.935  0.0713 -1.1057  1.7383
 1139SOL    HW214880   3.551   3.186   3.956  0.4345 -0.1506  1.8353
 1140SOL     OW14881   1.334   1.143   3.604  0.5005  0.1141 -0.4207
 1140SOL    HW114882   1.411   1.174   3.652 -0.4189  0.1733  0.9883
 1140SOL    HW214883   1.302   1.072   3.660 -0.2641 -0.5896 -1.7578
 1141SOL     OW14884   1.542   3.750   3.134  0.0381  0.0516  0.3062
 1141SOL    HW114885   1.505   3.727   3.049 -0.4276 -0.5442  0.6675
 1141SOL    HW214886   1.503   3.674   3.178  0.8016 -0.4321  0.1532
 1142SOL     OW14887   1.078   0.255   6.962 -0.0938 -0.0789 -0.6363
 1142SOL    HW114888   1.044   0.211   7.040 -1.6194  3.6874  0.7931
 1142SOL    HW214889   1.015   0.327   6.956  1.7825  1.5768 -0.5905
 1143SOL     OW14890   0.873   4.468   4.068  0.9694 -0.0109  0.5565
 1143SOL    HW114891   0.844   4.416   4.143  0.4153  0.1871  0.4758
 1143SOL    HW214892   0.969   4.462   4.075  1.0239 -0.0080 -0.2007
 1144SOL     OW14893   2.029   4.519   7.773  0.0880  0.0314  0.4638
 1144SOL    HW114894   2.070   4.433   7.777 -0.3064 -0.2675 -2.2184
 1144SOL    HW214895   1.990   4.530   7.687  2.1384  0.3999 -0.4356
 1145SOL     OW14896   3.811   1.056  11.180 -0.5568  0.1069 -0.5986
 1145SOL    HW114897   3.887   1.077  11.233 -1.0724  2.3376 -0.7323
 1145SOL    HW214898   3.735   1.102  11.216 -0.0848  0.4909 -0.1092
 1146SOL     OW14899   0.372   2.545   5.995  0.5037  0.8290  0.0474
 1146SOL    HW114900   0.326   2.613   5.946  0.0429 -0.4147 -1.2519
 1146SOL    HW214901   0.322   2.527   6.074 -0.4257  3.1455 -0.0056
 1147SOL     OW14902   4.458   2.794  15.630  0.1286  0.2126  0.4647
 1147SOL    HW114903   4.445   2.870  15.687 -3.6251 -1.2329  1.5200
 1147SOL    HW214904   4.390   2.740  15.672  2.1832 -2.4458  0.3646
 1148SOL     OW14905   1.911   4.695   4.695 -0.0231  0.1162  0.1705
 1148SOL    HW114906   1.987   4.667   4.643  0.1836  0.6156  0.2042
 1148SOL    HW214907   1.916   0.064   4.698  1.9677 -0.0123  0.8683
 1149SOL     OW14908   3.462   1.197   3.510 -0.0255 -0.5816 -0.1052
 1149SOL    HW114909   3.374   1.190   3.546  0.3055  0.2313  0.8562
 1149SOL    HW214910   3.454   1.114   3.463  0.7487  0.9142 -2.9245
 1150SOL     OW14911   0.394   1.206   2.866 -0.1566 -0.2971 -0.1303
 1150SOL    HW114912   0.357   1.285   2.827  0.5352  0.0248 -0.1389
 1150SOL    HW214913   0.352   1.208   2.952 -0.3801 -1.0564 -0.2223
 1151SOL     OW14914   3.706   1.817  12.060  0.2239  0.0057  0.0269
 1151SOL    HW114915   3.647   1.879  12.103 -0.8209 -1.4026  0.5943
 1151SOL    HW214916   3.781   1.875  12.042 -1.0177  1.6769  0.2054
 1152SOL     OW14917   0.391   1.398   7.099  1.0433 -0.2277  0.3597
 1152SOL    HW114918   0.479   1.369   7.073  0.3103 -1.7232 -0.4870
 1152SOL    HW214919   0.421   1.488   7.107 -1.1847  0.5685 -0.4022
 1153SOL     OW14920   1.519   2.863  17.432  0.4874 -0.1596  0.3268
 1153SOL    HW114921   1.468   2.824  17.361 -0.5154 -0.8766  1.4392
 1153SOL    HW214922   1.557   2.939  17.388 -1.7487  0.1510 -1.0705
 1154SOL     OW14923   0.166   3.769  13.241  0.1305  0.3385  0.1691
 1154SOL    HW114924   0.161   3.690  13.295  1.2790  0.5284  0.5621
 1154SOL    HW214925   0.258   3.769  13.214 -0.0106  0.9220 -0.3060
 1155SOL     OW14926   4.496   3.905   5.332 -0.2689 -0.3781 -0.2764
 1155SOL    HW114927   4.448   3.988   5.329  2.4339  1.1650 -0.5054
 1155SOL    HW214928   4.587   3.934   5.324 -0.4224  0.2319  0.1683
 1156SOL     OW14929   0.521   2.845   2.672  0.0804  0.1771 -0.3109
 1156SOL    HW114930   0.506   2.866   2.580  0.8354 -0.2577 -0.5348
 1156SOL    HW214931   0.606   2.882   2.696  0.6210 -1.6902  0.6605
 1157SOL     OW14932   2.582   1.255   7.982 -0.0013 -0.4507 -0.0055
 1157SOL    HW114933   2.615   1.300   8.060 -0.8082  0.2616 -0.0737
 1157SOL    HW214934   2.658   1.244   7.925  2.1257  0.0388  2.7688
 1158SOL     OW14935   0.434   4.241   8.012  0.2274 -0.1661 -0.2918
 1158SOL    HW114936   0.448   4.318   7.958  2.5511 -0.0541  0.4655
 1158SOL    HW214937   0.507   4.253   8.073  1.0200  2.8775 -1.8396
 1159SOL     OW14938   2.383   3.447   1.698 -0.2147  0.5214 -0.0071
 1159SOL    HW114939   2.478   3.449   1.684 -0.3206 -0.0975 -0.8309
 1159SOL    HW214940   2.355   3.509   1.631  1.6643  3.2201  1.6996
 1160SOL     OW14941   1.408   2.988   9.432  0.5629 -0.2272 -0.0365
 1160SOL    HW114942   1.391   3.072   9.390  1.4787 -0.7253 -1.4132
 1160SOL    HW214943   1.405   2.929   9.356  1.8718  0.7269 -0.8433
 1161SOL     OW14944   3.079   2.245   7.723  0.0018 -0.1560 -0.6338
 1161SOL    HW114945   3.071   2.199   7.807 -0.5513 -0.0235 -0.6140
 1161SOL    HW214946   3.168   2.222   7.698  0.5889  0.1325  1.2077
 1162SOL     OW14947   2.106   1.524   6.994 -0.2706 -0.2067  0.1919
 1162SOL    HW114948   2.029   1.489   6.949  0.2666 -1.7225  0.4574
 1162SOL    HW214949   2.112   1.488   7.082  0.8391  0.5187  0.4090
 1163SOL     OW14950   1.395   3.840   6.501  0.3663  0.8813 -0.2545
 1163SOL    HW114951   1.380   3.920   6.552 -1.1572  0.4767 -0.0816
 1163SOL    HW214952   1.447   3.794   6.567  1.4240  1.5540 -0.6126
 1164SOL     OW14953   0.424   4.581  14.960 -0.6506  0.2749  0.2063
 1164SOL    HW114954   0.400   4.663  14.915 -0.2393 -0.5341 -1.4907
 1164SOL    HW214955   0.492   4.549  14.900  0.3353  1.5491  0.6328
 1165SOL     OW14956   3.734   4.329   1.899  0.3282  0.3038  0.1812
 1165SOL    HW114957   3.826   4.305   1.917  0.7414  1.1403 -0.8785
 1165SOL    HW214958   3.745   4.377   1.818  0.3724 -0.2546 -0.1469
 1166SOL     OW14959   3.857   2.957  14.270 -0.3330  0.5363  0.1236
 1166SOL    HW114960   3.818   3.015  14.336 -3.3900  0.8163 -1.9522
 1166SOL    HW214961   3.949   2.957  14.297  0.2017 -0.0903 -1.7428
 1167SOL     OW14962   0.496   3.103   8.508 -0.6084  0.6821  0.5934
 1167SOL    HW114963   0.431   3.034   8.515  0.9779 -1.0784 -1.8444
 1167SOL    HW214964   0.442   3.179   8.485 -0.3281  0.4877 -0.7627
 1168SOL     OW14965   0.958   3.566  16.736 -0.0506 -0.0669 -0.3395
 1168SOL    HW114966   0.964   3.552  16.830  0.0161  0.8497 -0.2065
 1168SOL    HW214967   0.867   3.549  16.713  0.6143 -0.2918 -2.7833
 1169SOL     OW14968   3.339   4.269  17.007 -0.4358  0.0344 -0.7609
 1169SOL    HW114969   3.281   4.303  16.939 -0.6521 -0.2958 -0.7431
 1169SOL    HW214970   3.273   4.231  17.065  2.1678 -0.1868  2.0477
 1170SOL     OW14971   3.116   2.661   8.462 -0.0997 -0.3549  0.2685
 1170SOL    HW114972   3.141   2.581   8.508 -0.1906  0.0347  1.0016
 1170SOL    HW214973   3.038   2.634   8.413 -1.5189  1.9346  1.2363
 1171SOL     OW14974   4.157   2.613   5.618 -0.4814  0.2515  0.1958
 1171SOL    HW114975   4.128   2.577   5.534 -2.9740  2.0790  0.2932
 1171SOL    HW214976   4.107   2.694   5.628  0.9690  1.2903 -0.8731
 1172SOL     OW14977   2.929   3.885   6.826 -0.2600  0.0615 -0.0202
 1172SOL    HW114978   2.848   3.935   6.834  0.2417  0.6530  1.4597
 1172SOL    HW214979   2.937   3.827   6.902  1.5348  2.1044  1.3625
 1173SOL     OW14980   2.923   4.148   1.039 -0.4983 -0.7674 -0.3474
 1173SOL    HW114981   2.851   4.191   1.085 -0.6047 -0.8362 -0.4503
 1173SOL    HW214982   2.967   4.091   1.102  3.3861  2.5513  0.0303
 1174SOL     OW14983   4.096   3.590   5.541  0.2108 -0.1771 -0.4036
 1174SOL    HW114984   4.119   3.659   5.478  2.1599  0.5729  1.1015
 1174SOL    HW214985   4.061   3.533   5.473  0.5071 -0.7255 -0.0990
 1175SOL     OW14986   2.219   2.058   8.308  0.7756  0.0833 -0.3953
 1175SOL    HW114987   2.159   2.013   8.367  0.6169  4.1135  2.5507
 1175SOL    HW214988   2.170   2.062   8.226  2.8758  0.0690 -1.6387
 1176SOL     OW14989   0.503   4.379   3.340  0.1979 -0.0442  0.3594
 1176SOL    HW114990   0.565   4.307   3.346 -2.2662 -2.1631  0.3815
 1176SOL    HW214991   0.446   4.362   3.416 -0.1128  0.9992  0.3584
 1177SOL     OW14992   2.568   0.237   6.384 -0.3983  0.0276 -0.7972
 1177SOL    HW114993   2.649   0.204   6.345  0.8616 -0.5416  2.3009
 1177SOL    HW214994   2.569   0.331   6.364 -1.2836  0.0056 -0.9371
 1178SOL     OW14995   1.241   0.253   6.513 -0.1917 -0.2505 -0.2414
 1178SOL    HW114996   1.189   0.192   6.565  0.9421 -1.2619 -0.2882
 1178SOL    HW214997   1.217   0.330   6.566  1.2491 -1.6073  2.3938
 1179SOL     OW14998   3.343   0.892  14.393 -0.2068  0.3874  0.1231
 1179SOL    HW114999   3.294   0.953  14.448  2.1234 -0.1308  2.7966
 1179SOL    HW215000   3.292   0.893  14.312 -0.0604 -0.5806  0.0169
 1180SOL     OW15001   1.346   4.326  15.849 -0.3680 -0.0423 -0.4166
 1180SOL    HW115002   1.325   4.395  15.911 -1.0543  0.9262 -1.7365
 1180SOL    HW215003   1.309   4.367  15.771  0.0005 -0.4054 -0.7847
 1181SOL     OW15004   3.390   3.567   6.960 -0.4117  0.3780  1.0258
 1181SOL    HW115005   3.337   3.646   6.976 -0.4605  0.6489 -0.4317
 1181SOL    HW215006   3.359   3.502   7.022 -0.5690 -1.1128 -0.6276
 1182SOL     OW15007   1.937   3.765   6.362  0.3803  0.3028  0.0499
 1182SOL    HW115008   2.009   3.736   6.306  0.7235  1.3226 -0.0280
 1182SOL    HW215009   1.904   3.837   6.309  1.6563  0.3088 -0.7210
 1183SOL     OW15010   0.560   2.094   3.963 -0.2071  0.0183 -0.4851
 1183SOL    HW115011   0.541   2.156   3.892 -0.5178 -0.0931 -0.4986
 1183SOL    HW215012   0.495   2.140   4.017  2.4295  2.6690  0.4118
 1184SOL     OW15013   0.644   4.215   4.274 -0.7556 -0.6950  0.1307
 1184SOL    HW115014   0.584   4.253   4.211  0.9526 -1.0108 -1.7106
 1184SOL    HW215015   0.606   4.230   4.360 -0.3197  1.3935 -0.0507
 1185SOL     OW15016   2.038   1.255  10.752 -0.4743  0.5311 -0.1157
 1185SOL    HW115017   1.987   1.176  10.767  1.1914 -0.4284  0.5830
 1185SOL    HW215018   2.101   1.219  10.689 -0.5384  0.3580 -0.0807
 1186SOL     OW15019   3.078   1.309   4.958  0.2025  0.0433  0.5837
 1186SOL    HW115020   3.109   1.375   5.020  0.2229 -1.4613  2.1720
 1186SOL    HW215021   3.007   1.362   4.922 -0.7512 -1.4775  0.2315
 1187SOL     OW15022   1.183   4.307   5.163  0.2436 -0.3208 -0.1538
 1187SOL    HW115023   1.198   4.257   5.083 -0.4959  1.1334 -1.2038
 1187SOL    HW215024   1.223   4.392   5.148 -0.7124 -0.1255 -1.5992
 1188SOL     OW15025   2.874   3.204   0.057  0.1484  0.2729  0.2842
 1188SOL    HW115026   2.849   3.112   0.068  1.7173 -0.6339 -3.7129
 1188SOL    HW215027   2.929   3.191  17.688 -0.4106 -0.9828  0.0933
 1189SOL     OW15028   1.623   2.539  17.094 -0.2785  0.4616  0.0671
 1189SOL    HW115029   1.717   2.554  17.098 -0.3903  1.1326  0.1698
 1189SOL    HW215030   1.607   2.625  17.055 -0.1258  0.7555  0.6526
 1190SOL     OW15031   2.413   1.003  15.357  0.1269 -0.1748 -0.3922
 1190SOL    HW115032   2.488   1.049  15.395 -0.6079  0.2613  0.5024
 1190SOL    HW215033   2.415   1.056  15.277  0.4262  0.7692  0.2462
 1191SOL     OW15034   3.330   1.908   0.929  0.0004 -0.1441 -0.4042
 1191SOL    HW115035   3.353   2.001   0.934 -1.3541  0.1470  0.4268
 1191SOL    HW215036   3.410   1.874   0.889  0.9391  0.5634  0.9135
 1192SOL     OW15037   2.317   3.314   9.059  0.6417 -0.2003  0.6885
 1192SOL    HW115038   2.379   3.241   9.055  1.4157  0.6586 -2.6755
 1192SOL    HW215039   2.254   3.274   9.119 -2.0991  2.4130 -0.4643
 1193SOL     OW15040   1.939   3.479  13.976  0.5158  0.5035 -0.3843
 1193SOL    HW115041   1.912   3.391  14.004 -0.1506  0.7476 -0.2560
 1193SOL    HW215042   1.946   3.475  13.881  1.5478  0.2016 -0.2922
 1194SOL     OW15043   4.696   0.694   3.198 -0.0178 -0.4640 -0.2123
 1194SOL    HW115044   4.653   0.630   3.142 -1.6234 -0.1402  0.6464
 1194SOL    HW215045   4.639   0.691   3.274 -1.2395  1.9930 -1.0246
 1195SOL     OW15046   1.622   1.912  12.805 -0.4805  0.0874  0.5072
 1195SOL    HW115047   1.634   2.005  12.790  1.5807 -0.5835 -1.9669
 1195SOL    HW215048   1.553   1.911  12.871 -0.0115 -1.6034  0.9706
 1196SOL     OW15049   2.944   0.355   0.492  0.0117 -0.7498 -0.1037
 1196SOL    HW115050   2.972   0.264   0.480 -1.2257 -1.0590 -0.7088
 1196SOL    HW215051   2.862   0.346   0.443  1.9681 -0.9853 -3.3237
 1197SOL     OW15052   4.189   3.712   3.208 -0.1520  0.3367  0.3453
 1197SOL    HW115053   4.256   3.774   3.178  1.7271 -1.6030  0.5091
 1197SOL    HW215054   4.187   3.727   3.303  0.8754 -1.7668  0.6893
 1198SOL     OW15055   1.076   2.914   7.651 -0.0980 -0.3369  0.3065
 1198SOL    HW115056   1.129   2.971   7.596  0.2598  1.3504  2.4213
 1198SOL    HW215057   0.989   2.955   7.647  0.8112  1.4699 -0.7339
 1199SOL     OW15058   1.624   4.275   2.035  0.2671  0.0669  0.2675
 1199SOL    HW115059   1.588   4.339   1.975 -0.5047  0.2125  0.8889
 1199SOL    HW215060   1.640   4.202   1.975 -0.1428  0.8243 -0.7491
 1200SOL     OW15061   4.494   1.155   6.512  0.0055  0.1359 -0.6055
 1200SOL    HW115062   4.586   1.172   6.489  0.4870 -0.2553  1.0697
 1200SOL    HW215063   4.508   1.123   6.601  1.0690 -0.4014 -0.9674
 1201SOL     OW15064   2.268   2.062  13.124 -0.3808  0.2485 -0.6594
 1201SOL    HW115065   2.321   2.133  13.088  1.3371 -0.3643  0.6751
 1201SOL    HW215066   2.203   2.115  13.170 -0.8646 -2.8329  2.1511
 1202SOL     OW15067   4.162   0.375   4.093  0.0754 -0.5338 -0.1364
 1202SOL    HW115068   4.134   0.325   4.170  1.4893 -0.7173  0.2540
 1202SOL    HW215069   4.252   0.385   4.125 -0.4915  1.1311  0.9733
 1203SOL     OW15070   3.574   3.807   6.135 -0.1584 -0.0398 -0.4794
 1203SOL    HW115071   3.529   3.727   6.110 -2.6801  1.4119 -0.6548
 1203SOL    HW215072   3.624   3.776   6.211 -0.8835 -0.2945 -0.1073
 1204SOL     OW15073   0.251   2.236  15.118 -0.9825  0.0148 -0.3869
 1204SOL    HW115074   0.222   2.157  15.164  2.0267  0.0495  1.6210
 1204SOL    HW215075   0.206   2.222  15.035 -0.9358  0.6778 -0.5264
 1205SOL     OW15076   4.210   3.168   0.105 -0.8759  0.6890 -0.6013
 1205SOL    HW115077   4.152   3.239   0.080 -2.5440 -0.7050 -0.6477
 1205SOL    HW215078   4.233   3.138   0.017  2.1120 -0.2616  0.4853
 1206SOL     OW15079   3.433   0.312   3.578 -0.4332  0.1380  0.5607
 1206SOL    HW115080   3.362   0.350   3.630 -1.2997 -1.3229  0.4527
 1206SOL    HW215081   3.500   0.323   3.646  3.2996 -2.3697 -2.7325
 1207SOL     OW15082   4.267   1.126   7.602  0.4156 -0.1415  0.1372
 1207SOL    HW115083   4.332   1.196   7.615 -0.2032  0.7022 -1.2758
 1207SOL    HW215084   4.265   1.090   7.690  1.7115  0.7025  0.5279
 1208SOL     OW15085   3.440   1.957   4.450  0.2142  0.2908  0.0744
 1208SOL    HW115086   3.467   1.980   4.361  2.5462  1.6246  1.1247
 1208SOL    HW215087   3.350   1.930   4.433  0.3073  0.5286 -0.7922
 1209SOL     OW15088   4.391   1.973  11.582 -0.3563  0.3636 -0.4157
 1209SOL    HW115089   4.421   2.043  11.524 -5.1495  0.3983 -2.8782
 1209SOL    HW215090   4.428   2.001  11.665  0.5759 -0.4983 -0.5341
 1210SOL     OW15091   4.080   3.422  14.478  0.5472 -0.1121  0.0267
 1210SOL    HW115092   4.076   3.338  14.524  2.1861 -0.2285 -0.0247
 1210SOL    HW215093   4.019   3.478  14.526  0.9172  1.3413 -1.2058
 1211SOL     OW15094   0.291   0.273   1.181 -0.2368  0.0207  0.0764
 1211SOL    HW115095   0.353   0.245   1.113 -0.6792 -1.3521  0.2405
 1211SOL    HW215096   0.258   0.353   1.139 -3.0083 -0.6836  0.8999
 1212SOL     OW15097   0.511   4.513   7.847  0.2756 -0.0383  0.3173
 1212SOL    HW115098   0.489   4.518   7.755 -0.1105  0.1323  0.4217
 1212SOL    HW215099   0.601   4.485   7.829 -0.4579 -1.2505 -1.5062
 1213SOL     OW15100   4.573   3.359   4.234 -0.2478 -0.4771 -0.2859
 1213SOL    HW115101   4.651   3.410   4.254  0.3955 -1.7826  0.5188
 1213SOL    HW215102   4.594   3.300   4.161 -1.7194  0.9493 -1.8545
 1214SOL     OW15103   3.145   3.337   2.410  0.1511  0.2008 -0.4915
 1214SOL    HW115104   3.123   3.251   2.447  1.9033  0.2674  0.6924
 1214SOL    HW215105   3.109   3.341   2.321 -1.7195  1.7953  0.3352
 1215SOL     OW15106   2.396   2.397   8.079 -0.0938  0.0472  0.4083
 1215SOL    HW115107   2.474   2.353   8.046  0.5492  0.1848  1.7588
 1215SOL    HW215108   2.423   2.484   8.108  1.7929 -0.2841 -0.3740
 1216SOL     OW15109   4.233   1.971   8.771  0.1439 -0.0007  0.0514
 1216SOL    HW115110   4.146   1.990   8.738  0.6867  0.4425 -1.1456
 1216SOL    HW215111   4.214   1.940   8.859 -0.1073  1.9240  0.6752
 1217SOL     OW15112   2.935   4.159  16.799  0.0890 -0.3952 -0.1816
 1217SOL    HW115113   2.901   4.222  16.862  0.4917  1.7142 -2.0612
 1217SOL    HW215114   2.946   4.217  16.724  2.0600 -1.9952 -1.1286
 1218SOL     OW15115   3.597   2.260  14.122  0.1880 -0.1205 -0.0303
 1218SOL    HW115116   3.691   2.265  14.102 -0.2256  0.8659 -1.7506
 1218SOL    HW215117   3.570   2.246  14.032  0.3986 -1.6215  0.1495
 1219SOL     OW15118   3.593   3.729   6.532 -0.2065  0.5249 -0.0403
 1219SOL    HW115119   3.552   3.807   6.493 -1.4738 -0.8272 -1.4318
 1219SOL    HW215120   3.600   3.753   6.624 -0.5304  1.0747 -0.1566
 1220SOL     OW15121   2.419   4.141   7.382 -0.4695 -0.7042 -0.0249
 1220SOL    HW115122   2.368   4.074   7.337 -2.6543  1.0390 -0.1614
 1220SOL    HW215123   2.389   4.218   7.334  1.6958 -0.5469 -1.1272
 1221SOL     OW15124   3.538   4.660   0.090  0.1242  0.2091  0.5012
 1221SOL    HW115125   3.558   0.023   0.117 -1.4388  0.7154 -0.0200
 1221SOL    HW215126   3.534   4.682  17.704  0.1124 -1.7861  0.0452
 1222SOL     OW15127   3.184   1.027  13.329 -0.8498  0.2014 -0.6642
 1222SOL    HW115128   3.144   1.003  13.245  3.1633 -1.3566 -2.1170
 1222SOL    HW215129   3.104   1.061  13.369 -1.1235 -0.5498 -0.5620
 1223SOL     OW15130   1.026   0.793   2.937 -0.5962 -0.2530  0.1877
 1223SOL    HW115131   1.014   0.786   3.032 -0.5184 -0.3917  0.1863
 1223SOL    HW215132   1.000   0.706   2.907 -1.2562 -0.0644  0.2051
 1224SOL     OW15133   0.274   1.528  10.695 -0.1682 -0.2796  0.0034
 1224SOL    HW115134   0.328   1.601  10.664 -1.5917  0.0040 -1.8179
 1224SOL    HW215135   0.296   1.525  10.788 -2.5700  0.6545  0.6115
 1225SOL     OW15136   4.484   3.079   9.480 -0.1038 -0.1174  0.2938
 1225SOL    HW115137   4.523   3.017   9.542  0.7781 -1.2023 -1.3204
 1225SOL    HW215138   4.413   3.027   9.443 -0.4774 -0.7576  1.9507
 1226SOL     OW15139   1.052   1.590  12.944 -0.0288  0.0015  0.1770
 1226SOL    HW115140   1.114   1.580  13.016 -0.9676  1.2510  1.1747
 1226SOL    HW215141   0.980   1.639  12.984 -0.8485 -1.2884  0.2938
 1227SOL     OW15142   3.671   2.214   3.073 -0.2491 -0.0404  0.4652
 1227SOL    HW115143   3.723   2.281   3.117  0.6531 -0.3437 -0.1443
 1227SOL    HW215144   3.583   2.228   3.109 -1.3068  0.6153 -2.4376
 1228SOL     OW15145   3.397   2.383   2.736 -0.5097 -0.2734 -0.6770
 1228SOL    HW115146   3.421   2.464   2.691 -0.1031  0.5193  0.9417
 1228SOL    HW215147   3.312   2.372   2.694 -1.1171 -0.3402  0.5643
 1229SOL     OW15148   0.038   0.390   2.102 -0.3352  0.2564 -0.2367
 1229SOL    HW115149   0.022   0.345   2.019  0.1807  0.5957 -0.5242
 1229SOL    HW215150   4.705   0.461   2.077 -1.4594 -0.7449 -0.3655
 1230SOL     OW15151   4.350   4.455   5.297  0.1004 -0.4655 -0.2673
 1230SOL    HW115152   4.385   4.375   5.336 -0.3765  0.2280  1.5672
 1230SOL    HW215153   4.260   4.431   5.316 -0.3811  0.5864 -1.1944
 1231SOL     OW15154   4.361   4.216   3.931 -0.0953  0.5350  0.4111
 1231SOL    HW115155   4.301   4.159   3.883  0.0246  0.6879  0.0809
 1231SOL    HW215156   4.374   4.281   3.862 -0.5845  0.2500  0.0523
 1232SOL     OW15157   0.124   1.798   4.392  0.1237  0.0288  0.0701
 1232SOL    HW115158   0.034   1.770   4.408  0.1665 -0.5363 -0.7365
 1232SOL    HW215159   0.172   1.717   4.403 -0.5621 -0.5012 -0.8757
 1233SOL     OW15160   3.863   4.196   4.893  0.4324  0.0209  0.4223
 1233SOL    HW115161   3.789   4.142   4.865 -0.6161  1.3651  0.6388
 1233SOL    HW215162   3.920   4.129   4.930 -0.1061 -2.3520 -3.0267
 1234SOL     OW15163   0.219   3.661   8.896  0.2468 -0.9056  0.3577
 1234SOL    HW115164   0.150   3.647   8.831  1.8108 -2.1547 -1.0152
 1234SOL    HW215165   0.193   3.605   8.970 -0.3115 -3.3220 -1.6774
 1235SOL     OW15166   1.960   2.202   2.118  0.4651 -0.3162 -0.2797
 1235SOL    HW115167   2.027   2.271   2.114  1.0202 -0.8368 -0.0791
 1235SOL    HW215168   1.900   2.230   2.050  0.4342 -2.5775 -1.1799
 1236SOL     OW15169   2.532   2.694   3.897 -0.3975 -0.0169 -0.1709
 1236SOL    HW115170   2.594   2.626   3.870  0.9537  1.6912 -1.4098
 1236SOL    HW215171   2.577   2.775   3.920 -0.9498  0.8351 -2.0816
 1237SOL     OW15172   4.506   2.415   1.278  0.0563  0.1247 -0.2402
 1237SOL    HW115173   4.555   2.457   1.208  0.1939 -0.2201 -0.3511
 1237SOL    HW215174   4.570   2.351   1.309  1.2571  0.5464 -1.8342
 1238SOL     OW15175   1.835   1.934  10.026  0.6642 -0.0750 -0.0287
 1238SOL    HW115176   1.878   1.884  10.095  0.3033  1.2166  1.1376
 1238SOL    HW215177   1.816   2.019  10.067  0.3360  0.0250 -0.3846
 1239SOL     OW15178   0.870   4.240   8.519  0.2212  0.5138 -0.1721
 1239SOL    HW115179   0.936   4.225   8.451 -0.6601 -2.7069 -0.2933
 1239SOL    HW215180   0.788   4.228   8.471  0.2774 -1.7187  0.2926
 1240SOL     OW15181   2.000   3.018   9.122  0.2244 -0.1562  0.1859
 1240SOL    HW115182   1.907   3.021   9.141  0.0282 -1.9068 -0.4561
 1240SOL    HW215183   2.010   2.948   9.058 -0.8917 -1.3169  1.2819
 1241SOL     OW15184   3.098   2.318   4.949  0.1910 -0.1625 -0.1678
 1241SOL    HW115185   3.152   2.364   5.014 -0.5276 -2.8915  2.3900
 1241SOL    HW215186   3.152   2.319   4.870 -0.0468  0.9521 -0.3130
 1242SOL     OW15187   3.848   2.338   1.463 -0.0750 -0.1790  0.3773
 1242SOL    HW115188   3.753   2.338   1.465 -0.0904  1.5731 -0.2869
 1242SOL    HW215189   3.878   2.327   1.372  1.0158  1.5671  0.5156
 1243SOL     OW15190   4.138   1.947  11.670 -0.5349 -0.3278 -0.6130
 1243SOL    HW115191   4.228   1.958  11.642  0.7608 -0.5502  3.4814
 1243SOL    HW215192   4.119   1.858  11.640  1.3220 -1.4828  1.5888
 1244SOL     OW15193   3.463   0.111   6.200 -0.0490 -0.5335 -0.3862
 1244SOL    HW115194   3.544   0.087   6.246 -0.2817  0.3097  0.4626
 1244SOL    HW215195   3.493   0.103   6.110 -0.2368 -0.2086 -0.4764
 1245SOL     OW15196   3.738   1.242   5.578 -0.6565  0.4252 -0.2366
 1245SOL    HW115197   3.774   1.180   5.514 -1.9770  0.7744 -1.3162
 1245SOL    HW215198   3.779   1.322   5.545 -0.1542 -0.0943 -0.8788
 1246SOL     OW15199   3.133   2.687   3.459  0.5067  0.8632  0.1409
 1246SOL    HW115200   3.138   2.766   3.406 -3.2767 -0.0544 -1.5721
 1246SOL    HW215201   3.046   2.690   3.498  0.7632 -1.5174  0.9273
 1247SOL     OW15202   0.449   3.441   3.376 -0.1962 -0.3713 -0.5361
 1247SOL    HW115203   0.437   3.383   3.301 -0.3780  0.7944 -1.4083
 1247SOL    HW215204   0.380   3.505   3.359  0.6182  0.1516 -1.8758
 1248SOL     OW15205   4.644   0.341   7.964 -0.4566  0.1033 -0.1961
 1248SOL    HW115206   4.551   0.321   7.971 -0.7050  1.7857  1.1236
 1248SOL    HW215207   4.637   0.432   7.993  1.6672  0.3650 -0.5144
 1249SOL     OW15208   3.588   2.634  14.747  0.2842  0.0390 -0.7652
 1249SOL    HW115209   3.615   2.554  14.703 -1.7896 -0.8600 -0.4041
 1249SOL    HW215210   3.511   2.654  14.694 -0.0809 -0.3916 -0.4003
 1250SOL     OW15211   3.835   4.224  16.077 -0.3324 -0.3361  0.1804
 1250SOL    HW115212   3.888   4.228  16.157  0.1141  0.8795 -0.1756
 1250SOL    HW215213   3.795   4.310  16.064 -1.4734 -0.7892  0.6336
 1251SOL     OW15214   1.398   0.234  15.989  0.9650  0.2004 -0.2323
 1251SOL    HW115215   1.475   0.210  15.937  1.2629 -1.3618  0.9400
 1251SOL    HW215216   1.354   0.301  15.936  1.3024 -0.9790 -2.0166
 1252SOL     OW15217   3.799   3.289   5.461 -0.0228  0.4364  0.2846
 1252SOL    HW115218   3.763   3.349   5.526 -1.8396  1.2912 -1.5187
 1252SOL    HW215219   3.863   3.353   5.429  0.4181  0.0760  0.4317
 1253SOL     OW15220   3.461   2.678   5.998 -0.2095 -0.3660  0.0531
 1253SOL    HW115221   3.437   2.629   5.919  1.0687  0.3670 -0.7808
 1253SOL    HW215222   3.552   2.652   6.011 -0.5664 -2.9741 -2.4926
 1254SOL     OW15223   2.768   1.056   4.891 -0.3305  0.1609 -0.0357
 1254SOL    HW115224   2.722   0.995   4.834 -0.4977 -0.7520  1.0995
 1254SOL    HW215225   2.734   1.141   4.862  1.0223  1.2666  1.6209
 1255SOL     OW15226   2.971   0.984  10.239  0.8757 -0.5212 -0.2972
 1255SOL    HW115227   2.923   1.054  10.195  2.1937 -1.0229 -2.4927
 1255SOL    HW215228   2.918   0.909  10.211  0.6995  0.2199 -1.9210
 1256SOL     OW15229   3.828   2.715  12.815 -0.2561 -0.3844 -0.7608
 1256SOL    HW115230   3.803   2.795  12.860 -0.3128  0.0527 -1.5664
 1256SOL    HW215231   3.780   2.723  12.733  0.1760 -1.1094 -1.0861
 1257SOL     OW15232   3.109   2.757  13.729  0.3048 -0.5230  0.4832
 1257SOL    HW115233   3.037   2.753  13.666  1.7550  1.3388 -1.2811
 1257SOL    HW215234   3.132   2.848  13.709 -1.1577 -0.5364 -1.3291
 1258SOL     OW15235   2.999   2.138   5.174  0.1287  0.5534 -0.2814
 1258SOL    HW115236   3.005   2.197   5.099 -0.8509 -2.1236 -2.4432
 1258SOL    HW215237   2.917   2.093   5.155 -0.4996  0.7860  1.8277
 1259SOL     OW15238   2.087   1.453  12.997 -0.3618  0.1322  0.1449
 1259SOL    HW115239   2.045   1.510  12.933 -0.1605 -2.3823 -2.2401
 1259SOL    HW215240   2.093   1.517  13.068  1.7211  0.9703 -0.7762
 1260SOL     OW15241   0.377   0.566   7.312 -0.5743  0.1054 -0.0024
 1260SOL    HW115242   0.343   0.614   7.236  1.2313  0.0570 -0.8370
 1260SOL    HW215243   0.332   0.613   7.383  0.1104  0.5776  0.1190
 1261SOL     OW15244   2.906   4.449   3.028 -0.0910 -0.4463  0.6285
 1261SOL    HW115245   2.852   4.527   3.012  0.6393 -0.3355 -1.2231
 1261SOL    HW215246   2.902   4.406   2.943  2.4013  0.4911  0.0350
 1262SOL     OW15247   2.112   0.964  16.824 -0.7573 -0.2298 -0.1666
 1262SOL    HW115248   2.115   0.881  16.777  2.9147 -0.5400  0.6332
 1262SOL    HW215249   2.018   0.982  16.818 -1.0016 -0.6532  2.1313
 1263SOL     OW15250   3.954   0.508   5.805 -0.1012  0.0610 -0.0820
 1263SOL    HW115251   4.013   0.539   5.874 -0.2241 -0.5136  0.2807
 1263SOL    HW215252   3.934   0.592   5.765  2.8587 -0.6644 -3.0571
 1264SOL     OW15253   0.231   0.871   5.738 -0.3555 -0.0727  0.0744
 1264SOL    HW115254   0.314   0.853   5.695  0.3949 -0.0500  1.5032
 1264SOL    HW215255   0.239   0.810   5.811 -0.1110 -1.1334 -0.8445
 1265SOL     OW15256   2.603   0.391   8.536 -0.5096 -0.7541  0.4527
 1265SOL    HW115257   2.661   0.437   8.596  0.9699  0.6289 -2.0698
 1265SOL    HW215258   2.667   0.391   8.465 -1.2898 -1.0336 -0.2483
 1266SOL     OW15259   3.165   1.757   8.253 -0.2261 -0.4185  0.0280
 1266SOL    HW115260   3.206   1.736   8.337 -2.4771  0.5259  1.3679
 1266SOL    HW215261   3.100   1.687   8.249 -0.4691 -0.2218  0.4563
 1267SOL     OW15262   0.373   2.732   3.438  0.0562  0.1215  0.1925
 1267SOL    HW115263   0.376   2.646   3.397 -1.2898 -0.2396  0.8655
 1267SOL    HW215264   0.396   2.777   3.357  2.6387 -1.1838  0.2047
 1268SOL     OW15265   0.669   2.141   8.357 -0.3735 -0.1824 -0.1107
 1268SOL    HW115266   0.732   2.114   8.289  0.7375 -1.4245  1.4072
 1268SOL    HW215267   0.695   2.078   8.424 -0.1854  0.5980  0.5426
 1269SOL     OW15268   3.804   1.922   9.663  0.1912  0.3194 -0.1713
 1269SOL    HW115269   3.833   1.843   9.708 -2.5040 -1.2180 -1.0940
 1269SOL    HW215270   3.809   1.884   9.575  1.2843  0.0110  0.0212
 1270SOL     OW15271   3.545   2.025   5.730  0.6658  0.4888 -0.7213
 1270SOL    HW115272   3.508   2.007   5.644  1.0538 -0.7420 -0.6416
 1270SOL    HW215273   3.520   1.944   5.775 -1.9419  0.5976 -2.0272
 1271SOL     OW15274   0.084   0.551   4.224  0.2029 -0.2322  0.1168
 1271SOL    HW115275   0.057   0.525   4.312  0.6492 -0.3302  0.2235
 1271SOL    HW215276   0.119   0.469   4.190  0.1494  0.1370 -0.8425
 1272SOL     OW15277   2.703   3.217   6.825 -0.2250  0.2536 -0.0451
 1272SOL    HW115278   2.781   3.176   6.862  0.7050  0.5470 -1.6952
 1272SOL    HW215279   2.684   3.292   6.882  3.7764  0.5867  0.8470
 1273SOL     OW15280   0.147   0.120   6.872 -0.7580  0.0062 -0.0864
 1273SOL    HW115281   0.117   0.039   6.830  1.7374  0.5489 -2.9368
 1273SOL    HW215282   0.127   0.089   6.960 -3.1145  0.9562 -0.2723
 1274SOL     OW15283   0.193   2.035   4.637  0.0098  0.0405 -0.3325
 1274SOL    HW115284   0.249   1.960   4.655 -1.2031 -0.7045  0.2983
 1274SOL    HW215285   0.223   2.073   4.554 -0.0056  0.6903 -0.0373
 1275SOL     OW15286   3.880   3.460   4.722  0.0417 -0.0467 -0.2004
 1275SOL    HW115287   3.854   3.398   4.790 -0.3945 -0.8069 -1.0510
 1275SOL    HW215288   3.963   3.422   4.694  1.3388  1.9622  0.9810
 1276SOL     OW15289   2.959   3.707   2.004  0.1293  0.0883  0.0635
 1276SOL    HW115290   3.035   3.670   1.960 -0.4966 -2.0360  0.7668
 1276SOL    HW215291   2.971   3.801   1.986 -1.5273  0.5006  1.1526
 1277SOL     OW15292   2.118   3.438  15.889  0.2055 -0.0661 -0.5777
 1277SOL    HW115293   2.126   3.514  15.833  1.7305 -0.5712 -1.0456
 1277SOL    HW215294   2.189   3.386  15.852 -0.4016 -2.3383  1.4218
 1278SOL     OW15295   1.437   4.215   7.237 -0.3994  0.2991 -0.4738
 1278SOL    HW115296   1.460   4.168   7.318  1.3069  1.0653 -0.5053
 1278SOL    HW215297   1.492   4.291   7.255 -1.5584  0.7797  0.9479
 1279SOL     OW15298   2.406   1.919   1.313  0.1935  0.3071  0.1222
 1279SOL    HW115299   2.462   1.928   1.390  1.5446 -0.4770 -0.7555
 1279SOL    HW215300   2.419   1.825   1.298  0.7913  0.1703  1.5487
 1280SOL     OW15301   4.200   0.994   5.318  0.0883 -0.8531 -0.3623
 1280SOL    HW115302   4.271   1.012   5.379 -1.1416  0.5604  0.6382
 1280SOL    HW215303   4.127   1.011   5.377  0.5807  0.0001  0.0053
 1281SOL     OW15304   3.508   2.655   1.342 -0.3426  0.2135  0.0461
 1281SOL    HW115305   3.558   2.695   1.413 -2.2090  0.9364  0.9534
 1281SOL    HW215306   3.568   2.604   1.288  0.6183  0.6240  0.7147
 1282SOL     OW15307   2.418   4.251  12.237 -0.1880 -0.8090 -0.2079
 1282SOL    HW115308   2.396   4.325  12.182 -2.0270 -0.5417  0.8820
 1282SOL    HW215309   2.485   4.207  12.185 -0.5406 -0.8613 -0.6113
 1283SOL     OW15310   0.499   0.704   2.545  0.0813  0.3343  0.1576
 1283SOL    HW115311   0.504   0.624   2.493  2.5771 -0.6967  1.9914
 1283SOL    HW215312   0.528   0.675   2.632 -1.2515  0.4296  0.6477
 1284SOL     OW15313   2.595   1.384   5.387  0.0727  0.3273  0.4180
 1284SOL    HW115314   2.525   1.404   5.325 -0.1460 -0.0941  0.5312
 1284SOL    HW215315   2.559   1.323   5.451 -0.7784 -0.0076 -0.3800
 1285SOL     OW15316   0.982   2.579   2.555  0.1604 -0.0017 -0.3950
 1285SOL    HW115317   0.921   2.508   2.536  0.1741 -0.5985  1.7492
 1285SOL    HW215318   1.061   2.530   2.577  0.6075  0.4657 -0.9337
 1286SOL     OW15319   2.269   2.680   3.956  0.0286 -0.0713 -0.0070
 1286SOL    HW115320   2.247   2.587   3.961 -0.8350  0.1094 -0.5377
 1286SOL    HW215321   2.359   2.686   3.924 -0.1829 -0.1102 -0.6126
 1287SOL     OW15322   2.444   0.546   5.282 -0.0724  0.1291 -0.0953
 1287SOL    HW115323   2.484   0.471   5.238  1.3329  0.1682  1.1031
 1287SOL    HW215324   2.522   0.601   5.293 -1.1310  1.8680 -1.3520
 1288SOL     OW15325   0.257   2.618  10.691 -0.0571  0.0521 -0.1819
 1288SOL    HW115326   0.206   2.549  10.649 -0.6309  0.4838 -0.1979
 1288SOL    HW215327   0.208   2.641  10.770 -1.3717 -0.0540 -0.9583
 1289SOL     OW15328   2.748   4.525   3.497 -0.0368 -0.0020 -0.3659
 1289SOL    HW115329   2.815   4.571   3.547  1.0131 -0.2011 -1.6036
 1289SOL    HW215330   2.795   4.484   3.425  3.7709  1.3083  1.3675
 1290SOL     OW15331   4.066   3.639  10.989  0.0578 -0.2125 -0.2434
 1290SOL    HW115332   3.996   3.688  10.946 -1.0729 -0.8338  0.8733
 1290SOL    HW215333   4.088   3.676  11.075 -1.1238 -1.7631  0.7381
 1291SOL     OW15334   4.633   3.093   5.316 -0.0805 -0.0467  0.5639
 1291SOL    HW115335   4.693   3.118   5.245 -0.2621 -0.1863  0.3615
 1291SOL    HW215336   4.547   3.121   5.285 -0.6182 -0.1241  1.9928
 1292SOL     OW15337   1.970   0.909   4.074 -0.8318  0.6356 -0.9155
 1292SOL    HW115338   2.035   0.861   4.023  0.7869 -0.8122  2.5039
 1292SOL    HW215339   1.992   1.003   4.071  0.7467  0.3228  0.5837
 1293SOL     OW15340   1.692   1.231   3.492  0.4606 -0.3121  0.0910
 1293SOL    HW115341   1.666   1.206   3.404 -2.1989 -1.9502  1.3243
 1293SOL    HW215342   1.775   1.183   3.496  1.6212  1.6834 -0.3211
 1294SOL     OW15343   1.946   2.252   4.266 -0.0577  0.4093 -0.4100
 1294SOL    HW115344   1.954   2.229   4.173  0.0520  0.3422 -0.3841
 1294SOL    HW215345   1.858   2.288   4.255 -0.0041  0.4100 -0.8416
 1295SOL     OW15346   2.108   1.330   8.903  0.3460 -0.7607  0.5381
 1295SOL    HW115347   2.133   1.296   8.989  1.6211 -0.8387  0.1322
 1295SOL    HW215348   2.197   1.348   8.873 -0.0258  0.2021  0.0175
 1296SOL     OW15349   0.398   3.612   3.657  0.6715 -0.1266 -0.6465
 1296SOL    HW115350   0.349   3.624   3.576 -0.3040  1.9735  0.2574
 1296SOL    HW215351   0.314   3.620   3.703  1.0219 -0.8835  0.1294
 1297SOL     OW15352   2.020   2.793  15.221  0.3627 -0.2564 -0.1478
 1297SOL    HW115353   1.981   2.879  15.204 -0.1760 -0.6400 -0.8571
 1297SOL    HW215354   2.038   2.765  15.131  0.9205  1.7513 -0.6709
 1298SOL     OW15355   2.423   0.134   9.057 -0.1910  0.2110 -0.2107
 1298SOL    HW115356   2.381   0.177   9.131  0.3887  0.2565  0.0912
 1298SOL    HW215357   2.447   0.206   8.999 -0.3312 -0.3491 -0.9692
 1299SOL     OW15358   3.376   2.052  13.385 -0.2285 -0.8519 -0.2850
 1299SOL    HW115359   3.444   1.985  13.390  1.6395  1.1122  0.6003
 1299SOL    HW215360   3.394   2.100  13.304  0.2338 -0.1143  0.2504
 1300SOL     OW15361   0.219   1.157  11.881  0.5418  0.1716 -0.7250
 1300SOL    HW115362   0.255   1.133  11.966  2.5283  2.3470 -0.9466
 1300SOL    HW215363   0.300   1.157  11.830  1.2908  0.0767  0.4815
 1301SOL     OW15364   3.645   2.833  11.465  0.3030 -0.1164 -0.6083
 1301SOL    HW115365   3.697   2.798  11.392  0.8140  0.7800 -0.6715
 1301SOL    HW215366   3.573   2.878  11.420  0.9454 -0.1872 -1.7211
 1302SOL     OW15367   4.711   0.439  12.494 -0.0577 -0.5957 -0.0904
 1302SOL    HW115368   4.655   0.364  12.474 -2.1868  0.8977  0.3258
 1302SOL    HW215369   0.027   0.416  12.577 -0.3663  2.1013  0.7955
 1303SOL     OW15370   0.235   4.020   7.823  0.6093  0.2659  0.2525
 1303SOL    HW115371   0.305   4.026   7.888  0.9675  0.5271 -0.1591
 1303SOL    HW215372   0.265   4.073   7.749  1.2624 -0.6206 -0.1242
 1304SOL     OW15373   3.889   3.783   7.132 -0.1249  0.3865 -0.2062
 1304SOL    HW115374   3.833   3.706   7.123 -0.8140  0.6182  2.1678
 1304SOL    HW215375   3.976   3.746   7.117  1.3870  3.3362  1.2107
 1305SOL     OW15376   3.040   0.058   4.538 -0.7128  0.3482  0.2224
 1305SOL    HW115377   3.045   4.719   4.608  0.1739 -1.1402 -1.2385
 1305SOL    HW215378   3.043   0.131   4.600  0.0405 -0.6415  1.3588
 1306SOL     OW15379   1.958   1.742   3.406  0.2930 -0.0336  0.3178
 1306SOL    HW115380   2.015   1.736   3.483  0.1494 -0.8685  0.3647
 1306SOL    HW215381   1.886   1.797   3.434  0.0042 -0.9541  1.3661
 1307SOL     OW15382   4.108   0.995  13.576 -0.0019 -0.0236  0.0047
 1307SOL    HW115383   4.035   0.996  13.639 -0.1012 -2.8385 -0.0664
 1307SOL    HW215384   4.067   0.970  13.493  2.5898 -1.0772 -0.9579
 1308SOL     OW15385   0.757   3.569   4.436  0.0947 -0.2249 -0.1828
 1308SOL    HW115386   0.767   3.602   4.525  0.7563 -1.1302  0.0761
 1308SOL    HW215387   0.734   3.649   4.390  0.3415  1.5022  2.6989
 1309SOL     OW15388   4.195   0.703   2.544  0.0785  0.5318  0.4226
 1309SOL    HW115389   4.219   0.693   2.451 -0.6782  0.1103  0.2704
 1309SOL    HW215390   4.173   0.795   2.557 -1.9556  0.0964 -0.0016
 1310SOL     OW15391   4.206   1.200  14.233  0.6479 -0.9702  0.5478
 1310SOL    HW115392   4.297   1.228  14.239 -0.7046  3.6774 -0.4221
 1310SOL    HW215393   4.194   1.195  14.138  1.1741  1.2831  0.3652
 1311SOL     OW15394   4.576   2.349  16.039 -0.0827  0.0137  0.1454
 1311SOL    HW115395   4.523   2.276  16.007 -1.1493  0.1817  1.4814
 1311SOL    HW215396   4.571   2.423  15.978 -0.1926 -0.9695 -1.0264
 1312SOL     OW15397   4.336   0.468   9.880 -0.6467  0.2994 -0.5186
 1312SOL    HW115398   4.286   0.423   9.812 -1.6228  0.7872 -0.1324
 1312SOL    HW215399   4.296   0.555   9.878 -1.2398  0.0638  0.8617
 1313SOL     OW15400   0.815   4.017   5.802 -0.3921  0.1006  1.0825
 1313SOL    HW115401   0.854   4.033   5.888 -0.5163 -1.0666  1.3614
 1313SOL    HW215402   0.895   4.039   5.754 -0.8263  0.2383  0.4293
 1314SOL     OW15403   0.388   0.359   2.784  0.6446 -0.3966 -0.0958
 1314SOL    HW115404   0.428   0.440   2.816 -1.4306  0.3743  0.5346
 1314SOL    HW215405   0.324   0.390   2.721 -2.4417  0.8116  3.6158
 1315SOL     OW15406   4.551   1.766   2.681  0.9134  0.3226 -0.0296
 1315SOL    HW115407   4.594   1.714   2.614  0.2919  0.8687 -0.8575
 1315SOL    HW215408   4.510   1.834   2.628  1.1061 -0.5635 -1.3231
 1316SOL     OW15409   3.368   4.509   8.656  0.1515 -0.0762  0.5985
 1316SOL    HW115410   3.307   4.511   8.583  1.2332 -0.4869 -0.3035
 1316SOL    HW215411   3.349   4.417   8.676 -1.0850  0.7378  3.1816
 1317SOL     OW15412   1.716   3.279   4.195  0.1520 -0.2984 -0.3548
 1317SOL    HW115413   1.715   3.190   4.160 -1.0521 -0.5486  0.2960
 1317SOL    HW215414   1.779   3.274   4.267  1.7923  1.3580 -1.6720
 1318SOL     OW15415   2.064   2.707  11.118 -0.2193  0.0677 -0.0587
 1318SOL    HW115416   2.081   2.634  11.059 -1.2532 -2.1317  2.3581
 1318SOL    HW215417   2.130   2.691  11.186 -0.2488 -2.3701 -0.6210
 1319SOL     OW15418   3.731   3.760   4.945  0.4729  1.2506  0.1041
 1319SOL    HW115419   3.638   3.744   4.935  0.2414  0.6784  3.0739
 1319SOL    HW215420   3.745   3.844   4.988 -2.0482  1.1760  1.0313
 1320SOL     OW15421   3.032   2.320   9.538  0.4228  0.6328 -0.2630
 1320SOL    HW115422   2.996   2.399   9.497 -1.5962 -0.6743 -1.0125
 1320SOL    HW215423   2.959   2.258   9.546 -0.2439  1.5125  0.4107
 1321SOL     OW15424   1.263   3.332   7.339  0.5936 -0.1305  0.2567
 1321SOL    HW115425   1.199   3.399   7.314 -0.6152  0.2170  4.2222
 1321SOL    HW215426   1.330   3.350   7.274 -0.6892 -2.0215 -1.5766
 1322SOL     OW15427   4.006   0.975  16.639 -0.1968 -0.1541 -0.0515
 1322SOL    HW115428   4.038   0.980  16.729  1.9763  0.0136 -0.8407
 1322SOL    HW215429   3.920   1.016  16.651 -0.7868 -1.2886 -0.4379
 1323SOL     OW15430   1.441   3.862   9.624  0.1811 -0.0494  0.1188
 1323SOL    HW115431   1.488   3.868   9.707  1.3497  0.6418 -0.5897
 1323SOL    HW215432   1.350   3.864   9.652  0.2235 -4.0868  0.6007
 1324SOL     OW15433   4.494   4.279  15.139  0.2428 -0.4265  0.3343
 1324SOL    HW115434   4.536   4.231  15.211 -1.9525 -3.2182 -0.2387
 1324SOL    HW215435   4.410   4.234  15.129  0.6237 -1.1607  0.4386
 1325SOL     OW15436   2.157   3.166   5.561 -0.2325  0.0946  0.1822
 1325SOL    HW115437   2.193   3.117   5.635  1.1004  0.4297 -0.2509
 1325SOL    HW215438   2.183   3.103   5.494 -1.2104 -0.3760  0.2381
 1326SOL     OW15439   1.512   0.958   9.167 -0.4456  0.0109  0.6250
 1326SOL    HW115440   1.535   1.047   9.193 -0.9910  0.2006  0.4602
 1326SOL    HW215441   1.438   0.945   9.227  0.3384  0.4829  1.6837
 1327SOL     OW15442   3.763   3.647   3.802 -0.2657  0.7096  0.4742
 1327SOL    HW115443   3.680   3.615   3.838  0.1719 -1.2004 -0.1860
 1327SOL    HW215444   3.743   3.699   3.724  2.4466 -0.1688 -0.8431
 1328SOL     OW15445   3.158   2.097   0.601  0.6903  0.2081  0.5215
 1328SOL    HW115446   3.133   2.120   0.690  2.5056  0.8760  0.8563
 1328SOL    HW215447   3.127   2.007   0.605 -1.2412  0.7317 -2.4521
 1329SOL     OW15448   0.794   3.182   4.076  1.3516  0.0778  0.1189
 1329SOL    HW115449   0.826   3.114   4.136  0.3019 -1.0168 -0.5785
 1329SOL    HW215450   0.814   3.261   4.127  0.0829  1.6468 -1.8373
 1330SOL     OW15451   0.061   4.607   8.054 -0.5268  0.2907  0.0519
 1330SOL    HW115452   0.090   4.648   8.135 -1.4890 -2.1131  1.6048
 1330SOL    HW215453   0.140   4.617   8.000 -0.7164  3.4261  0.3427
 1331SOL     OW15454   2.520   4.170   4.979 -0.6746  0.4385  0.3880
 1331SOL    HW115455   2.525   4.076   4.961  1.3035  0.6678 -0.2612
 1331SOL    HW215456   2.513   4.165   5.074 -0.8947 -0.0731  0.3434
 1332SOL     OW15457   1.759   3.992   5.139  0.1612 -0.1159  0.5752
 1332SOL    HW115458   1.741   4.023   5.228 -1.7940 -0.0190  0.1251
 1332SOL    HW215459   1.807   3.911   5.156 -0.2667 -0.2495  1.1438
 1333SOL     OW15460   0.370   0.590   7.871  0.6488  0.4620  0.1122
 1333SOL    HW115461   0.369   0.645   7.950 -0.7075  0.9192 -0.2318
 1333SOL    HW215462   0.304   0.528   7.903  0.5233  0.8653  0.6323
 1334SOL     OW15463   4.059   1.466   1.099  0.5922 -0.1901  0.0734
 1334SOL    HW115464   4.054   1.373   1.117  0.0834 -0.2819 -0.5489
 1334SOL    HW215465   4.088   1.474   1.008 -1.6867 -1.1556 -0.7300
 1335SOL     OW15466   1.943   0.914   4.916 -0.3060 -0.4796 -0.2827
 1335SOL    HW115467   1.971   0.951   5.000 -2.2762  1.5169 -0.4981
 1335SOL    HW215468   1.935   1.000   4.875  1.5108  0.7217  1.8790
 1336SOL     OW15469   0.992   2.304  17.613  0.2859 -0.4744  0.0530
 1336SOL    HW115470   1.001   2.366  17.686 -1.5679 -0.5138  0.3156
 1336SOL    HW215471   1.085   2.291  17.598  0.3963 -0.7492  0.9600
 1337SOL     OW15472   1.477   1.907   3.107  0.1908  0.3963  0.2812
 1337SOL    HW115473   1.439   1.819   3.101  1.3966 -0.0383 -1.0795
 1337SOL    HW215474   1.412   1.961   3.061 -0.1176 -1.2028 -1.1734
 1338SOL     OW15475   1.431   2.654   3.003  0.5392 -0.1710  0.9271
 1338SOL    HW115476   1.501   2.717   3.020  0.2784  0.8830 -1.9360
 1338SOL    HW215477   1.453   2.632   2.913 -0.9924  1.0864  0.2530
 1339SOL     OW15478   3.179   1.335   4.617  0.3467  0.2694  0.5082
 1339SOL    HW115479   3.207   1.391   4.689  1.6776 -0.0314  0.2185
 1339SOL    HW215480   3.259   1.334   4.565 -1.0513  1.0268 -1.6370
 1340SOL     OW15481   3.528   1.785   5.273 -0.0048  0.4352  0.3514
 1340SOL    HW115482   3.600   1.760   5.215 -0.5331 -1.2106  0.3800
 1340SOL    HW215483   3.497   1.702   5.310 -0.5225  0.8467  0.8416
 1341SOL     OW15484   3.958   3.840  14.305  0.8304 -0.3236  0.1428
 1341SOL    HW115485   3.943   3.883  14.389 -1.9509 -1.1145  0.0465
 1341SOL    HW215486   3.873   3.839  14.262  1.1788 -2.1124 -0.4785
 1342SOL     OW15487   2.926   0.832   8.148 -0.5175 -0.1286  0.0761
 1342SOL    HW115488   2.947   0.897   8.081  1.2322 -1.1784 -0.3953
 1342SOL    HW215489   2.844   0.805   8.108 -0.9194 -1.4918  1.8050
 1343SOL     OW15490   2.430   3.675   3.056  0.1894 -0.1303  0.3382
 1343SOL    HW115491   2.499   3.736   3.030  0.6257 -1.4172 -1.4706
 1343SOL    HW215492   2.453   3.600   3.002  0.8971 -0.4369  1.0765
 1344SOL     OW15493   0.415   0.614   8.669  0.2236 -0.2640  0.5710
 1344SOL    HW115494   0.334   0.574   8.700  2.1342 -2.6142  2.5153
 1344SOL    HW215495   0.439   0.668   8.745  1.4161  0.8955 -0.6322
 1345SOL     OW15496   1.973   2.014   2.753  0.1243 -0.4025  0.9318
 1345SOL    HW115497   1.923   2.068   2.815  1.0154 -0.1748  1.4497
 1345SOL    HW215498   2.045   2.076   2.736 -0.8940  0.1723 -1.2237
 1346SOL     OW15499   3.860   3.785   5.614 -0.1726  0.3560  0.1516
 1346SOL    HW115500   3.928   3.726   5.582 -0.3284  0.4626 -0.3675
 1346SOL    HW215501   3.912   3.837   5.676 -1.9062  2.1648  0.0791
 1347SOL     OW15502   2.903   4.573   2.323  0.2410  0.4480  0.5366
 1347SOL    HW115503   2.856   4.636   2.269  0.6417 -1.9041 -2.5448
 1347SOL    HW215504   2.841   4.501   2.328  1.8319 -1.0300 -1.1368
 1348SOL     OW15505   4.090   4.077   4.073  0.0481  0.1002 -0.2900
 1348SOL    HW115506   4.077   4.077   3.978 -0.3678  0.0501 -0.2343
 1348SOL    HW215507   4.026   4.009   4.094 -0.3056  0.9853  1.4973
 1349SOL     OW15508   0.505   4.220   8.374  0.3777  0.6457  0.6384
 1349SOL    HW115509   0.536   4.241   8.462 -0.9991 -0.4497  1.3785
 1349SOL    HW215510   0.411   4.237   8.376 -0.0820 -1.4955 -1.4525
 1350SOL     OW15511   1.248   0.589   3.384  0.2712  0.2890  0.3928
 1350SOL    HW115512   1.249   0.683   3.365 -4.9712  0.0961 -0.9182
 1350SOL    HW215513   1.288   0.561   3.301  2.8771  0.7308  1.5163
 1351SOL     OW15514   2.651   3.713   1.457 -0.8424  0.0948 -0.0048
 1351SOL    HW115515   2.680   3.777   1.392  1.1158  0.2869  1.0486
 1351SOL    HW215516   2.651   3.636   1.400  2.6761 -1.1627  1.7163
 1352SOL     OW15517   3.878   4.582  13.964 -0.2553  0.5360 -0.3336
 1352SOL    HW115518   3.852   4.539  13.882 -3.8352  1.3223  0.4282
 1352SOL    HW215519   3.948   4.645  13.943 -2.7696  2.2857 -3.4702
 1353SOL     OW15520   4.436   2.338   2.280 -0.1343 -0.3231  0.0960
 1353SOL    HW115521   4.463   2.425   2.251 -0.6084 -1.5024 -3.9713
 1353SOL    HW215522   4.378   2.322   2.205  0.3504  1.0497 -0.5875
 1354SOL     OW15523   4.059   1.826   5.562 -0.0364  0.4037  0.0646
 1354SOL    HW115524   3.998   1.899   5.573  0.7861  1.0826  0.1301
 1354SOL    HW215525   4.097   1.833   5.650 -1.8977 -0.7423  0.9527
 1355SOL     OW15526   3.817   0.558   7.578  0.1614  0.1756 -0.1461
 1355SOL    HW115527   3.823   0.566   7.673 -3.8593 -1.0993  0.2096
 1355SOL    HW215528   3.730   0.596   7.564 -0.2482 -1.6395 -2.4893
 1356SOL     OW15529   2.970   1.396  10.123 -0.0663  0.2764 -0.3903
 1356SOL    HW115530   3.062   1.420  10.114  0.2640 -0.7451  0.1914
 1356SOL    HW215531   2.931   1.480  10.146  2.0725  1.1518  0.1104
 1357SOL     OW15532   2.130   0.158   3.820  0.3481 -0.4291 -0.2026
 1357SOL    HW115533   2.112   0.177   3.728 -2.6668  0.1416  0.5231
 1357SOL    HW215534   2.191   0.090   3.791  0.4846 -0.5726  0.4262
 1358SOL     OW15535   4.497   2.793   7.525 -0.2400 -0.0242  0.1928
 1358SOL    HW115536   4.592   2.807   7.519 -0.6136  2.1140 -0.8063
 1358SOL    HW215537   4.477   2.738   7.449 -0.0214  1.6726 -1.0983
 1359SOL     OW15538   3.583   3.091   0.026 -0.0311 -0.1311 -0.3571
 1359SOL    HW115539   3.508   3.079  17.677  1.3700 -3.1353 -1.6326
 1359SOL    HW215540   3.547   3.142   0.098  0.6691 -1.6221  1.0685
 1360SOL     OW15541   4.366   1.415   6.931  0.4987 -0.1759 -0.3899
 1360SOL    HW115542   4.402   1.503   6.938  0.3592 -0.0733 -1.0202
 1360SOL    HW215543   4.440   1.370   6.891  1.5201  0.6331  0.5773
 1361SOL     OW15544   2.778   1.625  10.834  0.0992 -0.7736  0.0305
 1361SOL    HW115545   2.834   1.559  10.876  0.1844 -1.0236 -0.4876
 1361SOL    HW215546   2.736   1.656  10.915  0.7015  0.2465 -0.0503
 1362SOL     OW15547   2.730   4.286   0.288 -0.1839  0.4371 -0.3925
 1362SOL    HW115548   2.817   4.246   0.291 -0.0802  0.6980  0.0162
 1362SOL    HW215549   2.696   4.266   0.375 -0.5440  1.3636 -0.3263
 1363SOL     OW15550   3.364   4.656   2.586 -0.1428  0.2614  0.2796
 1363SOL    HW115551   3.382   0.015   2.623 -0.0848  0.5317 -0.3728
 1363SOL    HW215552   3.273   4.667   2.557 -0.1005  0.7701  0.3437
 1364SOL     OW15553   3.492   2.342  11.443  0.4389  0.3966  0.5911
 1364SOL    HW115554   3.403   2.353  11.476  0.0551  1.6307 -0.8819
 1364SOL    HW215555   3.530   2.417  11.489  1.9398 -2.0058  3.2619
 1365SOL     OW15556   1.132   3.743  14.862  0.4142  0.6817 -0.4519
 1365SOL    HW115557   1.205   3.694  14.901  0.0571  0.8312  0.4118
 1365SOL    HW215558   1.112   3.705  14.777  1.8736  0.1253 -0.5428
 1366SOL     OW15559   2.390   4.039   3.576  0.0858  0.1749  0.5959
 1366SOL    HW115560   2.429   4.062   3.660  1.6082 -1.8842  0.4350
 1366SOL    HW215561   2.303   4.080   3.585  1.3229  2.9174  0.1859
 1367SOL     OW15562   1.548   3.746   4.249  0.2159  0.0085 -0.2962
 1367SOL    HW115563   1.471   3.690   4.235  1.4873 -1.4806 -1.3400
 1367SOL    HW215564   1.516   3.823   4.296  1.6200  1.8221 -2.3140
 1368SOL     OW15565   2.311   1.057   5.185 -0.2305  0.4482  0.1019
 1368SOL    HW115566   2.407   1.063   5.186 -0.2608  0.9736 -0.3972
 1368SOL    HW215567   2.291   0.964   5.175 -0.2322  0.1899  2.3876
 1369SOL     OW15568   4.186   3.927  15.216  0.1695  0.8562 -0.0127
 1369SOL    HW115569   4.140   3.871  15.153 -0.3239 -1.6329  2.5601
 1369SOL    HW215570   4.116   3.959  15.273  0.1748  1.2030 -0.2042
 1370SOL     OW15571   0.611   2.384  16.189  0.5612 -0.4936 -0.4116
 1370SOL    HW115572   0.565   2.467  16.203  2.0914  0.3327 -0.1796
 1370SOL    HW215573   0.549   2.328  16.143  0.6838 -0.8523 -0.1382
 1371SOL     OW15574   1.373   1.654   3.112 -0.3618  0.5203  0.1255
 1371SOL    HW115575   1.391   1.573   3.065  1.6523  0.1508  1.5317
 1371SOL    HW215576   1.396   1.622   3.199  1.2606  2.4434  0.4188
 1372SOL     OW15577   2.577   2.136   4.967 -0.1757 -0.2949 -0.1231
 1372SOL    HW115578   2.583   2.216   4.913 -0.1913 -1.2297 -1.5108
 1372SOL    HW215579   2.578   2.067   4.900 -1.1544 -0.5040  0.0759
 1373SOL     OW15580   0.798   0.310   7.906  0.2769  0.0046  0.2565
 1373SOL    HW115581   0.875   0.254   7.920 -1.4991 -1.8125  2.6672
 1373SOL    HW215582   0.804   0.317   7.810  0.0879 -1.6968  0.1233
 1374SOL     OW15583   1.610   1.930   7.997  0.6038 -0.5509 -0.0663
 1374SOL    HW115584   1.606   1.874   8.075  0.5562  0.3411  0.5747
 1374SOL    HW215585   1.625   2.018   8.032 -1.4798  0.5348 -1.9639
 1375SOL     OW15586   0.086   3.696  14.538 -0.0746  0.6765  0.5043
 1375SOL    HW115587   0.132   3.616  14.514 -0.2412  0.5560  0.5821
 1375SOL    HW215588   0.003   3.655  14.514 -0.1580  1.2249 -0.1090
 1376SOL     OW15589   4.111   2.711  13.212 -0.1668  0.8048  0.0542
 1376SOL    HW115590   4.132   2.686  13.121 -0.5213 -0.9730  0.4673
 1376SOL    HW215591   4.133   2.627  13.252  1.2175  1.8758  1.5543
 1377SOL     OW15592   3.057   2.013   2.789 -0.1207  0.3183 -0.0623
 1377SOL    HW115593   3.118   1.995   2.861 -2.3410 -0.2530  1.6556
 1377SOL    HW215594   2.982   1.986   2.841  0.3888 -0.4484  0.2705
 1378SOL     OW15595   3.702   4.021   6.311  0.5856  0.4969  0.5455
 1378SOL    HW115596   3.625   4.058   6.354 -0.6248 -2.3896  0.8096
 1378SOL    HW215597   3.678   4.010   6.219 -1.1101  1.0635  0.9342
 1379SOL     OW15598   0.721   3.417   2.200  0.2427  0.1042  0.1298
 1379SOL    HW115599   0.791   3.465   2.156 -0.9317  1.8994  0.2048
 1379SOL    HW215600   0.646   3.452   2.152  1.6162  2.4988 -0.2458
 1380SOL     OW15601   1.019   3.630   4.285  0.0070  0.1774  0.0435
 1380SOL    HW115602   0.988   3.545   4.253  1.5092 -0.3087 -0.1060
 1380SOL    HW215603   0.950   3.688   4.252 -0.3526 -0.4592 -0.3235
 1381SOL     OW15604   0.638   0.588   3.247 -0.3477  0.3717 -0.5160
 1381SOL    HW115605   0.651   0.683   3.252 -1.3215  0.4946 -0.2457
 1381SOL    HW215606   0.548   0.582   3.279  0.4424 -2.0251  1.2027
 1382SOL     OW15607   3.669   3.637   9.594 -0.5155 -0.1997  0.6524
 1382SOL    HW115608   3.743   3.696   9.578  0.1040 -1.4042 -0.9191
 1382SOL    HW215609   3.653   3.600   9.507 -0.9790  0.2966  0.5327
 1383SOL     OW15610   1.756   4.096   8.392 -0.0804  0.0813 -0.3321
 1383SOL    HW115611   1.690   4.141   8.445  1.1703  0.2009  1.1033
 1383SOL    HW215612   1.763   4.009   8.432  1.8944  0.5608  0.3337
 1384SOL     OW15613   3.137   0.378  11.160  0.5915 -0.2151  0.3413
 1384SOL    HW115614   3.127   0.471  11.136  1.0005 -0.6717 -1.6152
 1384SOL    HW215615   3.218   0.379  11.210 -0.0450  0.0369  1.3639
 1385SOL     OW15616   4.618   0.647   5.725  0.6468  0.1817  0.7286
 1385SOL    HW115617   4.619   0.559   5.762 -2.5666  0.6514  1.9004
 1385SOL    HW215618   4.649   0.714   5.786  0.5957  2.2783 -1.5279
 1386SOL     OW15619   2.943   2.875   4.836  0.1358  0.0601  0.1086
 1386SOL    HW115620   3.004   2.849   4.768 -1.6030 -1.7845 -0.7457
 1386SOL    HW215621   2.870   2.899   4.779  0.4771 -0.4370 -0.5280
 1387SOL     OW15622   2.095   0.671   5.931  0.1386  0.8087 -0.2202
 1387SOL    HW115623   2.170   0.720   5.964  0.1331  0.4495  0.3285
 1387SOL    HW215624   2.116   0.673   5.838  3.0297 -0.2713  0.4178
 1388SOL     OW15625   0.324   1.797   0.275  0.1994 -0.1373  0.5738
 1388SOL    HW115626   0.322   1.809   0.370  1.8698  0.3000  0.5605
 1388SOL    HW215627   0.230   1.782   0.271  0.2815 -0.1486 -1.7768
 1389SOL     OW15628   4.579   1.937   0.902 -0.5242 -0.1131 -0.0497
 1389SOL    HW115629   4.637   2.013   0.909 -1.3261  0.5523 -0.6495
 1389SOL    HW215630   4.495   1.968   0.934 -0.4985 -0.7645  0.6458
 1390SOL     OW15631   2.889   3.305   4.278 -0.3459 -0.5118  0.1273
 1390SOL    HW115632   2.889   3.385   4.226 -0.1023 -0.2943  0.4556
 1390SOL    HW215633   2.952   3.332   4.345 -1.2874  0.3667  0.6637
 1391SOL     OW15634   3.699   1.472   8.025 -0.7093  0.3824  1.0570
 1391SOL    HW115635   3.749   1.545   8.061  0.4958 -0.1312  0.4059
 1391SOL    HW215636   3.631   1.528   7.987  0.7128  0.1593 -1.8312
 1392SOL     OW15637   0.396   3.274   2.310 -0.0155 -0.5247  0.1074
 1392SOL    HW115638   0.479   3.230   2.292 -0.3379 -0.5587 -1.2766
 1392SOL    HW215639   0.349   3.242   2.234 -0.0340  1.5170 -0.7468
 1393SOL     OW15640   3.547   0.461   3.342  0.4059 -0.4803 -0.0225
 1393SOL    HW115641   3.567   0.428   3.429  2.2125  2.4082  0.6479
 1393SOL    HW215642   3.469   0.412   3.316  0.3501 -0.7097  0.5764
 1394SOL     OW15643   4.491   2.216  11.500 -0.1152 -0.6165 -0.4156
 1394SOL    HW115644   4.587   2.213  11.498 -0.1093 -0.1734 -0.8544
 1394SOL    HW215645   4.477   2.300  11.544 -0.0564 -0.3368 -0.9342
 1395SOL     OW15646   0.659   0.097   7.640 -0.2757  0.4651 -1.3236
 1395SOL    HW115647   0.712   0.028   7.680 -0.9914 -0.4241 -1.8935
 1395SOL    HW215648   0.735   0.152   7.623  0.6417 -0.3503  0.0747
 1396SOL     OW15649   3.894   0.490   9.521  0.9107 -0.9375  0.1581
 1396SOL    HW115650   3.840   0.422   9.561  0.0062  0.2419  0.9603
 1396SOL    HW215651   3.901   0.459   9.431  2.9500 -1.5768  0.5390
 1397SOL     OW15652   3.302   4.217   8.911  0.0376  0.3942 -0.0367
 1397SOL    HW115653   3.286   4.185   8.999 -0.5632  1.9642  0.4165
 1397SOL    HW215654   3.210   4.221   8.883  0.1462 -1.1701 -0.6249
 1398SOL     OW15655   3.554   4.139   0.734 -0.4165  0.1152  0.4556
 1398SOL    HW115656   3.541   4.098   0.648  0.0050  2.0211 -0.5101
 1398SOL    HW215657   3.638   4.099   0.757  1.1252  3.9371  1.3373
 1399SOL     OW15658   1.313   1.885  11.851  0.1999  0.3197 -0.1545
 1399SOL    HW115659   1.282   1.907  11.939 -4.0909  1.8478 -2.0303
 1399SOL    HW215660   1.257   1.942  11.798 -0.0858  2.0268  1.9915
 1400SOL     OW15661   2.402   1.638  10.214 -0.1739  0.0423 -0.4326
 1400SOL    HW115662   2.426   1.691  10.290  2.5189  0.2344 -1.4160
 1400SOL    HW215663   2.323   1.683  10.184 -0.4698 -1.2769 -1.6644
 1401SOL     OW15664   3.859   2.323   1.739 -0.8822  0.0961 -0.4999
 1401SOL    HW115665   3.819   2.300   1.655 -1.7352 -0.7909  0.1485
 1401SOL    HW215666   3.884   2.232   1.755  1.3123  0.6006 -1.1335
 1402SOL     OW15667   1.706   2.454   5.192  0.2108  0.3104  0.0650
 1402SOL    HW115668   1.746   2.533   5.227 -0.7495 -1.3730  4.8393
 1402SOL    HW215669   1.756   2.384   5.232  0.0540  0.0446 -0.2021
 1403SOL     OW15670   2.038   2.692  14.974 -0.1861  0.1181 -0.1408
 1403SOL    HW115671   2.037   2.734  14.888 -2.1079 -0.8739 -0.5972
 1403SOL    HW215672   2.081   2.612  14.945  0.8615  0.5305  0.2846
 1404SOL     OW15673   1.611   3.396   6.994 -0.4541  0.1405 -0.0817
 1404SOL    HW115674   1.706   3.379   6.992 -0.2915  1.0575 -0.3646
 1404SOL    HW215675   1.606   3.427   7.084 -0.8157  1.3283 -0.5063
 1405SOL     OW15676   0.964   2.894   8.546  0.3585 -0.1763 -0.4590
 1405SOL    HW115677   0.880   2.898   8.500 -0.0967 -0.8796  0.3044
 1405SOL    HW215678   0.949   2.830   8.616 -0.6162  1.9847  1.3263
 1406SOL     OW15679   3.272   1.299  17.349 -0.1150 -1.1843  0.6779
 1406SOL    HW115680   3.300   1.349  17.426  1.5898  1.0475 -1.3978
 1406SOL    HW215681   3.244   1.214  17.385  1.3238 -1.2965  1.5465
 1407SOL     OW15682   1.580   0.307   7.835 -0.8937  0.1879  0.1678
 1407SOL    HW115683   1.608   0.340   7.750  0.2792 -3.0346 -0.6895
 1407SOL    HW215684   1.515   0.373   7.859 -0.9341  0.3448 -0.3849
 1408SOL     OW15685   0.250   1.366  15.581 -0.6647  0.0862 -0.6122
 1408SOL    HW115686   0.214   1.427  15.517  1.9817  2.0486 -0.2552
 1408SOL    HW215687   0.310   1.324  15.520  0.3866 -1.2195  1.3028
 1409SOL     OW15688   0.087   2.474   1.463  0.0006  0.2833 -0.1027
 1409SOL    HW115689   0.115   2.391   1.424 -0.2775  0.3518 -0.4447
 1409SOL    HW215690   0.161   2.496   1.519  0.4626  1.1890 -1.0666
 1410SOL     OW15691   3.246   0.567   0.847 -0.1298  0.3791 -0.4285
 1410SOL    HW115692   3.317   0.626   0.870 -1.9273  2.0786  0.7026
 1410SOL    HW215693   3.220   0.555   0.938 -0.6292  1.0015 -0.4848
 1411SOL     OW15694   1.127   4.052   6.411 -0.4440 -0.0482  0.0928
 1411SOL    HW115695   1.153   4.037   6.502 -2.0130 -0.3941  0.4862
 1411SOL    HW215696   1.054   4.113   6.417 -0.0275  0.2664  2.0119
 1412SOL     OW15697   2.292   3.658  12.029  0.2900 -0.1408  0.1189
 1412SOL    HW115698   2.365   3.683  11.973 -0.3392  2.0909  0.2968
 1412SOL    HW215699   2.316   3.721  12.097 -0.8423  0.5885 -0.1629
 1413SOL     OW15700   1.920   1.954   4.506  0.0142 -0.5715  0.0057
 1413SOL    HW115701   1.870   1.951   4.587 -0.9091  0.7754 -0.5298
 1413SOL    HW215702   1.851   1.926   4.446 -0.4668  0.5324  0.0573
 1414SOL     OW15703   2.107   0.267   7.337  0.4600  0.1083  0.4665
 1414SOL    HW115704   2.123   0.247   7.245 -2.0149  0.0508  0.0658
 1414SOL    HW215705   2.140   0.356   7.352  1.3889 -0.6544  3.0605
 1415SOL     OW15706   4.087   1.111   7.834  0.3327 -0.3865 -0.0596
 1415SOL    HW115707   4.015   1.065   7.791  1.4615 -2.7377  0.5527
 1415SOL    HW215708   4.084   1.072   7.921  1.6262 -1.2435 -0.4040
 1416SOL     OW15709   2.336   1.470   8.846  0.1457 -0.0562 -0.1525
 1416SOL    HW115710   2.320   1.559   8.814  2.3296 -0.1719 -1.5494
 1416SOL    HW215711   2.426   1.481   8.874 -0.2624 -1.7021  1.7631
 1417SOL     OW15712   1.166   3.551   8.191 -0.3323  0.1060 -0.1915
 1417SOL    HW115713   1.169   3.473   8.245 -2.9126  0.2296  0.1261
 1417SOL    HW215714   1.217   3.543   8.110  0.5092  0.7699  0.2677
 1418SOL     OW15715   2.523   0.018   7.109  0.9718  0.1199 -0.3715
 1418SOL    HW115716   2.503   0.111   7.119  0.2512 -0.0808  0.0679
 1418SOL    HW215717   2.533   4.722   7.202 -2.3443 -0.6012 -0.1950
 1419SOL     OW15718   3.285   4.148   6.296  0.1959 -0.3566 -0.0966
 1419SOL    HW115719   3.307   4.140   6.203 -0.3796  0.3546 -0.2916
 1419SOL    HW215720   3.333   4.226   6.325  0.4815 -1.1197  1.5028
 1420SOL     OW15721   1.835   0.618   8.201  0.3740 -0.3051  0.4506
 1420SOL    HW115722   1.757   0.661   8.236  0.6280 -0.2085  0.8950
 1420SOL    HW215723   1.818   0.528   8.225 -0.5926  0.1855  1.5964
 1421SOL     OW15724   1.195   3.553   5.309 -0.3002 -0.7001  0.3693
 1421SOL    HW115725   1.145   3.489   5.258 -0.8723  1.5024 -1.8245
 1421SOL    HW215726   1.284   3.517   5.313  0.2429  0.4708 -1.3961
 1422SOL     OW15727   3.706   4.105   2.370  0.0784  0.2187 -0.4158
 1422SOL    HW115728   3.733   4.196   2.382  1.3277  0.0623 -1.8880
 1422SOL    HW215729   3.724   4.093   2.276  0.7306  3.1734 -0.6594
 1423SOL     OW15730   4.628   2.079   1.220  0.2257 -0.4746  0.3498
 1423SOL    HW115731   4.669   2.018   1.281 -0.5638 -0.3222  1.0324
 1423SOL    HW215732   4.535   2.064   1.233 -0.3263  0.1121 -2.9478
 1424SOL     OW15733   3.151   2.344   2.626  0.5115 -0.6465 -0.3348
 1424SOL    HW115734   3.115   2.426   2.593 -0.5130 -1.3882 -1.0624
 1424SOL    HW215735   3.140   2.278   2.557 -0.7350 -1.6517  0.8195
 1425SOL     OW15736   2.900   0.383   2.371 -0.2116  0.0482 -0.2907
 1425SOL    HW115737   2.871   0.469   2.402  1.3109 -0.0866  1.4937
 1425SOL    HW215738   2.934   0.344   2.452 -1.5261 -0.2598  0.1195
 1426SOL     OW15739   2.895   3.434  10.913 -0.4873  0.8329  0.4726
 1426SOL    HW115740   2.825   3.393  10.862  0.8440 -0.0150 -0.6527
 1426SOL    HW215741   2.882   3.523  10.882 -0.1905  0.0576 -1.9194
 1427SOL     OW15742   3.269   3.811   7.255  0.1287  0.0033  0.1087
 1427SOL    HW115743   3.248   3.904   7.255 -1.5414 -0.3698 -0.8774
 1427SOL    HW215744   3.252   3.790   7.163 -0.2317  0.4192  0.0797
 1428SOL     OW15745   2.099   3.075   4.136  0.0104 -0.0573  0.2141
 1428SOL    HW115746   2.166   3.042   4.077  2.3188  1.4846  1.9794
 1428SOL    HW215747   2.151   3.097   4.213  0.2091 -1.2569  0.4119
 1429SOL     OW15748   2.473   0.923  14.344 -0.0468  0.2069  0.1534
 1429SOL    HW115749   2.448   0.987  14.411 -1.2513 -3.2663  3.0025
 1429SOL    HW215750   2.395   0.868  14.343  0.3974 -0.3680 -1.5988
 1430SOL     OW15751   3.581   0.878   2.770  0.5256  0.0760  0.1071
 1430SOL    HW115752   3.494   0.854   2.735 -0.1962  1.4395  0.9755
 1430SOL    HW215753   3.628   0.824   2.706 -1.1337 -0.4121 -0.7096
 1431SOL     OW15754   0.066   0.245   3.316  0.9181 -0.4409 -0.6314
 1431SOL    HW115755   0.040   0.283   3.232 -3.0853 -1.7423  0.0069
 1431SOL    HW215756   0.005   0.283   3.379  1.6436  0.0429 -0.2203
 1432SOL     OW15757   4.271   2.089  16.329  0.4547  0.2943 -0.0686
 1432SOL    HW115758   4.316   2.092  16.244 -0.4742 -1.2851 -0.6198
 1432SOL    HW215759   4.305   2.171  16.364  2.6500 -0.7551  0.2747
 1433SOL     OW15760   0.441   3.567   2.668  0.0785  0.5091  0.1730
 1433SOL    HW115761   0.437   3.522   2.752 -0.3845 -0.5020 -0.3986
 1433SOL    HW215762   0.523   3.617   2.665 -0.6461  1.8990  4.1712
 1434SOL     OW15763   3.213   0.799  11.369 -0.1570  0.1362  0.3903
 1434SOL    HW115764   3.270   0.759  11.435 -0.3610 -0.7866 -0.0052
 1434SOL    HW215765   3.130   0.803  11.415 -0.7969  1.0075 -0.8298
 1435SOL     OW15766   2.544   3.562   8.873  0.1777 -0.4929  0.2421
 1435SOL    HW115767   2.554   3.656   8.880 -2.6373 -0.1691 -0.0479
 1435SOL    HW215768   2.466   3.532   8.921 -0.4031 -0.3888 -0.6308
 1436SOL     OW15769   1.470   0.470   2.921  0.0394  0.2761  0.3612
 1436SOL    HW115770   1.404   0.419   2.969 -1.6053  1.0991 -1.0807
 1436SOL    HW215771   1.512   0.399   2.871 -2.0697 -1.0250  0.4112
 1437SOL     OW15772   3.104   1.377   5.920 -0.0197 -0.2055 -0.2100
 1437SOL    HW115773   3.082   1.461   5.881  0.5309  0.1581  0.2684
 1437SOL    HW215774   3.054   1.376   6.001  1.7183  1.0654  0.8692
 1438SOL     OW15775   1.746   2.245  15.657 -0.1468  0.5399 -0.0834
 1438SOL    HW115776   1.704   2.253  15.571 -0.6503 -1.4584 -0.0285
 1438SOL    HW215777   1.834   2.241  15.619 -1.2246 -0.1878 -2.5524
 1439SOL     OW15778   0.899   3.595   2.102 -0.2739 -0.2286  0.0303
 1439SOL    HW115779   0.867   3.685   2.104 -3.2510 -1.2505 -1.3710
 1439SOL    HW215780   0.905   3.580   2.008 -0.8765 -1.2681  0.1583
 1440SOL     OW15781   2.788   0.119   3.499  0.3237 -0.7796  0.5484
 1440SOL    HW115782   2.866   0.100   3.447 -2.0633 -4.4834 -1.6911
 1440SOL    HW215783   2.807   0.053   3.565  1.9573 -1.1629 -0.3149
 1441SOL     OW15784   1.768   0.141   1.260  0.3686 -0.4233 -0.1871
 1441SOL    HW115785   1.852   0.180   1.235 -2.2899  5.8090  0.6377
 1441SOL    HW215786   1.757   0.066   1.201 -0.4769  0.2223 -0.8442
 1442SOL     OW15787   4.289   1.610   6.402 -0.2674 -0.0166 -0.1268
 1442SOL    HW115788   4.304   1.524   6.363 -1.7563 -0.2903 -0.0870
 1442SOL    HW215789   4.333   1.612   6.487 -4.0598  0.6801  1.8267
 1443SOL     OW15790   1.068   4.649   3.327  0.3850 -0.3695 -0.0633
 1443SOL    HW115791   1.098   4.694   3.406 -1.6063 -1.4069  1.2936
 1443SOL    HW215792   0.991   4.602   3.359 -0.1973  1.7517  1.6681
 1444SOL     OW15793   4.283   2.871   9.177 -0.3019 -0.0589 -0.1044
 1444SOL    HW115794   4.353   2.829   9.126  0.7278 -0.2448  1.4589
 1444SOL    HW215795   4.308   2.856   9.268 -1.4737 -0.5963  0.1258
 1445SOL     OW15796   0.052   1.924   6.151  0.1880 -0.0335  0.7154
 1445SOL    HW115797   0.120   1.859   6.132  0.6800  0.5262  0.5730
 1445SOL    HW215798   0.106   2.002   6.146  0.4732 -0.1945  1.2904
 1446SOL     OW15799   1.964   4.556   4.310 -0.2511  0.2816 -0.4034
 1446SOL    HW115800   1.921   4.488   4.258 -2.1259  0.3586  1.0336
 1446SOL    HW215801   2.047   4.511   4.323 -1.1236 -0.7789  1.4111
 1447SOL     OW15802   4.410   1.770   3.289  0.0297  0.5872 -0.5233
 1447SOL    HW115803   4.396   1.684   3.249 -3.0683  0.4309  0.9216
 1447SOL    HW215804   4.483   1.804   3.237 -0.0787  1.1439 -0.3073
 1448SOL     OW15805   2.826   4.025   4.364 -0.0054 -0.3121  0.0151
 1448SOL    HW115806   2.735   4.032   4.334 -0.0161 -0.5837 -0.0154
 1448SOL    HW215807   2.847   4.104   4.414 -0.5895 -0.3529  0.3303
 1449SOL     OW15808   2.671   1.585  16.166  0.1934  0.3259  0.6410
 1449SOL    HW115809   2.700   1.656  16.109  2.7537 -0.7239  0.6175
 1449SOL    HW215810   2.610   1.540  16.108  0.5655 -1.3200  1.4861
 1450SOL     OW15811   4.392   3.688   4.156  0.2406 -0.2618  0.2151
 1450SOL    HW115812   4.449   3.764   4.160  1.0077 -0.8463  0.3958
 1450SOL    HW215813   4.335   3.708   4.082 -0.3660 -0.3998  0.6446
 1451SOL     OW15814   2.908   2.597   8.263  0.2046  0.6690 -0.5755
 1451SOL    HW115815   2.827   2.568   8.305  0.8343 -1.0321 -0.5004
 1451SOL    HW215816   2.956   2.514   8.265 -2.1887 -0.6837  0.2293
 1452SOL     OW15817   0.151   2.488   3.820  0.7406  0.1327  0.0409
 1452SOL    HW115818   0.182   2.451   3.737  1.1633  0.5731  0.0038
 1452SOL    HW215819   0.161   2.579   3.794 -0.3603 -0.1638 -1.4007
 1453SOL     OW15820   1.283   4.520   2.668 -0.1655 -0.3390 -0.0373
 1453SOL    HW115821   1.274   4.524   2.573  3.4562  0.4940 -0.3629
 1453SOL    HW215822   1.192   4.516   2.698 -0.7024  2.8753 -1.2387
 1454SOL     OW15823   2.909   4.212   1.707  0.5594  0.1828 -0.0684
 1454SOL    HW115824   2.853   4.280   1.671  0.2371  0.2971  0.6558
 1454SOL    HW215825   2.993   4.233   1.666 -0.4307 -1.6807 -3.0671
 1455SOL     OW15826   0.093   3.452   4.299 -0.3048 -0.0549 -0.1823
 1455SOL    HW115827   0.113   3.390   4.369 -2.0617 -0.8227 -0.3417
 1455SOL    HW215828   0.111   3.541   4.329 -0.4546  0.0415 -0.3753
 1456SOL     OW15829   0.287   0.911   0.403 -0.4105 -0.5438  0.3777
 1456SOL    HW115830   0.318   0.970   0.472  2.7488 -0.6033 -0.9830
 1456SOL    HW215831   0.326   0.830   0.439 -0.6925  0.0182  1.9527
 1457SOL     OW15832   1.816   3.683   2.087 -0.4401  0.0258 -0.5092
 1457SOL    HW115833   1.874   3.647   2.020  2.2993  0.0190  1.8814
 1457SOL    HW215834   1.827   3.618   2.156 -1.0605 -1.1573 -1.5498
 1458SOL     OW15835   0.665   0.533   9.403  0.0870 -0.3654 -0.0244
 1458SOL    HW115836   0.743   0.503   9.449  0.2281  0.9363  0.5828
 1458SOL    HW215837   0.599   0.482   9.450 -0.9594  2.2947  1.4239
 1459SOL     OW15838   1.383   0.390   0.743  0.0687 -0.0728  0.4940
 1459SOL    HW115839   1.352   0.308   0.704  2.2099 -0.3495 -0.6086
 1459SOL    HW215840   1.319   0.454   0.710 -1.6054 -2.6064 -1.1287
 1460SOL     OW15841   2.248   3.976  15.109 -1.0458  0.2150  0.2199
 1460SOL    HW115842   2.202   3.908  15.059 -1.1132 -0.4610  1.1973
 1460SOL    HW215843   2.249   3.928  15.192 -0.1122  1.2414  0.7850
 1461SOL     OW15844   4.154   2.662   1.357 -0.5009 -0.2546  0.1190
 1461SOL    HW115845   4.075   2.619   1.390 -0.0678 -0.9964  0.1877
 1461SOL    HW215846   4.223   2.623   1.410  1.0453 -0.5730 -2.1320
 1462SOL     OW15847   1.317   0.442  13.226 -0.3218  0.2867 -0.0665
 1462SOL    HW115848   1.234   0.427  13.271 -0.1019  3.0447  1.2466
 1462SOL    HW215849   1.285   0.429  13.137 -1.7558 -0.9695  0.6452
 1463SOL     OW15850   0.197   3.885   5.492  0.1673 -0.3001  0.8362
 1463SOL    HW115851   0.182   3.829   5.568 -0.4955 -0.1507  0.8211
 1463SOL    HW215852   0.287   3.863   5.467  1.2033  3.1126  1.5505
 1464SOL     OW15853   3.667   1.841   3.685  0.2377 -0.0515 -0.2032
 1464SOL    HW115854   3.581   1.820   3.649  1.3074 -2.2341 -1.4799
 1464SOL    HW215855   3.636   1.920   3.730  1.4718 -0.0696  0.6825
 1465SOL     OW15856   0.523   2.072   5.493  0.1122  0.1836 -0.3256
 1465SOL    HW115857   0.589   2.006   5.472  0.4770  0.0838  1.1866
 1465SOL    HW215858   0.463   2.013   5.538  0.5762  0.9658  1.3190
 1466SOL     OW15859   1.851   4.719  14.369  0.3620 -0.3510  0.4885
 1466SOL    HW115860   1.886   4.649  14.314  1.6211  1.0644 -0.5049
 1466SOL    HW215861   1.771   0.013  14.320  0.3438  1.0963  1.1358
 1467SOL     OW15862   3.445   3.480   1.950 -0.2837 -0.3969  0.5811
 1467SOL    HW115863   3.432   3.397   1.996  1.5267 -0.2239  1.3854
 1467SOL    HW215864   3.540   3.488   1.942 -0.4183  0.9399  0.4537
 1468SOL     OW15865   4.159   2.365   4.561  0.0058 -0.4823  0.1681
 1468SOL    HW115866   4.082   2.364   4.505  2.3263 -2.3213 -2.9487
 1468SOL    HW215867   4.199   2.445   4.527  3.4658 -2.2464  0.0566
 1469SOL     OW15868   2.756   0.762  13.640 -0.2497  0.5493 -0.4780
 1469SOL    HW115869   2.742   0.669  13.622  0.8508 -0.1491  2.2730
 1469SOL    HW215870   2.792   0.754  13.728  1.2635 -0.7040 -1.2035
 1470SOL     OW15871   3.525   3.586  10.772 -0.7349  0.3188  0.3197
 1470SOL    HW115872   3.541   3.579  10.678 -2.0714  1.3585  0.0185
 1470SOL    HW215873   3.555   3.676  10.789 -0.8542  0.5822 -0.8642
 1471SOL     OW15874   3.765   3.760   2.254  0.2897  0.5351  0.1265
 1471SOL    HW115875   3.778   3.844   2.209 -1.4010  0.3016 -0.7781
 1471SOL    HW215876   3.675   3.738   2.231  0.4989 -0.5302  0.3584
 1472SOL     OW15877   1.858   2.500   7.687  0.3083 -0.4294 -0.1516
 1472SOL    HW115878   1.856   2.571   7.622  0.6166 -0.1764  0.1193
 1472SOL    HW215879   1.913   2.530   7.759  1.4667  1.3221 -1.7605
 1473SOL     OW15880   1.758   4.490   8.513 -0.1916 -0.3732 -0.8313
 1473SOL    HW115881   1.798   4.408   8.540 -1.5979 -0.7160  0.1943
 1473SOL    HW215882   1.772   4.541   8.593 -1.7862  0.1212 -0.8626
 1474SOL     OW15883   1.493   1.815  13.099 -0.3578 -0.1159 -0.7620
 1474SOL    HW115884   1.483   1.896  13.148  3.0824 -0.5309  0.5862
 1474SOL    HW215885   1.588   1.799  13.096 -0.0836  1.0612  1.7134
 1475SOL     OW15886   2.410   4.473  16.847  0.4655 -0.2081 -0.3230
 1475SOL    HW115887   2.386   4.381  16.862  2.0316 -0.7929 -1.4070
 1475SOL    HW215888   2.320   4.500  16.830  0.5615  1.2004  1.4932
 1476SOL     OW15889   3.490   1.213   8.466  0.6708 -0.2357 -0.3653
 1476SOL    HW115890   3.552   1.240   8.398  0.6871  1.6942  0.4264
 1476SOL    HW215891   3.551   1.182   8.533 -0.3487 -0.2823  0.5432
 1477SOL     OW15892   1.043   3.328  14.935 -0.3293  0.2321 -0.0123
 1477SOL    HW115893   1.024   3.411  14.890 -1.7114 -0.4568 -0.7052
 1477SOL    HW215894   1.048   3.279  14.853  2.9993  2.2708 -1.0250
 1478SOL     OW15895   0.721   0.140   7.328  0.3954  0.2077  0.5094
 1478SOL    HW115896   0.673   0.062   7.299  1.8703 -0.5690  0.1238
 1478SOL    HW215897   0.648   0.198   7.345  0.9123  0.8153  0.6472
 1479SOL     OW15898   4.041   3.376   0.021 -0.3232 -0.2989  0.1129
 1479SOL    HW115899   4.035   3.462   0.060  0.7314 -0.9449  1.6711
 1479SOL    HW215900   3.965   3.366  17.671 -3.1398 -0.2794  3.8348
 1480SOL     OW15901   1.249   3.321  16.069 -0.3926  0.5087  0.2990
 1480SOL    HW115902   1.288   3.398  16.110 -0.6311  1.0789 -0.5443
 1480SOL    HW215903   1.163   3.352  16.042 -1.0038 -2.2819 -1.0175
 1481SOL     OW15904   4.189   3.835   3.671  0.3057 -0.1585  0.4576
 1481SOL    HW115905   4.130   3.872   3.605 -0.4636  0.3556  1.4270
 1481SOL    HW215906   4.263   3.821   3.613 -0.2486 -0.0530 -0.2721
 1482SOL     OW15907   3.147   1.980   7.398 -0.1659  0.0524  0.2823
 1482SOL    HW115908   3.054   1.958   7.393  0.5932 -2.8697 -0.8688
 1482SOL    HW215909   3.154   2.070   7.365  2.2476  0.1138  0.9306
 1483SOL     OW15910   3.746   1.814  11.338  0.0641 -0.2252 -0.0477
 1483SOL    HW115911   3.828   1.855  11.364 -0.2945  1.6024 -1.8475
 1483SOL    HW215912   3.783   1.742  11.287 -2.6953 -2.4280  1.0359
 1484SOL     OW15913   2.237   2.409   3.426 -0.0646  0.0244 -0.0415
 1484SOL    HW115914   2.326   2.385   3.453  0.1615  0.0571 -0.7581
 1484SOL    HW215915   2.177   2.354   3.477  0.2494 -0.3279 -0.0558
 1485SOL     OW15916   0.669   3.281   8.318  0.4218 -0.2337 -0.1583
 1485SOL    HW115917   0.747   3.318   8.277  0.6492 -0.7336 -0.1788
 1485SOL    HW215918   0.697   3.274   8.409  1.0747  0.5365 -0.2989
 1486SOL     OW15919   2.953   4.036   7.581  0.5580 -0.0565 -0.0113
 1486SOL    HW115920   2.904   4.053   7.501  0.6201  2.5618  0.5135
 1486SOL    HW215921   2.992   4.122   7.598 -4.8568  2.3875 -0.1903
 1487SOL     OW15922   2.701   2.493   3.550  0.0553  0.2858 -0.4999
 1487SOL    HW115923   2.730   2.457   3.467  1.1404 -2.3638  1.0323
 1487SOL    HW215924   2.764   2.563   3.567  1.8330 -0.8383 -2.5502
 1488SOL     OW15925   4.645   3.041   6.141  0.2097  0.1133  0.0854
 1488SOL    HW115926   4.567   3.088   6.169 -0.5899 -1.1174 -0.1347
 1488SOL    HW215927   4.598   2.969   6.099 -0.3018  0.3386  0.2754
 1489SOL     OW15928   0.028   3.840   6.299  0.3018 -0.3078  0.5532
 1489SOL    HW115929   0.023   3.784   6.222  0.0532 -0.2604  0.5339
 1489SOL    HW215930   4.665   3.830   6.330 -0.7680 -1.3597 -2.9007
 1490SOL     OW15931   0.912   4.178   4.324  0.0988 -0.0926  0.1004
 1490SOL    HW115932   0.900   4.093   4.366  1.1963 -0.9318 -1.2792
 1490SOL    HW215933   0.826   4.206   4.293 -0.9013 -1.6850  1.4267
 1491SOL     OW15934   3.302   4.600   5.999  0.1178  0.1848  0.1819
 1491SOL    HW115935   3.382   4.588   6.050 -0.2783 -0.0697  0.7418
 1491SOL    HW215936   3.289   4.694   6.007  2.4595  0.6675 -1.4557
 1492SOL     OW15937   0.950   3.071   3.044 -0.3909 -0.1992  0.1128
 1492SOL    HW115938   0.927   3.022   2.965  2.1802 -3.3457  1.2871
 1492SOL    HW215939   1.034   3.111   3.025 -0.5636  1.7614  3.3371
 1493SOL     OW15940   0.773   3.421   5.882  0.2808  0.0389 -0.5956
 1493SOL    HW115941   0.820   3.346   5.919 -0.1945 -0.1345 -0.3495
 1493SOL    HW215942   0.751   3.469   5.962  2.3014 -2.6978  1.6136
 1494SOL     OW15943   2.768   4.253   7.615  0.0975  0.5667 -1.0041
 1494SOL    HW115944   2.759   4.214   7.528  0.9396 -0.7832 -0.4899
 1494SOL    HW215945   2.708   4.322   7.586 -0.3982  0.3768 -0.4062
 1495SOL     OW15946   2.769   3.074  11.108 -0.2085 -0.0139  0.0474
 1495SOL    HW115947   2.793   3.064  11.016 -1.6335 -1.3890 -0.1800
 1495SOL    HW215948   2.794   2.993  11.151 -0.5903  0.8791  1.9358
 1496SOL     OW15949   3.837   3.194   0.594 -0.6055 -0.5497 -0.5005
 1496SOL    HW115950   3.878   3.177   0.509 -2.3904  1.8676 -1.8425
 1496SOL    HW215951   3.916   3.197   0.647  0.0838  2.5242 -1.7052
 1497SOL     OW15952   1.850   4.332  10.850  0.2247  0.1779  0.3332
 1497SOL    HW115953   1.920   4.313  10.912 -0.4343 -0.9381  0.7335
 1497SOL    HW215954   1.789   4.380  10.905  0.7203  0.6878  0.4391
 1498SOL     OW15955   3.996   3.768   3.902  0.0797 -0.0779  0.7057
 1498SOL    HW115956   3.967   3.846   3.854 -0.0914 -0.2217  0.5719
 1498SOL    HW215957   3.918   3.716   3.880  0.5300 -0.2637 -0.4457
 1499SOL     OW15958   0.706   3.605   8.282  0.2037 -0.0362  0.3005
 1499SOL    HW115959   0.673   3.553   8.356 -1.4046  1.7991  0.8810
 1499SOL    HW215960   0.769   3.552   8.234  1.2515  0.9439  0.6102
 1500SOL     OW15961   2.769   4.141   2.957 -0.0892 -0.4541 -0.1830
 1500SOL    HW115962   2.823   4.148   3.035  0.2181  1.6586 -0.5929
 1500SOL    HW215963   2.776   4.226   2.912 -0.5864 -0.2926  0.0429
 1501SOL     OW15964   3.605   1.635   8.528  0.7092 -0.3543  0.2530
 1501SOL    HW115965   3.592   1.580   8.605 -2.5921  0.3525  0.1894
 1501SOL    HW215966   3.670   1.582   8.482  1.2881 -0.5184  1.2532
 1502SOL     OW15967   0.941   1.870   4.966 -0.1654  0.0047  0.0081
 1502SOL    HW115968   0.969   1.813   5.038 -0.8772 -2.2966 -1.5173
 1502SOL    HW215969   0.956   1.826   4.882 -2.3149 -1.7870  0.5476
 1503SOL     OW15970   3.873   4.623   3.516 -0.0428  0.2072  0.0993
 1503SOL    HW115971   3.817   4.654   3.587 -1.6353 -1.2478 -0.5391
 1503SOL    HW215972   3.958   4.664   3.535  0.1053 -0.2897  0.5138
 1504SOL     OW15973   1.261   0.627  16.044  0.2374 -0.3776  0.1557
 1504SOL    HW115974   1.188   0.566  16.053 -1.0356  0.9347 -1.2493
 1504SOL    HW215975   1.220   0.713  16.048  0.7630 -0.1511  0.7334
 1505SOL     OW15976   0.643   1.331   0.468 -0.0698  0.2559  0.2843
 1505SOL    HW115977   0.565   1.320   0.414 -0.6908  0.8378  1.0542
 1505SOL    HW215978   0.620   1.417   0.502 -2.8765 -0.7156  0.8487
 1506SOL     OW15979   3.885   0.818   3.671 -0.4800  0.1473 -0.4764
 1506SOL    HW115980   3.966   0.868   3.672  0.1216 -0.7653 -3.5645
 1506SOL    HW215981   3.915   0.746   3.615  1.2479 -0.7372  1.5403
 1507SOL     OW15982   1.589   3.803  15.571  0.5792  0.6990 -0.2923
 1507SOL    HW115983   1.675   3.841  15.591  0.2554  1.4901 -0.3696
 1507SOL    HW215984   1.601   3.714  15.603 -1.9168  0.9887  1.4867
 1508SOL     OW15985   2.817   1.503   8.843  0.1531  0.0126 -0.0943
 1508SOL    HW115986   2.884   1.439   8.815 -0.2890 -1.0593  1.3350
 1508SOL    HW215987   2.845   1.520   8.933 -0.0428  2.5563 -0.5073
 1509SOL     OW15988   4.523   3.734   6.635 -0.1523  0.2494 -0.1143
 1509SOL    HW115989   4.520   3.639   6.638 -0.9380  0.2786 -0.0760
 1509SOL    HW215990   4.616   3.756   6.644 -0.0036  0.5622 -2.4459
 1510SOL     OW15991   3.662   0.574   4.434 -0.0322 -0.2937 -0.5345
 1510SOL    HW115992   3.721   0.522   4.380  2.2749  0.6694  1.1029
 1510SOL    HW215993   3.621   0.503   4.483  0.5839  0.3608  0.9180
 1511SOL     OW15994   2.512   4.516   8.875 -0.2161  0.3243  0.7648
 1511SOL    HW115995   2.550   4.436   8.838  1.8977  1.8636 -0.3300
 1511SOL    HW215996   2.559   4.518   8.958 -0.7533  1.6639  1.0331
 1512SOL     OW15997   0.219   0.945   8.917 -0.5859  0.1046 -0.2149
 1512SOL    HW115998   0.235   1.022   8.863 -3.0196  3.1657  3.4271
 1512SOL    HW215999   0.125   0.934   8.910 -0.5574 -1.3733  1.4475
 1513SOL     OW16000   4.446   2.306   1.657 -0.1351 -0.0042 -0.4610
 1513SOL    HW116001   4.387   2.265   1.720  1.9839 -1.7778  0.3711
 1513SOL    HW216002   4.504   2.233   1.635  0.0102 -0.3673  1.1331
 1514SOL     OW16003   2.797   4.390   8.513 -0.1845 -0.0027 -0.4584
 1514SOL    HW116004   2.719   4.340   8.490 -0.4583 -0.6638  1.9625
 1514SOL    HW216005   2.756   4.476   8.528 -1.4839 -0.4359 -1.5451
 1515SOL     OW16006   1.407   3.099   0.502  0.1346 -0.0765 -0.1198
 1515SOL    HW116007   1.482   3.151   0.529 -0.7601  0.7424  0.7980
 1515SOL    HW216008   1.455   3.038   0.446  0.4959  0.6649 -0.6042
 1516SOL     OW16009   0.609   2.169  10.631 -0.0377 -0.0500 -0.1445
 1516SOL    HW116010   0.669   2.226  10.678 -1.4618  2.5171 -1.4102
 1516SOL    HW216011   0.658   2.147  10.551  0.5474  1.1955 -0.1297
 1517SOL     OW16012   3.607   4.182   3.260  0.5764  0.0433  0.1598
 1517SOL    HW116013   3.561   4.220   3.334 -2.1278  2.4473 -2.7225
 1517SOL    HW216014   3.546   4.122   3.217 -1.5730  1.2441  1.5657
 1518SOL     OW16015   3.614   0.699  16.633 -0.0944 -0.2705 -0.0489
 1518SOL    HW116016   3.635   0.720  16.724  2.1445  0.5986 -0.7802
 1518SOL    HW216017   3.527   0.739  16.623  1.2561  1.8227 -3.3513
 1519SOL     OW16018   0.200   0.561  17.111 -0.4587 -0.5713  0.1317
 1519SOL    HW116019   0.214   0.654  17.127  2.3770 -0.5544 -2.4624
 1519SOL    HW216020   0.179   0.561  17.017  1.6874  1.9589 -0.3511
 1520SOL     OW16021   1.232   1.795   1.224  0.3225 -0.5945 -0.1819
 1520SOL    HW116022   1.166   1.734   1.257 -0.7380  1.1003  0.8632
 1520SOL    HW216023   1.227   1.849   1.303  0.0764  0.8213 -1.1803
 1521SOL     OW16024   3.995   3.623   8.120 -0.0240  0.1325 -0.6697
 1521SOL    HW116025   3.940   3.621   8.041  0.7288 -2.9406 -1.1286
 1521SOL    HW216026   3.924   3.627   8.184  1.4007 -0.9086  0.9535
 1522SOL     OW16027   0.210   4.407   4.433 -0.0934 -0.8062  0.3428
 1522SOL    HW116028   0.141   4.342   4.419 -1.4145  1.2564 -2.6902
 1522SOL    HW216029   0.283   4.351   4.458  0.5096 -0.8522 -1.5462
 1523SOL     OW16030   3.219   2.964   6.227  0.2161  0.1375  0.6510
 1523SOL    HW116031   3.246   3.055   6.241  0.0735  0.6990 -2.9242
 1523SOL    HW216032   3.172   2.968   6.144  0.7132 -1.1337  0.2993
 1524SOL     OW16033   4.015   1.752   2.960 -0.3574  0.3977 -0.0632
 1524SOL    HW116034   4.066   1.771   2.881  0.6674 -0.0627  0.4944
 1524SOL    HW216035   3.995   1.658   2.960 -1.1096  0.5640  3.6799
 1525SOL     OW16036   1.237   3.295  10.667 -0.0603  0.2176 -0.0243
 1525SOL    HW116037   1.297   3.289  10.593 -0.7369 -2.4484 -0.3781
 1525SOL    HW216038   1.173   3.228  10.642  0.9862 -1.6714  2.3643
 1526SOL     OW16039   2.291   3.942  16.588  0.4433 -0.1522  0.4524
 1526SOL    HW116040   2.381   3.938  16.621 -0.1073 -1.0562  1.8521
 1526SOL    HW216041   2.292   4.019  16.532  0.5179  1.1790  2.2547
 1527SOL     OW16042   4.385   0.357  16.242 -0.5793 -0.0714  0.3067
 1527SOL    HW116043   4.478   0.372  16.224  0.2972 -2.7182  2.5535
 1527SOL    HW216044   4.365   0.402  16.325 -3.2165 -2.2783  0.8727
 1528SOL     OW16045   1.829   3.533   1.372 -0.6178 -0.7011 -0.0383
 1528SOL    HW116046   1.780   3.464   1.417 -0.1170 -1.4060 -0.5812
 1528SOL    HW216047   1.870   3.483   1.301 -1.1728  1.5312 -1.9367
 1529SOL     OW16048   2.530   0.722   4.815 -0.4025  0.2470  0.1011
 1529SOL    HW116049   2.571   0.695   4.733 -0.7005  1.0263 -0.3021
 1529SOL    HW216050   2.527   0.816   4.801 -1.0060  0.3257  0.7274
 1530SOL     OW16051   1.788   2.247   7.424 -0.0716  0.7160 -0.2595
 1530SOL    HW116052   1.739   2.308   7.479 -0.8244  0.0611 -0.2085
 1530SOL    HW216053   1.746   2.264   7.339 -1.0905  0.6284  0.2215
 1531SOL     OW16054   1.486   4.388  10.941 -0.4177  0.3435 -0.2452
 1531SOL    HW116055   1.544   4.323  10.982 -0.6769 -0.5250 -1.2677
 1531SOL    HW216056   1.489   4.368  10.848  0.9782 -0.0320 -0.1150
 1532SOL     OW16057   1.962   0.788   4.332  0.0833  0.4968 -0.4692
 1532SOL    HW116058   1.979   0.837   4.251  1.4864 -3.2706 -2.4644
 1532SOL    HW216059   1.917   0.856   4.381 -1.2911 -0.0789 -0.9270
 1533SOL     OW16060   2.931   4.297  14.439 -0.2157  0.5437  0.0556
 1533SOL    HW116061   2.944   4.298  14.533 -0.9247  2.5212  0.1224
 1533SOL    HW216062   2.929   4.391  14.425 -2.0922  0.6548  1.1277
 1534SOL     OW16063   2.023   3.575   6.771  0.0704 -0.4897  0.0740
 1534SOL    HW116064   2.002   3.631   6.846 -0.0751 -0.3380 -0.0816
 1534SOL    HW216065   2.117   3.562   6.782  0.2083 -0.0770 -0.6025
 1535SOL     OW16066   1.677   1.312  13.354  0.0391  0.5023  0.2015
 1535SOL    HW116067   1.736   1.346  13.287  2.5530 -1.6464  1.3261
 1535SOL    HW216068   1.592   1.317  13.310  0.3427 -0.5979 -0.5158
 1536SOL     OW16069   4.414   2.863   2.642 -0.3877  0.5636 -0.3232
 1536SOL    HW116070   4.416   2.953   2.674 -0.9137  0.0386  1.1793
 1536SOL    HW216071   4.321   2.867   2.620 -0.7173  1.7134  1.2914
 1537SOL     OW16072   0.369   3.600  13.137 -0.5084  0.4297 -0.8043
 1537SOL    HW116073   0.361   3.610  13.042 -0.9564 -0.2487 -0.8414
 1537SOL    HW216074   0.322   3.518  13.152  0.0895  0.4303  0.9785
 1538SOL     OW16075   1.737   4.408   4.918  0.7132 -0.2653  0.1694
 1538SOL    HW116076   1.778   4.321   4.917  1.4778  0.0922 -0.0976
 1538SOL    HW216077   1.666   4.401   4.982  1.7397  0.2610  1.3660
 1539SOL     OW16078   2.360   1.959   6.597  0.1856 -0.2409  0.0309
 1539SOL    HW116079   2.319   1.914   6.671 -1.7735  2.4251  0.5728
 1539SOL    HW216080   2.448   1.922   6.603  0.9832  1.5886 -0.4538
 1540SOL     OW16081   2.576   0.143   5.848  0.1125  0.5829  0.4034
 1540SOL    HW116082   2.501   0.100   5.887  0.9466 -0.7292  0.5710
 1540SOL    HW216083   2.546   0.233   5.835 -1.0039  0.1937  0.3317
 1541SOL     OW16084   0.269   0.119   4.803 -0.3272  0.5817 -0.1629
 1541SOL    HW116085   0.218   0.040   4.818  0.8872  0.4207  3.2135
 1541SOL    HW216086   0.228   0.177   4.867  1.0572 -2.4072  3.4428
 1542SOL     OW16087   4.713   3.481  11.433  0.1896  0.1388 -0.3017
 1542SOL    HW116088   4.643   3.422  11.405 -0.3807 -0.0492  1.4820
 1542SOL    HW216089   0.015   3.516  11.349 -0.3636 -0.6630 -0.8219
 1543SOL     OW16090   0.778   4.578   8.343 -0.0186  0.1244 -0.2341
 1543SOL    HW116091   0.833   4.521   8.289 -1.1266  1.2931 -2.5876
 1543SOL    HW216092   0.773   4.650   8.280 -0.4315  0.1457 -0.1772
 1544SOL     OW16093   0.522   3.420   4.273 -0.6253 -0.0240 -0.0987
 1544SOL    HW116094   0.577   3.364   4.328 -0.0164  0.6947  0.0157
 1544SOL    HW216095   0.509   3.491   4.337 -0.1498  1.3801 -1.5710
 1545SOL     OW16096   1.949   1.463  16.949 -0.3183  0.2005 -0.2864
 1545SOL    HW116097   1.983   1.515  17.022 -0.9932  0.0259  0.1485
 1545SOL    HW216098   1.877   1.514  16.914  1.0383 -0.1033 -3.5175
 1546SOL     OW16099   2.231   1.699   2.441 -0.4218 -0.4200  0.3862
 1546SOL    HW116100   2.300   1.764   2.453  1.3846 -2.3378  0.5304
 1546SOL    HW216101   2.152   1.746   2.468  0.6534  1.0031  1.0576
 1547SOL     OW16102   2.261   3.225   9.751 -0.3348 -0.3945 -0.1992
 1547SOL    HW116103   2.310   3.154   9.791 -1.1129 -0.2188  1.1050
 1547SOL    HW216104   2.307   3.230   9.668 -0.0379 -1.7182 -0.1149
 1548SOL     OW16105   2.063   1.670   0.534 -0.3211 -0.0669  0.1619
 1548SOL    HW116106   2.122   1.616   0.587 -0.7239 -0.4131  0.2597
 1548SOL    HW216107   1.984   1.615   0.528 -0.2117 -0.3699  1.4093
 1549SOL     OW16108   0.058   3.822   3.654  0.3406  0.0318 -0.0552
 1549SOL    HW116109   0.077   3.771   3.733  4.1241  0.4047 -0.7089
 1549SOL    HW216110   0.013   3.761   3.596 -2.7690  1.0023  1.3490
 1550SOL     OW16111   3.209   1.877   7.804  0.0789  0.5211 -0.0206
 1550SOL    HW116112   3.249   1.866   7.891  1.8393  0.6669 -0.8092
 1550SOL    HW216113   3.282   1.894   7.744 -1.0896  1.0721 -1.2685
 1551SOL     OW16114   0.062   3.844   7.944  0.6899  0.4925  0.4785
 1551SOL    HW116115   0.099   3.775   7.888 -1.4653 -0.1521 -0.1335
 1551SOL    HW216116   0.119   3.916   7.917 -0.7204  1.1174 -0.8537
 1552SOL     OW16117   1.290   2.074  13.245  0.2917  0.6128  0.2058
 1552SOL    HW116118   1.227   2.022  13.294  0.8602 -0.6787 -0.4236
 1552SOL    HW216119   1.230   2.145  13.223  0.3688 -0.2223 -2.6889
 1553SOL     OW16120   4.140   4.086   3.194  0.5849 -0.6951  0.2165
 1553SOL    HW116121   4.108   4.027   3.126  0.7220  0.4562 -0.8494
 1553SOL    HW216122   4.136   4.173   3.153 -2.6239 -1.2136 -0.5031
 1554SOL     OW16123   0.716   0.229   5.197  0.0673 -0.3096 -0.1234
 1554SOL    HW116124   0.623   0.207   5.191  0.0118  0.2940 -1.5818
 1554SOL    HW216125   0.720   0.281   5.277  1.5959  2.1460 -1.8061
 1555SOL     OW16126   4.721   2.331   1.801 -0.3069 -0.2730 -0.8087
 1555SOL    HW116127   4.671   2.257   1.766 -2.0473 -0.1183  1.3226
 1555SOL    HW216128   0.057   2.346   1.730 -0.2644  0.8911 -0.5271
 1556SOL     OW16129   0.848   2.329   2.531  0.2636  0.4708 -0.2327
 1556SOL    HW116130   0.898   2.248   2.538 -1.8713 -0.8183 -0.0298
 1556SOL    HW216131   0.761   2.296   2.553  1.4321 -0.7145  2.6602
 1557SOL     OW16132   1.197   0.032   2.867 -0.0482 -0.0758  0.4626
 1557SOL    HW116133   1.101   0.028   2.862  0.1975 -3.4196 -1.1567
 1557SOL    HW216134   1.209   0.112   2.919 -0.2403  1.2884 -1.5962
 1558SOL     OW16135   3.818   0.574  10.051  0.4961  0.0252  0.1057
 1558SOL    HW116136   3.758   0.506  10.022  0.3704  0.2816 -0.2299
 1558SOL    HW216137   3.842   0.547  10.140  0.2010  1.1907  0.5440
 1559SOL     OW16138   1.259   3.034  17.184 -0.5147  0.1774 -0.0567
 1559SOL    HW116139   1.346   3.055  17.218 -1.1044 -0.0142  1.5778
 1559SOL    HW216140   1.192   3.088  17.226 -0.9730 -1.0934  0.8781
 1560SOL     OW16141   2.338   1.231   5.499  0.2461  0.0672 -0.7462
 1560SOL    HW116142   2.315   1.321   5.523 -1.2360 -0.1807 -1.2165
 1560SOL    HW216143   2.264   1.208   5.442  0.2148 -1.2293 -0.1707
 1561SOL     OW16144   2.116   3.001   4.959  0.4628  0.6596  0.1828
 1561SOL    HW116145   2.037   3.020   5.009  0.1352  0.6282 -0.3277
 1561SOL    HW216146   2.077   2.955   4.885  1.8795 -0.0905 -0.0972
 1562SOL     OW16147   2.507   4.096   6.323 -0.5620 -0.7581  0.1767
 1562SOL    HW116148   2.525   4.172   6.267 -1.3819 -0.6556  0.0525
 1562SOL    HW216149   2.413   4.080   6.332 -0.9899  2.0382  0.7271
 1563SOL     OW16150   0.251   3.893   3.171 -0.4790 -0.2684  0.2225
 1563SOL    HW116151   0.240   3.933   3.085 -1.4413 -0.0058  0.4617
 1563SOL    HW216152   0.165   3.913   3.210  0.1277  0.1371  1.3694
 1564SOL     OW16153   4.554   4.664   9.313 -0.2894  0.6988  0.3170
 1564SOL    HW116154   4.483   4.657   9.249 -1.1232  3.6082  0.9552
 1564SOL    HW216155   4.539   0.029   9.335  1.8659  0.8429  1.1631
 1565SOL     OW16156   1.187   2.928  13.721  0.3781 -0.1885  0.6145
 1565SOL    HW116157   1.117   2.991  13.738  0.2035  0.0728 -1.0644
 1565SOL    HW216158   1.198   2.889  13.808  0.2451  0.0760  0.7502
 1566SOL     OW16159   0.836   3.048   5.754 -0.1684  0.2088 -0.2134
 1566SOL    HW116160   0.885   3.100   5.817 -0.0633 -0.2302  0.0683
 1566SOL    HW216161   0.852   2.967   5.803 -0.6132  0.4220  0.2867
 1567SOL     OW16162   1.148   3.818   5.208  0.0123 -0.2263 -0.8591
 1567SOL    HW116163   1.061   3.841   5.241  0.7604 -1.5382  2.0479
 1567SOL    HW216164   1.162   3.736   5.255 -0.4996  0.2711  0.1520
 1568SOL     OW16165   2.200   1.733   8.202  0.3019  0.0450  0.0450
 1568SOL    HW116166   2.214   1.776   8.286  0.3792 -0.2129  0.1642
 1568SOL    HW216167   2.161   1.806   8.154  0.5432 -0.6304 -1.1800
 1569SOL     OW16168   3.710   3.356   8.117 -0.0742 -0.3325  0.0325
 1569SOL    HW116169   3.625   3.400   8.116 -0.2487 -0.7337 -2.4858
 1569SOL    HW216170   3.755   3.416   8.175  2.2042 -3.3468  1.3826
 1570SOL     OW16171   4.058   2.580  15.974 -0.2600  0.2649  0.0600
 1570SOL    HW116172   3.969   2.582  16.010 -1.6125  0.0539 -3.3130
 1570SOL    HW216173   4.067   2.488  15.952  0.0021 -0.2434  2.3084
 1571SOL     OW16174   1.192   2.108   2.615 -0.1808 -0.2177  0.2210
 1571SOL    HW116175   1.104   2.079   2.594  0.1175  0.7234 -2.4023
 1571SOL    HW216176   1.241   2.076   2.539 -0.7630  1.2905 -0.7826
 1572SOL     OW16177   0.636   2.521   4.458  0.1611 -0.1013  0.3901
 1572SOL    HW116178   0.667   2.431   4.450 -0.1266  0.1098 -2.8230
 1572SOL    HW216179   0.594   2.513   4.544 -0.5948  2.1173  0.2228
 1573SOL     OW16180   1.050   0.169   5.535  0.4375  0.1515 -0.0831
 1573SOL    HW116181   0.997   0.171   5.455  1.1522  3.1356 -0.4974
 1573SOL    HW216182   1.017   0.242   5.587  2.0238  0.5745  0.3445
 1574SOL     OW16183   0.399   3.081   6.606 -0.3213 -0.0597 -0.2039
 1574SOL    HW116184   0.380   3.137   6.531 -0.0198 -1.1864 -1.1193
 1574SOL    HW216185   0.339   3.112   6.674  3.1883  0.1753  2.7805
 1575SOL     OW16186   4.162   3.157   4.274  0.0866 -0.5472  0.4946
 1575SOL    HW116187   4.213   3.209   4.211 -2.1369  0.8775 -0.1299
 1575SOL    HW216188   4.087   3.216   4.284  0.9845  0.5286  0.8615
 1576SOL     OW16189   0.605   4.210  14.747  0.0079  0.5449  0.4546
 1576SOL    HW116190   0.608   4.208  14.842 -1.0750  0.7772  0.4938
 1576SOL    HW216191   0.697   4.189  14.734 -0.0302  1.2395 -1.0117
 1577SOL     OW16192   1.196   1.662   2.642 -0.1441  0.1670 -0.0786
 1577SOL    HW116193   1.230   1.741   2.684  1.7903 -0.8653  0.2774
 1577SOL    HW216194   1.269   1.649   2.582 -0.9429  0.7412 -1.2070
 1578SOL     OW16195   3.141   3.696  13.719 -0.5362  0.7053 -0.3853
 1578SOL    HW116196   3.131   3.701  13.814 -2.5036 -0.9668 -0.5297
 1578SOL    HW216197   3.234   3.720  13.710 -0.2206 -0.7097 -1.0038
 1579SOL     OW16198   1.847   2.263  13.869 -0.3577 -0.0097 -0.3639
 1579SOL    HW116199   1.930   2.232  13.833 -0.5509 -0.1582 -0.6895
 1579SOL    HW216200   1.831   2.207  13.945 -1.5982  0.1765 -0.4897
 1580SOL     OW16201   1.217   0.364   2.811 -0.0750 -0.0089 -0.2940
 1580SOL    HW116202   1.284   0.297   2.800 -1.2215 -0.8839 -2.1233
 1580SOL    HW216203   1.229   0.411   2.728 -0.3228  0.3904 -0.1035
 1581SOL     OW16204   2.102   3.454  11.995 -0.4411  0.1911  0.0218
 1581SOL    HW116205   2.182   3.503  12.014 -0.5872 -0.0834  1.3001
 1581SOL    HW216206   2.135   3.372  11.958 -1.0787 -0.1692  0.2545
 1582SOL     OW16207   2.981   1.221  13.282 -0.1166 -0.6111 -0.3167
 1582SOL    HW116208   3.058   1.227  13.226  0.7082 -0.6164  0.8212
 1582SOL    HW216209   3.008   1.262  13.364  1.5139 -2.4774  0.0515
 1583SOL     OW16210   3.232   0.127   6.060 -0.3362  0.3239 -0.3085
 1583SOL    HW116211   3.229   0.211   6.014 -2.8142  0.9053  0.8979
 1583SOL    HW216212   3.319   0.136   6.097 -1.6246  0.8155  2.5866
 1584SOL     OW16213   3.699   1.579   5.807  0.3940  0.0934  0.1438
 1584SOL    HW116214   3.751   1.656   5.828  1.4122 -0.3029 -0.9739
 1584SOL    HW216215   3.623   1.593   5.865  0.5034 -0.0447  0.3198
 1585SOL     OW16216   1.756   4.336   0.405 -0.4140  0.0853 -0.2703
 1585SOL    HW116217   1.675   4.352   0.355 -0.2927  0.2566 -0.4108
 1585SOL    HW216218   1.761   4.241   0.405  1.8883  0.2198 -3.1194
 1586SOL     OW16219   2.944   2.588   0.352 -0.5768  0.4540  0.2743
 1586SOL    HW116220   3.032   2.625   0.355 -1.3285  2.3588 -1.1853
 1586SOL    HW216221   2.961   2.503   0.392  1.6789  0.7224 -0.0928
 1587SOL     OW16222   4.459   2.036  11.836  0.3229  0.9475 -0.3696
 1587SOL    HW116223   4.493   2.113  11.883  0.5364  0.8694 -0.3958
 1587SOL    HW216224   4.453   1.972  11.907 -2.0191  1.5748  0.0212
 1588SOL     OW16225   0.630   0.269  10.191 -0.0496  0.3929 -0.7451
 1588SOL    HW116226   0.656   0.214  10.118 -3.0068  0.3061 -1.7646
 1588SOL    HW216227   0.548   0.230  10.223  0.7365  0.8909  1.8947
 1589SOL     OW16228   1.225   3.092   8.591 -0.8934  0.6679  0.4567
 1589SOL    HW116229   1.155   3.105   8.528  0.9671  2.6346 -1.1946
 1589SOL    HW216230   1.218   2.999   8.613 -1.1246  0.8286  1.0813
 1590SOL     OW16231   4.339   1.584   7.345 -0.3522  0.4857  0.5968
 1590SOL    HW116232   4.273   1.609   7.280 -1.7913 -0.5518  1.6674
 1590SOL    HW216233   4.290   1.518   7.394 -1.2551  0.0295 -0.9144
 1591SOL     OW16234   0.563   0.439   8.534 -0.1161  0.0263  0.0650
 1591SOL    HW116235   0.494   0.481   8.585  0.1939 -2.7721  2.7942
 1591SOL    HW216236   0.627   0.424   8.604 -2.1986 -0.3177  1.9112
 1592SOL     OW16237   2.515   0.966   3.512 -0.6383  0.2909  0.1167
 1592SOL    HW116238   2.429   0.951   3.551 -0.2381  1.8654  1.5816
 1592SOL    HW216239   2.502   0.978   3.418  0.4334  1.3140  0.1013
 1593SOL     OW16240   2.373   4.187  16.753 -0.0734 -0.1367 -0.3721
 1593SOL    HW116241   2.318   4.172  16.829 -2.2015  0.1645 -1.8735
 1593SOL    HW216242   2.310   4.230  16.695 -3.1809 -0.9109  2.4453
 1594SOL     OW16243   2.374   4.322  10.579  0.2521 -0.2311  0.7217
 1594SOL    HW116244   2.325   4.258  10.527  1.9457 -0.2998 -0.8080
 1594SOL    HW216245   2.448   4.336  10.519 -0.3920 -1.6038 -0.3970
 1595SOL     OW16246   3.103   0.675  11.132 -0.7666  0.4431 -0.9632
 1595SOL    HW116247   3.022   0.714  11.166  0.5594  1.3052  1.2523
 1595SOL    HW216248   3.158   0.699  11.207 -0.5675 -1.8977 -0.3428
 1596SOL     OW16249   2.535   2.773   6.993 -0.2490 -0.0471 -0.0008
 1596SOL    HW116250   2.554   2.764   6.899 -0.5635 -1.2969  0.0641
 1596SOL    HW216251   2.478   2.850   6.998 -0.4197 -0.2334  0.8414
 1597SOL     OW16252   0.706   4.491   2.082  0.4442  0.3423 -0.4638
 1597SOL    HW116253   0.646   4.523   2.014 -1.0182 -0.8270  0.2865
 1597SOL    HW216254   0.670   4.405   2.101  0.8006  0.1965 -0.4549
 1598SOL     OW16255   0.315   1.059   3.262  0.6210  0.3383  0.2642
 1598SOL    HW116256   0.290   1.020   3.179 -0.3709 -0.3147  0.8732
 1598SOL    HW216257   0.368   1.137   3.243 -0.9856  1.9116  2.2040
 1599SOL     OW16258   3.784   0.007   7.402  0.2206 -0.2525  0.1430
 1599SOL    HW116259   3.731   0.083   7.424 -3.9536 -3.3092  0.7226
 1599SOL    HW216260   3.832   0.004   7.485  2.8147  1.0417 -1.3234
 1600SOL     OW16261   1.369   0.482   7.875 -0.2466 -0.1500  0.3961
 1600SOL    HW116262   1.315   0.561   7.872  1.8887  1.2803 -1.1841
 1600SOL    HW216263   1.328   0.416   7.819 -0.5464 -0.4103  0.9251
 1601SOL     OW16264   0.648   0.174  11.734  0.2110 -0.2257 -1.3766
 1601SOL    HW116265   0.562   0.214  11.745  1.5108  2.5417 -1.3305
 1601SOL    HW216266   0.625   0.085  11.763  1.0276  0.5692  1.6863
 1602SOL     OW16267   0.552   3.598  16.927 -0.5146 -0.1513 -0.1041
 1602SOL    HW116268   0.559   3.616  17.021 -1.8695 -1.2878  0.2291
 1602SOL    HW216269   0.481   3.534  16.922 -0.7417  0.0377  0.6774
 1603SOL     OW16270   2.199   0.979   6.883  0.2733  0.4616  0.2783
 1603SOL    HW116271   2.251   1.039   6.830  0.2953 -0.4962 -0.7671
 1603SOL    HW216272   2.185   1.040   6.956 -0.5735 -0.2641  0.7256
 1604SOL     OW16273   2.326   3.755   4.313 -0.4363 -0.2570  0.8952
 1604SOL    HW116274   2.241   3.747   4.356  0.0694 -1.1732  1.7061
 1604SOL    HW216275   2.335   3.669   4.272 -1.2348 -0.2368  0.6766
 1605SOL     OW16276   3.792   1.245   5.297 -0.1972  0.1502  0.1824
 1605SOL    HW116277   3.884   1.221   5.305  0.1791  0.3721 -3.6520
 1605SOL    HW216278   3.791   1.331   5.255 -1.8944 -0.7151 -1.5653
 1606SOL     OW16279   1.912   4.162   4.963 -0.2286 -0.2151 -0.1559
 1606SOL    HW116280   1.979   4.190   5.025 -1.9093 -1.1759  2.0899
 1606SOL    HW216281   1.849   4.133   5.029 -0.2585 -1.7904 -0.8806
 1607SOL     OW16282   0.498   4.563   4.417  0.4343 -0.4884 -0.0157
 1607SOL    HW116283   0.434   4.519   4.472  0.7980 -0.3638  0.5082
 1607SOL    HW216284   0.544   4.624   4.474 -2.0618 -0.6130  2.0783
 1608SOL     OW16285   0.767   0.632   6.684  0.4644 -0.4001  0.0945
 1608SOL    HW116286   0.737   0.671   6.766  0.0047 -0.3350 -0.1109
 1608SOL    HW216287   0.850   0.680   6.678  0.2616 -0.1875 -0.8932
 1609SOL     OW16288   0.251   3.921  14.522  0.0429  0.3978 -0.0270
 1609SOL    HW116289   0.252   3.977  14.600  1.4326  0.8527 -0.3640
 1609SOL    HW216290   0.203   3.842  14.548  2.5981 -1.3823 -0.6562
 1610SOL     OW16291   3.926   3.228   8.679  0.0203  0.5155  0.7633
 1610SOL    HW116292   4.008   3.219   8.726  0.0924 -1.3869  0.2929
 1610SOL    HW216293   3.912   3.135   8.661  0.3787  0.8463 -1.2748
 1611SOL     OW16294   1.181   4.478   3.715  0.1970  0.8331  0.6265
 1611SOL    HW116295   1.198   4.406   3.776  1.4219  0.9756  0.4568
 1611SOL    HW216296   1.086   4.487   3.718  0.0443 -0.6104  0.1853
 1612SOL     OW16297   2.343   3.356   4.528 -0.8634  0.4106 -0.1099
 1612SOL    HW116298   2.317   3.269   4.497 -0.1462 -0.3412  1.3733
 1612SOL    HW216299   2.420   3.376   4.476  0.6988 -0.0130  2.0625
 1613SOL     OW16300   0.580   3.310   3.087  0.0600 -0.1148  0.2940
 1613SOL    HW116301   0.531   3.229   3.102 -1.6691  0.7313 -0.7903
 1613SOL    HW216302   0.666   3.283   3.119 -0.0274 -2.1298 -1.1253
 1614SOL     OW16303   1.018   2.433   0.457 -0.0673  0.5216  0.1108
 1614SOL    HW116304   0.967   2.466   0.531  0.2979  3.5241 -1.0010
 1614SOL    HW216305   0.950   2.391   0.405  0.9204  0.9538 -1.5341
 1615SOL     OW16306   0.539   1.887   2.728  0.0943  0.0062  0.4383
 1615SOL    HW116307   0.497   1.904   2.813  0.5109 -2.1265  1.0687
 1615SOL    HW216308   0.605   1.821   2.748 -0.9345 -1.6996 -1.8370
 1616SOL     OW16309   2.996   0.114  14.031  0.0462 -0.2047  0.0268
 1616SOL    HW116310   2.968   0.185  13.973  0.6300  1.3582  1.6728
 1616SOL    HW216311   2.969   0.159  14.111 -2.0327  0.6372 -1.1580
 1617SOL     OW16312   3.068   2.477   3.159  0.1258  0.4945 -0.4154
 1617SOL    HW116313   3.058   2.569   3.184  1.5388  0.5027  0.0750
 1617SOL    HW216314   3.074   2.494   3.065  1.2723  0.8607 -0.2767
 1618SOL     OW16315   3.001   1.690   7.108  0.1995 -0.4200  0.1864
 1618SOL    HW116316   3.091   1.711   7.133  0.6918 -0.8798 -1.1731
 1618SOL    HW216317   3.012   1.640   7.027 -0.9321 -3.1702  1.7498
 1619SOL     OW16318   1.134   0.031   5.023 -0.3199  0.2926 -0.3817
 1619SOL    HW116319   1.040   0.043   5.035 -0.3460  0.6762 -0.9683
 1619SOL    HW216320   1.147   0.010   4.931  0.7527 -2.7574  0.4527
 1620SOL     OW16321   3.329   1.443  11.468  0.1870 -0.0933 -0.3226
 1620SOL    HW116322   3.305   1.522  11.517 -1.1953 -1.9886  2.0069
 1620SOL    HW216323   3.297   1.476  11.383  1.8417  0.8226 -0.5982
 1621SOL     OW16324   2.988   1.790  11.079  0.1837 -0.2949 -0.5227
 1621SOL    HW116325   2.899   1.774  11.111 -0.1759 -2.1378 -2.4681
 1621SOL    HW216326   2.971   1.851  11.007 -1.5171 -1.2351 -0.9178
 1622SOL     OW16327   1.193   3.603   4.831  0.4091  0.2179  0.2158
 1622SOL    HW116328   1.153   3.578   4.748  0.1113 -0.1077  0.4586
 1622SOL    HW216329   1.117   3.623   4.885 -1.4437 -1.9874 -1.5982
 1623SOL     OW16330   3.006   0.182   5.207 -0.0753  0.7581  1.0633
 1623SOL    HW116331   2.936   0.133   5.251  1.0855  0.7364  2.8651
 1623SOL    HW216332   3.069   0.195   5.278  1.1296  1.9883 -0.2349
 1624SOL     OW16333   1.201   4.152  13.471  0.6288 -0.3942  0.0846
 1624SOL    HW116334   1.186   4.130  13.379 -0.7614 -0.8496  0.4278
 1624SOL    HW216335   1.225   4.244  13.479  0.9993 -0.4775 -0.0384
 1625SOL     OW16336   0.931   3.402   3.812 -0.3798 -0.0630  0.0956
 1625SOL    HW116337   0.904   3.493   3.798  0.8229  0.1780 -0.5827
 1625SOL    HW216338   1.013   3.406   3.764  0.6250  0.8426  1.8663
 1626SOL     OW16339   3.984   1.344  15.130  0.4575 -0.1891  0.1542
 1626SOL    HW116340   4.044   1.321  15.059  0.7188  0.5324  0.1436
 1626SOL    HW216341   3.899   1.319  15.094  0.4477 -0.2791  0.2396
 1627SOL     OW16342   0.063   0.988   8.183 -0.3664 -0.0009  0.2097
 1627SOL    HW116343   4.724   0.918   8.177 -0.2945  0.1901 -2.9209
 1627SOL    HW216344   0.096   0.982   8.093 -0.4475  2.8103 -0.0150
 1628SOL     OW16345   2.667   1.021  13.685  0.5045 -0.3797 -0.7522
 1628SOL    HW116346   2.673   0.926  13.692 -0.0915 -0.3698 -0.1383
 1628SOL    HW216347   2.608   1.030  13.610  1.9186  0.5920 -1.7568
 1629SOL     OW16348   0.050   4.117   1.409 -0.0841 -0.1307 -0.5611
 1629SOL    HW116349   0.051   4.143   1.317  0.3919  1.5212 -0.0846
 1629SOL    HW216350   4.724   4.192   1.437  0.6144 -0.4030  1.5305
 1630SOL     OW16351   3.435   3.236  14.945  0.0607 -0.3671  0.5517
 1630SOL    HW116352   3.518   3.261  14.985 -0.4144  0.6897  0.8526
 1630SOL    HW216353   3.438   3.274  14.857  3.0704  0.3844  1.0059
 1631SOL     OW16354   4.149   4.569   3.589  0.2431  0.6285  0.3275
 1631SOL    HW116355   4.103   4.486   3.581  1.2824  0.1816 -1.0282
 1631SOL    HW216356   4.234   4.537   3.559  0.3816  0.8190  0.5095
 1632SOL     OW16357   2.046   3.838   5.102  0.0900 -0.2253 -0.0662
 1632SOL    HW116358   2.053   3.885   5.185 -0.1201  0.7542 -0.6119
 1632SOL    HW216359   2.120   3.865   5.049  1.7998 -0.8816  1.9935
 1633SOL     OW16360   1.395   1.595   1.832  0.3351 -0.1848  0.4168
 1633SOL    HW116361   1.437   1.648   1.764 -0.3565 -1.6814 -1.1684
 1633SOL    HW216362   1.313   1.613   1.784  0.5779  1.1144  0.4873
 1634SOL     OW16363   1.401   4.717  13.303 -0.0374 -0.2112  0.1932
 1634SOL    HW116364   1.490   4.691  13.323  0.1900 -0.0549 -0.6134
 1634SOL    HW216365   1.384   0.049  13.377  2.1353  1.0528 -0.3042
 1635SOL     OW16366   2.589   2.446   1.809  0.4208 -0.7514  0.0300
 1635SOL    HW116367   2.570   2.450   1.715 -0.2476 -2.0618  0.1074
 1635SOL    HW216368   2.681   2.469   1.803  0.3531 -0.5833 -0.3719
 1636SOL     OW16369   1.078   3.564   4.573  0.3498 -0.8186  0.0648
 1636SOL    HW116370   1.086   3.611   4.490  1.8580 -1.3926 -0.1221
 1636SOL    HW216371   1.056   3.476   4.542  0.7795 -1.3745  1.3303
 1637SOL     OW16372   0.603   0.611   9.129  0.0584 -0.0572  0.4411
 1637SOL    HW116373   0.618   0.574   9.216 -0.9637  1.2059  1.1494
 1637SOL    HW216374   0.668   0.681   9.135  2.1354 -1.6566 -3.1822
 1638SOL     OW16375   2.364   4.070   9.525  0.4992  0.0676  0.3528
 1638SOL    HW116376   2.278   4.033   9.506  1.2277 -0.9177 -1.1264
 1638SOL    HW216377   2.404   4.065   9.438 -1.7033 -2.9790 -0.4713
 1639SOL     OW16378   1.269   0.713   7.406 -0.2530  0.1570  0.3222
 1639SOL    HW116379   1.281   0.628   7.448 -3.1836 -0.6865 -0.5352
 1639SOL    HW216380   1.174   0.719   7.394 -0.2463  3.5340  1.8503
 1640SOL     OW16381   1.705   4.304   7.938  0.0338  0.1007 -0.4106
 1640SOL    HW116382   1.711   4.284   7.844  1.7600 -0.9935 -0.0816
 1640SOL    HW216383   1.794   4.288   7.970  0.5937  1.6290 -1.1447
 1641SOL     OW16384   2.706   2.729   0.408  0.1766  0.7653  0.8244
 1641SOL    HW116385   2.769   2.682   0.354 -0.1202  0.2541  0.9210
 1641SOL    HW216386   2.764   2.757   0.478 -0.6000  0.1589  1.7211
 1642SOL     OW16387   2.198   4.693   5.409  0.1918 -0.0662 -0.1229
 1642SOL    HW116388   2.125   4.693   5.347  0.4904  1.4069 -0.4698
 1642SOL    HW216389   2.178   4.621   5.468  0.3752 -0.4643 -0.5387
 1643SOL     OW16390   1.030   3.137   7.861 -0.4414  0.0946 -0.1320
 1643SOL    HW116391   1.011   3.055   7.815 -1.6302  1.4601 -2.0617
 1643SOL    HW216392   0.944   3.171   7.888 -0.2581  0.7147 -0.3402
 1644SOL     OW16393   3.482   1.819   6.833 -0.1827 -0.3715  0.4295
 1644SOL    HW116394   3.406   1.877   6.835 -0.1049 -0.2324 -0.4366
 1644SOL    HW216395   3.474   1.796   6.740  1.9969  1.5122 -0.2163
 1645SOL     OW16396   0.970   0.211  13.069 -0.0067 -0.7173  0.0178
 1645SOL    HW116397   0.964   0.170  12.983  1.0630 -0.2955 -0.2618
 1645SOL    HW216398   0.893   0.268  13.067  1.2567  1.0058  0.3723
 1646SOL     OW16399   2.754   0.056  13.453 -0.3688 -0.2343  0.1774
 1646SOL    HW116400   2.749   4.701  13.403 -0.9439 -0.7056  1.0011
 1646SOL    HW216401   2.733   0.028  13.542  0.7419  2.2947  1.2333
 1647SOL     OW16402   2.019   3.329   0.680  0.5880  0.3299  0.0428
 1647SOL    HW116403   1.969   3.253   0.707  3.0252 -0.9060  1.1048
 1647SOL    HW216404   2.024   3.384   0.758  2.1718  0.9549 -0.4888
 1648SOL     OW16405   2.088   2.381   5.605  0.0591  0.1041  0.2433
 1648SOL    HW116406   2.116   2.303   5.558  0.3520  0.9937 -1.0676
 1648SOL    HW216407   2.174   2.413   5.635 -0.4897  1.0643  0.8133
 1649SOL     OW16408   3.597   2.962   7.849 -0.2673  0.2463  0.0735
 1649SOL    HW116409   3.593   3.018   7.927 -0.3275 -1.6392  1.4270
 1649SOL    HW216410   3.687   2.933   7.864 -0.4312  0.8136  2.1587
 1650SOL     OW16411   3.664   3.616   4.648 -0.0940  0.0326 -0.4009
 1650SOL    HW116412   3.708   3.695   4.616 -1.5906  1.0875  0.1429
 1650SOL    HW216413   3.742   3.560   4.652 -0.0724  0.1743  1.1066
 1651SOL     OW16414   3.893   2.174   2.909  0.4877  0.0101  0.5125
 1651SOL    HW116415   3.833   2.169   2.983 -0.1209 -1.0744 -0.0621
 1651SOL    HW216416   3.955   2.105   2.932 -0.9076 -1.8041 -1.1780
 1652SOL     OW16417   4.385   0.354   4.871 -0.4135 -0.3745 -0.4328
 1652SOL    HW116418   4.392   0.442   4.833 -3.6643  0.7486  1.6042
 1652SOL    HW216419   4.339   0.365   4.954  1.3541 -1.2948  0.6671
 1653SOL     OW16420   1.993   1.720  13.847  0.8646 -0.4520  0.4501
 1653SOL    HW116421   1.904   1.692  13.825  0.7075 -0.4957  1.1461
 1653SOL    HW216422   2.021   1.636  13.882  4.9124  2.1411  3.4968
 1654SOL     OW16423   1.076   1.188   4.472  0.5058  0.3463  0.8239
 1654SOL    HW116424   1.171   1.174   4.469  0.0144 -2.2392 -2.1672
 1654SOL    HW216425   1.039   1.101   4.486 -0.7680  0.1338 -3.8681
 1655SOL     OW16426   3.040   2.972  10.993 -0.2150 -0.1428  0.3341
 1655SOL    HW116427   3.000   2.935  10.914 -1.1620 -0.5422  1.0043
 1655SOL    HW216428   3.132   2.977  10.967 -0.0371  0.3635  1.0764
 1656SOL     OW16429   4.718   0.493   4.857 -0.1034 -0.0402  0.8866
 1656SOL    HW116430   0.075   0.538   4.851 -1.5178  2.8035  2.4043
 1656SOL    HW216431   4.696   0.469   4.767  1.2716 -2.2606  1.1283
 1657SOL     OW16432   3.578   3.595  13.832  0.2516  0.0306 -0.0343
 1657SOL    HW116433   3.629   3.562  13.906 -0.0347 -0.5489 -0.0931
 1657SOL    HW216434   3.620   3.542  13.764  0.5611  1.6730 -1.1180
 1658SOL     OW16435   4.534   3.241  13.464  0.0641 -0.1493  0.1698
 1658SOL    HW116436   4.539   3.150  13.492  0.0445 -0.2652 -0.2095
 1658SOL    HW216437   4.444   3.244  13.433  0.7291 -2.1823 -1.9044
 1659SOL     OW16438   2.739   3.677   6.550 -0.2155  0.1598  0.0576
 1659SOL    HW116439   2.735   3.615   6.623  1.0792  1.9653  1.6767
 1659SOL    HW216440   2.746   3.762   6.595  1.2449  0.2703 -0.3691
 1660SOL     OW16441   1.997   0.309   2.325  0.0034 -0.3482  0.6818
 1660SOL    HW116442   2.045   0.239   2.282  0.4742 -0.0232  0.6831
 1660SOL    HW216443   1.914   0.307   2.276 -0.1479 -1.0768  0.9688
 1661SOL     OW16444   0.041   2.775   7.466  0.1380  0.5155  0.0214
 1661SOL    HW116445   0.110   2.759   7.531 -1.5752 -1.3878  1.3841
 1661SOL    HW216446   0.058   2.707   7.401 -0.1392  0.3678  0.1019
 1662SOL     OW16447   0.914   1.957   6.319  0.1466  0.0788  0.2524
 1662SOL    HW116448   0.933   2.011   6.396  1.9872  1.8775 -1.4445
 1662SOL    HW216449   0.859   1.888   6.355  0.7629 -0.3646  0.3458
 1663SOL     OW16450   1.446   3.990   3.515 -0.5569  0.2940 -0.4371
 1663SOL    HW116451   1.403   3.981   3.430 -1.0827  0.9587 -0.2392
 1663SOL    HW216452   1.431   3.904   3.556 -2.3188  0.7001 -0.2180
 1664SOL     OW16453   0.630   1.259   2.294 -0.3642  0.0124  0.7510
 1664SOL    HW116454   0.612   1.219   2.379  1.2427  1.0849  1.5910
 1664SOL    HW216455   0.580   1.341   2.301  1.1728  0.8308  1.8650
 1665SOL     OW16456   2.563   1.352  10.002  0.2644  0.0484  0.7242
 1665SOL    HW116457   2.638   1.351   9.943 -1.2262 -0.6040 -1.1567
 1665SOL    HW216458   2.609   1.339  10.086 -0.4930  1.9708  1.4328
 1666SOL     OW16459   1.486   0.053   8.301 -0.4046  0.1431  0.2661
 1666SOL    HW116460   1.417   0.064   8.367 -0.6373  0.6056 -0.0559
 1666SOL    HW216461   1.473   0.136   8.255  2.9326  2.6237  3.7033
 1667SOL     OW16462   2.932   3.490   6.715  0.4713 -0.4070  0.0597
 1667SOL    HW116463   2.995   3.560   6.730 -0.3555  0.1498  0.8838
 1667SOL    HW216464   2.884   3.475   6.796 -1.6708 -0.6933 -1.2590
 1668SOL     OW16465   1.210   3.359  13.768 -0.4285 -0.4058 -0.1406
 1668SOL    HW116466   1.255   3.324  13.845 -0.9848  0.5602  0.6234
 1668SOL    HW216467   1.284   3.391  13.717  0.1023 -1.9648 -0.3353
 1669SOL     OW16468   2.148   3.657   5.705  0.0534 -1.0464  0.4430
 1669SOL    HW116469   2.161   3.675   5.612  0.2498  0.6077  0.7820
 1669SOL    HW216470   2.130   3.563   5.704 -4.5144 -0.1980  1.8354
 1670SOL     OW16471   0.892   3.426   0.377 -0.3281  0.6694  0.2002
 1670SOL    HW116472   0.871   3.346   0.426 -3.1808 -0.1032 -2.2681
 1670SOL    HW216473   0.806   3.469   0.379 -0.3792  0.4326  3.1149
 1671SOL     OW16474   3.764   0.894  12.134  0.1639 -0.0976  0.5390
 1671SOL    HW116475   3.823   0.847  12.193 -0.4659 -1.6243 -0.0268
 1671SOL    HW216476   3.820   0.901  12.057  0.0597 -0.3601  0.4392
 1672SOL     OW16477   2.013   2.766   9.597 -0.0211 -0.2090  0.2559
 1672SOL    HW116478   1.987   2.692   9.542 -0.5608  0.8957 -0.9813
 1672SOL    HW216479   2.105   2.758   9.572  0.5815  0.0285  2.4332
 1673SOL     OW16480   1.763   0.588   7.388  0.0540  0.0216  0.2128
 1673SOL    HW116481   1.706   0.631   7.451 -0.9789 -2.4362  0.9730
 1673SOL    HW216482   1.797   0.521   7.448 -1.1876 -1.4190 -0.6974
 1674SOL     OW16483   1.328   3.880   2.704 -0.4972  0.3482 -0.0650
 1674SOL    HW116484   1.349   3.897   2.612  3.1355 -0.9104  0.5050
 1674SOL    HW216485   1.242   3.841   2.692 -0.1872 -1.0749  2.3807
 1675SOL     OW16486   0.108   4.716   6.102 -0.1030  0.1194  0.2112
 1675SOL    HW116487   0.121   4.643   6.041  0.7752 -0.9277  1.6603
 1675SOL    HW216488   0.191   0.035   6.089  0.0428 -0.4577 -0.8995
 1676SOL     OW16489   0.073   4.038  12.728 -0.4711  0.1133  0.0231
 1676SOL    HW116490   0.140   3.983  12.689 -0.4638 -0.1117  0.3581
 1676SOL    HW216491   0.005   3.971  12.736  2.0406 -2.4922 -0.5095
 1677SOL     OW16492   4.122   2.271   8.757  0.3990  0.1244  0.2924
 1677SOL    HW116493   4.111   2.362   8.787  0.6139 -0.2488  1.4877
 1677SOL    HW216494   4.211   2.246   8.782  0.4721 -0.1822 -0.2874
 1678SOL     OW16495   2.211   1.786   8.758 -0.0570  0.1234  0.0487
 1678SOL    HW116496   2.200   1.876   8.789 -1.3637  0.2729 -0.8600
 1678SOL    HW216497   2.292   1.797   8.710 -0.1458  0.1569 -0.0930
 1679SOL     OW16498   2.938   4.646   5.801  0.6044  0.5142 -0.2454
 1679SOL    HW116499   2.909   0.010   5.799  0.7269  0.5628  0.1504
 1679SOL    HW216500   2.859   4.607   5.764  0.8034  0.7058 -0.8649
 1680SOL     OW16501   0.756   1.079   8.345 -0.2896 -0.0381 -0.3152
 1680SOL    HW116502   0.663   1.059   8.355 -0.0200 -1.2831 -0.2644
 1680SOL    HW216503   0.776   1.074   8.438  0.0793  1.1229 -0.3380
 1681SOL     OW16504   3.237   0.922   1.697  0.1861  0.5916  0.2473
 1681SOL    HW116505   3.168   0.974   1.738 -0.8698  0.2123 -1.0442
 1681SOL    HW216506   3.313   0.979   1.694  2.4257 -2.4535 -0.8006
 1682SOL     OW16507   1.543   4.478   7.276  0.2482  0.0181 -0.5655
 1682SOL    HW116508   1.611   4.540   7.300  0.1735 -0.0659 -0.1274
 1682SOL    HW216509   1.464   4.529   7.294  0.0689 -0.8876  1.2222
 1683SOL     OW16510   2.934   4.042   3.192  0.7228 -0.3482  0.0266
 1683SOL    HW116511   2.894   4.031   3.278  1.8824 -0.8993  0.4981
 1683SOL    HW216512   2.982   3.961   3.173 -0.3092 -0.8619 -0.3734
 1684SOL     OW16513   3.191   4.170   3.112 -0.0977 -0.2386  0.3621
 1684SOL    HW116514   3.098   4.146   3.108  0.2991 -1.6206 -0.3679
 1684SOL    HW216515   3.217   4.126   3.193 -1.6857 -0.1243  0.9409
 1685SOL     OW16516   0.762   2.670  15.586  0.4190  0.4743 -0.4085
 1685SOL    HW116517   0.708   2.591  15.598  1.2029 -0.0918 -0.6244
 1685SOL    HW216518   0.719   2.743  15.631 -0.4629  0.6953 -1.5814
 1686SOL     OW16519   3.576   2.750   3.027  0.9616 -0.2565 -0.2274
 1686SOL    HW116520   3.568   2.758   2.932  2.2287  0.4903 -0.2671
 1686SOL    HW216521   3.492   2.705   3.037  1.3290 -0.4634  1.9272
 1687SOL     OW16522   4.061   4.020  10.779  0.0381 -0.2155 -0.5091
 1687SOL    HW116523   4.094   3.970  10.704 -0.3974  1.0694 -1.5370
 1687SOL    HW216524   4.132   4.004  10.842 -0.4189  1.0343  0.3133
 1688SOL     OW16525   1.218   4.114   9.885 -0.2612  0.4616 -0.4040
 1688SOL    HW116526   1.285   4.179   9.860 -0.6917  1.2599  0.5202
 1688SOL    HW216527   1.264   4.048   9.936 -0.3963  1.0996  0.5325
 1689SOL     OW16528   4.586   2.328   8.115 -0.1463  0.1646  0.6689
 1689SOL    HW116529   4.634   2.369   8.187 -0.1224  0.1284  0.6735
 1689SOL    HW216530   4.655   2.288   8.063  0.7448 -0.5169  2.3496
 1690SOL     OW16531   1.319   1.980   5.044  0.1313 -0.0175 -0.4581
 1690SOL    HW116532   1.229   2.013   5.047  0.6351  1.2775  0.4168
 1690SOL    HW216533   1.300   1.886   5.037  0.5207  0.0147 -1.9132
 1691SOL     OW16534   3.381   2.819   0.656 -0.7255  0.1231 -0.3481
 1691SOL    HW116535   3.456   2.774   0.618  1.1700  1.5621  1.7281
 1691SOL    HW216536   3.375   2.785   0.745  0.0543 -0.6889 -0.6110
 1692SOL     OW16537   1.433   3.670   1.935 -0.1717  0.1756  0.0812
 1692SOL    HW116538   1.460   3.579   1.932 -1.5434 -0.3373  3.1367
 1692SOL    HW216539   1.432   3.692   2.029 -0.1486  1.8107 -0.2950
 1693SOL     OW16540   0.318   1.370   1.206 -0.0061  0.2867 -0.2453
 1693SOL    HW116541   0.251   1.381   1.273  0.3005 -0.0242  0.1133
 1693SOL    HW216542   0.289   1.434   1.141  0.3741 -0.1837 -0.8814
 1694SOL     OW16543   2.253   4.467  11.828  0.0711 -0.2523 -0.6693
 1694SOL    HW116544   2.188   4.508  11.771 -2.0043 -0.4244  1.5537
 1694SOL    HW216545   2.298   4.411  11.765 -0.2276  1.5914 -2.4862
 1695SOL     OW16546   1.946   1.162   3.524 -0.7636 -1.2906  0.1977
 1695SOL    HW116547   2.004   1.121   3.588  3.4691 -1.7636 -3.9146
 1695SOL    HW216548   1.975   1.119   3.444  1.1265  2.0250 -0.8986
 1696SOL     OW16549   1.948   2.241   3.991  0.5918  0.2028 -0.4198
 1696SOL    HW116550   2.004   2.212   3.918 -1.3248  0.0081 -1.8208
 1696SOL    HW216551   1.914   2.326   3.962  2.1377  1.2207  0.7547
 1697SOL     OW16552   3.483   2.641  13.117  0.4228  0.3225  0.3282
 1697SOL    HW116553   3.398   2.597  13.116  0.9972 -0.7810 -0.4853
 1697SOL    HW216554   3.506   2.640  13.210 -0.1918  0.2010  0.4783
 1698SOL     OW16555   2.587   2.732  17.509 -0.4857  0.5467  0.6254
 1698SOL    HW116556   2.678   2.764  17.508 -0.0268 -0.7355  1.5373
 1698SOL    HW216557   2.558   2.759  17.422 -0.6521 -0.7125  0.2868
 1699SOL     OW16558   3.266   3.050   2.404  0.4106 -0.7821 -0.5101
 1699SOL    HW116559   3.176   3.074   2.429  0.6469 -0.4094 -0.0272
 1699SOL    HW216560   3.276   3.076   2.313 -1.2326  2.0004  0.0863
 1700SOL     OW16561   2.741   1.628   7.563  0.3046 -0.3188 -0.1569
 1700SOL    HW116562   2.827   1.622   7.520  0.1639 -0.5352 -0.4063
 1700SOL    HW216563   2.760   1.699   7.625  1.5519 -1.2303  0.5019
 1701SOL     OW16564   0.631   2.402  17.465  0.0817  0.4109 -0.6743
 1701SOL    HW116565   0.548   2.385  17.420  0.2902 -0.5258 -0.7210
 1701SOL    HW216566   0.604   2.383  17.554  1.6087  0.4665 -0.1941
 1702SOL     OW16567   4.353   3.336   7.437  0.3174 -0.2545  0.6973
 1702SOL    HW116568   4.315   3.251   7.414 -0.1386  0.4730 -1.2746
 1702SOL    HW216569   4.339   3.333   7.532 -0.5965 -1.2339  0.5309
 1703SOL     OW16570   3.300   2.966   7.437 -0.1042 -0.3217  0.4546
 1703SOL    HW116571   3.338   2.903   7.498 -0.6489 -1.1763 -0.0913
 1703SOL    HW216572   3.253   3.019   7.502 -2.4540  2.8963 -3.8493
 1704SOL     OW16573   3.571   3.042   1.984  0.2223 -0.2451 -0.7916
 1704SOL    HW116574   3.650   2.998   2.017  0.2397 -0.3621 -0.9924
 1704SOL    HW216575   3.599   3.101   1.914 -0.0866  1.4269  0.5029
 1705SOL     OW16576   1.897   4.057   9.317 -0.1620  0.3076 -0.1609
 1705SOL    HW116577   1.811   4.060   9.358  0.6890 -2.2751  1.8504
 1705SOL    HW216578   1.877   4.088   9.229 -2.4173  1.8995  0.9188
 1706SOL     OW16579   3.262   2.168   5.846 -0.4991  0.5376  0.3656
 1706SOL    HW116580   3.341   2.117   5.861 -2.3046 -2.4295 -0.3112
 1706SOL    HW216581   3.199   2.123   5.902 -1.1857  1.8640  0.6714
 1707SOL     OW16582   3.228   3.058   2.747 -0.0800 -0.0343  0.4245
 1707SOL    HW116583   3.170   3.111   2.802  0.1336 -1.1797  1.7648
 1707SOL    HW216584   3.283   3.120   2.700  1.0503 -0.4006  1.2543
 1708SOL     OW16585   1.123   2.894   6.659  0.1344  0.3194 -0.3431
 1708SOL    HW116586   1.142   2.910   6.751  0.7296  0.1017 -0.4308
 1708SOL    HW216587   1.195   2.933   6.608  2.4493  0.8130  3.2940
 1709SOL     OW16588   0.964   1.703   6.544  0.0701 -0.0077  0.5274
 1709SOL    HW116589   1.023   1.761   6.591  0.5953 -0.3311  0.2601
 1709SOL    HW216590   0.879   1.747   6.553  0.1272 -0.2345  2.2603
 1710SOL     OW16591   4.570   4.717   6.931 -0.2084 -0.9146 -0.0311
 1710SOL    HW116592   4.660   4.698   6.905 -0.5496 -2.7010  0.1261
 1710SOL    HW216593   4.523   4.688   6.852  1.9333 -0.6832 -1.3903
 1711SOL     OW16594   1.987   2.023   5.327  0.1982  0.0893 -0.2835
 1711SOL    HW116595   1.908   1.979   5.296  0.0576  0.1622 -0.0342
 1711SOL    HW216596   2.048   1.971   5.275  0.5726 -0.0720  0.3102
 1712SOL     OW16597   0.073   2.732   8.245  0.4454 -0.3105 -0.0557
 1712SOL    HW116598   0.102   2.722   8.154 -0.0693 -0.4583 -0.2023
 1712SOL    HW216599   4.706   2.714   8.242  0.4614 -0.1518 -1.3082
 1713SOL     OW16600   1.816   0.712   7.932  0.0737 -0.2658  0.4454
 1713SOL    HW116601   1.831   0.701   8.026  0.5671  1.6352  0.6028
 1713SOL    HW216602   1.868   0.639   7.898  1.7925  0.9691  0.4240
 1714SOL     OW16603   3.711   1.284   6.816 -0.0609 -0.5236 -0.1505
 1714SOL    HW116604   3.796   1.272   6.775  0.6727 -1.5057  1.6631
 1714SOL    HW216605   3.723   1.237   6.899 -0.1089  0.4160  0.3943
 1715SOL     OW16606   0.528   0.524   8.277 -0.1773 -0.1270 -0.1952
 1715SOL    HW116607   0.544   0.498   8.368  0.0674 -2.9869 -1.0366
 1715SOL    HW216608   0.464   0.456   8.255  0.6247 -0.7859 -0.5217
 1716SOL     OW16609   0.332   3.413   4.095 -0.4864 -0.3230 -0.2374
 1716SOL    HW116610   0.250   3.438   4.138  0.0722  1.5490 -0.2860
 1716SOL    HW216611   0.389   3.408   4.172  0.5789 -0.0832 -1.0066
 1717SOL     OW16612   3.838   0.719  16.446 -0.1541  0.3828  0.2664
 1717SOL    HW116613   3.795   0.648  16.399  0.4143  0.5611 -0.5290
 1717SOL    HW216614   3.775   0.733  16.517 -0.5877 -0.8797  0.1344
 1718SOL     OW16615   0.553   0.279  14.939 -0.4834  0.0632  0.2340
 1718SOL    HW116616   0.600   0.353  14.898 -1.1515  0.4405  0.1496
 1718SOL    HW216617   0.594   0.278  15.025 -0.6912 -3.0738  0.3001
 1719SOL     OW16618   1.321   3.721   7.684 -0.6063  0.3354  0.4177
 1719SOL    HW116619   1.415   3.736   7.691 -0.5944  0.0044  0.9511
 1719SOL    HW216620   1.299   3.746   7.774 -1.4420 -2.3148  0.9508
 1720SOL     OW16621   2.988   2.413   6.532 -0.1367 -0.0372  0.5433
 1720SOL    HW116622   2.917   2.475   6.548  0.4215  0.9265 -0.7832
 1720SOL    HW216623   2.986   2.417   6.437 -4.9695 -1.6188  0.5958
 1721SOL     OW16624   2.465   2.258   1.000 -0.2231  0.0761  0.5336
 1721SOL    HW116625   2.395   2.205   1.038  1.6603 -2.0929  0.9371
 1721SOL    HW216626   2.537   2.232   1.058  1.7358 -0.4311 -2.1309
 1722SOL     OW16627   4.452   3.175   9.215 -0.0932  0.1208  0.1021
 1722SOL    HW116628   4.424   3.266   9.226  0.0617  0.2507 -0.6124
 1722SOL    HW216629   4.478   3.145   9.302  0.4297  1.5517  0.4445
 1723SOL     OW16630   0.852   4.538   5.554 -0.2592 -0.5152 -0.0055
 1723SOL    HW116631   0.783   4.471   5.555 -1.0289  0.2536 -1.0908
 1723SOL    HW216632   0.810   4.602   5.496 -2.4547 -2.7762 -0.9201
 1724SOL     OW16633   1.407   0.088   6.391  0.0381  0.6244  0.2516
 1724SOL    HW116634   1.352   0.150   6.440 -0.4978  0.3279  0.0339
 1724SOL    HW216635   1.337   0.041   6.345 -0.7304 -0.8786  2.9503
 1725SOL     OW16636   4.143   2.188  15.598  0.5742  0.4911 -0.4840
 1725SOL    HW116637   4.050   2.206  15.613  0.6162 -1.0991  1.5277
 1725SOL    HW216638   4.145   2.104  15.552  1.3463  0.3780 -0.2283
 1726SOL     OW16639   3.922   4.215   5.554  0.4829 -0.0787 -0.2811
 1726SOL    HW116640   3.964   4.192   5.637  0.0232 -1.4125 -0.4133
 1726SOL    HW216641   3.996   4.257   5.511  0.1607 -0.1606 -0.9156
 1727SOL     OW16642   3.223   0.454   5.494  0.0928  0.3006 -0.3714
 1727SOL    HW116643   3.252   0.477   5.405  1.4982  0.5573  0.1518
 1727SOL    HW216644   3.143   0.505   5.511  0.8337  2.0022 -1.9930
 1728SOL     OW16645   3.695   4.348   5.682  0.1167 -0.5685  0.3470
 1728SOL    HW116646   3.781   4.314   5.657 -0.4566 -0.0562 -2.2842
 1728SOL    HW216647   3.651   4.347   5.597 -0.9753 -0.0144  0.9074
 1729SOL     OW16648   3.057   1.677   5.048  0.4043 -0.5905  0.2520
 1729SOL    HW116649   3.017   1.733   4.982 -0.2948 -0.4275  0.8073
 1729SOL    HW216650   3.135   1.726   5.075  0.4705  0.1263 -1.2286
 1730SOL     OW16651   4.194   1.082   8.361 -0.1705  0.3076  0.4568
 1730SOL    HW116652   4.232   1.163   8.325  2.8002 -1.7680 -1.1683
 1730SOL    HW216653   4.268   1.023   8.373  0.3189  0.9438  0.5932
 1731SOL     OW16654   1.386   3.577   5.569  0.2402  0.4075  0.4812
 1731SOL    HW116655   1.304   3.567   5.617 -0.3477 -0.2973 -0.6679
 1731SOL    HW216656   1.446   3.540   5.634 -0.4885 -1.5816  0.0208
 1732SOL     OW16657   0.712   0.725   5.576  0.7193 -0.4110 -0.3876
 1732SOL    HW116658   0.752   0.762   5.655 -0.4749  2.6939 -1.2443
 1732SOL    HW216659   0.732   0.632   5.588  1.7474 -0.3846 -1.8643
 1733SOL     OW16660   2.196   3.404   0.958 -0.0457  0.0204  0.5063
 1733SOL    HW116661   2.158   3.484   0.921 -0.9788 -0.4512  0.4494
 1733SOL    HW216662   2.249   3.437   1.030 -1.4347 -0.4364  1.7285
 1734SOL     OW16663   1.233   4.654   0.759 -0.0272  0.4659  0.1538
 1734SOL    HW116664   1.261   4.582   0.703  0.1476  1.2671 -0.7943
 1734SOL    HW216665   1.222   4.593   0.832  1.0382  1.5748  1.2422
 1735SOL     OW16666   0.366   3.598   3.113 -0.0379  0.5141  0.4061
 1735SOL    HW116667   0.309   3.528   3.082 -0.1512  0.6236  0.3707
 1735SOL    HW216668   0.334   3.663   3.050  2.5324 -0.8701 -2.3646
 1736SOL     OW16669   0.071   0.728   7.816 -0.3410 -0.3394  0.0340
 1736SOL    HW116670   0.128   0.695   7.747  0.5265  0.0614  0.5640
 1736SOL    HW216671   4.723   0.765   7.768  1.1025  5.0061  1.9025
 1737SOL     OW16672   0.194   3.156   5.684 -0.0319 -0.7510  0.2734
 1737SOL    HW116673   0.124   3.165   5.749  0.3426  0.8102  0.4573
 1737SOL    HW216674   0.262   3.197   5.737 -0.0276  1.7779 -1.6676
 1738SOL     OW16675   2.667   3.705  11.492 -0.2543 -0.0539 -0.2226
 1738SOL    HW116676   2.592   3.669  11.445 -0.4223 -2.8570  2.1682
 1738SOL    HW216677   2.628   3.776  11.542  0.3444 -0.8103  1.3414
 1739SOL     OW16678   1.260   2.638   6.196  0.1137 -0.3691  0.2153
 1739SOL    HW116679   1.312   2.699   6.250  0.1330 -0.8797  0.7749
 1739SOL    HW216680   1.268   2.558   6.247 -0.6872  0.5194  1.7499
 1740SOL     OW16681   1.097   1.912   5.687 -0.2509 -0.1358  0.1282
 1740SOL    HW116682   1.050   1.993   5.668  0.4294 -0.1662 -1.6734
 1740SOL    HW216683   1.141   1.917   5.771  1.7419  0.7786 -0.9833
 1741SOL     OW16684   0.187   3.196  12.790  0.3932  0.6348  0.4953
 1741SOL    HW116685   0.256   3.237  12.737  2.1223  0.6036  2.7164
 1741SOL    HW216686   0.176   3.261  12.859 -0.4368  0.2292  0.7396
 1742SOL     OW16687   0.865   2.439  16.216 -0.6903  0.3149 -0.1451
 1742SOL    HW116688   0.780   2.410  16.183  0.0341 -1.4225 -0.4706
 1742SOL    HW216689   0.904   2.356  16.243 -1.4376  0.0417  0.1148
 1743SOL     OW16690   1.615   2.011  10.305  0.7506  0.3409 -0.1801
 1743SOL    HW116691   1.575   2.022  10.218 -1.4398 -3.4460  0.3325
 1743SOL    HW216692   1.652   2.097  10.319  0.7694  0.0023  1.8252
 1744SOL     OW16693   2.049   0.866  10.877  0.4828 -0.6314  0.1486
 1744SOL    HW116694   2.015   0.792  10.828 -0.0734 -0.2771 -0.0056
 1744SOL    HW216695   2.010   0.933  10.820 -0.4903 -1.4416 -0.1357
 1745SOL     OW16696   4.380   3.565   7.751 -0.4535  0.4797  0.4371
 1745SOL    HW116697   4.461   3.610   7.728 -1.2501  1.1209 -1.1511
 1745SOL    HW216698   4.318   3.637   7.734  1.1119  1.7465  0.1336
 1746SOL     OW16699   0.450   1.418  13.566  0.5070  0.0336 -0.0419
 1746SOL    HW116700   0.438   1.427  13.660 -1.7315  0.9651 -0.4209
 1746SOL    HW216701   0.400   1.338  13.551 -0.5362  0.7377 -0.3678
 1747SOL     OW16702   3.373   4.224   5.043  0.0907  0.3552 -0.6764
 1747SOL    HW116703   3.299   4.168   5.020 -1.2480  0.7455  2.6576
 1747SOL    HW216704   3.360   4.299   4.985 -0.4484  2.0364  1.6177
 1748SOL     OW16705   0.466   4.381   2.886  0.1689  0.3321  0.1923
 1748SOL    HW116706   0.516   4.462   2.881  0.1405  0.3908  0.8281
 1748SOL    HW216707   0.405   4.396   2.814  0.3059  2.0743  0.4462
 1749SOL     OW16708   3.763   3.904   9.214 -0.5198  0.2450  0.5904
 1749SOL    HW116709   3.816   3.983   9.221 -0.8897  0.2389  3.4564
 1749SOL    HW216710   3.818   3.848   9.269 -0.5032  0.2954  0.6245
 1750SOL     OW16711   1.292   0.704   4.922 -0.3037  0.2530 -1.2638
 1750SOL    HW116712   1.322   0.613   4.912 -0.0970  0.0042  1.5318
 1750SOL    HW216713   1.214   0.705   4.866  1.0627  0.3921 -3.1447
 1751SOL     OW16714   4.438   2.470   8.740 -0.1440 -0.1599  0.0549
 1751SOL    HW116715   4.381   2.461   8.816 -0.7786 -0.1934 -0.4311
 1751SOL    HW216716   4.440   2.565   8.735 -0.5633 -0.0387  2.2081
 1752SOL     OW16717   3.103   0.836   6.295 -0.0023 -0.1024 -0.2610
 1752SOL    HW116718   3.016   0.875   6.301 -0.6378 -1.5394 -0.3194
 1752SOL    HW216719   3.154   0.912   6.265 -1.9497  2.3446  2.6549
 1753SOL     OW16720   1.348   1.425  13.951 -0.5529  0.2524 -0.2700
 1753SOL    HW116721   1.300   1.401  13.872 -2.4249  0.8569  0.6589
 1753SOL    HW216722   1.418   1.360  13.954  0.9317  1.9419  2.2491
 1754SOL     OW16723   0.338   2.730   8.318 -0.4720 -0.2656 -0.2120
 1754SOL    HW116724   0.245   2.727   8.295 -0.4517 -0.0350 -0.3257
 1754SOL    HW216725   0.356   2.669   8.390  0.7483  0.2282 -0.1040
 1755SOL     OW16726   2.782   4.602   6.795  0.0065 -0.6865  0.4745
 1755SOL    HW116727   2.801   4.622   6.703 -0.8787  0.2337  0.4903
 1755SOL    HW216728   2.870   4.580   6.824  0.1202  0.0555  0.6910
 1756SOL     OW16729   0.127   2.717   1.092  0.1817 -0.5114  0.2897
 1756SOL    HW116730   0.207   2.665   1.093  0.1193 -0.6112 -0.7108
 1756SOL    HW216731   0.145   2.801   1.050 -1.7155  0.2845  1.0529
 1757SOL     OW16732   0.665   3.369  17.365  0.1196 -0.0643 -0.8316
 1757SOL    HW116733   0.684   3.349  17.274  1.3911 -1.4615 -0.2674
 1757SOL    HW216734   0.628   3.284  17.389  0.6233 -0.5839 -1.9067
 1758SOL     OW16735   1.544   2.528   5.732 -0.5518 -0.0664  0.1380
 1758SOL    HW116736   1.618   2.491   5.684  0.0710  1.1225  0.1841
 1758SOL    HW216737   1.477   2.517   5.665 -1.5483  1.7892  0.8372
 1759SOL     OW16738   2.561   2.498   6.907  0.1401 -0.4116 -0.0075
 1759SOL    HW116739   2.608   2.571   6.948  0.8547 -0.6456 -0.4156
 1759SOL    HW216740   2.623   2.425   6.902  0.2003 -0.3607  0.0024
 1760SOL     OW16741   4.582   0.208   7.676  0.0293 -0.0489 -0.4903
 1760SOL    HW116742   4.595   0.134   7.736  0.5891  0.2487 -0.2374
 1760SOL    HW216743   4.583   0.182   7.584  1.3126 -1.0195 -0.2087
 1761SOL     OW16744   1.679   1.039   7.320 -0.1849 -1.0238 -0.2183
 1761SOL    HW116745   1.677   0.991   7.403 -0.4312  1.6300  1.2926
 1761SOL    HW216746   1.686   0.967   7.258  2.6288 -0.5393 -0.4717
 1762SOL     OW16747   0.318   4.398   5.603 -0.2774  0.2500  0.4179
 1762SOL    HW116748   0.298   4.306   5.586  2.5391 -0.2863  0.1246
 1762SOL    HW216749   0.247   4.441   5.555 -0.1549  1.2314  1.0963
 1763SOL     OW16750   4.649   0.986   0.250  0.6431  0.7558  0.1787
 1763SOL    HW116751   4.676   0.895   0.263 -0.5262  0.4988  0.7197
 1763SOL    HW216752   4.712   1.035   0.304  0.3253 -1.4819  2.5309
 1764SOL     OW16753   1.749   0.054  11.952  0.8508 -0.2697  0.4233
 1764SOL    HW116754   1.743   0.038  12.046 -1.2184  0.5490  0.4387
 1764SOL    HW216755   1.830   0.009  11.931  0.3996 -0.7198 -0.3835
 1765SOL     OW16756   2.369   2.376   5.113 -0.2228 -0.3979  0.0716
 1765SOL    HW116757   2.449   2.389   5.164  0.2973 -0.8309 -0.6172
 1765SOL    HW216758   2.308   2.436   5.155  0.1048  0.1608 -0.2336
 1766SOL     OW16759   1.948   3.339   5.457 -0.4527 -0.6139 -0.0774
 1766SOL    HW116760   2.026   3.346   5.403 -1.2033  2.0019 -0.8251
 1766SOL    HW216761   1.984   3.297   5.535  0.6372 -1.4626 -1.0410
 1767SOL     OW16762   3.105   2.185   5.606  0.2657  0.0744 -0.1588
 1767SOL    HW116763   3.156   2.195   5.687 -0.0275  0.2473  0.0046
 1767SOL    HW216764   3.060   2.106   5.635  0.0489  0.2175 -0.1084
 1768SOL     OW16765   3.879   2.244   4.019  0.0664 -0.4808  0.1705
 1768SOL    HW116766   3.942   2.233   3.947 -0.4352 -2.2147  0.0076
 1768SOL    HW216767   3.890   2.338   4.030  0.8879 -0.6390  0.7136
 1769SOL     OW16768   1.653   4.627   4.687 -0.0001 -0.6901  0.3753
 1769SOL    HW116769   1.747   4.637   4.706  0.2570 -1.6586 -0.3317
 1769SOL    HW216770   1.617   4.653   4.771 -0.6802  1.8599 -0.7035
 1770SOL     OW16771   1.970   2.581  12.757 -0.2766  0.3452  0.0406
 1770SOL    HW116772   1.940   2.567  12.667 -0.0258 -0.0501  0.0154
 1770SOL    HW216773   1.982   2.486  12.765 -0.7926  0.4480  1.9743
 1771SOL     OW16774   1.986   0.700   5.481 -0.4310 -0.2033 -0.1918
 1771SOL    HW116775   2.055   0.695   5.548 -1.1536  1.1039  0.6319
 1771SOL    HW216776   2.007   0.627   5.422  1.4817 -0.7290  1.1400
 1772SOL     OW16777   2.335   2.166   4.390  0.3022  0.2700 -0.0723
 1772SOL    HW116778   2.256   2.140   4.436  1.0287 -1.1588  0.3475
 1772SOL    HW216779   2.398   2.117   4.443  0.3281  2.0394  1.5607
 1773SOL     OW16780   1.469   4.445  17.071 -0.3721  0.2092 -0.2235
 1773SOL    HW116781   1.476   4.350  17.084  1.8521  0.6730  1.9139
 1773SOL    HW216782   1.476   4.455  16.976  3.9971 -2.2727 -0.1743
 1774SOL     OW16783   3.114   2.418   3.534 -0.7321  0.2040 -0.6003
 1774SOL    HW116784   3.118   2.489   3.471  0.9716 -0.0793 -0.7940
 1774SOL    HW216785   3.156   2.456   3.611  0.1074  0.7293 -1.3180
 1775SOL     OW16786   2.533   3.919   4.848  0.1197  0.1045  0.4167
 1775SOL    HW116787   2.487   3.835   4.856  1.0620 -0.4896 -0.4130
 1775SOL    HW216788   2.615   3.899   4.802 -0.3329  2.5309 -1.4244
 1776SOL     OW16789   3.421   2.576   4.005  0.3498 -0.3029 -0.6964
 1776SOL    HW116790   3.372   2.538   3.932  0.4865 -1.0852 -0.3857
 1776SOL    HW216791   3.488   2.510   4.026  0.6981  0.1618 -0.3456
 1777SOL     OW16792   4.495   0.464   4.111  0.3284  0.1687 -0.4545
 1777SOL    HW116793   4.528   0.520   4.040  0.5659  0.7065  0.0825
 1777SOL    HW216794   4.531   0.511   4.186 -2.0553 -0.3481  1.0209
 1778SOL     OW16795   4.602   1.934   5.567 -0.3798  0.2656  0.1467
 1778SOL    HW116796   4.548   1.977   5.501 -1.8528 -2.5183 -0.4773
 1778SOL    HW216797   4.535   1.896   5.624 -0.8196 -0.4893 -0.8809
 1779SOL     OW16798   1.540   0.356   8.466 -0.2621  0.3070  0.4369
 1779SOL    HW116799   1.594   0.334   8.542  1.2146 -4.0867 -1.8641
 1779SOL    HW216800   1.469   0.294   8.484 -1.3308  1.5423  0.4428
 1780SOL     OW16801   4.449   3.230  10.777 -0.1702  0.3151 -0.1305
 1780SOL    HW116802   4.401   3.185  10.707  0.0541  1.1956 -0.8530
 1780SOL    HW216803   4.377   3.284  10.810  0.9614  1.6716  0.0971
 1781SOL     OW16804   1.303   0.955   4.203 -0.1422 -0.1825 -0.0909
 1781SOL    HW116805   1.305   0.893   4.276 -2.6988  0.2044  0.2975
 1781SOL    HW216806   1.395   0.962   4.177  0.4632 -1.6214  1.6371
 1782SOL     OW16807   4.250   1.236   4.489 -0.8752  0.1064  0.3934
 1782SOL    HW116808   4.166   1.190   4.486  0.1479 -1.8073  1.4103
 1782SOL    HW216809   4.232   1.306   4.552  1.0012  0.7888  0.1560
 1783SOL     OW16810   1.820   4.329   4.650 -0.4227 -0.7042 -0.2555
 1783SOL    HW116811   1.747   4.366   4.700  1.3530  2.1963  0.1601
 1783SOL    HW216812   1.858   4.413   4.627  1.8188 -0.5953  3.9397
 1784SOL     OW16813   0.282   4.401   2.692  0.1331 -0.0032  0.5142
 1784SOL    HW116814   0.216   4.469   2.673  1.3436  0.1377 -3.2252
 1784SOL    HW216815   0.299   4.370   2.603 -0.8264 -0.2854  0.4319
 1785SOL     OW16816   0.794   1.627   0.537  0.2263  0.4064 -0.3119
 1785SOL    HW116817   0.864   1.688   0.515  0.3739  0.4354  0.2229
 1785SOL    HW216818   0.729   1.658   0.474 -0.7046  1.9548  1.4262
 1786SOL     OW16819   4.631   1.843   6.362  0.4643  0.0535 -0.2347
 1786SOL    HW116820   4.682   1.899   6.304  0.4153 -0.3559 -0.6668
 1786SOL    HW216821   4.698   1.774   6.364 -1.0867 -1.3801  3.0272
 1787SOL     OW16822   3.769   1.318  12.910 -0.1241  0.4262 -0.2342
 1787SOL    HW116823   3.722   1.388  12.866 -0.9998 -0.3737 -0.5697
 1787SOL    HW216824   3.833   1.373  12.955  1.0536  2.1225 -4.0017
 1788SOL     OW16825   0.661   0.942   7.224 -0.1241  0.0403  0.0274
 1788SOL    HW116826   0.618   0.994   7.291 -0.8495 -0.5488  0.0286
 1788SOL    HW216827   0.729   0.904   7.280  1.2800 -0.9611 -2.3429
 1789SOL     OW16828   0.766   0.057  11.079 -0.1376 -0.0459  0.6496
 1789SOL    HW116829   0.776   4.718  11.010  2.0977  1.8355 -0.8277
 1789SOL    HW216830   0.853   0.062  11.118  1.2141  1.0771 -2.4763
 1790SOL     OW16831   2.650   0.780   6.053  0.1499 -0.3195  0.3468
 1790SOL    HW116832   2.661   0.871   6.081 -0.0634 -0.2460  0.1907
 1790SOL    HW216833   2.619   0.802   5.965 -0.4743 -1.1522  0.3655
 1791SOL     OW16834   1.020   4.346   7.947 -0.2957 -0.0063 -0.5267
 1791SOL    HW116835   0.950   4.338   7.883 -0.3075 -0.3820 -0.4669
 1791SOL    HW216836   1.003   4.264   7.993  0.3494  0.4862  0.6075
 1792SOL     OW16837   4.463   2.843   4.826  0.0316 -0.4918 -0.0298
 1792SOL    HW116838   4.411   2.851   4.906  1.9762  1.5691  1.0373
 1792SOL    HW216839   4.536   2.789   4.857  1.1893  1.1273  0.0635
 1793SOL     OW16840   4.635   1.777  10.209 -0.7301 -0.2459  0.2573
 1793SOL    HW116841   4.685   1.857  10.221 -2.9962  1.0143  1.2458
 1793SOL    HW216842   4.678   1.711  10.264 -0.1246  0.5686  0.7476
 1794SOL     OW16843   4.310   4.467   6.491  0.2943  0.1479  0.1993
 1794SOL    HW116844   4.252   4.423   6.554  0.2843  1.3520  1.0287
 1794SOL    HW216845   4.348   4.394   6.442 -0.6647  0.9495 -1.7042
 1795SOL     OW16846   1.492   4.127  12.443  0.4438  0.2909 -0.5144
 1795SOL    HW116847   1.460   4.190  12.378  0.7352 -2.2135 -3.0856
 1795SOL    HW216848   1.432   4.052  12.441  0.6587  0.1049 -0.0147
 1796SOL     OW16849   1.335   1.777   3.931  0.1851  0.1776 -0.2171
 1796SOL    HW116850   1.339   1.868   3.960 -0.7617 -0.0490  0.6305
 1796SOL    HW216851   1.243   1.756   3.945  0.5256 -2.9946 -2.7716
 1797SOL     OW16852   3.411   3.180   7.307 -0.4680  0.4017 -0.1854
 1797SOL    HW116853   3.352   3.118   7.348 -0.0461  0.2418  0.1839
 1797SOL    HW216854   3.477   3.124   7.266 -0.3354  1.7559 -1.8148
 1798SOL     OW16855   2.329   2.262   2.527  0.1622  0.0114  0.5988
 1798SOL    HW116856   2.394   2.211   2.477 -2.0048 -0.8630 -1.2984
 1798SOL    HW216857   2.376   2.345   2.537  1.1274 -0.6079  1.1685
 1799SOL     OW16858   1.235   3.873   1.582 -0.3766 -0.7775 -0.6477
 1799SOL    HW116859   1.219   3.952   1.632  0.5509 -1.3588  0.5508
 1799SOL    HW216860   1.224   3.895   1.489  0.0485 -0.2241 -0.5618
 1800SOL     OW16861   1.191   2.955  16.608 -0.0514  0.5895 -0.2898
 1800SOL    HW116862   1.235   2.874  16.580 -2.1520 -0.6149 -0.0834
 1800SOL    HW216863   1.150   2.972  16.523  4.1145  0.1579 -2.3876
 1801SOL     OW16864   3.892   4.214   6.392  0.8964 -0.1716 -0.0261
 1801SOL    HW116865   3.852   4.138   6.349  0.5320 -0.3327  0.5934
 1801SOL    HW216866   3.972   4.229   6.342  1.0858 -2.0839 -0.2911
 1802SOL     OW16867   0.570   1.708   0.933  0.0115 -0.7325  0.3574
 1802SOL    HW116868   0.540   1.721   0.843 -2.0113 -2.1270  0.8351
 1802SOL    HW216869   0.608   1.787   0.970 -0.2748 -0.3488 -0.1645
 1803SOL     OW16870   3.589   0.537   9.367  0.2795  0.4011  0.6623
 1803SOL    HW116871   3.555   0.510   9.282  1.0190  1.5417 -0.0089
 1803SOL    HW216872   3.681   0.511   9.359 -0.0088 -0.5087  0.4352
 1804SOL     OW16873   0.229   3.360  12.025  0.3637  0.3546 -0.2448
 1804SOL    HW116874   0.294   3.302  11.987 -0.0523 -0.3567  0.1171
 1804SOL    HW216875   0.183   3.401  11.952  0.4557 -0.4357 -0.7401
 1805SOL     OW16876   3.763   1.516   4.117  0.0264  0.4784 -0.1583
 1805SOL    HW116877   3.703   1.455   4.073 -0.2161  0.2062  0.5485
 1805SOL    HW216878   3.770   1.572   4.040 -1.7295  0.3146 -0.4278
 1806SOL     OW16879   2.041   4.505   5.530  0.2819  0.0476  0.7665
 1806SOL    HW116880   2.049   4.422   5.577  1.4595 -1.5169 -2.1853
 1806SOL    HW216881   1.946   4.510   5.540  0.0841 -3.3307  0.5092
 1807SOL     OW16882   3.619   0.999   0.373  0.3179 -0.0837  0.3078
 1807SOL    HW116883   3.644   1.091   0.364 -0.5313 -0.0197 -1.5097
 1807SOL    HW216884   3.704   0.957   0.388  0.4171 -0.2267 -0.6336
 1808SOL     OW16885   1.260   4.721   4.119 -0.1597 -0.2357 -0.1398
 1808SOL    HW116886   1.206   0.065   4.083  0.5460 -0.5825 -1.8889
 1808SOL    HW216887   1.225   4.721   4.208 -0.5878 -0.7387 -0.3042
 1809SOL     OW16888   1.361   2.140   9.323  1.2483 -0.1886 -0.4314
 1809SOL    HW116889   1.417   2.202   9.369 -1.9868 -0.3293  3.6663
 1809SOL    HW216890   1.327   2.193   9.251  1.5553  0.0482 -0.4035
 1810SOL     OW16891   0.007   4.689  12.932 -0.0712 -1.0458  0.2917
 1810SOL    HW116892   0.040   0.010  12.856 -3.2810  0.7398 -0.0155
 1810SOL    HW216893   4.691   4.618  12.884 -0.9619 -0.2825 -0.0704
 1811SOL     OW16894   1.591   2.460  11.427  0.5394  1.0570 -0.2745
 1811SOL    HW116895   1.572   2.538  11.479 -1.6547  0.1159  0.3401
 1811SOL    HW216896   1.598   2.393  11.494  2.4059  0.5540 -0.9852
 1812SOL     OW16897   4.106   0.907   4.789 -0.3478 -0.5765 -0.0697
 1812SOL    HW116898   4.060   0.907   4.873 -1.7229 -1.8981 -0.8262
 1812SOL    HW216899   4.132   0.816   4.778 -1.7768 -0.8372 -1.2599
 1813SOL     OW16900   3.488   2.064  10.774  0.4683  0.3354 -0.4143
 1813SOL    HW116901   3.431   1.987  10.783 -0.2520  0.8819 -0.2988
 1813SOL    HW216902   3.540   2.069  10.854 -0.5973  0.7880  0.2569
 1814SOL     OW16903   3.426   3.878   5.260  1.1231  0.0049  0.3382
 1814SOL    HW116904   3.504   3.822   5.262  0.0018 -1.5076  1.7185
 1814SOL    HW216905   3.367   3.821   5.209 -0.8212  2.8795 -0.5920
 1815SOL     OW16906   1.792   1.183   4.179 -0.9092 -0.5324  0.5084
 1815SOL    HW116907   1.703   1.216   4.177 -0.5779  0.2278 -1.2873
 1815SOL    HW216908   1.810   1.160   4.087  1.0447  2.2447  0.2111
 1816SOL     OW16909   0.744   0.901  16.788 -0.1852  0.2901 -0.5886
 1816SOL    HW116910   0.657   0.919  16.823  0.9871  0.5003  2.2460
 1816SOL    HW216911   0.745   0.947  16.704  1.3130 -2.9276 -2.3264
 1817SOL     OW16912   2.446   1.992   1.959 -0.3582  0.0502 -0.6595
 1817SOL    HW116913   2.442   1.935   2.035  2.0685  1.3394  0.4128
 1817SOL    HW216914   2.497   1.938   1.899  0.9879 -0.7495  1.2081
 1818SOL     OW16915   4.676   4.130   2.224  0.6146  0.9086  0.0852
 1818SOL    HW116916   4.621   4.061   2.260 -0.2367  1.5086 -0.0821
 1818SOL    HW216917   4.675   4.201   2.288 -1.8362  1.4494 -0.5707
 1819SOL     OW16918   0.806   2.365   8.527 -0.2231 -0.0374  0.3692
 1819SOL    HW116919   0.790   2.365   8.433  0.6975 -2.0384  0.2293
 1819SOL    HW216920   0.805   2.270   8.532 -0.8663 -0.0715 -0.5573
 1820SOL     OW16921   0.937   2.884   3.867  0.0143  0.3373 -0.4425
 1820SOL    HW116922   0.920   2.813   3.804 -0.7513  0.8933 -0.8608
 1820SOL    HW216923   0.849   2.898   3.903  0.2237 -1.2430  0.6722
 1821SOL     OW16924   3.341   3.252   4.115  0.1423 -0.3578  0.1535
 1821SOL    HW116925   3.415   3.297   4.074 -1.0544  0.6696 -0.8943
 1821SOL    HW216926   3.283   3.326   4.131  0.4043 -0.0945 -0.1046
 1822SOL     OW16927   3.919   2.460   5.040  0.0177 -0.0969  0.1983
 1822SOL    HW116928   4.004   2.490   5.008 -1.0841  3.6379  0.8345
 1822SOL    HW216929   3.955   2.394   5.100 -1.0616 -0.5326  0.3658
 1823SOL     OW16930   1.970   2.625   0.848  0.0452 -0.0940 -0.3792
 1823SOL    HW116931   1.989   2.718   0.856 -1.6023  0.1838  0.5194
 1823SOL    HW216932   1.922   2.621   0.765  1.2102  1.0236 -1.0904
 1824SOL     OW16933   0.116   1.749  17.044  0.3374 -0.4843  0.1735
 1824SOL    HW116934   0.135   1.840  17.019 -1.2473 -0.1937  0.0292
 1824SOL    HW216935   0.033   1.761  17.090 -1.5871  2.1655 -3.9972
 1825SOL     OW16936   1.848   0.836   7.550  0.1958  0.4452 -0.0329
 1825SOL    HW116937   1.906   0.909   7.573 -2.3698  2.4748  0.0057
 1825SOL    HW216938   1.874   0.771   7.616 -0.0020 -0.2154 -0.6156
 1826SOL     OW16939   2.563   0.187   4.584  0.1686  0.0197  0.8077
 1826SOL    HW116940   2.629   0.232   4.531 -1.3819 -0.2764 -1.3707
 1826SOL    HW216941   2.583   0.216   4.673  0.7215 -0.4511  0.8337
 1827SOL     OW16942   1.393   1.198   2.372  0.3467  0.0850 -0.1825
 1827SOL    HW116943   1.331   1.160   2.435 -1.4509 -1.5326 -2.9338
 1827SOL    HW216944   1.376   1.291   2.385  0.7787 -0.1096  1.7528
 1828SOL     OW16945   4.331   0.703   8.882 -0.0208  0.0982  0.3254
 1828SOL    HW116946   4.320   0.711   8.787 -1.5329  4.0623  0.8262
 1828SOL    HW216947   4.397   0.771   8.896 -0.7137  0.8125  0.1214
 1829SOL     OW16948   3.019   1.685   6.826  0.4721  0.3621  0.1288
 1829SOL    HW116949   3.009   1.777   6.853 -2.0692 -0.4174  1.8425
 1829SOL    HW216950   3.108   1.688   6.790 -0.5690 -0.1445 -2.4274
 1830SOL     OW16951   1.905   2.686   6.840 -0.3558 -0.1148 -0.0018
 1830SOL    HW116952   1.894   2.593   6.858  1.7523  0.0005  1.8706
 1830SOL    HW216953   1.897   2.721   6.928 -0.9521  2.4674 -1.0915
 1831SOL     OW16954   0.721   4.452  14.294  0.3765 -0.5226  0.0191
 1831SOL    HW116955   0.640   4.405  14.316 -0.9991  2.3882  1.1225
 1831SOL    HW216956   0.787   4.384  14.304  0.2394 -0.4878  1.2011
 1832SOL     OW16957   0.452   2.241  11.325  0.0633 -0.0344 -0.6002
 1832SOL    HW116958   0.408   2.165  11.363  2.6592  0.3260  3.1495
 1832SOL    HW216959   0.539   2.201  11.316 -0.0206 -0.1372 -0.9706
 1833SOL     OW16960   3.044   0.522   3.471 -0.0083  0.3856 -0.5355
 1833SOL    HW116961   2.951   0.538   3.485 -0.1194 -0.1214 -0.6905
 1833SOL    HW216962   3.087   0.539   3.554 -2.2342  0.6619  0.5566
 1834SOL     OW16963   2.087   2.220   2.404 -0.1257 -0.3367  0.3410
 1834SOL    HW116964   2.137   2.273   2.341 -0.5386  0.2931  0.5468
 1834SOL    HW216965   2.163   2.188   2.453 -1.1664 -1.7597  1.0310
 1835SOL     OW16966   3.020   3.240   8.090 -0.1208  0.5272 -0.0911
 1835SOL    HW116967   3.024   3.152   8.127  0.7624  0.4785 -0.3001
 1835SOL    HW216968   3.087   3.285   8.141  1.0873  0.1301 -1.3390
 1836SOL     OW16969   1.866   1.555   3.735  0.1397 -0.3778 -0.3077
 1836SOL    HW116970   1.935   1.503   3.694  1.0267 -0.2911  1.0916
 1836SOL    HW216971   1.797   1.529   3.674  0.6733 -1.2072 -0.5558
 1837SOL     OW16972   0.576   3.807   3.620 -0.0773 -0.3160 -0.7184
 1837SOL    HW116973   0.523   3.842   3.691 -1.2251 -0.2032 -1.6444
 1837SOL    HW216974   0.519   3.737   3.590  1.1064 -1.9099  0.7945
 1838SOL     OW16975   4.288   3.995  13.477 -0.5562  0.4437  0.0219
 1838SOL    HW116976   4.331   4.003  13.562  0.9695  0.0381 -0.7178
 1838SOL    HW216977   4.367   4.005  13.423  1.0187  2.2746  2.6550
 1839SOL     OW16978   2.402   3.370   5.163 -0.1958 -0.6885 -0.3555
 1839SOL    HW116979   2.409   3.438   5.095  5.3942 -1.2888 -0.3744
 1839SOL    HW216980   2.468   3.306   5.135 -0.3403  0.5196 -3.5099
 1840SOL     OW16981   4.050   4.140   7.886 -0.3200 -0.1856  0.1410
 1840SOL    HW116982   3.961   4.109   7.870  0.0648 -0.7102 -0.9783
 1840SOL    HW216983   4.089   4.058   7.914  0.3941  0.1697  0.1868
 1841SOL     OW16984   0.696   1.244   3.218 -0.2717  0.9550 -0.3704
 1841SOL    HW116985   0.623   1.183   3.227  1.0667 -0.2285  2.5446
 1841SOL    HW216986   0.650   1.326   3.232 -0.3455  0.6444  1.2368
 1842SOL     OW16987   1.594   4.426   4.042  0.0875 -0.1788 -0.0025
 1842SOL    HW116988   1.547   4.347   4.016  0.9785 -0.1692 -1.6582
 1842SOL    HW216989   1.540   4.494   4.002 -0.7940 -1.9579 -1.8731
 1843SOL     OW16990   0.002   4.715   9.796 -0.1615 -0.4356  0.5142
 1843SOL    HW116991   4.684   4.667   9.726  0.1655 -2.5789  1.7693
 1843SOL    HW216992   4.676   0.068   9.790 -0.1473 -0.5285 -0.8967
 1844SOL     OW16993   0.863   2.770   8.158 -0.1709  0.4590 -0.3856
 1844SOL    HW116994   0.878   2.729   8.243 -0.7126  0.0031 -0.5102
 1844SOL    HW216995   0.771   2.749   8.140 -0.1495  0.3494 -0.3630
 1845SOL     OW16996   2.288   3.097   5.797  0.0009 -0.0073  0.2984
 1845SOL    HW116997   2.278   3.118   5.890 -0.2221  1.5043 -0.0670
 1845SOL    HW216998   2.372   3.137   5.777 -0.5651  0.2588 -1.5060
 1846SOL     OW16999   1.179   1.224   8.027 -0.7384 -0.1997  0.4145
 1846SOL    HW117000   1.255   1.250   7.975 -2.0340 -0.6310 -1.6898
 1846SOL    HW217001   1.131   1.306   8.020  0.0493  0.4264  2.2751
 1847SOL     OW17002   0.428   3.096   1.902  0.0874  0.3503  0.0344
 1847SOL    HW117003   0.366   3.116   1.972 -0.2313  2.2178 -0.7724
 1847SOL    HW217004   0.438   3.003   1.922  1.7730  0.5588  0.1764
 1848SOL     OW17005   1.744   4.685   2.000  0.7020 -0.1171  0.1691
 1848SOL    HW117006   1.791   0.039   1.980  0.6304  0.1100  0.9489
 1848SOL    HW217007   1.665   4.688   1.945  1.9305 -1.8935 -1.7196
 1849SOL     OW17008   2.745   2.517   5.974 -0.6916 -0.2454  0.3300
 1849SOL    HW117009   2.672   2.553   5.924  0.1503 -1.4568 -1.7970
 1849SOL    HW217010   2.787   2.460   5.910  1.6823  0.6598  1.0816
 1850SOL     OW17011   1.113   2.568  12.656  0.3646 -0.2080  0.3673
 1850SOL    HW117012   1.162   2.650  12.662  1.5457 -0.6381 -2.9798
 1850SOL    HW217013   1.184   2.504  12.650 -0.5966 -1.2429  0.0486
 1851SOL     OW17014   3.168   1.507   7.954 -0.0282  0.0000 -0.5426
 1851SOL    HW117015   3.090   1.507   8.010 -0.2723  2.6698 -0.8631
 1851SOL    HW217016   3.129   1.472   7.874 -0.6877 -0.8231  0.1329
 1852SOL     OW17017   1.531   2.550   4.093 -0.1588 -0.1214 -0.2114
 1852SOL    HW117018   1.518   2.606   4.017 -1.8524  0.1659  0.2856
 1852SOL    HW217019   1.441   2.535   4.123  0.8224 -2.5034  1.6079
 1853SOL     OW17020   1.368   4.294  12.725 -0.3106 -0.3301  0.1084
 1853SOL    HW117021   1.409   4.219  12.682 -0.8797 -0.0645 -0.8872
 1853SOL    HW217022   1.283   4.258  12.750  0.3815 -1.8764  0.2151
 1854SOL     OW17023   2.210   1.107   0.621 -0.1221 -0.0700 -0.1183
 1854SOL    HW117024   2.237   1.016   0.604 -1.7441 -0.8800  1.6762
 1854SOL    HW217025   2.118   1.096   0.595 -0.3284  0.7388  0.2783
 1855SOL     OW17026   2.608   4.358  10.405  0.2873  0.3062  0.3684
 1855SOL    HW117027   2.674   4.327  10.467  0.2820 -2.0121 -0.8077
 1855SOL    HW217028   2.607   4.287  10.341  1.3346  0.1609  0.5103
 1856SOL     OW17029   3.607   1.904   0.142 -0.0146 -0.3992  0.5074
 1856SOL    HW117030   3.650   1.877   0.061  1.6577 -0.2019  1.3266
 1856SOL    HW217031   3.672   1.960   0.185 -1.7052  1.1276  1.1025
 1857SOL     OW17032   3.936   0.753   6.280  0.5170 -0.0529  0.1026
 1857SOL    HW117033   3.846   0.726   6.266  0.6965 -0.1809 -0.7985
 1857SOL    HW217034   3.977   0.706   6.207  1.5309 -1.4380  1.5661
 1858SOL     OW17035   1.926   4.395   2.730  0.0193  0.1973  0.0220
 1858SOL    HW117036   1.855   4.455   2.751  1.2045  1.3031  0.8373
 1858SOL    HW217037   1.955   4.433   2.648 -2.2170 -2.8256 -2.1905
 1859SOL     OW17038   3.561   1.135  11.963  0.0711 -0.1177  0.0008
 1859SOL    HW117039   3.534   1.215  11.920  1.1170  1.1651  1.7322
 1859SOL    HW217040   3.526   1.065  11.908  1.1815 -0.7279  0.0531
 1860SOL     OW17041   4.709   1.828  16.613  0.2597 -0.7001 -0.3894
 1860SOL    HW117042   4.709   1.917  16.647 -1.4214 -0.2968 -1.4298
 1860SOL    HW217043   4.711   1.773  16.691 -1.4481 -0.5199 -0.2141
 1861SOL     OW17044   3.290   1.393   3.252  0.2739  0.7247 -0.3914
 1861SOL    HW117045   3.357   1.326   3.239  1.7942  1.8967  1.5827
 1861SOL    HW217046   3.214   1.338   3.229  0.4488  0.9381 -1.5119
 1862SOL     OW17047   4.235   4.722   7.572  0.0379  0.0046  0.4452
 1862SOL    HW117048   4.268   0.061   7.511 -0.0389 -1.4326 -1.1441
 1862SOL    HW217049   4.312   4.667   7.564 -1.2906 -1.7303 -0.4571
 1863SOL     OW17050   3.765   1.679  12.592 -0.1148 -1.0486  0.4114
 1863SOL    HW117051   3.786   1.599  12.544 -1.7202 -0.6368 -0.9981
 1863SOL    HW217052   3.739   1.737  12.519  1.9089 -1.0679 -0.3371
 1864SOL     OW17053   1.971   3.223   6.745  0.3542  0.1926  0.1286
 1864SOL    HW117054   2.052   3.187   6.708  0.3460  0.0953  0.2044
 1864SOL    HW217055   1.938   3.279   6.675 -3.1155 -2.6167 -0.4840
 1865SOL     OW17056   2.907   4.645  12.558  0.0552 -0.7127  0.5500
 1865SOL    HW117057   2.885   4.641  12.465 -1.9266 -0.5371  1.0178
 1865SOL    HW217058   2.941   4.555  12.564  0.2206 -0.6511  0.5158
 1866SOL     OW17059   0.759   1.579   2.521 -0.2948  0.0027 -0.0115
 1866SOL    HW117060   0.664   1.582   2.505  0.0797  0.3464 -2.1223
 1866SOL    HW217061   0.755   1.508   2.586 -1.8421  0.5711  0.5159
 1867SOL     OW17062   4.717   3.264  15.996  0.3789 -0.3645 -0.6295
 1867SOL    HW117063   0.031   3.198  15.940  3.2836 -0.2393  1.3223
 1867SOL    HW217064   4.625   3.239  15.992 -0.1897  1.6353 -0.1850
 1868SOL     OW17065   4.591   0.820   8.185  0.0134 -0.2642 -0.2830
 1868SOL    HW117066   4.586   0.726   8.203  2.5086 -0.4642 -0.6820
 1868SOL    HW217067   4.530   0.831   8.112  0.1952 -0.2045 -0.4260
 1869SOL     OW17068   2.330   0.226   2.448  0.0129  0.6867  0.3353
 1869SOL    HW117069   2.399   0.269   2.498  0.5197 -0.7310  0.8331
 1869SOL    HW217070   2.369   0.245   2.362 -0.4478  1.1005  0.2110
 1870SOL     OW17071   1.454   1.732  13.748  0.5781  0.7249  0.3114
 1870SOL    HW117072   1.399   1.681  13.689 -1.4966  2.3816  0.8095
 1870SOL    HW217073   1.450   1.809  13.691 -2.7843 -0.7696 -1.4601
 1871SOL     OW17074   1.417   2.839  13.554 -0.1223 -0.3076 -0.4445
 1871SOL    HW117075   1.378   2.828  13.467 -0.2973  0.6375 -0.4793
 1871SOL    HW217076   1.359   2.897  13.603  0.8507  1.1322 -1.0262
 1872SOL     OW17077   0.296   2.936   8.566  0.7743  0.2095  0.6564
 1872SOL    HW117078   0.235   2.926   8.492 -0.7770  2.1993  1.6812
 1872SOL    HW217079   0.249   2.999   8.620 -0.4608 -0.7529  0.7122
 1873SOL     OW17080   4.118   3.101   6.163  0.4759  0.2608  0.0193
 1873SOL    HW117081   4.075   3.022   6.132 -0.6100  0.1245  1.8392
 1873SOL    HW217082   4.070   3.159   6.104  0.4128  2.1209  1.9113
 1874SOL     OW17083   3.902   3.281   2.087 -0.1357 -0.1768  0.2634
 1874SOL    HW117084   3.850   3.235   2.153  1.5874 -3.4091 -0.6066
 1874SOL    HW217085   3.899   3.372   2.117  0.2914 -0.2548  0.5397
 1875SOL     OW17086   4.698   2.789   5.558 -0.3197  0.0163  0.1414
 1875SOL    HW117087   4.609   2.786   5.591 -0.4487 -1.3597 -0.3090
 1875SOL    HW217088   0.021   2.789   5.640 -1.9133 -1.2869  1.0935
 1876SOL     OW17089   3.886   3.865   4.481 -0.3161 -0.1313  0.6426
 1876SOL    HW117090   3.897   3.943   4.536  1.2922  0.4334 -0.4883
 1876SOL    HW217091   3.969   3.819   4.474 -0.9995 -0.7765 -3.4128
 1877SOL     OW17092   0.572   1.830   8.889 -0.1795  0.4553  0.2597
 1877SOL    HW117093   0.519   1.905   8.915 -1.1131  0.2845 -1.1674
 1877SOL    HW217094   0.561   1.833   8.794 -1.6188 -3.1768  0.3031
 1878SOL     OW17095   3.937   0.685   2.781  0.8262 -0.0884 -0.6240
 1878SOL    HW117096   3.885   0.672   2.702 -0.0168  0.5656 -0.1913
 1878SOL    HW217097   4.023   0.650   2.760  1.6214 -0.2996  3.0544
 1879SOL     OW17098   0.829   3.668  12.755 -0.3236 -0.7504  0.0104
 1879SOL    HW117099   0.768   3.608  12.712 -1.9785  0.2724  0.9558
 1879SOL    HW217100   0.810   3.652  12.847 -1.0620 -0.7834 -0.1455
 1880SOL     OW17101   0.356   0.503   3.627 -0.0439 -0.4954 -0.3060
 1880SOL    HW117102   0.428   0.563   3.607  1.2463 -1.3038  1.9586
 1880SOL    HW217103   0.318   0.569   3.685  1.3204  1.2904 -1.4507
 1881SOL     OW17104   1.753   1.681   2.983 -0.4899  0.5983 -1.1230
 1881SOL    HW117105   1.791   1.676   3.070  2.5603  0.6674 -2.4736
 1881SOL    HW217106   1.717   1.769   2.975 -1.8944  0.2922  2.0830
 1882SOL     OW17107   1.468   2.874   8.235 -0.6030 -0.0378  0.0489
 1882SOL    HW117108   1.428   2.787   8.231  3.3712 -1.7574 -1.8486
 1882SOL    HW217109   1.482   2.886   8.329  0.6066 -0.0822 -0.1260
 1883SOL     OW17110   1.750   3.152   2.567  0.1159  0.5228  0.1204
 1883SOL    HW117111   1.715   3.148   2.478  0.8001  1.7050 -0.2015
 1883SOL    HW217112   1.836   3.192   2.558  0.6095  0.2538  3.6810
 1884SOL     OW17113   4.368   0.353   4.405  0.5204 -0.1967 -0.6140
 1884SOL    HW117114   4.433   0.421   4.420  0.2720  0.2840 -1.7036
 1884SOL    HW217115   4.427   0.285   4.372 -0.0051 -0.1296 -1.7230
 1885SOL     OW17116   0.134   0.380  12.712 -0.5979 -1.0623  0.3965
 1885SOL    HW117117   0.199   0.361  12.779 -0.1873  0.7975  0.5462
 1885SOL    HW217118   0.090   0.457  12.749 -0.0895 -0.0732 -1.0624
 1886SOL     OW17119   0.377   2.352   5.776  0.5748  0.4088  0.2120
 1886SOL    HW117120   0.369   2.369   5.870 -0.0007  2.1858 -0.1544
 1886SOL    HW217121   0.359   2.438   5.738 -1.6501 -0.7458 -1.3880
 1887SOL     OW17122   4.352   3.982   4.174 -0.5262 -0.0903  0.7359
 1887SOL    HW117123   4.325   3.936   4.253 -0.3189  0.5885  1.2034
 1887SOL    HW217124   4.268   4.014   4.141 -1.9137 -0.9669  3.4523
 1888SOL     OW17125   1.287   1.083  13.883 -0.0446 -0.4962 -0.0118
 1888SOL    HW117126   1.304   1.119  13.970  1.9919  1.0675 -1.0689
 1888SOL    HW217127   1.228   1.148  13.846  0.0617 -0.4944 -0.1755
 1889SOL     OW17128   1.222   4.520   9.400 -0.3588  0.0305  0.4561
 1889SOL    HW117129   1.307   4.562   9.387  0.1445 -0.0678  3.2638
 1889SOL    HW217130   1.162   4.583   9.361  0.4812 -0.5250 -1.7216
 1890SOL     OW17131   4.483   0.790   5.072  0.0184 -0.3379  0.0397
 1890SOL    HW117132   4.404   0.755   5.112 -1.6566  3.0340 -0.3185
 1890SOL    HW217133   4.534   0.805   5.152 -0.4236  0.1961  0.2174
 1891SOL     OW17134   2.115   1.827   5.176  0.2885 -0.2108 -0.0119
 1891SOL    HW117135   2.189   1.828   5.116 -2.3523 -4.0190 -3.3854
 1891SOL    HW217136   2.051   1.864   5.115  0.2570 -0.2836 -0.0235
 1892SOL     OW17137   1.844   2.663   4.387  0.3028 -0.4666 -0.6070
 1892SOL    HW117138   1.854   2.665   4.292 -0.2390  0.8230 -0.6377
 1892SOL    HW217139   1.928   2.708   4.398  0.3339 -0.2072 -1.9548
 1893SOL     OW17140   3.611   1.250   5.010  0.6141  0.2441  0.0282
 1893SOL    HW117141   3.666   1.326   5.031 -1.5820  1.3107  2.0476
 1893SOL    HW217142   3.528   1.274   5.052  1.4453  0.1352  1.7517
 1894SOL     OW17143   1.261   2.077   1.705  0.4817  0.1906 -0.0928
 1894SOL    HW117144   1.179   2.100   1.749  0.7715 -1.3295  1.2478
 1894SOL    HW217145   1.231   2.059   1.615 -3.6882 -1.3620  1.6057
 1895SOL     OW17146   2.963   1.531   5.753 -0.4114 -0.0033  0.5855
 1895SOL    HW117147   2.990   1.615   5.717  1.0446 -0.1840  1.2541
 1895SOL    HW217148   2.903   1.494   5.688  1.3522  0.0357 -1.0824
 1896SOL     OW17149   3.882   3.950   3.769  0.3243  0.3320 -0.1953
 1896SOL    HW117150   3.819   4.021   3.779 -0.5608 -0.4684 -0.1415
 1896SOL    HW217151   3.837   3.902   3.700 -0.5510  2.3649 -1.0203
 1897SOL     OW17152   2.118   1.470   6.406  0.2618  0.5000 -0.1100
 1897SOL    HW117153   2.110   1.385   6.450 -1.6629 -0.0811 -1.5414
 1897SOL    HW217154   2.056   1.465   6.333 -0.8375 -1.5448  0.9677
 1898SOL     OW17155   0.994   3.455   2.940 -0.4416  0.3715  0.1998
 1898SOL    HW117156   0.971   3.486   2.853 -2.0718 -1.5664 -0.0439
 1898SOL    HW217157   1.004   3.361   2.928  0.2228  0.5208 -0.4233
 1899SOL     OW17158   2.032   4.184   3.295  0.4534  0.4701 -0.3937
 1899SOL    HW117159   2.040   4.089   3.300  3.0201  0.8112  2.2981
 1899SOL    HW217160   2.060   4.206   3.206  0.9702  0.4656 -0.2342
 1900SOL     OW17161   1.130   2.922  11.392 -0.1421 -0.0976  0.4067
 1900SOL    HW117162   1.054   2.901  11.338  1.6144 -2.0080 -1.3144
 1900SOL    HW217163   1.139   3.017  11.384 -0.6538 -0.0417  0.4720
 1901SOL     OW17164   1.165   3.640   6.639 -0.7454  0.4310 -0.4210
 1901SOL    HW117165   1.221   3.679   6.707  0.2251  0.4660 -1.2331
 1901SOL    HW217166   1.081   3.684   6.646 -0.4728  0.7158  1.2329
 1902SOL     OW17167   3.961   0.971  16.290  0.1271  0.3197 -0.3781
 1902SOL    HW117168   3.867   0.990  16.287  0.2024  0.3758 -2.3813
 1902SOL    HW217169   3.976   0.978  16.195 -1.6482  0.8192 -0.6146
 1903SOL     OW17170   2.004   1.719  13.481  0.5607 -0.1122 -0.1362
 1903SOL    HW117171   1.935   1.768  13.439 -0.5607 -0.7535  0.9421
 1903SOL    HW217172   1.949   1.643  13.503  2.4516 -1.5575 -0.3451
 1904SOL     OW17173   4.053   2.205   2.319 -0.2020 -0.2590  0.1124
 1904SOL    HW117174   4.035   2.113   2.339 -2.4540  0.1319 -0.0699
 1904SOL    HW217175   4.069   2.238   2.407 -0.6991  0.9308 -0.2430
 1905SOL     OW17176   4.211   4.230  15.075  0.4143 -0.1757  0.2205
 1905SOL    HW117177   4.240   4.179  14.999 -0.3880  0.1321 -0.2946
 1905SOL    HW217178   4.119   4.205  15.074  0.9706 -2.1685 -0.2535
 1906SOL     OW17179   2.571   1.096  13.967  0.1169  0.4143 -0.0345
 1906SOL    HW117180   2.555   1.066  13.877  1.3160  2.7696 -1.0739
 1906SOL    HW217181   2.507   1.166  13.952 -0.0434 -0.2183 -2.3855
 1907SOL     OW17182   3.933   1.079  11.667 -0.1370  0.3216  0.2182
 1907SOL    HW117183   3.958   1.069  11.575  1.1057 -0.9180  0.6859
 1907SOL    HW217184   3.872   1.153  11.665  1.4747  1.5822 -2.5430
 1908SOL     OW17185   0.099   3.774   9.555 -0.4416  0.5559 -0.4795
 1908SOL    HW117186   0.148   3.787   9.635 -2.2742  1.0403  0.5799
 1908SOL    HW217187   0.043   3.697   9.566 -0.5529  1.1894  3.1453
 1909SOL     OW17188   3.971   1.140   6.087 -0.0110  0.3430 -0.0636
 1909SOL    HW117189   3.948   1.218   6.038 -0.6409 -0.0006 -0.3244
 1909SOL    HW217190   3.895   1.143   6.146  0.6158  0.9063  0.7138
 1910SOL     OW17191   3.219   2.876   3.279  0.1584  0.4387 -0.1710
 1910SOL    HW117192   3.280   2.931   3.229 -0.7643  2.1057  0.5777
 1910SOL    HW217193   3.145   2.876   3.218 -1.1902 -3.4113  1.4746
 1911SOL     OW17194   2.219   1.490   8.045 -0.5035  0.3976 -0.3470
 1911SOL    HW117195   2.132   1.496   8.005 -1.6194 -0.9766  1.8562
 1911SOL    HW217196   2.221   1.568   8.101  0.8113  1.5059 -1.9288
 1912SOL     OW17197   1.395   0.644  11.360  0.3967  0.1452  0.5735
 1912SOL    HW117198   1.315   0.655  11.411  0.6002 -0.0639  0.9351
 1912SOL    HW217199   1.409   0.733  11.327  1.0690  0.0815  0.6937
 1913SOL     OW17200   4.432   1.222   5.254  0.5352 -0.0115 -0.0200
 1913SOL    HW117201   4.390   1.188   5.333 -0.2352 -1.2852 -0.9725
 1913SOL    HW217202   4.366   1.265   5.200  0.4293  0.9192  0.8647
 1914SOL     OW17203   0.688   0.372   6.600  0.0222 -0.0113 -0.2756
 1914SOL    HW117204   0.731   0.455   6.618  1.7379 -0.8579 -0.4312
 1914SOL    HW217205   0.644   0.356   6.684 -1.2175  0.8029 -0.7787
 1915SOL     OW17206   2.945   1.438   4.709 -0.1115 -0.2279 -0.7448
 1915SOL    HW117207   3.023   1.401   4.667  0.9039  0.2387  0.6905
 1915SOL    HW217208   2.904   1.487   4.638 -1.4659 -0.0258  0.1866
 1916SOL     OW17209   3.317   2.992   4.708 -0.0350 -0.1006 -0.6717
 1916SOL    HW117210   3.387   2.979   4.643  0.4207  1.4824 -0.4986
 1916SOL    HW217211   3.343   2.937   4.782 -0.3413  0.2638 -0.2949
 1917SOL     OW17212   0.407   1.785   5.163 -0.4565 -0.4709  0.0726
 1917SOL    HW117213   0.394   1.837   5.084 -1.2610  1.4132  1.4412
 1917SOL    HW217214   0.330   1.817   5.209  0.1781  3.3808 -1.5592
 1918SOL     OW17215   4.122   3.666   4.514 -0.6111  0.3514 -0.5512
 1918SOL    HW117216   4.158   3.583   4.482 -3.3070 -1.1901  0.3749
 1918SOL    HW217217   4.154   3.655   4.604  0.0432 -1.1906 -0.9671
 1919SOL     OW17218   1.777   2.709  11.117  0.1843  0.2402 -0.2617
 1919SOL    HW117219   1.763   2.800  11.094  0.1598  0.7975  1.9641
 1919SOL    HW217220   1.871   2.718  11.137  0.1251 -0.0516  0.1496
 1920SOL     OW17221   3.685   4.492  12.239  0.5819 -0.2742 -0.3069
 1920SOL    HW117222   3.679   4.398  12.226 -0.7290 -0.1222 -0.7281
 1920SOL    HW217223   3.653   4.492  12.329  0.3499  0.8248 -0.3899
 1921SOL     OW17224   0.136   3.713  11.285  0.1496 -0.4327  0.5272
 1921SOL    HW117225   0.046   3.699  11.256  0.1304 -0.3667  0.5552
 1921SOL    HW217226   0.140   3.764  11.366  2.5889 -1.8143  1.2712
 1922SOL     OW17227   2.838   4.707   6.534  0.0635  0.1211 -0.4183
 1922SOL    HW117228   2.915   4.699   6.478 -0.3667 -0.1353 -0.9748
 1922SOL    HW217229   2.822   0.071   6.509 -1.7971  0.3611  1.5962
 1923SOL     OW17230   3.176   0.191   5.419 -0.2077  0.3682  0.7594
 1923SOL    HW117231   3.174   0.283   5.444  1.4685  0.8842 -1.0338
 1923SOL    HW217232   3.264   0.186   5.381 -0.9710 -1.1799 -0.8219
 1924SOL     OW17233   2.070   0.927  15.988 -0.2377 -0.3501 -0.8248
 1924SOL    HW117234   2.164   0.921  15.972  0.1517  0.3778  1.2863
 1924SOL    HW217235   2.028   0.966  15.911 -1.1285  1.2069  0.4507
 1925SOL     OW17236   3.726   4.176   3.752 -0.0526 -0.5344 -0.0061
 1925SOL    HW117237   3.649   4.120   3.738  0.4667 -1.3003  0.1834
 1925SOL    HW217238   3.705   4.248   3.693  3.0209  0.1803 -0.2271
 1926SOL     OW17239   3.661   2.745   3.493  0.4231 -0.5081  0.4926
 1926SOL    HW117240   3.741   2.794   3.511 -0.6537  1.1774  0.7179
 1926SOL    HW217241   3.678   2.718   3.403 -1.5590  0.2299 -0.0966
 1927SOL     OW17242   2.475   0.709   7.375 -0.1013  0.3017 -0.1213
 1927SOL    HW117243   2.484   0.803   7.392 -1.7043 -0.0675  2.8830
 1927SOL    HW217244   2.529   0.700   7.297 -0.9038 -0.4287 -0.5883
 1928SOL     OW17245   4.539   4.519   2.565 -0.3506  0.0174 -0.2873
 1928SOL    HW117246   4.541   4.501   2.659  1.4534 -0.7357 -0.4712
 1928SOL    HW217247   4.461   4.574   2.562 -1.3748 -1.3737  0.9370
 1929SOL     OW17248   2.932   3.321   3.313 -0.4373 -0.2983 -0.0317
 1929SOL    HW117249   2.967   3.263   3.380 -0.3307 -0.6032 -0.3548
 1929SOL    HW217250   2.933   3.405   3.359 -0.1074  0.2818 -1.0779
 1930SOL     OW17251   1.648   4.629   5.902  0.0188 -0.1615  0.0633
 1930SOL    HW117252   1.662   4.669   5.988 -0.4310  2.4257 -1.0553
 1930SOL    HW217253   1.668   4.702   5.843  0.5252 -0.9778 -0.7770
 1931SOL     OW17254   3.611   0.174   9.393  0.0276 -0.0789 -0.5962
 1931SOL    HW117255   3.551   0.101   9.405  0.3192 -0.1606  0.3462
 1931SOL    HW217256   3.607   0.178   9.298  2.0336 -0.3907 -0.6918
 1932SOL     OW17257   3.712   0.965  13.239  0.2316 -0.5172 -0.5964
 1932SOL    HW117258   3.698   0.929  13.151  1.3813 -0.9400 -0.6046
 1932SOL    HW217259   3.622   0.978  13.269 -0.2372 -1.1223 -1.7189
 1933SOL     OW17260   2.359   1.019   2.298 -0.5425 -0.5067 -0.1420
 1933SOL    HW117261   2.345   0.938   2.249 -0.8291 -1.3297  1.3063
 1933SOL    HW217262   2.266   1.033   2.316 -0.7365 -1.2210 -0.5819
 1934SOL     OW17263   4.495   0.966  11.353 -0.3032  0.6774  0.0577
 1934SOL    HW117264   4.579   0.948  11.395 -0.9635  1.0662  1.5368
 1934SOL    HW217265   4.509   0.928  11.266  0.4607 -2.4446  1.5484
 1935SOL     OW17266   1.705   2.442  12.960 -0.1708 -0.1763  0.2052
 1935SOL    HW117267   1.784   2.461  12.910 -0.2124  0.5546  0.4180
 1935SOL    HW217268   1.726   2.501  13.032  2.2824 -1.2773  0.3623
 1936SOL     OW17269   1.490   3.057   8.466  0.0468  0.2857 -0.2940
 1936SOL    HW117270   1.414   3.083   8.518 -0.6073  0.7243 -1.4650
 1936SOL    HW217271   1.496   3.127   8.400  1.5127 -2.6746 -3.3336
 1937SOL     OW17272   1.130   3.365   7.889 -0.1146  0.5406  0.4078
 1937SOL    HW117273   1.144   3.392   7.798 -0.0936 -0.8421 -0.0008
 1937SOL    HW217274   1.086   3.281   7.882  0.9717  0.1122 -1.5032
 1938SOL     OW17275   1.251   4.259   5.432 -0.2051 -0.2321 -0.0870
 1938SOL    HW117276   1.213   4.309   5.360  0.2618 -0.9154 -0.7963
 1938SOL    HW217277   1.199   4.292   5.506 -1.9100  0.0774 -1.4311
 1939SOL     OW17278   1.771   1.850  13.341 -0.0799  0.5432 -0.3897
 1939SOL    HW117279   1.785   1.883  13.252 -0.4163  0.7298 -0.3723
 1939SOL    HW217280   1.686   1.889  13.360  0.7539  1.5051  1.3307
 1940SOL     OW17281   3.629   1.843  13.348  0.7807 -0.1974 -0.3498
 1940SOL    HW117282   3.670   1.836  13.262 -0.1728 -3.0010 -0.5692
 1940SOL    HW217283   3.661   1.927  13.380  1.2215 -0.8043  0.8132
 1941SOL     OW17284   3.032   3.330   1.374 -0.0233  0.0967 -0.4748
 1941SOL    HW117285   3.030   3.245   1.331 -2.3283 -0.0913  0.0065
 1941SOL    HW217286   3.123   3.356   1.386 -0.1903  0.8097 -0.7390
 1942SOL     OW17287   1.551   0.393  11.604  0.0949 -0.5664 -0.1506
 1942SOL    HW117288   1.573   0.462  11.542  1.9362 -1.6758 -0.7207
 1942SOL    HW217289   1.612   0.408  11.676  0.0034 -2.4720  0.3410
 1943SOL     OW17290   4.252   2.666  15.772 -0.1096  0.0088 -0.3823
 1943SOL    HW117291   4.182   2.620  15.818  1.4761 -1.5383  0.5119
 1943SOL    HW217292   4.310   2.671  15.849  0.1440 -1.0083 -0.5040
 1944SOL     OW17293   1.595   0.757   2.278 -0.1766 -0.4780  0.6240
 1944SOL    HW117294   1.533   0.827   2.261 -0.4137  0.0678  3.7554
 1944SOL    HW217295   1.566   0.711   2.356  1.3246 -0.9013  0.9312
 1945SOL     OW17296   2.781   2.137   8.579 -0.9529 -0.5184  0.1976
 1945SOL    HW117297   2.738   2.070   8.631 -3.2875  0.8848  0.0818
 1945SOL    HW217298   2.824   2.185   8.650  2.2152 -0.0783 -2.0163
 1946SOL     OW17299   4.672   2.519   6.170  0.3802 -0.2051  0.5569
 1946SOL    HW117300   0.017   2.581   6.179 -0.1928  0.4666  0.4831
 1946SOL    HW217301   4.640   2.507   6.260  1.0024 -0.5062  0.7346
 1947SOL     OW17302   2.362   1.985   7.586  0.0597  0.4301  0.3199
 1947SOL    HW117303   2.328   1.901   7.555 -1.5665  0.1282  2.8999
 1947SOL    HW217304   2.365   2.024   7.499  0.6495 -1.8879 -0.6837
 1948SOL     OW17305   1.633   0.580   5.094 -0.1533  0.4878 -0.0194
 1948SOL    HW117306   1.638   0.486   5.107  1.3074  0.6718  0.6717
 1948SOL    HW217307   1.682   0.593   5.012 -1.3375 -1.4558 -1.0335
 1949SOL     OW17308   4.307   2.709   3.375  0.4898  0.4946  0.2111
 1949SOL    HW117309   4.352   2.673   3.299 -0.4086 -0.3927  0.0848
 1949SOL    HW217310   4.219   2.672   3.363  1.4343 -1.3685 -1.1251
 1950SOL     OW17311   4.330   2.833   5.091  0.1365  0.0573 -0.1277
 1950SOL    HW117312   4.404   2.805   5.145  0.2331 -1.8028 -1.2254
 1950SOL    HW217313   4.321   2.921   5.127 -2.0405  0.1878 -1.0266
 1951SOL     OW17314   2.378   4.274   2.881  0.3386  0.2469 -0.1110
 1951SOL    HW117315   2.433   4.274   2.803  0.9984  2.3030  0.3563
 1951SOL    HW217316   2.296   4.240   2.847  0.7986 -0.2219 -0.7663
 1952SOL     OW17317   2.689   3.800   7.853 -0.3305 -0.2843  0.9858
 1952SOL    HW117318   2.780   3.820   7.829 -0.3155 -1.0576  0.4105
 1952SOL    HW217319   2.649   3.860   7.790 -0.4255 -1.9917 -0.5562
 1953SOL     OW17320   1.928   2.517  14.738  0.0826  0.2052 -0.5722
 1953SOL    HW117321   1.869   2.592  14.743 -0.0099  0.1284 -0.4967
 1953SOL    HW217322   1.861   2.459  14.700 -1.1413  0.2304  1.5861
 1954SOL     OW17323   3.894   0.742   5.681  0.3383  0.6640 -0.0707
 1954SOL    HW117324   3.987   0.767   5.680  0.4450  0.2809  0.2212
 1954SOL    HW217325   3.855   0.817   5.725  0.2054  0.3866  0.2804
 1955SOL     OW17326   1.167   3.311   3.233 -0.0114  0.3507 -0.1479
 1955SOL    HW117327   1.133   3.400   3.219  0.5517  0.3492 -1.5757
 1955SOL    HW217328   1.194   3.278   3.147 -3.9582 -1.6488 -0.6173
 1956SOL     OW17329   2.494   4.661   6.808 -0.4952 -0.6862  0.0017
 1956SOL    HW117330   2.499   4.724   6.737  0.8672 -1.3865 -0.5360
 1956SOL    HW217331   2.553   4.596   6.770 -0.5677  0.1100 -1.4494
 1957SOL     OW17332   2.632   3.957   0.638  0.4509 -0.6324  0.0469
 1957SOL    HW117333   2.696   3.982   0.706  0.4912  1.0397 -0.6062
 1957SOL    HW217334   2.600   3.876   0.676 -0.4878 -1.3387 -2.3156
 1958SOL     OW17335   1.666   1.859   2.458  0.2993 -0.7235 -0.5530
 1958SOL    HW117336   1.713   1.879   2.377  2.4335 -3.2869  0.0400
 1958SOL    HW217337   1.635   1.769   2.450  2.4024 -1.5392  0.3935
 1959SOL     OW17338   2.439   2.781   3.034 -0.3583  0.4587 -0.3815
 1959SOL    HW117339   2.379   2.854   3.017  0.6855  1.5557  0.5749
 1959SOL    HW217340   2.461   2.792   3.127  0.8683 -1.1798 -0.4701
 1960SOL     OW17341   2.867   1.213   9.528 -0.5460  0.6549  0.4862
 1960SOL    HW117342   2.886   1.226   9.435 -0.5807 -1.9885  0.1076
 1960SOL    HW217343   2.816   1.292   9.545 -2.6930 -0.0797 -2.6186
 1961SOL     OW17344   4.552   2.497   5.669 -0.5679 -0.2810 -0.1084
 1961SOL    HW117345   4.541   2.438   5.594  1.1629 -2.4717  1.3788
 1961SOL    HW217346   4.603   2.455   5.738 -0.7166  0.5538  0.5031
 1962SOL     OW17347   3.440   1.768   5.693 -0.3136 -0.3453  0.3582
 1962SOL    HW117348   3.450   1.676   5.666  1.1840 -0.2621  0.6687
 1962SOL    HW217349   3.370   1.791   5.632  1.8070  3.0125 -0.7889
 1963SOL     OW17350   1.735   1.286   5.167 -0.3914  0.2830  0.5088
 1963SOL    HW117351   1.698   1.242   5.090 -3.1557 -0.0236  2.0092
 1963SOL    HW217352   1.814   1.310   5.118 -1.0311  0.7843 -0.2881
 1964SOL     OW17353   3.210   3.108   2.127  0.1437  0.2708 -0.3238
 1964SOL    HW117354   3.202   3.076   2.037  0.8436  1.5716 -0.8459
 1964SOL    HW217355   3.138   3.171   2.133  0.1185  0.0018  2.1127
 1965SOL     OW17356   1.533   2.011  13.354  0.2599 -0.4739 -0.3431
 1965SOL    HW117357   1.454   2.048  13.315  1.6863  0.4289 -2.3913
 1965SOL    HW217358   1.550   2.079  13.419  0.9245 -0.1469 -0.8523
 1966SOL     OW17359   4.222   3.398  12.155 -0.2070  0.0050  0.7367
 1966SOL    HW117360   4.224   3.303  12.169  1.1007 -0.2993 -1.4507
 1966SOL    HW217361   4.310   3.409  12.117 -0.8360  2.6628  0.0690
 1967SOL     OW17362   2.631   2.817   4.501 -0.1544 -0.1720  0.2614
 1967SOL    HW117363   2.685   2.850   4.429 -2.1623 -2.2204 -2.1434
 1967SOL    HW217364   2.545   2.847   4.474  0.3787 -0.4776 -1.7330
 1968SOL     OW17365   0.446   3.215  17.183  0.3665  0.1688 -0.0306
 1968SOL    HW117366   0.506   3.148  17.150 -1.7906 -1.7264 -0.0677
 1968SOL    HW217367   0.466   3.208  17.276  2.6847 -2.5933 -0.7127
 1969SOL     OW17368   3.587   0.648   5.151  0.3112  0.2586  0.1078
 1969SOL    HW117369   3.543   0.639   5.067  0.2589  2.7475 -0.1358
 1969SOL    HW217370   3.671   0.603   5.140 -1.2452 -2.7718  0.8015
 1970SOL     OW17371   4.422   0.852   0.179  0.5760  0.6403  0.2696
 1970SOL    HW117372   4.492   0.917   0.194  1.2876  0.0752 -0.5916
 1970SOL    HW217373   4.478   0.778   0.156  0.1097  0.2286  0.4530
 1971SOL     OW17374   0.072   3.307   9.295 -0.1856 -0.7631  0.3769
 1971SOL    HW117375   0.000   3.371   9.303  0.2796 -0.2055  0.0851
 1971SOL    HW217376   0.033   3.245   9.233  0.1642 -1.1141  0.5098
 1972SOL     OW17377   0.385   2.223   0.266  0.1401  0.0476  0.2297
 1972SOL    HW117378   0.434   2.202   0.186 -2.0059 -1.1582 -0.7961
 1972SOL    HW217379   0.308   2.167   0.253  1.1686 -2.3601  4.5949
 1973SOL     OW17380   3.439   3.580   7.436  0.2581  0.1112 -0.0035
 1973SOL    HW117381   3.468   3.590   7.526  0.1663  2.4799 -0.2334
 1973SOL    HW217382   3.487   3.656   7.401 -2.0677  1.6171  0.0283
 1974SOL     OW17383   0.567   1.492   3.240 -0.5690  0.4326  0.6506
 1974SOL    HW117384   0.575   1.495   3.145 -1.2328  1.5853  0.6401
 1974SOL    HW217385   0.558   1.586   3.254 -2.2943  0.3266  0.2283
 1975SOL     OW17386   0.128   0.766   2.411  0.1900 -0.1733  0.4168
 1975SOL    HW117387   0.197   0.822   2.375 -1.5391  1.9545  0.4002
 1975SOL    HW217388   0.057   0.786   2.350  1.1056  0.5933 -0.4036
 1976SOL     OW17389   3.286   1.744  16.847  0.0959  0.9310  0.3957
 1976SOL    HW117390   3.274   1.766  16.755  2.6460 -0.1568 -0.1735
 1976SOL    HW217391   3.312   1.653  16.838  0.7312  1.2166 -0.5923
 1977SOL     OW17392   3.880   2.991   8.497  0.3211 -0.4429  0.0837
 1977SOL    HW117393   3.884   2.950   8.584  0.5371  0.4978  0.5230
 1977SOL    HW217394   3.795   2.963   8.465  0.3232  1.5917 -1.6723
 1978SOL     OW17395   0.217   2.353   0.969  0.0976  0.3288  0.1014
 1978SOL    HW117396   0.259   2.426   1.014 -1.0484  1.0801 -0.0453
 1978SOL    HW217397   0.231   2.370   0.876 -2.0000  0.7146 -0.1408
 1979SOL     OW17398   1.127   3.728   9.008 -0.2920 -0.5420 -0.0446
 1979SOL    HW117399   1.128   3.754   8.916  0.3725 -0.9562 -0.1567
 1979SOL    HW217400   1.131   3.814   9.051  0.3837 -1.0924  1.0012
 1980SOL     OW17401   0.717   2.844   4.160  0.1293 -0.4357  0.0260
 1980SOL    HW117402   0.641   2.884   4.203  1.1263  0.3964  0.9997
 1980SOL    HW217403   0.692   2.840   4.067  2.8062 -2.1397 -0.6083
 1981SOL     OW17404   0.937   2.542   6.299  0.1354 -0.3248  0.3363
 1981SOL    HW117405   0.980   2.505   6.376 -0.1876  0.4947  0.8996
 1981SOL    HW217406   0.932   2.636   6.318 -2.0877 -0.5099  0.6701
 1982SOL     OW17407   4.411   0.385   1.653 -0.0610 -0.3996  0.1957
 1982SOL    HW117408   4.408   0.320   1.723  0.2420 -0.4546  0.1549
 1982SOL    HW217409   4.339   0.358   1.595 -0.0106 -2.1419  0.9428
 1983SOL     OW17410   3.911   1.143   8.957  0.3018 -0.4858  0.7340
 1983SOL    HW117411   3.942   1.232   8.974 -0.5204 -0.2380  0.9625
 1983SOL    HW217412   3.990   1.101   8.924  0.3766  0.5666 -0.4035
 1984SOL     OW17413   3.692   4.668  14.474  0.1993  0.9365 -0.4908
 1984SOL    HW117414   3.782   4.663  14.505 -0.3946 -0.5691  1.0154
 1984SOL    HW217415   3.703   4.666  14.379  2.6235 -0.1809 -0.1972
 1985SOL     OW17416   0.271   4.638   3.840  0.4775 -0.1101 -0.0104
 1985SOL    HW117417   0.346   4.647   3.782  0.5307 -0.1701  0.0493
 1985SOL    HW217418   0.198   4.660   3.782 -0.4504  2.5467  2.1547
 1986SOL     OW17419   2.753   4.350   4.912  0.1968  0.4427 -0.3276
 1986SOL    HW117420   2.702   4.418   4.868  0.6031  0.3987 -0.8668
 1986SOL    HW217421   2.696   4.273   4.918  0.0855  0.7724  3.1272
 1987SOL     OW17422   2.468   3.312   2.420 -0.1743 -0.8289 -0.2387
 1987SOL    HW117423   2.471   3.394   2.371 -1.3830 -0.7932 -0.2434
 1987SOL    HW217424   2.402   3.341   2.482 -0.0353 -0.6488 -0.1756
 1988SOL     OW17425   3.320   0.621   8.630  0.5669 -0.4430  0.3811
 1988SOL    HW117426   3.370   0.696   8.662  1.8082 -1.1232  0.0646
 1988SOL    HW217427   3.388   0.555   8.616 -0.2359 -1.1724 -0.0738
 1989SOL     OW17428   3.152   4.570   2.912  1.0623  0.1732  0.0550
 1989SOL    HW117429   3.066   4.573   2.953  1.3377  2.4397  0.4590
 1989SOL    HW217430   3.202   4.529   2.982 -0.9918 -1.7191  0.4024
 1990SOL     OW17431   3.991   1.241   5.711  0.3475  0.4333 -0.1843
 1990SOL    HW117432   3.930   1.290   5.655 -1.8510  1.0299  2.7724
 1990SOL    HW217433   3.961   1.266   5.798  1.0933  1.4062 -0.2093
 1991SOL     OW17434   4.405   2.707  17.166  0.3576  0.3505 -0.0032
 1991SOL    HW117435   4.445   2.773  17.222 -1.5502  0.1071  1.6819
 1991SOL    HW217436   4.315   2.720  17.198  0.4946  0.4467  0.3427
 1992SOL     OW17437   4.011   1.378   8.725 -0.1419  0.0136  0.0564
 1992SOL    HW117438   4.004   1.304   8.665  1.2966  0.8175 -1.1183
 1992SOL    HW217439   3.980   1.452   8.674  2.4729  1.6600  0.8207
 1993SOL     OW17440   3.153   1.601  11.750 -0.4766  0.6453 -0.1104
 1993SOL    HW117441   3.230   1.617  11.695 -0.5312  1.9824  0.1896
 1993SOL    HW217442   3.096   1.663  11.704  0.2174  1.0934 -0.3634
 1994SOL     OW17443   1.253   3.938  14.510  0.4509  0.2707  0.0042
 1994SOL    HW117444   1.339   3.911  14.543  1.2390  0.8584 -1.5601
 1994SOL    HW217445   1.230   3.861  14.457  2.0926 -2.1144  2.7564
 1995SOL     OW17446   0.801   3.499   7.866 -0.0545  0.4907 -0.0870
 1995SOL    HW117447   0.869   3.557   7.900  1.2363 -0.5461 -0.9221
 1995SOL    HW217448   0.832   3.465   7.782 -1.9481  0.1408 -0.6389
 1996SOL     OW17449   2.315   0.804  10.955 -0.3273 -0.0906  0.6415
 1996SOL    HW117450   2.287   0.729  10.903  1.0143 -1.2204  1.5570
 1996SOL    HW217451   2.232   0.850  10.971 -0.9002 -1.5449  1.9013
 1997SOL     OW17452   2.201   2.841   1.750 -0.3448  0.1248  0.9881
 1997SOL    HW117453   2.154   2.761   1.726  0.4791 -0.6498  1.9672
 1997SOL    HW217454   2.164   2.907   1.691 -1.3843 -1.2376  0.1075
 1998SOL     OW17455   4.385   3.430   3.320 -0.2645  0.1343 -0.4119
 1998SOL    HW117456   4.313   3.411   3.260  0.4687  0.2302 -1.3153
 1998SOL    HW217457   4.410   3.343   3.352 -0.0807  0.2744 -0.1741
 1999SOL     OW17458   1.137   2.905  14.002 -0.7566 -0.4842  0.2277
 1999SOL    HW117459   1.055   2.874  13.965  1.4620 -5.1128 -0.8379
 1999SOL    HW217460   1.130   3.000  14.007 -1.9929 -0.7256  3.2433
 2000SOL     OW17461   1.820   2.749   7.512 -0.2643  0.1159 -0.2369
 2000SOL    HW117462   1.851   2.693   7.441  2.5419  0.5877  0.6311
 2000SOL    HW217463   1.765   2.813   7.467  1.9258  1.0699 -1.5633
 2001SOL     OW17464   0.211   1.547  15.396  0.3082  0.4329 -0.6094
 2001SOL    HW117465   0.210   1.541  15.301 -1.3491  0.2675 -0.5727
 2001SOL    HW217466   0.295   1.593  15.406  0.3176  0.4628 -0.8274
 2002SOL     OW17467   1.501   3.535   5.324 -0.7201 -0.0567  0.2287
 2002SOL    HW117468   1.519   3.628   5.336  0.5182 -0.3115  0.4254
 2002SOL    HW217469   1.461   3.538   5.411 -3.1661  1.0568 -0.9571
 2003SOL     OW17470   0.832   1.551   4.179  0.1370 -0.6101 -0.1466
 2003SOL    HW117471   0.792   1.490   4.117 -1.3371  0.5946 -0.3905
 2003SOL    HW217472   0.833   1.503   4.261 -1.0359  0.0077  0.2309
 2004SOL     OW17473   1.205   1.122   8.547  0.5256  0.6385 -0.3573
 2004SOL    HW117474   1.123   1.160   8.577  1.0265  2.1544 -0.8800
 2004SOL    HW217475   1.239   1.078   8.625  1.4081  0.6169 -0.7534
 2005SOL     OW17476   1.313   0.652   4.037 -0.3701  0.1209  0.4976
 2005SOL    HW117477   1.363   0.652   3.956  0.5653 -0.3222  1.0846
 2005SOL    HW217478   1.379   0.693   4.093  1.7770 -1.4076 -0.9150
 2006SOL     OW17479   4.178   0.720   3.118  0.0269 -0.3015 -0.9698
 2006SOL    HW117480   4.226   0.722   3.201  0.5239 -0.3601 -1.2530
 2006SOL    HW217481   4.250   0.694   3.060  1.5524  1.4925  0.1112
 2007SOL     OW17482   1.895   4.551  14.910 -0.0919 -0.4776 -0.4155
 2007SOL    HW117483   1.872   4.458  14.906  1.3949 -0.8053 -1.3135
 2007SOL    HW217484   1.871   4.576  14.820 -3.3210  0.2916  0.6590
 2008SOL     OW17485   0.821   1.154  17.015  0.0731  0.3490 -0.2915
 2008SOL    HW117486   0.847   1.230  17.066 -2.3100  2.6029 -2.4524
 2008SOL    HW217487   0.906   1.122  16.984 -0.0857  1.7863 -2.2539
 2009SOL     OW17488   2.326   2.859  11.599  0.6148 -0.0252 -0.0708
 2009SOL    HW117489   2.361   2.928  11.542  1.8085 -1.8074 -1.4964
 2009SOL    HW217490   2.312   2.791  11.533 -0.4114 -0.8843  1.0406
 2010SOL     OW17491   3.022   1.471   0.155  0.1127  0.0811 -0.4949
 2010SOL    HW117492   2.990   1.413   0.224 -0.4001 -1.0934 -1.7061
 2010SOL    HW217493   3.097   1.422   0.121  0.9405  2.0102 -1.4750
 2011SOL     OW17494   3.285   0.892   8.355 -0.5419 -0.3841  0.2917
 2011SOL    HW117495   3.307   0.926   8.442 -0.0880  1.3080 -0.4952
 2011SOL    HW217496   3.268   0.798   8.366 -2.1331 -0.1033  0.2335
 2012SOL     OW17497   3.180   1.892   4.393 -0.1445 -0.3242  0.3943
 2012SOL    HW117498   3.150   1.962   4.335 -0.1038 -0.0459  0.7113
 2012SOL    HW217499   3.116   1.824   4.374 -2.8463  1.8649  1.8081
 2013SOL     OW17500   0.461   1.578   2.581  0.0942 -0.0298 -0.2830
 2013SOL    HW117501   0.437   1.670   2.591 -3.6713 -0.8868 -1.5254
 2013SOL    HW217502   0.437   1.544   2.667  1.7076  1.8794  0.9349
 2014SOL     OW17503   0.760   2.922   6.830  0.8688  0.5382 -0.5922
 2014SOL    HW117504   0.830   2.987   6.828 -0.8570  2.3950 -0.6139
 2014SOL    HW217505   0.740   2.910   6.923  1.5422  0.5763 -0.4467
 2015SOL     OW17506   2.329   4.554   2.924 -0.2584 -0.2574  0.1530
 2015SOL    HW117507   2.366   4.470   2.898  0.6321  0.2595 -0.2280
 2015SOL    HW217508   2.392   4.621   2.898  0.2769 -0.4881  0.8650
 2016SOL     OW17509   0.868   3.340   7.172 -0.1718 -0.2872  0.2342
 2016SOL    HW117510   0.863   3.344   7.077 -1.5453  1.7479  0.4068
 2016SOL    HW217511   0.802   3.407   7.188 -1.0852 -0.8633 -1.1533
 2017SOL     OW17512   3.823   1.249   4.715 -0.0512 -0.0003  0.0720
 2017SOL    HW117513   3.883   1.192   4.667 -0.8874 -1.4557  0.7517
 2017SOL    HW217514   3.792   1.186   4.780 -1.5651  2.2750  1.5514
 2018SOL     OW17515   0.368   3.059   2.675 -0.2678 -0.3776  0.1884
 2018SOL    HW117516   0.320   3.022   2.601  0.4138 -2.3097  0.7124
 2018SOL    HW217517   0.439   2.998   2.696 -0.0849  0.1343  1.0577
 2019SOL     OW17518   0.032   2.229   3.894 -0.0528 -0.4933 -0.6976
 2019SOL    HW117519   4.715   2.221   3.809 -1.4171  3.3689 -0.3713
 2019SOL    HW217520   0.102   2.287   3.863 -1.7242  0.6046 -2.3873
 2020SOL     OW17521   4.250   3.528   8.094  0.9904  0.2866 -0.2980
 2020SOL    HW117522   4.298   3.602   8.057  2.8685 -0.4087  0.7192
 2020SOL    HW217523   4.164   3.565   8.111  0.4828 -1.0299  0.0028
 2021SOL     OW17524   0.837   1.336  15.974 -0.2188  0.3409 -0.0431
 2021SOL    HW117525   0.878   1.422  15.963  0.3552 -0.2141 -2.1693
 2021SOL    HW217526   0.795   1.322  15.889  2.5832  0.1383 -1.3868
 2022SOL     OW17527   2.347   1.962   5.389 -0.5656  0.3951 -0.6397
 2022SOL    HW117528   2.432   1.921   5.405 -1.2247 -0.3525  0.9047
 2022SOL    HW217529   2.370   2.016   5.313 -1.3126  0.2289 -0.9872
 2023SOL     OW17530   1.857   2.452   6.535 -0.0292  0.3389  0.0126
 2023SOL    HW117531   1.779   2.473   6.483 -1.1596 -1.6179  0.9509
 2023SOL    HW217532   1.889   2.388   6.472  0.0602  1.2385 -0.8650
 2024SOL     OW17533   2.998   3.507   7.858 -0.5325  0.0436  0.3279
 2024SOL    HW117534   2.954   3.514   7.773 -1.0719 -1.9181  0.4454
 2024SOL    HW217535   2.980   3.416   7.883 -1.0450  0.0192 -0.1292
 2025SOL     OW17536   0.293   3.520   5.746  0.2779 -0.3456  0.0717
 2025SOL    HW117537   0.385   3.536   5.765  0.3590  0.8356 -1.3181
 2025SOL    HW217538   0.297   3.430   5.778  0.1031  0.7229  3.1486
 2026SOL     OW17539   0.038   1.015   6.607  0.1342 -0.2191 -0.3231
 2026SOL    HW117540   0.118   1.068   6.601 -0.0264  0.2903  2.2652
 2026SOL    HW217541   0.056   0.970   6.689 -1.2840 -1.4782 -0.6886
 2027SOL     OW17542   2.145   1.426  16.764 -1.0352  0.3227  0.1551
 2027SOL    HW117543   2.093   1.458  16.838 -0.0301 -0.5722  1.2577
 2027SOL    HW217544   2.085   1.378  16.706 -1.4383 -0.9706  1.6391
 2028SOL     OW17545   2.050   2.847   2.951  0.1474  0.0186 -0.4840
 2028SOL    HW117546   2.130   2.896   2.967 -1.2782  2.2578 -0.2918
 2028SOL    HW217547   2.080   2.757   2.965  0.7447  0.3924  0.5765
 2029SOL     OW17548   0.974   3.136  13.790  0.2471  0.4909 -0.6500
 2029SOL    HW117549   0.966   3.202  13.721 -1.5291  0.4936 -0.4447
 2029SOL    HW217550   0.881   3.128  13.812  0.1601  0.4289 -1.0408
 2030SOL     OW17551   0.131   1.669   6.561 -0.0667  0.3775  0.0968
 2030SOL    HW117552   0.117   1.709   6.475  1.9683 -0.6449 -0.7194
 2030SOL    HW217553   0.179   1.589   6.538 -0.0573  0.1855  0.7743
 2031SOL     OW17554   2.321   2.343  17.570 -0.5160 -0.4259  0.4377
 2031SOL    HW117555   2.390   2.379  17.515  0.6371 -0.0397  2.1649
 2031SOL    HW217556   2.272   2.295  17.503 -1.9158 -1.1038  1.9183
 2032SOL     OW17557   0.084   4.060  15.954 -0.1732  0.4744 -0.2769
 2032SOL    HW117558   0.056   4.053  15.863  1.9113  0.7467 -0.9250
 2032SOL    HW217559   0.147   4.131  15.947 -0.9312  1.1497 -0.2745
 2033SOL     OW17560   1.973   2.216   1.753 -0.4384  0.0976  0.4815
 2033SOL    HW117561   2.053   2.178   1.789 -1.1041  1.3728  3.2434
 2033SOL    HW217562   1.990   2.204   1.659 -1.0908  0.7866  0.2673
 2034SOL     OW17563   4.618   4.011   5.055 -0.1301  0.0306 -0.0574
 2034SOL    HW117564   4.710   3.985   5.064  0.2372  0.4154 -2.7561
 2034SOL    HW217565   4.566   3.930   5.050 -1.7341  0.9755  1.6607
 2035SOL     OW17566   2.397   3.444   2.004  0.2132 -0.0167 -0.1054
 2035SOL    HW117567   2.402   3.522   1.948  2.6949 -0.9757 -1.1883
 2035SOL    HW217568   2.421   3.379   1.939  0.4222 -0.2929  0.2461
 2036SOL     OW17569   4.687   3.025  12.528 -0.4507  0.6471 -0.3446
 2036SOL    HW117570   4.645   3.008  12.444 -1.2098  0.0890  0.1366
 2036SOL    HW217571   4.676   3.119  12.539 -0.8445  0.5549  0.0855
 2037SOL     OW17572   1.768   4.331   9.443  0.0111 -0.1367 -0.1825
 2037SOL    HW117573   1.858   4.306   9.423  0.0260 -1.3596  1.3548
 2037SOL    HW217574   1.769   4.425   9.459  0.0362 -0.2962  0.7952
 2038SOL     OW17575   2.042   2.788  14.729  0.0942  0.0336  0.1948
 2038SOL    HW117576   2.025   2.735  14.651  0.0412 -0.4900  0.5676
 2038SOL    HW217577   2.058   2.873  14.686 -0.7616 -0.3147 -0.8152
 2039SOL     OW17578   3.448   4.084   2.447  0.0939  0.0752 -0.2125
 2039SOL    HW117579   3.534   4.061   2.413 -0.0753 -0.8062 -0.0461
 2039SOL    HW217580   3.443   4.167   2.399  2.0426 -0.5985 -1.5718
 2040SOL     OW17581   2.376   4.636   5.171  0.0290 -0.5188 -0.4419
 2040SOL    HW117582   2.391   4.543   5.191  1.5009 -0.2343 -0.1827
 2040SOL    HW217583   2.309   4.656   5.236 -0.4519 -1.1388 -0.7429
 2041SOL     OW17584   0.258   0.822   6.193  0.0805 -0.8017  0.1302
 2041SOL    HW117585   0.292   0.874   6.266 -0.5525  2.7884 -2.1089
 2041SOL    HW217586   0.165   0.829   6.211 -0.2148  0.5101 -1.8625
 2042SOL     OW17587   0.194   0.076   2.954 -0.2351 -0.0837  0.1414
 2042SOL    HW117588   0.233   0.042   3.034  0.6541 -0.7932 -0.5883
 2042SOL    HW217589   0.255   0.148   2.933  2.3073 -1.6676  2.0833
 2043SOL     OW17590   1.068   2.286  11.314 -0.5370 -0.2365  0.5214
 2043SOL    HW117591   1.152   2.331  11.317  0.0905 -1.0283 -4.5721
 2043SOL    HW217592   1.044   2.311  11.225 -0.1374 -1.3436  0.1046
 2044SOL     OW17593   0.753   1.189  14.755  0.4217 -0.0486  0.1844
 2044SOL    HW117594   0.756   1.095  14.776 -3.0346 -0.0971  0.3773
 2044SOL    HW217595   0.718   1.227  14.835 -0.9212 -1.0674  0.0744
 2045SOL     OW17596   3.990   1.130   1.867  0.0865  0.2243 -0.3192
 2045SOL    HW117597   3.950   1.101   1.785  1.9219  2.0374 -1.8629
 2045SOL    HW217598   3.911   1.168   1.906  0.8690  1.0737  0.4357
 2046SOL     OW17599   1.723   0.619   2.089  0.2299  0.2083  0.3457
 2046SOL    HW117600   1.668   0.632   2.011 -0.2918 -1.2146  0.4833
 2046SOL    HW217601   1.665   0.657   2.154 -1.9334 -0.5197 -1.1479
 2047SOL     OW17602   0.443   3.852   4.230  0.3009 -0.1839 -0.4352
 2047SOL    HW117603   0.383   3.926   4.238 -1.8824 -2.0856  0.4881
 2047SOL    HW217604   0.514   3.894   4.181  1.6027 -0.1807  1.4533
 2048SOL     OW17605   0.119   0.415   3.093 -0.2636 -0.6658 -0.6673
 2048SOL    HW117606   0.028   0.441   3.086 -0.4672 -1.2339 -0.0945
 2048SOL    HW217607   0.165   0.499   3.091 -1.2532 -0.0572  2.6322
 2049SOL     OW17608   1.582   3.153  11.532 -0.4410 -0.0130 -0.1691
 2049SOL    HW117609   1.571   3.114  11.619  0.2197 -0.0149 -0.0911
 2049SOL    HW217610   1.605   3.237  11.570  3.3541 -0.3800 -1.6427
 2050SOL     OW17611   1.940   0.242   4.765  0.3146  0.1829  0.0604
 2050SOL    HW117612   1.889   0.323   4.756 -1.4689 -0.6557  2.5996
 2050SOL    HW217613   2.025   0.283   4.753 -0.1970  1.4714  0.7708
 2051SOL     OW17614   0.938   3.957   2.580 -0.1185 -0.5696 -0.4261
 2051SOL    HW117615   0.854   3.920   2.607 -0.3086 -0.6998 -1.1928
 2051SOL    HW217616   0.997   3.892   2.620 -0.5611 -0.7802 -0.1160
 2052SOL     OW17617   0.578   2.403   6.388  0.1790 -0.3624  0.5291
 2052SOL    HW117618   0.639   2.463   6.343  0.1352 -0.8184 -0.1293
 2052SOL    HW217619   0.610   2.406   6.479  2.2930 -0.4673 -0.2153
 2053SOL     OW17620   1.175   0.802   6.334  0.0414  0.1533  0.2131
 2053SOL    HW117621   1.087   0.841   6.337 -0.3115 -0.6572  0.2098
 2053SOL    HW217622   1.185   0.753   6.415  1.0384 -0.9988 -0.6094
 2054SOL     OW17623   1.890   1.134   7.063  0.4511  0.2810  0.2858
 2054SOL    HW117624   1.839   1.062   7.025  1.9228 -0.0605 -1.0418
 2054SOL    HW217625   1.845   1.156   7.145 -0.6750 -0.8996 -0.0162
 2055SOL     OW17626   4.177   2.476  10.738  0.4656 -0.0684  0.6479
 2055SOL    HW117627   4.207   2.461  10.827  2.2421  0.3198  0.1176
 2055SOL    HW217628   4.084   2.494  10.753  0.2523 -1.1176  0.5451
 2056SOL     OW17629   3.788   2.886   2.087 -0.0658 -0.0907 -0.4297
 2056SOL    HW117630   3.801   2.801   2.128  0.8309  0.1062 -0.2994
 2056SOL    HW217631   3.797   2.860   1.995  0.5223  1.0110 -0.6793
 2057SOL     OW17632   4.357   0.718  12.307 -0.1377 -0.2535 -0.0879
 2057SOL    HW117633   4.402   0.775  12.368 -0.3087 -0.8797  0.6327
 2057SOL    HW217634   4.432   0.678  12.264 -0.5439  0.0509 -1.0758
 2058SOL     OW17635   4.340   3.333   9.549 -0.1479  0.0585 -0.0675
 2058SOL    HW117636   4.401   3.261   9.531 -0.0424  0.0692  0.2492
 2058SOL    HW217637   4.376   3.359   9.634  2.3140  2.5029 -1.9094
 2059SOL     OW17638   1.193   3.301   2.709 -0.0916  0.1999 -0.6552
 2059SOL    HW117639   1.246   3.366   2.754  2.5941 -2.3214 -0.1375
 2059SOL    HW217640   1.257   3.260   2.651 -1.3588  0.3742 -2.1636
 2060SOL     OW17641   0.562   0.416   7.983 -0.9046  0.2134 -0.4239
 2060SOL    HW117642   0.655   0.398   7.966 -0.4634  0.2814  1.8630
 2060SOL    HW217643   0.562   0.491   8.042  2.5636  0.6963 -1.0001
 2061SOL     OW17644   2.107   2.424   1.499 -0.2361 -0.7417 -0.1550
 2061SOL    HW117645   2.035   2.443   1.439  1.0773 -0.6315 -1.7021
 2061SOL    HW217646   2.184   2.451   1.449 -0.8040  1.7410  0.3139
 2062SOL     OW17647   1.366   3.985   2.422 -0.3777 -0.0467 -0.1775
 2062SOL    HW117648   1.409   4.045   2.360 -0.4677  0.7660  0.5608
 2062SOL    HW217649   1.274   3.991   2.396 -0.5590 -0.1486  0.4465
 2063SOL     OW17650   1.318   1.112   5.335 -0.2716  0.4631 -0.3237
 2063SOL    HW117651   1.396   1.165   5.352  1.1370 -1.3770 -1.1024
 2063SOL    HW217652   1.249   1.177   5.321  0.5141  0.8816 -2.1981
 2064SOL     OW17653   3.108   1.200   7.954  0.0488  0.1766 -0.1592
 2064SOL    HW117654   3.013   1.195   7.964 -0.1052  0.0053 -1.5870
 2064SOL    HW217655   3.128   1.137   8.023  2.3179  1.1623  0.0749
 2065SOL     OW17656   4.315   0.741  11.540 -0.0151  0.4230 -0.2061
 2065SOL    HW117657   4.240   0.682  11.544 -1.3933  2.1555 -0.4513
 2065SOL    HW217658   4.382   0.676  11.520 -2.1352 -1.3456 -1.5484
 2066SOL     OW17659   1.218   4.653  10.639  0.0479 -0.1266 -0.0972
 2066SOL    HW117660   1.172   4.573  10.664  2.9438 -1.2761  1.6167
 2066SOL    HW217661   1.203   4.714  10.711  2.0999 -2.4621  2.2821
 2067SOL     OW17662   3.471   0.053   5.603 -0.0228 -0.1226  0.1993
 2067SOL    HW117663   3.395   0.045   5.661 -0.5750  1.2404 -0.3442
 2067SOL    HW217664   3.455   0.133   5.553 -0.9161 -0.6808 -0.4326
 2068SOL     OW17665   1.451   0.175   9.666  0.3835 -0.2819  0.2909
 2068SOL    HW117666   1.414   0.125   9.739  0.9240  0.4561  1.0720
 2068SOL    HW217667   1.441   0.123   9.587  1.3656 -3.1031  2.0144
 2069SOL     OW17668   1.233   0.323   7.711 -0.3746  0.1296  0.2379
 2069SOL    HW117669   1.144   0.350   7.690 -0.5223 -1.8105 -1.5703
 2069SOL    HW217670   1.240   0.236   7.673 -1.5645  0.4286 -0.6857
 2070SOL     OW17671   3.418   2.359   1.718 -0.2515  0.1445 -0.5341
 2070SOL    HW117672   3.394   2.448   1.742 -2.6151 -0.9810  1.3852
 2070SOL    HW217673   3.361   2.299   1.766  0.0245 -0.3871 -0.8723
 2071SOL     OW17674   2.143   2.782   3.760 -0.2480 -0.2681  0.1065
 2071SOL    HW117675   2.053   2.811   3.778 -0.3685 -1.0280  0.7104
 2071SOL    HW217676   2.179   2.750   3.842 -0.6874  1.2761  0.9192
 2072SOL     OW17677   0.549   3.990   7.591  0.3309 -0.0629 -0.0161
 2072SOL    HW117678   0.539   4.005   7.685  1.4971 -1.7280  0.3788
 2072SOL    HW217679   0.584   3.901   7.596 -0.1943 -0.2825 -0.3593
 2073SOL     OW17680   3.039   4.243   9.098 -0.2153  0.8407  0.4714
 2073SOL    HW117681   2.976   4.308   9.066  1.1352  0.6762 -2.5290
 2073SOL    HW217682   2.990   4.182   9.153 -1.5679 -0.1838 -1.8360
 2074SOL     OW17683   2.671   0.178   5.398  0.0153  0.0343 -0.0903
 2074SOL    HW117684   2.616   0.186   5.475 -1.1069  1.6716 -1.0599
 2074SOL    HW217685   2.718   0.099   5.421 -1.7999 -0.5370  1.6258
 2075SOL     OW17686   1.107   0.558  16.749 -0.0806  0.2929 -0.0670
 2075SOL    HW117687   1.186   0.609  16.729  0.9100 -1.9172 -1.8655
 2075SOL    HW217688   1.057   0.625  16.795  0.8471 -0.0440  1.4297
 2076SOL     OW17689   4.002   1.137   8.574  0.2614  0.0308 -0.8301
 2076SOL    HW117690   4.066   1.121   8.505  0.3965  1.0107 -0.9201
 2076SOL    HW217691   3.939   1.068   8.551  0.0226 -0.0938  0.2166
 2077SOL     OW17692   2.929   4.422  16.669 -0.5140 -0.2824  0.1774
 2077SOL    HW117693   2.870   4.457  16.736  0.7467  1.6639  0.2598
 2077SOL    HW217694   2.871   4.418  16.593 -0.7279  0.8478  0.2811
 2078SOL     OW17695   0.702   2.320   5.995 -0.6809 -0.1891 -0.1609
 2078SOL    HW117696   0.689   2.231   6.027  0.5773  0.1379  1.2493
 2078SOL    HW217697   0.797   2.323   6.003 -0.6482  0.3381 -0.7626
 2079SOL     OW17698   1.022   0.311   3.556  0.2926  0.3476  0.5459
 2079SOL    HW117699   0.950   0.302   3.619 -0.5275 -0.5600 -0.5087
 2079SOL    HW217700   1.022   0.405   3.535  0.7928 -0.1642 -1.7655
 2080SOL     OW17701   2.690   1.748   2.414 -0.8029 -0.4914  0.3038
 2080SOL    HW117702   2.649   1.676   2.368  0.8188 -0.8057 -0.6340
 2080SOL    HW217703   2.776   1.710   2.433  0.2573  0.8883 -1.7891
 2081SOL     OW17704   1.879   3.696   5.413 -0.6228  0.2876  0.0183
 2081SOL    HW117705   1.822   3.692   5.490 -0.5339 -1.6823 -0.0135
 2081SOL    HW217706   1.819   3.683   5.340  0.4427 -2.5133 -0.3733
 2082SOL     OW17707   4.311   0.926   6.508 -0.0088 -0.0967  0.5315
 2082SOL    HW117708   4.325   0.890   6.421 -0.5547  0.4070  0.2282
 2082SOL    HW217709   4.351   1.013   6.513  0.5777 -0.2677 -1.1665
 2083SOL     OW17710   1.084   0.683   8.555 -0.1114  0.1012 -0.5374
 2083SOL    HW117711   1.148   0.750   8.530 -0.3762  0.8060  0.6260
 2083SOL    HW217712   1.050   0.666   8.467 -0.6651  0.2051 -0.3502
 2084SOL     OW17713   1.253   2.804   7.863 -0.5465 -0.0554  0.1398
 2084SOL    HW117714   1.204   2.849   7.794 -1.2882 -1.0206  0.0270
 2084SOL    HW217715   1.316   2.873   7.882  0.8636 -1.0440 -0.8977
 2085SOL     OW17716   2.859   4.568   1.930 -0.1616  0.5151  0.0958
 2085SOL    HW117717   2.769   4.536   1.923 -0.7871  2.2214  0.3869
 2085SOL    HW217718   2.870   4.594   2.021 -0.8779 -2.4774  1.0561
 2086SOL     OW17719   1.699   0.414   7.162 -0.4873 -0.7021 -0.3886
 2086SOL    HW117720   1.717   0.455   7.247 -2.1626 -1.5432  0.3827
 2086SOL    HW217721   1.749   0.476   7.109  0.0286 -0.3738  0.4807
 2087SOL     OW17722   2.810   0.915  11.447 -0.0442  0.4786 -0.0972
 2087SOL    HW117723   2.789   1.003  11.479  0.1667  0.0624  1.2116
 2087SOL    HW217724   2.878   0.889  11.510  0.3103  0.4778 -0.4832
 2088SOL     OW17725   3.253   1.361  13.903 -0.2160 -0.2915  0.5192
 2088SOL    HW117726   3.345   1.387  13.901  0.6584 -3.3504  1.0424
 2088SOL    HW217727   3.214   1.445  13.928 -2.5322 -0.9365 -1.0044
 2089SOL     OW17728   3.298   2.622  10.992 -0.3681 -0.0540 -0.5322
 2089SOL    HW117729   3.234   2.659  11.053 -0.4215 -0.1215 -0.5468
 2089SOL    HW217730   3.342   2.562  11.052 -0.9348  1.3198  1.2525
 2090SOL     OW17731   3.447   0.619   4.201  0.0925 -0.4995 -0.1210
 2090SOL    HW117732   3.501   0.676   4.145 -0.4199  0.0644 -0.0378
 2090SOL    HW217733   3.457   0.669   4.282 -0.8772  0.9763 -0.9134
 2091SOL     OW17734   2.764   1.982   4.288  0.5241 -0.5559  0.2605
 2091SOL    HW117735   2.784   2.027   4.370 -3.4400 -1.7331  1.8600
 2091SOL    HW217736   2.709   1.911   4.321 -0.5452 -0.4722 -1.3756
 2092SOL     OW17737   3.942   3.183  17.124  0.2001  0.4591 -0.0660
 2092SOL    HW117738   3.890   3.207  17.048 -1.9794  0.5420  1.4559
 2092SOL    HW217739   3.975   3.099  17.093  0.4936  0.6591 -0.3068
 2093SOL     OW17740   1.829   1.037   2.948  0.1007  0.0922  0.5304
 2093SOL    HW117741   1.876   0.963   2.910  0.4612  0.5033  0.1769
 2093SOL    HW217742   1.891   1.066   3.016  0.1673 -0.6555  0.7943
 2094SOL     OW17743   4.633   3.519   2.370 -0.0864  0.4333 -0.6640
 2094SOL    HW117744   4.593   3.464   2.437 -0.6690 -1.1423 -2.3046
 2094SOL    HW217745   4.553   3.552   2.328 -0.7145 -0.8885 -0.5221
 2095SOL     OW17746   2.079   1.293  14.159  0.2214  0.3007  0.0109
 2095SOL    HW117747   2.126   1.212  14.138 -1.0602 -0.6804  0.9102
 2095SOL    HW217748   2.092   1.303  14.253  1.3294  1.8298 -0.3189
 2096SOL     OW17749   0.849   0.058  13.434  0.2538 -0.3433 -0.2283
 2096SOL    HW117750   0.846   0.137  13.487  0.5918 -1.6008  1.6647
 2096SOL    HW217751   0.788   0.082  13.364  1.0949 -2.6964 -1.7508
 2097SOL     OW17752   1.423   2.942   3.175 -0.2216 -0.0523  0.3114
 2097SOL    HW117753   1.472   2.923   3.095  1.3358  2.0172  0.7659
 2097SOL    HW217754   1.449   3.031   3.197  2.3858 -1.0069  1.1366
 2098SOL     OW17755   3.277   2.389  17.282  0.0909  0.4712 -0.0577
 2098SOL    HW117756   3.214   2.329  17.242 -0.5123  0.6652  0.6054
 2098SOL    HW217757   3.282   2.355  17.371  1.8559 -0.6152 -0.5678
 2099SOL     OW17758   3.424   3.205   5.650 -0.4950  0.4136  0.2993
 2099SOL    HW117759   3.463   3.181   5.735 -1.4428 -1.1321  0.2895
 2099SOL    HW217760   3.379   3.287   5.669  0.8158  0.9104  1.3527
 2100SOL     OW17761   0.991   0.091  16.683 -0.4818  0.4356  0.0692
 2100SOL    HW117762   1.041   0.018  16.718 -2.2780 -2.9782 -4.4278
 2100SOL    HW217763   1.022   0.157  16.744 -1.4033  0.7054  0.2446
 2101SOL     OW17764   0.291   0.225   5.756 -0.1152 -0.1611 -0.2638
 2101SOL    HW117765   0.360   0.246   5.693 -0.1203  3.8407  1.0620
 2101SOL    HW217766   0.301   0.300   5.815  0.5882 -0.9700  0.6501
 2102SOL     OW17767   1.756   1.753   5.005 -0.9457  0.3886  0.2317
 2102SOL    HW117768   1.828   1.807   4.974 -0.2006 -1.1687 -0.7235
 2102SOL    HW217769   1.745   1.788   5.094 -1.0853  2.2816 -0.5463
 2103SOL     OW17770   4.141   3.532  13.650  0.3559  0.3179  0.0654
 2103SOL    HW117771   4.141   3.592  13.576  0.2548 -0.7638 -0.8088
 2103SOL    HW217772   4.051   3.555  13.673  0.3147  2.5941 -2.3908
 2104SOL     OW17773   2.692   4.483   6.519 -0.6057 -0.4041 -0.0540
 2104SOL    HW117774   2.750   4.411   6.494 -0.5732 -0.8458  1.2836
 2104SOL    HW217775   2.755   4.556   6.525  0.1078 -0.7717 -2.9452
 2105SOL     OW17776   0.687   0.160  10.459 -0.2308 -0.2626  0.0449
 2105SOL    HW117777   0.602   0.170  10.415 -0.0511  1.0222 -0.0006
 2105SOL    HW217778   0.750   0.181  10.390 -0.5749  0.0650 -0.1694
 2106SOL     OW17779   2.989   4.071  11.622 -0.1269  0.4181 -0.4233
 2106SOL    HW117780   3.076   4.110  11.629 -0.2133  0.6507 -0.6583
 2106SOL    HW217781   3.017   4.010  11.553  1.4326  0.0197  0.5788
 2107SOL     OW17782   2.536   1.400  17.615  0.1766  0.6562 -0.8923
 2107SOL    HW117783   2.513   1.465  17.681  1.8952 -0.6332  0.9861
 2107SOL    HW217784   2.453   1.362  17.587  0.8285 -0.9114 -0.7306
 2108SOL     OW17785   2.696   1.868   6.209 -0.1828  0.2018  0.8071
 2108SOL    HW117786   2.749   1.926   6.264 -2.5279  0.6178  2.6306
 2108SOL    HW217787   2.613   1.877   6.256 -1.3458 -2.1322 -0.7934
 2109SOL     OW17788   2.234   0.510   8.965 -0.6272  0.2481 -0.2988
 2109SOL    HW117789   2.255   0.450   9.037 -3.2575 -1.3842 -0.8942
 2109SOL    HW217790   2.247   0.450   8.892  0.5015 -1.7358  1.5426
 2110SOL     OW17791   1.812   0.604   2.977  0.8935  0.4361  0.4468
 2110SOL    HW117792   1.850   0.620   2.891 -0.8407  2.5615  0.1181
 2110SOL    HW217793   1.729   0.651   2.974 -0.0899 -1.2793  0.7894
 2111SOL     OW17794   2.838   1.033   4.563  0.4386  0.6802 -0.0418
 2111SOL    HW117795   2.919   1.029   4.612 -0.0439 -0.6958  0.6604
 2111SOL    HW217796   2.796   1.101   4.614  0.0181  0.5831 -0.2549
 2112SOL     OW17797   4.585   4.503  12.816  0.2327 -0.0645  0.2820
 2112SOL    HW117798   4.492   4.507  12.791  0.1378  1.3656  0.8950
 2112SOL    HW217799   4.571   4.468  12.904 -2.6593  2.0298  0.6719
 2113SOL     OW17800   0.513   0.288   9.544  0.0976 -0.3247  0.6275
 2113SOL    HW117801   0.466   0.247   9.616  0.7458  0.2402  1.3634
 2113SOL    HW217802   0.604   0.279   9.573  0.6049  3.0418  0.0116
 2114SOL     OW17803   1.329   2.868   2.063  1.0885 -0.3496 -0.8953
 2114SOL    HW117804   1.417   2.833   2.076  1.0649 -0.2682 -0.5295
 2114SOL    HW217805   1.275   2.804   2.109 -1.0695  0.6960 -1.9736
 2115SOL     OW17806   2.059   4.090  14.153  0.3869  0.1333 -0.2881
 2115SOL    HW117807   2.113   4.097  14.231  0.6918  0.6617 -0.5480
 2115SOL    HW217808   1.970   4.107  14.184 -0.4836 -2.1470 -1.5409
 2116SOL     OW17809   3.721   3.459  13.280  0.1847 -0.2809 -0.0345
 2116SOL    HW117810   3.696   3.531  13.222  0.6065  0.1466  0.3178
 2116SOL    HW217811   3.644   3.403  13.289 -0.1771 -0.1220 -2.1119
 2117SOL     OW17812   1.057   1.010   5.672  1.0461 -0.3058 -0.6849
 2117SOL    HW117813   1.149   1.036   5.663  0.4747  2.6978  1.9873
 2117SOL    HW217814   1.024   1.040   5.587 -0.5620  1.1905  0.4841
 2118SOL     OW17815   0.754   0.887  15.794 -0.1709 -0.5924 -0.1662
 2118SOL    HW117816   0.679   0.932  15.833  0.1673 -0.1006 -0.0927
 2118SOL    HW217817   0.789   0.950  15.731 -1.0321  2.4082  2.4103
 2119SOL     OW17818   2.500   1.617   8.063  0.2154 -0.3264 -0.0133
 2119SOL    HW117819   2.430   1.581   8.008  2.1373 -3.3509 -0.4744
 2119SOL    HW217820   2.526   1.685   8.000  0.4045 -1.3799 -1.0881
 2120SOL     OW17821   2.204   1.827  13.002  0.0792  0.1331 -0.1006
 2120SOL    HW117822   2.218   1.917  13.032  0.3570 -0.0128  0.1988
 2120SOL    HW217823   2.274   1.781  13.049  0.0674  0.3185  0.0948
 2121SOL     OW17824   4.596   0.272  17.018  0.3291  1.1107 -0.3044
 2121SOL    HW117825   4.519   0.247  16.967 -1.6640  2.9893  1.7694
 2121SOL    HW217826   4.621   0.183  17.044 -0.9861  0.9020  0.2534
 2122SOL     OW17827   4.375   3.156   6.167  0.3690 -0.2029  0.1240
 2122SOL    HW117828   4.365   3.227   6.103 -0.2292 -1.3497 -1.0542
 2122SOL    HW217829   4.285   3.129   6.185  0.2098  0.4793  0.3641
 2123SOL     OW17830   4.619   3.264   4.681  0.4291  0.1147  0.0300
 2123SOL    HW117831   4.596   3.211   4.605  0.0660  0.4524 -0.0938
 2123SOL    HW217832   4.707   3.296   4.661  0.6336  0.6209  1.7480
 2124SOL     OW17833   0.393   0.836   6.604  0.4335 -0.0731  0.8577
 2124SOL    HW117834   0.425   0.747   6.588  0.3149 -0.5130  3.0120
 2124SOL    HW217835   0.358   0.835   6.694  0.9542  2.1454  1.0856
 2125SOL     OW17836   0.899   4.708   5.860 -0.1693 -0.3253  0.1960
 2125SOL    HW117837   0.861   0.069   5.851 -0.2750 -0.4592 -0.6104
 2125SOL    HW217838   0.899   4.680   5.769  2.7120  1.2597 -0.2905
 2126SOL     OW17839   2.734   1.060   3.875 -0.1062 -0.0149 -0.1858
 2126SOL    HW117840   2.766   1.014   3.797  1.5427  0.5280  0.1774
 2126SOL    HW217841   2.651   1.094   3.841 -0.2358  0.3853  0.5424
 2127SOL     OW17842   0.892   4.041   5.426 -0.1830 -0.2484  0.0148
 2127SOL    HW117843   0.811   4.026   5.475  0.4151 -1.5829  0.5938
 2127SOL    HW217844   0.949   4.069   5.498 -1.2308  0.5518  0.5246
 2128SOL     OW17845   1.467   1.457  10.917 -0.5287  0.2524  0.1580
 2128SOL    HW117846   1.393   1.446  10.857  1.3105  0.9370 -2.2251
 2128SOL    HW217847   1.465   1.552  10.918 -0.2415  0.2241  3.0278
 2129SOL     OW17848   2.050   1.242   5.688  0.2404  0.0422 -0.3452
 2129SOL    HW117849   1.957   1.223   5.693 -0.2049  2.0669 -0.8685
 2129SOL    HW217850   2.070   1.253   5.595  1.9760  1.0674  0.1324
 2130SOL     OW17851   0.247   3.185   2.077 -0.0996  0.2692  0.0065
 2130SOL    HW117852   0.189   3.257   2.102 -0.7073 -0.6415  1.1767
 2130SOL    HW217853   0.190   3.112   2.100 -1.7103  1.0248 -1.5264
 2131SOL     OW17854   4.435   0.578   3.643  0.0167  0.4366 -0.1202
 2131SOL    HW117855   4.348   0.557   3.678  0.0540 -0.1636 -0.3900
 2131SOL    HW217856   4.485   0.615   3.716  2.8753 -1.3033 -1.1977
 2132SOL     OW17857   1.369   3.570  10.368  0.6831 -0.2783  0.7861
 2132SOL    HW117858   1.287   3.604  10.406 -0.8531 -2.4955 -0.5353
 2132SOL    HW217859   1.343   3.530  10.285 -0.9276  0.4219  0.9348
 2133SOL     OW17860   0.698   3.609   6.776  0.3565 -0.2620  0.6230
 2133SOL    HW117861   0.753   3.604   6.698 -0.4245 -0.2051  0.0643
 2133SOL    HW217862   0.672   3.701   6.766 -0.8444 -0.5266  1.3691
 2134SOL     OW17863   3.745   4.484  16.017 -0.2992  0.7735 -0.0285
 2134SOL    HW117864   3.713   4.536  16.091  4.4059  2.3605  0.9119
 2134SOL    HW217865   3.664   4.455  15.974 -1.1781  3.2000 -0.0346
 2135SOL     OW17866   3.840   1.922   4.743 -0.4653 -0.0810  0.2618
 2135SOL    HW117867   3.908   1.965   4.692 -0.6387  0.4248  0.4596
 2135SOL    HW217868   3.780   1.896   4.674  0.3525 -1.4396  0.0527
 2136SOL     OW17869   3.090   3.834   3.139  0.2191 -0.3816  0.5433
 2136SOL    HW117870   3.115   3.771   3.207  1.2986 -2.3665 -1.6839
 2136SOL    HW217871   3.175   3.846   3.096  0.4982  0.2630  1.2751
 2137SOL     OW17872   2.798   3.881  16.179  0.0018  0.2441 -0.1967
 2137SOL    HW117873   2.844   3.881  16.263  0.4929  3.6664 -0.4441
 2137SOL    HW217874   2.834   3.961  16.141 -1.9546  1.4415  0.4995
 2138SOL     OW17875   4.409   3.899   3.516 -0.0422 -0.0819 -0.3843
 2138SOL    HW117876   4.387   3.979   3.469 -0.7804  0.8663  1.5739
 2138SOL    HW217877   4.500   3.902   3.545 -0.2896 -3.2142  0.7564
 2139SOL     OW17878   1.897   4.463   8.193  0.0278  0.0586 -0.1855
 2139SOL    HW117879   1.802   4.457   8.200 -0.2063  1.6640 -1.7655
 2139SOL    HW217880   1.898   4.533   8.126 -3.0643  0.1511 -0.1361
 2140SOL     OW17881   1.049   0.936  16.648  0.3551 -0.2006  0.4640
 2140SOL    HW117882   1.128   0.882  16.649  0.2254 -0.3992  0.1323
 2140SOL    HW217883   1.012   0.918  16.735  1.1227 -0.4738  0.7341
 2141SOL     OW17884   2.787   3.718  10.116 -0.3581 -0.0685 -0.3100
 2141SOL    HW117885   2.696   3.713  10.143  0.1198  0.9693  1.5211
 2141SOL    HW217886   2.781   3.750  10.026 -3.3964 -0.1260 -0.1050
 2142SOL     OW17887   2.176   3.902   8.434 -0.3892 -0.0156 -0.5863
 2142SOL    HW117888   2.243   3.945   8.381  1.5154  1.2193  2.8058
 2142SOL    HW217889   2.215   3.893   8.521  0.3179  1.5245 -0.7551
 2143SOL     OW17890   0.863   2.974   4.708  0.4002 -0.1231  0.1946
 2143SOL    HW117891   0.835   3.040   4.771 -0.2924  0.0035 -0.2443
 2143SOL    HW217892   0.917   3.020   4.644  0.6891 -0.6734  0.0450
 2144SOL     OW17893   4.410   2.142   7.222 -0.2973 -0.0937  0.2838
 2144SOL    HW117894   4.460   2.189   7.288  1.2245  0.4404 -1.2290
 2144SOL    HW217895   4.323   2.170   7.251  0.5990  1.4269  1.4743
 2145SOL     OW17896   2.662   1.067   6.211  0.4399  0.5201 -0.1668
 2145SOL    HW117897   2.734   1.050   6.150  0.2593  2.1950 -0.8636
 2145SOL    HW217898   2.635   1.147   6.165 -0.2744  0.1765 -0.3370
 2146SOL     OW17899   0.356   1.616   5.547  0.6622 -0.3157 -0.2596
 2146SOL    HW117900   0.351   1.573   5.461 -1.9562  0.7253 -0.6185
 2146SOL    HW217901   0.389   1.548   5.606 -1.7302 -0.7741  0.5511
 2147SOL     OW17902   1.618   0.668   6.467  0.1143  0.3838 -0.1558
 2147SOL    HW117903   1.576   0.654   6.382  1.5875 -2.5498 -0.3719
 2147SOL    HW217904   1.610   0.580   6.502  0.2865  0.9303  1.2805
 2148SOL     OW17905   3.860   1.934   7.700  0.1255  0.3090 -0.2833
 2148SOL    HW117906   3.772   1.953   7.666  0.4420  0.2507 -1.1389
 2148SOL    HW217907   3.869   1.993   7.774 -0.7877 -0.3449  0.3449
 2149SOL     OW17908   2.189   4.327  16.602  0.4707 -0.2621  0.4058
 2149SOL    HW117909   2.169   4.368  16.518  1.1925  1.0208  0.8501
 2149SOL    HW217910   2.145   4.392  16.658 -2.2189 -1.7882  0.0223
 2150SOL     OW17911   0.142   2.006   2.782  0.3451 -0.8188 -0.0385
 2150SOL    HW117912   0.156   1.965   2.697  1.3731  0.1449 -0.3245
 2150SOL    HW217913   0.193   1.951   2.842 -0.2715  0.3083  1.5185
 2151SOL     OW17914   4.029   4.042  10.099 -0.2010 -0.1714 -0.0067
 2151SOL    HW117915   4.071   4.006  10.021  2.0685  1.2092  0.5949
 2151SOL    HW217916   4.031   4.137  10.088  0.3342 -0.2586 -0.6419
 2152SOL     OW17917   0.169   3.475  16.802 -0.7337 -0.2678  0.1275
 2152SOL    HW117918   0.178   3.456  16.708 -1.4896  0.7045 -0.1387
 2152SOL    HW217919   0.133   3.400  16.849  0.6913  0.3678  2.2118
 2153SOL     OW17920   3.211   3.206   3.500 -0.4898 -0.6814 -0.1626
 2153SOL    HW117921   3.238   3.169   3.416  0.6816 -1.4697  0.5625
 2153SOL    HW217922   3.133   3.154   3.522 -0.5822 -0.4795 -0.0205
 2154SOL     OW17923   4.080   1.463   7.734  0.0485 -0.2423  0.1814
 2154SOL    HW117924   4.038   1.420   7.809  1.0319  1.8459  1.9458
 2154SOL    HW217925   4.061   1.554   7.757  0.8521 -0.0726  0.1764
 2155SOL     OW17926   1.313   3.604   6.380  0.8960  0.1389  0.2923
 2155SOL    HW117927   1.381   3.671   6.388  1.3581 -0.4070  0.9691
 2155SOL    HW217928   1.258   3.617   6.457  1.5099  0.3281  0.6991
 2156SOL     OW17929   2.892   0.759   1.435  0.3696  0.1011 -0.0077
 2156SOL    HW117930   2.988   0.759   1.444  0.4041 -1.1839 -0.4154
 2156SOL    HW217931   2.866   0.837   1.484 -2.6164 -0.2781 -0.9957
 2157SOL     OW17932   4.202   3.579   7.355  0.5054 -0.2669  1.0582
 2157SOL    HW117933   4.265   3.510   7.376  1.0411  0.4240  1.7259
 2157SOL    HW217934   4.139   3.571   7.427  0.4071 -1.5947  0.8215
 2158SOL     OW17935   2.488   1.967   8.393  0.2780 -0.0153 -0.0906
 2158SOL    HW117936   2.495   1.883   8.348 -1.9894 -0.9872  1.3633
 2158SOL    HW217937   2.409   2.003   8.352  0.4437 -2.2695 -2.4605
 2159SOL     OW17938   3.812   3.904  10.562 -0.2221 -0.4467 -0.1531
 2159SOL    HW117939   3.801   3.812  10.588 -0.5325 -0.2958  0.2350
 2159SOL    HW217940   3.733   3.900  10.508 -0.1061  1.2930 -0.4261
 2160SOL     OW17941   2.414   3.838  10.423 -0.0189  0.4362  0.1447
 2160SOL    HW117942   2.505   3.810  10.410 -0.1294  0.3308 -0.3977
 2160SOL    HW217943   2.377   3.759  10.463  0.1626  0.7055  0.8461
 2161SOL     OW17944   3.057   1.439   7.709 -0.4089  0.3794  0.3643
 2161SOL    HW117945   3.062   1.385   7.630  0.0397 -0.2692  0.8344
 2161SOL    HW217946   3.037   1.528   7.680  3.4993  1.1909  0.2607
 2162SOL     OW17947   3.230   4.621   1.993  0.5517 -0.0257  0.8631
 2162SOL    HW117948   3.200   4.603   2.082  0.0865 -0.7662  0.5525
 2162SOL    HW217949   3.226   4.535   1.951  1.2959  1.1575 -1.6328
 2163SOL     OW17950   0.888   3.582  15.445 -0.4521  0.2685  0.2220
 2163SOL    HW117951   0.798   3.566  15.473 -0.7084  2.5624  0.7934
 2163SOL    HW217952   0.877   3.632  15.364  3.3088 -0.4042 -0.6931
 2164SOL     OW17953   3.152   0.504  15.682 -0.4393  0.0937  0.1773
 2164SOL    HW117954   3.060   0.478  15.688 -0.5818  0.2144 -1.4107
 2164SOL    HW217955   3.169   0.498  15.776  0.1027 -0.2422  0.0576
 2165SOL     OW17956   0.557   0.536   4.673  0.5786  0.6383  0.1109
 2165SOL    HW117957   0.545   0.441   4.661 -0.8232  0.4519  2.8383
 2165SOL    HW217958   0.535   0.569   4.586 -0.0278  0.5473  0.2267
 2166SOL     OW17959   1.856   3.033  15.151 -0.3967  0.5449 -0.2904
 2166SOL    HW117960   1.803   2.992  15.220 -1.3273 -2.2597 -2.6281
 2166SOL    HW217961   1.798   3.091  15.103  2.0299  3.0598 -0.1498
 2167SOL     OW17962   2.191   3.188  13.799 -0.0886  0.0985  0.7606
 2167SOL    HW117963   2.212   3.269  13.844 -0.1584  1.2436 -1.2490
 2167SOL    HW217964   2.190   3.227  13.711  0.6343  0.4964  0.9293
 2168SOL     OW17965   4.099   0.028  17.583  0.2742  0.2611  0.3341
 2168SOL    HW117966   4.083   0.057  17.673 -1.9481 -0.2547  0.1031
 2168SOL    HW217967   4.124   4.665  17.604  0.2452 -0.3288 -2.2676
 2169SOL     OW17968   0.351   3.784  14.128  0.0042  0.0088 -0.2852
 2169SOL    HW117969   0.396   3.732  14.194 -0.2628 -2.9276 -2.4126
 2169SOL    HW217970   0.354   3.732  14.048 -0.8274  1.4049 -1.2239
 2170SOL     OW17971   2.451   0.833   8.106 -0.3610 -0.0512 -0.9579
 2170SOL    HW117972   2.403   0.826   8.024  0.5626  2.1269 -1.6875
 2170SOL    HW217973   2.430   0.925   8.123 -1.7605 -0.6606  0.6105
 2171SOL     OW17974   2.765   0.105   6.943  0.0130 -0.1906  0.5307
 2171SOL    HW117975   2.777   0.024   6.893  1.5313 -0.7202  1.7361
 2171SOL    HW217976   2.674   0.092   6.970  0.8089  0.3393  3.4297
 2172SOL     OW17977   0.464   0.809   8.865  0.5537 -0.3459 -0.3765
 2172SOL    HW117978   0.500   0.894   8.838 -1.3172  0.6260  0.2154
 2172SOL    HW217979   0.386   0.844   8.907  1.3485 -0.1677  0.9430
 2173SOL     OW17980   2.186   2.067  10.078  0.4945  0.4644  0.3894
 2173SOL    HW117981   2.115   2.091  10.019  1.6460  0.4534 -0.9836
 2173SOL    HW217982   2.213   1.985  10.037 -2.9118 -0.4099 -0.1265
 2174SOL     OW17983   2.092   0.896   2.030  0.0326 -0.4063  0.6211
 2174SOL    HW117984   2.098   0.958   2.103  1.4218  0.4741 -0.2477
 2174SOL    HW217985   2.064   0.820   2.081 -0.0511 -1.7971 -1.5422
 2175SOL     OW17986   0.957   2.694   6.583 -0.0857 -0.3158  0.1197
 2175SOL    HW117987   1.019   2.634   6.543 -1.4098  0.3071 -2.8709
 2175SOL    HW217988   1.007   2.767   6.619 -0.7840  0.2838 -0.1099
 2176SOL     OW17989   0.002   3.183   5.073 -0.1877  0.6989  0.1965
 2176SOL    HW117990   0.045   3.100   5.094  0.7100  0.9968 -0.4544
 2176SOL    HW217991   0.037   3.193   4.984  3.4127  0.6125  1.6313
 2177SOL     OW17992   1.593   3.204  10.266 -0.0411  0.5513 -0.2253
 2177SOL    HW117993   1.602   3.213  10.171 -1.0554  2.8267 -0.1248
 2177SOL    HW217994   1.635   3.286  10.291  1.9925 -0.0871 -1.6121
 2178SOL     OW17995   0.397   3.370  11.809 -0.2000 -0.1688  0.0534
 2178SOL    HW117996   0.321   3.381  11.753  1.1068  2.8796 -1.1345
 2178SOL    HW217997   0.406   3.462  11.833 -0.7285  0.4123 -1.9645
 2179SOL     OW17998   0.343   4.253   1.485  0.2703  0.2070  0.2276
 2179SOL    HW117999   0.402   4.180   1.466 -0.0796 -0.4385  1.6137
 2179SOL    HW218000   0.310   4.271   1.397 -1.6589  1.5455  1.2131
 2180SOL     OW18001   3.396   3.843   1.192 -0.2293  0.4693 -0.2093
 2180SOL    HW118002   3.466   3.831   1.255 -1.0663  0.1477  0.6580
 2180SOL    HW218003   3.353   3.758   1.205  1.6617 -0.6837 -1.4150
 2181SOL     OW18004   3.928   0.653   7.129 -0.2500  0.2495 -0.0604
 2181SOL    HW118005   3.998   0.716   7.149  2.1993 -2.5293  0.0499
 2181SOL    HW218006   3.938   0.646   7.034 -1.1565 -0.6724 -0.0898
 2182SOL     OW18007   3.952   3.215  13.969  0.7016  0.8176  0.2820
 2182SOL    HW118008   3.981   3.236  14.058 -0.8664  2.0652  0.5014
 2182SOL    HW218009   3.940   3.305  13.939  0.2537  0.0478 -1.8760
 2183SOL     OW18010   3.711   2.402  15.150 -0.3380 -0.2735 -0.1252
 2183SOL    HW118011   3.742   2.465  15.085  0.6163 -0.1890  0.4173
 2183SOL    HW218012   3.792   2.354  15.170 -0.1769  0.2179  0.4057
 2184SOL     OW18013   1.501   0.552   1.491 -0.3980  0.3140 -0.1215
 2184SOL    HW118014   1.578   0.522   1.443  0.4707  0.9267  0.9036
 2184SOL    HW218015   1.437   0.484   1.467  1.1623 -1.6589  1.3030
 2185SOL     OW18016   2.776   0.615   0.863  0.4274  0.4297  0.6116
 2185SOL    HW118017   2.787   0.596   0.770 -0.7283 -0.7653  0.7143
 2185SOL    HW218018   2.838   0.551   0.898  0.3519  0.6696  1.1957
 2186SOL     OW18019   4.639   2.932   7.291 -0.1767 -0.1149  0.3654
 2186SOL    HW118020   4.647   2.866   7.221 -1.6898  1.4234 -1.2586
 2186SOL    HW218021   4.710   2.906   7.350  0.1208 -1.6308 -0.6416
 2187SOL     OW18022   2.300   3.710   3.728  0.2901  0.0291  0.1054
 2187SOL    HW118023   2.342   3.758   3.657  2.9984 -1.7059  0.5453
 2187SOL    HW218024   2.347   3.627   3.734 -2.7402 -1.7135  0.0226
 2188SOL     OW18025   3.518   4.513   6.179 -0.6247  0.0056 -0.0269
 2188SOL    HW118026   3.459   4.484   6.250 -0.7617  2.3699  0.8475
 2188SOL    HW218027   3.602   4.516   6.224  0.3882 -2.7088 -1.8131
 2189SOL     OW18028   1.272   1.190  10.105  0.5046 -0.4402  0.0975
 2189SOL    HW118029   1.266   1.232  10.019 -0.8888 -1.6857 -0.4233
 2189SOL    HW218030   1.178   1.173  10.113  0.2193  1.5834  1.0113
 2190SOL     OW18031   3.144   1.651  17.092  0.3314 -0.1724  0.0338
 2190SOL    HW118032   3.196   1.572  17.107  1.5890  1.0537  1.9972
 2190SOL    HW218033   3.150   1.657  16.997 -0.0111  1.3893  0.1144
 2191SOL     OW18034   0.023   2.874  16.832 -0.1645 -0.1665 -0.2861
 2191SOL    HW118035   0.029   2.898  16.925 -0.4227  0.6225 -0.4727
 2191SOL    HW218036   4.655   2.878  16.822 -0.1779  2.2739  0.7184
 2192SOL     OW18037   1.793   1.561   4.239 -0.0618 -0.1607  0.1273
 2192SOL    HW118038   1.774   1.571   4.145  2.0297 -0.6739 -0.3426
 2192SOL    HW218039   1.745   1.480   4.258 -2.9344  0.5923 -3.9338
 2193SOL     OW18040   0.328   1.878  14.384 -0.3772 -0.0545  0.6561
 2193SOL    HW118041   0.377   1.864  14.303  0.3588 -1.5258  1.3542
 2193SOL    HW218042   0.250   1.921  14.351  0.3914  0.5243 -0.3965
 2194SOL     OW18043   4.310   4.030   4.933 -0.6017 -0.7346 -0.6104
 2194SOL    HW118044   4.363   4.105   4.961  2.2654 -2.4163 -1.4999
 2194SOL    HW218045   4.375   3.962   4.918 -0.7762 -1.2706  1.1376
 2195SOL     OW18046   0.458   4.600   3.647  0.5406  0.2681 -0.0750
 2195SOL    HW118047   0.547   4.573   3.669 -0.8507 -2.0861  2.6946
 2195SOL    HW218048   0.438   4.517   3.602  0.4068  1.1050 -1.5577
 2196SOL     OW18049   1.944   3.788   5.895 -0.4519  0.0781 -0.7161
 2196SOL    HW118050   2.039   3.778   5.890 -0.5631 -1.0782 -0.6794
 2196SOL    HW218051   1.912   3.700   5.914 -0.7337  0.4457  0.4757
 2197SOL     OW18052   0.380   0.510  13.450 -0.8802  0.0768 -0.3303
 2197SOL    HW118053   0.299   0.557  13.469 -0.4369  0.9700 -0.6592
 2197SOL    HW218054   0.344   0.463  13.374  0.0929 -0.5221 -0.4263
 2198SOL     OW18055   2.395   2.072  16.468 -0.5299  0.5173 -0.0486
 2198SOL    HW118056   2.445   2.035  16.395  0.7680  1.6430  0.2658
 2198SOL    HW218057   2.465   2.127  16.503 -1.5267  1.1971  0.8958
 2199SOL     OW18058   1.692   4.421   6.677  0.2091 -0.3896  0.1232
 2199SOL    HW118059   1.709   4.478   6.602  3.3965 -2.7538 -0.9244
 2199SOL    HW218060   1.694   4.338   6.630  1.7873 -1.2092  1.6357
 2200SOL     OW18061   1.789   1.454   9.309 -0.1978  0.1820 -0.1013
 2200SOL    HW118062   1.770   1.529   9.253 -0.0252  0.3598  0.0742
 2200SOL    HW218063   1.710   1.462   9.362  0.3379 -0.1614  0.7609
 2201SOL     OW18064   1.176   3.886   1.281 -0.1566  0.0925 -0.0869
 2201SOL    HW118065   1.096   3.855   1.239 -0.5381  0.6450  0.2501
 2201SOL    HW218066   1.139   3.962   1.325  0.5931  1.5310 -1.9334
 2202SOL     OW18067   0.709   3.390  17.055  0.1079  0.1423  0.2094
 2202SOL    HW118068   0.742   3.312  17.010  0.7869 -1.3119  3.2336
 2202SOL    HW218069   0.628   3.400  17.004  0.2945  1.2712  0.1473
 2203SOL     OW18070   1.405   4.552   8.016 -0.0393 -0.4361  0.1188
 2203SOL    HW118071   1.459   4.618   7.973 -1.7931  0.9705  0.1091
 2203SOL    HW218072   1.462   4.475   8.030 -0.9539 -1.8366 -3.8710
 2204SOL     OW18073   0.580   0.055   4.897 -0.1355  0.2801 -0.2666
 2204SOL    HW118074   0.509   0.050   4.960 -0.0183  0.7648 -0.0994
 2204SOL    HW218075   0.659   0.063   4.951 -1.4227 -1.9538  1.9618
 2205SOL     OW18076   3.607   0.031   0.827  0.1526  0.2710  0.0303
 2205SOL    HW118077   3.641   4.680   0.784 -0.5525  0.2039 -0.3993
 2205SOL    HW218078   3.572   0.083   0.755 -2.7917 -1.6821  0.0433
 2206SOL     OW18079   2.473   2.656   3.564 -0.2581  0.3755  0.6728
 2206SOL    HW118080   2.420   2.604   3.625 -1.4953  0.6275 -0.1660
 2206SOL    HW218081   2.558   2.613   3.565  0.0791  1.0293 -0.5889
 2207SOL     OW18082   3.607   2.324   7.575  0.4032  0.6523 -0.4049
 2207SOL    HW118083   3.628   2.314   7.482  1.5514  2.6790 -0.3667
 2207SOL    HW218084   3.694   2.293   7.602  0.0304 -0.7962 -0.8672
 2208SOL     OW18085   4.440   0.074   7.186 -0.2750 -0.0727  0.0289
 2208SOL    HW118086   4.431   4.706   7.172  1.4699 -0.6004  2.3431
 2208SOL    HW218087   4.472   0.113   7.105 -5.0131 -0.2759 -1.9308
 2209SOL     OW18088   1.609   1.754   6.876 -0.3683 -0.5222  0.8501
 2209SOL    HW118089   1.589   1.786   6.964  0.0582  0.4059  0.6160
 2209SOL    HW218090   1.626   1.662   6.894 -1.4785 -0.7768  0.5892
 2210SOL     OW18091   2.897   1.659   6.090  0.3983 -0.0189  0.5090
 2210SOL    HW118092   2.828   1.659   6.156 -0.7874  0.4848 -0.7487
 2210SOL    HW218093   2.922   1.567   6.091  0.0295 -0.1257 -1.9257
 2211SOL     OW18094   3.083   1.637  10.303 -0.6913  0.1648  0.0618
 2211SOL    HW118095   3.125   1.708  10.353 -2.4638  1.8998 -0.8842
 2211SOL    HW218096   3.154   1.598  10.253 -1.0220  1.3685 -1.3575
 2212SOL     OW18097   2.362   1.394  13.138  0.0359 -0.0656 -0.3022
 2212SOL    HW118098   2.432   1.450  13.105 -0.9652  0.7415 -1.0611
 2212SOL    HW218099   2.298   1.406  13.068 -2.6539  0.6395  2.2500
 2213SOL     OW18100   4.222   1.014   9.065 -0.2516 -0.1717  0.0632
 2213SOL    HW118101   4.149   0.957   9.088 -1.1770  0.3825 -1.4694
 2213SOL    HW218102   4.225   1.002   8.970  0.1004 -0.8115  0.1536
 2214SOL     OW18103   0.031   3.973   1.992 -0.2474  0.7269  0.4928
 2214SOL    HW118104   0.016   4.002   2.081 -0.0131 -2.4108  1.5577
 2214SOL    HW218105   0.117   4.013   1.976  0.4083 -0.7796  0.2300
 2215SOL     OW18106   1.371   0.076   7.639 -0.1893 -0.2028  0.1295
 2215SOL    HW118107   1.304   0.018   7.602  1.2862 -0.9413 -1.3792
 2215SOL    HW218108   1.434   0.090   7.569 -1.1393 -0.8207 -0.8419
 2216SOL     OW18109   3.301   0.285   6.332  0.3168  0.3962 -0.5141
 2216SOL    HW118110   3.366   0.347   6.365 -1.1853  3.4367 -3.2716
 2216SOL    HW218111   3.357   0.226   6.281 -0.1746  0.1329 -0.7549
 2217SOL     OW18112   4.047   1.725  11.580  0.4773 -0.6540 -0.0743
 2217SOL    HW118113   4.009   1.640  11.602 -0.3106 -0.2584  0.0981
 2217SOL    HW218114   4.020   1.735  11.489  1.0936  2.4984  0.0977
 2218SOL     OW18115   3.372   3.828   3.035 -0.0257  0.3113  0.2322
 2218SOL    HW118116   3.414   3.742   3.028  0.4512  0.3695  2.4694
 2218SOL    HW218117   3.367   3.845   2.941  0.3864 -4.2357 -0.6203
 2219SOL     OW18118   0.551   1.955   1.251 -0.2360  0.2947  0.3005
 2219SOL    HW118119   0.548   2.028   1.190  0.8028 -0.6571 -0.8801
 2219SOL    HW218120   0.638   1.945   1.290 -0.0687  1.2092  0.1461
 2220SOL     OW18121   3.725   3.504   1.925  0.0957  1.2285 -0.3084
 2220SOL    HW118122   3.763   3.530   1.841  1.3225 -0.9608 -0.4263
 2220SOL    HW218123   3.779   3.557   1.984  1.3941  3.4661 -3.5201
 2221SOL     OW18124   2.753   0.449   6.990 -0.1809 -0.2460  0.0401
 2221SOL    HW118125   2.822   0.387   7.014 -1.7622 -1.6894  0.8782
 2221SOL    HW218126   2.726   0.398   6.914  2.2765 -3.0174  1.0303
 2222SOL     OW18127   2.935   3.134   6.918  0.3707 -0.0647 -0.1493
 2222SOL    HW118128   2.963   3.057   6.966 -0.6103  0.0252  0.5737
 2222SOL    HW218129   2.990   3.200   6.961 -1.0433  0.7560  0.4461
 2223SOL     OW18130   1.283   0.795   2.310 -0.3156  0.0381 -0.2341
 2223SOL    HW118131   1.315   0.866   2.255 -1.5391  0.9896  0.2851
 2223SOL    HW218132   1.290   0.725   2.245 -0.6120 -1.1384  1.0021
 2224SOL     OW18133   4.206   0.330  17.109 -0.2145 -0.1537  0.1855
 2224SOL    HW118134   4.297   0.322  17.138 -0.2688 -0.7089  0.2148
 2224SOL    HW218135   4.159   0.303  17.188 -0.9269 -2.3407 -0.9927
 2225SOL     OW18136   0.803   1.875   1.304 -0.2007  0.4897 -0.1775
 2225SOL    HW118137   0.842   1.908   1.385  1.6557 -1.0454 -0.4646
 2225SOL    HW218138   0.829   1.783   1.309 -0.4742  0.2978 -2.4398
 2226SOL     OW18139   1.459   1.144   8.398  0.2497  0.3282  0.1858
 2226SOL    HW118140   1.491   1.212   8.456 -2.5631  1.4264  0.4298
 2226SOL    HW218141   1.373   1.131   8.436  0.7428  0.6411  1.4136
 2227SOL     OW18142   1.323   4.357   3.466  0.0240  0.0599 -0.2401
 2227SOL    HW118143   1.235   4.371   3.499  0.4988  3.4407 -0.4666
 2227SOL    HW218144   1.312   4.377   3.373 -1.4973 -1.4616 -0.3793
 2228SOL     OW18145   3.854   0.185   3.907 -0.4049 -0.0894  0.1749
 2228SOL    HW118146   3.859   0.151   3.996  2.8915 -1.4956 -0.5629
 2228SOL    HW218147   3.948   0.198   3.895 -0.9448  2.1779 -1.6628
 2229SOL     OW18148   3.030   2.561   1.861  0.2261 -0.4617 -0.3658
 2229SOL    HW118149   3.056   2.614   1.937 -2.1682  0.7564 -0.4103
 2229SOL    HW218150   3.004   2.482   1.909  1.0371 -1.0452 -0.8952
 2230SOL     OW18151   0.960   3.728   0.417  0.0404 -0.3733 -0.3953
 2230SOL    HW118152   0.871   3.692   0.417 -1.6156  3.6997 -0.2334
 2230SOL    HW218153   1.018   3.662   0.455 -1.0384 -0.8645  0.3747
 2231SOL     OW18154   1.779   0.063   4.338  0.1194  0.5198 -0.3978
 2231SOL    HW118155   1.834   4.714   4.358 -1.6536 -0.6208  0.1865
 2231SOL    HW218156   1.846   0.129   4.354 -0.0665  0.7427 -0.5412
 2232SOL     OW18157   3.052   1.913   8.681  0.5725 -0.5959  0.4075
 2232SOL    HW118158   3.104   1.911   8.762  3.5744  0.9786 -1.5228
 2232SOL    HW218159   2.964   1.905   8.718  0.1807 -1.3616 -0.7120
 2233SOL     OW18160   1.973   0.376   6.670  0.5065 -0.2992  0.0799
 2233SOL    HW118161   2.014   0.402   6.587 -0.4803  1.2014  0.0587
 2233SOL    HW218162   2.026   0.306   6.708  2.6848  1.4921  0.3670
 2234SOL     OW18163   0.279   3.044   0.156 -0.0836 -0.0702  0.6672
 2234SOL    HW118164   0.260   3.028   0.248 -0.4401 -0.1410  0.5802
 2234SOL    HW218165   0.355   3.103   0.160  1.2372 -1.8258  1.4507
 2235SOL     OW18166   4.010   0.989   6.395 -0.2019 -0.0624  0.3548
 2235SOL    HW118167   3.991   1.008   6.487 -1.7085 -0.6074  0.1639
 2235SOL    HW218168   3.994   0.897   6.376  0.8332 -0.3048  0.6870
 2236SOL     OW18169   3.558   1.753  11.053  0.0338 -0.0707  0.3397
 2236SOL    HW118170   3.495   1.818  11.086 -1.1155 -1.6919  1.3106
 2236SOL    HW218171   3.634   1.789  11.098  0.4698 -2.3365  1.4188
 2237SOL     OW18172   1.637   3.062   1.589  0.1609 -0.1913  0.9342
 2237SOL    HW118173   1.600   3.092   1.672  0.5822 -0.6520  1.2903
 2237SOL    HW218174   1.631   2.967   1.588 -0.4263 -0.1542  0.7932
 2238SOL     OW18175   1.784   3.885  16.528 -0.0648  0.1613  0.2105
 2238SOL    HW118176   1.862   3.940  16.521  0.1140 -0.0356  0.6556
 2238SOL    HW218177   1.772   3.865  16.621 -0.7829  3.3801  0.8067
 2239SOL     OW18178   3.769   3.733   4.287  0.1484  0.2647  0.3950
 2239SOL    HW118179   3.791   3.746   4.379 -0.1771  0.4587  0.4447
 2239SOL    HW218180   3.679   3.765   4.296 -0.2080 -0.0539 -2.0103
 2240SOL     OW18181   1.485   4.567   8.776 -0.3698 -0.0352  0.4588
 2240SOL    HW118182   1.474   4.522   8.692 -0.0366 -0.4086  0.6161
 2240SOL    HW218183   1.398   4.605   8.788  0.0976  1.1852 -0.0071
 2241SOL     OW18184   3.441   0.919  10.037  0.6887  0.7097  0.5033
 2241SOL    HW118185   3.411   0.896  10.125  2.1705  0.4973  0.9478
 2241SOL    HW218186   3.464   0.830  10.010  1.4097  0.1416  2.9948
 2242SOL     OW18187   3.091   1.202   6.278  0.1730  0.5350  0.3385
 2242SOL    HW118188   3.128   1.128   6.231  0.1789  0.9336 -0.2811
 2242SOL    HW218189   3.156   1.272   6.283  1.2955 -0.4040 -1.2215
 2243SOL     OW18190   2.879   4.488   1.310 -0.1223 -0.3283 -0.2970
 2243SOL    HW118191   2.853   4.447   1.392 -0.0974 -3.1307 -1.6615
 2243SOL    HW218192   2.949   4.430   1.278 -0.1230 -0.8346  0.6306
 2244SOL     OW18193   3.641   1.976   7.871  0.0569 -0.4700 -0.5511
 2244SOL    HW118194   3.691   2.057   7.865 -0.2129 -0.1653  1.4920
 2244SOL    HW218195   3.646   1.952   7.963 -1.0754 -1.3664 -0.7290
 2245SOL     OW18196   1.223   0.337   4.269  0.0119  0.0965  0.4474
 2245SOL    HW118197   1.134   0.370   4.259  0.2267  0.7967  0.8053
 2245SOL    HW218198   1.250   0.367   4.183  1.0528  1.3922  1.2182
 2246SOL     OW18199   4.342   3.212   5.877  0.0220  0.0267 -0.0732
 2246SOL    HW118200   4.434   3.226   5.855 -0.0131 -0.1094 -0.2985
 2246SOL    HW218201   4.322   3.164   5.797 -0.3679 -0.9673  0.6264
 2247SOL     OW18202   2.770   1.267   5.143 -0.2515 -0.1050 -0.7277
 2247SOL    HW118203   2.816   1.351   5.144  1.4397 -1.0484  0.3279
 2247SOL    HW218204   2.722   1.286   5.062  0.5517 -1.1568 -1.4574
 2248SOL     OW18205   1.281   3.223  16.430  0.3667  0.0068  0.0638
 2248SOL    HW118206   1.360   3.271  16.455  0.6795  0.0610 -1.0298
 2248SOL    HW218207   1.216   3.278  16.475 -0.0967  0.6601 -1.4138
 2249SOL     OW18208   3.669   2.009   1.638  0.2477  0.3061 -0.3208
 2249SOL    HW118209   3.749   2.035   1.592  0.1993  1.4072  0.2053
 2249SOL    HW218210   3.624   1.961   1.568 -1.3394  0.2720  0.7480
 2250SOL     OW18211   1.103   2.479   3.590  0.5981 -0.0332 -0.1334
 2250SOL    HW118212   1.087   2.503   3.681  0.4323 -1.4146  0.1939
 2250SOL    HW218213   1.181   2.530   3.567  1.5542  0.1301  3.5374
 2251SOL     OW18214   4.527   0.407  16.744 -0.3484 -0.2638 -0.3145
 2251SOL    HW118215   4.458   0.460  16.703  0.0869 -0.0406 -0.7603
 2251SOL    HW218216   4.552   0.456  16.823  0.7821 -0.7725 -0.3502
 2252SOL     OW18217   3.009   1.028  10.888  0.5617 -0.4255 -0.1704
 2252SOL    HW118218   2.953   0.953  10.867 -0.1580 -0.0815  0.4895
 2252SOL    HW218219   2.949   1.101  10.870  0.8221 -0.1046  0.2587
 2253SOL     OW18220   2.468   0.198   4.121 -0.1031  0.1014  0.2903
 2253SOL    HW118221   2.562   0.204   4.138  0.0309  0.3159 -0.5330
 2253SOL    HW218222   2.458   0.132   4.053  2.7872  0.9202 -0.9391
 2254SOL     OW18223   4.522   2.555  15.836  0.2192  0.4469  0.0837
 2254SOL    HW118224   4.558   2.612  15.768  0.0904  0.4586  0.0245
 2254SOL    HW218225   4.532   2.472  15.788 -1.4027  0.6599 -0.6104
 2255SOL     OW18226   3.393   0.870  16.669  0.1847  0.2273  0.2175
 2255SOL    HW118227   3.306   0.874  16.629 -0.1006 -0.4084  0.7739
 2255SOL    HW218228   3.362   0.868  16.760 -0.7346  1.7786 -0.0500
 2256SOL     OW18229   0.689   0.662   4.157  0.2812 -0.0705  0.5055
 2256SOL    HW118230   0.747   0.729   4.121  1.8598  0.5626  4.2267
 2256SOL    HW218231   0.720   0.589   4.103 -0.8547 -0.3691  0.2468
 2257SOL     OW18232   1.426   1.165   6.062  0.1380 -0.0802  0.0849
 2257SOL    HW118233   1.418   1.119   6.146  2.8624 -2.0606 -0.7569
 2257SOL    HW218234   1.439   1.256   6.090 -0.6024 -0.4899  1.7196
 2258SOL     OW18235   1.461   4.404  12.286 -0.2670  0.2031 -0.1531
 2258SOL    HW118236   1.523   4.362  12.225 -1.6181 -2.1929  0.1444
 2258SOL    HW218237   1.517   4.465  12.335  1.0752 -0.9485 -0.2497
 2259SOL     OW18238   2.986   2.576   1.048  0.5744  0.0356 -0.3543
 2259SOL    HW118239   3.011   2.632   0.975  1.0344  1.1967  0.6917
 2259SOL    HW218240   2.993   2.488   1.011  1.3265 -1.2639  2.8245
 2260SOL     OW18241   3.798   0.350   5.968 -0.2391 -0.6540 -0.8448
 2260SOL    HW118242   3.851   0.406   5.912 -0.5276 -0.0111 -0.4733
 2260SOL    HW218243   3.716   0.362   5.922  0.9059  2.9573 -1.9743
 2261SOL     OW18244   1.726   2.750  15.062  0.0528 -0.0454 -0.2235
 2261SOL    HW118245   1.817   2.753  15.035 -0.1014 -0.6138 -0.8085
 2261SOL    HW218246   1.727   2.768  15.156  0.1044 -0.7614 -0.0908
 2262SOL     OW18247   2.092   0.859  15.117  0.3438 -0.4136 -0.4034
 2262SOL    HW118248   2.111   0.952  15.123  0.1691 -0.3691 -0.5838
 2262SOL    HW218249   2.167   0.823  15.165  0.9266  0.4886 -0.6545
 2263SOL     OW18250   1.336   1.667  11.677 -0.0972 -0.4942 -0.1509
 2263SOL    HW118251   1.338   1.747  11.730 -0.9123 -0.6479  0.1132
 2263SOL    HW218252   1.287   1.609  11.735 -1.4232  1.3262  0.5833
 2264SOL     OW18253   0.625   2.322   3.344 -0.0576 -0.3199 -0.2158
 2264SOL    HW118254   0.705   2.336   3.292 -0.8637  1.0474 -1.0999
 2264SOL    HW218255   0.637   2.379   3.420  1.3315  0.1411 -0.7573
 2265SOL     OW18256   0.320   4.056   5.813  0.0861 -0.0647 -0.1780
 2265SOL    HW118257   0.262   4.008   5.872 -0.2270  0.8519  0.2668
 2265SOL    HW218258   0.405   4.021   5.836 -1.2491 -2.5974  0.8632
 2266SOL     OW18259   3.586   1.058   4.815  0.7488 -0.3173 -0.3608
 2266SOL    HW118260   3.609   1.132   4.872 -1.2686 -1.1960  1.6502
 2266SOL    HW218261   3.620   0.991   4.874 -1.7330 -2.3958 -1.2585
 2267SOL     OW18262   1.862   0.675  11.405 -0.2781  0.2362  0.5230
 2267SOL    HW118263   1.815   0.751  11.372  0.3313 -0.9391 -3.0472
 2267SOL    HW218264   1.802   0.600  11.401 -0.3107  0.2664  0.4547
 2268SOL     OW18265   4.241   3.594  14.316 -0.2320  0.1965 -0.0140
 2268SOL    HW118266   4.244   3.538  14.238  0.3319  1.3902 -0.8670
 2268SOL    HW218267   4.168   3.561  14.367  0.5544  0.1169  1.0579
 2269SOL     OW18268   3.177   4.562   1.543 -0.2668 -0.0020  0.0575
 2269SOL    HW118269   3.228   4.597   1.616 -3.1444  1.8005  1.1907
 2269SOL    HW218270   3.088   4.559   1.577  0.7020 -1.4736  2.4693
 2270SOL     OW18271   0.008   0.072  13.855  0.5260 -0.1296  0.2535
 2270SOL    HW118272   0.065   0.135  13.899 -0.4574  1.9690 -1.4708
 2270SOL    HW218273   0.032   0.087  13.764 -2.8117  1.6107 -0.3678
 2271SOL     OW18274   2.373   4.349  11.328 -0.5541 -0.4872 -0.0200
 2271SOL    HW118275   2.382   4.254  11.322 -1.5038 -0.6074  0.5599
 2271SOL    HW218276   2.381   4.378  11.237  1.5834  0.1228  0.3661
 2272SOL     OW18277   2.824   4.230   5.370  0.1176 -0.2237 -0.3264
 2272SOL    HW118278   2.917   4.230   5.393  0.1287 -1.6559 -0.3508
 2272SOL    HW218279   2.831   4.169   5.297 -0.4448 -2.3335  1.3861
 2273SOL     OW18280   2.107   2.901  11.778 -0.3334  0.1273 -0.6370
 2273SOL    HW118281   2.052   2.823  11.767 -0.1986 -0.2200  1.1384
 2273SOL    HW218282   2.172   2.885  11.710 -0.7385  1.3956 -1.3360
 2274SOL     OW18283   1.325   3.007  12.845  0.5590  0.4247 -0.9340
 2274SOL    HW118284   1.280   2.931  12.806  0.5804 -0.3788  0.6300
 2274SOL    HW218285   1.366   3.041  12.765 -0.4292 -0.7477 -1.9475
 2275SOL     OW18286   4.585   2.485   4.822  0.3632 -0.1985  0.4826
 2275SOL    HW118287   4.617   2.553   4.763  0.4274 -0.0509  0.6886
 2275SOL    HW218288   4.587   2.402   4.773 -0.7122 -0.7674  1.4100
 2276SOL     OW18289   2.693   1.934   0.127  0.1524 -0.6993 -0.1837
 2276SOL    HW118290   2.743   1.852   0.120  1.0233 -0.1307 -0.7004
 2276SOL    HW218291   2.681   1.970   0.039  2.2643  1.2423  0.3062
 2277SOL     OW18292   2.333   3.453   8.168 -0.4118  0.2661  0.0192
 2277SOL    HW118293   2.382   3.430   8.247  1.0187  0.7178 -0.7356
 2277SOL    HW218294   2.378   3.527   8.127  0.8658 -0.6722 -0.2647
 2278SOL     OW18295   4.058   3.513   2.470  0.1654 -0.0203 -0.1011
 2278SOL    HW118296   4.033   3.430   2.430  1.9206 -0.3867 -0.4206
 2278SOL    HW218297   3.979   3.567   2.462  0.0762 -0.5490 -2.5012
 2279SOL     OW18298   1.970   4.611  13.602 -0.0061 -0.0445  0.3902
 2279SOL    HW118299   1.896   4.636  13.657 -0.4812  1.5340 -0.9815
 2279SOL    HW218300   1.944   4.666  13.528  0.4905 -0.8176 -0.3699
 2280SOL     OW18301   3.844   0.270   2.983  0.1123  0.4006  0.0018
 2280SOL    HW118302   3.870   0.339   3.044 -0.1389  0.0374  0.5268
 2280SOL    HW218303   3.905   0.283   2.911 -0.0241  0.1959 -0.1485
 2281SOL     OW18304   0.628   3.458   3.724 -0.0709 -0.9836 -0.6157
 2281SOL    HW118305   0.621   3.470   3.819 -0.3802 -0.4160 -0.7130
 2281SOL    HW218306   0.579   3.532   3.690 -0.8555 -1.8047 -1.2799
 2282SOL     OW18307   1.126   1.856   6.675 -0.1002 -0.0622 -0.4813
 2282SOL    HW118308   1.153   1.839   6.766 -0.5743 -0.1419 -0.3550
 2282SOL    HW218309   1.211   1.879   6.639  0.1562 -1.2764 -0.6747
 2283SOL     OW18310   4.662   1.574  15.531  0.5829 -0.3958 -0.5815
 2283SOL    HW118311   4.717   1.548  15.605 -0.5828  0.7289  0.6821
 2283SOL    HW218312   4.677   1.495  15.481 -0.7107 -0.2987 -1.1055
 2284SOL     OW18313   0.253   1.621  14.394  0.0012  0.2350 -0.1852
 2284SOL    HW118314   0.285   1.710  14.406 -0.8486 -0.0947  4.3378
 2284SOL    HW218315   0.284   1.589  14.479 -0.6008  1.6164  0.5639
 2285SOL     OW18316   2.597   1.585   2.058  0.1927  0.5344  0.0703
 2285SOL    HW118317   2.604   1.517   1.990  2.1852 -0.1367  0.9559
 2285SOL    HW218318   2.688   1.600   2.084 -0.1886 -0.0286  1.7278
 2286SOL     OW18319   3.488   2.154  12.367 -0.2712 -0.2309 -0.4012
 2286SOL    HW118320   3.422   2.114  12.309  0.9225 -1.8979 -0.6099
 2286SOL    HW218321   3.554   2.090  12.341  1.5822  1.7919 -0.6532
 2287SOL     OW18322   3.473   0.263  10.843  1.0029  0.2687  0.0512
 2287SOL    HW118323   3.413   0.200  10.884 -0.8137  1.3466 -0.9524
 2287SOL    HW218324   3.443   0.266  10.753  0.0403 -0.8113  0.3381
 2288SOL     OW18325   1.959   2.271   3.089  0.0637 -0.5323  0.3385
 2288SOL    HW118326   1.904   2.218   3.032  3.6303 -1.2354 -2.4910
 2288SOL    HW218327   2.040   2.220   3.086  1.3556  1.6186 -1.7348
 2289SOL     OW18328   0.120   3.652   2.970 -0.1184 -0.0998  0.3283
 2289SOL    HW118329   0.141   3.687   2.883 -0.0752  1.8679  1.1196
 2289SOL    HW218330   0.028   3.679   2.970 -0.1073 -0.0695 -0.2804
 2290SOL     OW18331   1.185   3.004   6.012 -0.0616  0.2163 -0.4856
 2290SOL    HW118332   1.176   3.007   6.107  0.1393  0.1182 -0.4650
 2290SOL    HW218333   1.270   2.960   6.010  0.0218  0.3825 -0.6222
 2291SOL     OW18334   0.461   2.190   1.613 -0.5005 -0.1622 -0.8086
 2291SOL    HW118335   0.505   2.106   1.605  2.3982  1.4651 -1.6810
 2291SOL    HW218336   0.392   2.171   1.677  1.2317 -0.2192  1.0486
 2292SOL     OW18337   4.008   3.100   3.334 -0.7689  0.4807  0.2598
 2292SOL    HW118338   4.058   3.074   3.412 -0.2975  0.3526 -0.0910
 2292SOL    HW218339   3.963   3.021   3.306 -0.4928  0.9945 -1.6348
 2293SOL     OW18340   0.124   3.019  13.841 -0.0674 -0.5108  0.6221
 2293SOL    HW118341   0.034   3.033  13.812 -0.5089 -0.7736  1.8738
 2293SOL    HW218342   0.102   3.001  13.932  1.6035  0.0447  1.1441
 2294SOL     OW18343   2.940   1.838   1.764  0.0380  0.0861  0.3729
 2294SOL    HW118344   2.955   1.874   1.676  0.6427 -1.3360 -0.0896
 2294SOL    HW218345   2.934   1.746   1.739  2.2314 -0.5242  2.0939
 2295SOL     OW18346   0.520   3.077  14.191  0.2912 -0.1440  0.4702
 2295SOL    HW118347   0.464   3.116  14.123  0.6606 -0.7706 -0.1866
 2295SOL    HW218348   0.544   3.158  14.236 -1.0334 -1.1962  3.0466
 2296SOL     OW18349   3.144   3.769   5.904  0.3000  0.0931  0.4780
 2296SOL    HW118350   3.134   3.713   5.826  0.8094 -1.7356  1.7284
 2296SOL    HW218351   3.081   3.730   5.965  0.3063  1.7303  1.5103
 2297SOL     OW18352   2.992   0.533  13.594  0.2780 -0.8154 -0.0017
 2297SOL    HW118353   3.065   0.545  13.655  0.0750 -1.3897  0.3462
 2297SOL    HW218354   2.920   0.503  13.650  0.6227  0.5803  1.1889
 2298SOL     OW18355   3.628   2.363   3.589 -0.0595  0.4397  0.6682
 2298SOL    HW118356   3.605   2.419   3.515  2.5680 -1.3842 -1.5593
 2298SOL    HW218357   3.587   2.284   3.554  1.8493  0.2085 -1.0821
 2299SOL     OW18358   3.126   4.640   5.483  0.2213 -0.0926  0.1156
 2299SOL    HW118359   3.165   4.639   5.570  1.0804 -0.3833 -0.2770
 2299SOL    HW218360   3.126   0.007   5.468  1.1813  0.3330  2.8557
 2300SOL     OW18361   0.321   4.144   7.507 -0.1162 -0.0907 -0.0520
 2300SOL    HW118362   0.281   4.057   7.497 -0.2985 -0.0381  0.2301
 2300SOL    HW218363   0.411   4.117   7.526  0.7399  2.9372  0.2149
 2301SOL     OW18364   1.920   2.991   8.511 -0.5043  0.4515  0.9712
 2301SOL    HW118365   1.911   2.978   8.416  1.4159 -0.1283  0.8698
 2301SOL    HW218366   1.832   2.969   8.541 -0.4950 -3.5424 -1.9135
 2302SOL     OW18367   3.277   4.102   5.275  0.0420 -0.1742 -0.4544
 2302SOL    HW118368   3.310   4.013   5.265  0.6911 -0.1495  1.5102
 2302SOL    HW218369   3.326   4.131   5.198 -0.2644  0.8821 -0.2508
 2303SOL     OW18370   0.254   2.678  13.610 -0.0427 -0.0796  0.2010
 2303SOL    HW118371   0.271   2.620  13.684  1.4204  1.1845  0.8555
 2303SOL    HW218372   0.292   2.762  13.637 -2.6957  1.1029  0.2204
 2304SOL     OW18373   2.017   0.588   1.420  0.6095  0.2104  0.0546
 2304SOL    HW118374   2.023   0.681   1.442  2.1012  0.2652 -0.5524
 2304SOL    HW218375   2.082   0.581   1.349  0.1815  0.8635 -0.4014
 2305SOL     OW18376   2.643   4.457  15.381 -0.3870  0.4571  0.3997
 2305SOL    HW118377   2.655   4.423  15.469  2.3926 -3.0434 -1.3328
 2305SOL    HW218378   2.711   4.411  15.331  0.4439  1.4032  0.6443
 2306SOL     OW18379   1.575   3.794   5.327 -0.4712 -0.0759 -0.7003
 2306SOL    HW118380   1.633   3.859   5.366  0.7710  0.1331 -2.8669
 2306SOL    HW218381   1.493   3.841   5.346 -0.9327 -0.8596 -0.7453
 2307SOL     OW18382   3.013   1.557   0.582  0.4594  0.1756 -0.0115
 2307SOL    HW118383   3.019   1.481   0.640  2.9857  1.2740  1.2097
 2307SOL    HW218384   2.925   1.554   0.546  0.9415 -0.2823 -1.1391
 2308SOL     OW18385   4.544   0.188  14.101 -0.1057  0.5573  0.5020
 2308SOL    HW118386   4.451   0.210  14.094 -0.4174 -0.9307  0.0393
 2308SOL    HW218387   4.554   0.173  14.195  1.0008 -1.5206  0.0341
 2309SOL     OW18388   4.279   3.035   7.401 -0.1344  0.8850 -0.9414
 2309SOL    HW118389   4.204   2.985   7.434  3.7512 -4.2346  0.1561
 2309SOL    HW218390   4.355   2.981   7.423 -1.1342 -0.1413 -0.0055
 2310SOL     OW18391   4.485   0.353   5.693  0.1952  0.0225  0.7151
 2310SOL    HW118392   4.503   0.274   5.643 -0.3007  0.1478  0.3438
 2310SOL    HW218393   4.417   0.322   5.753  0.5738 -0.6296  0.8104
 2311SOL     OW18394   3.393   3.738   0.750 -0.0301  0.6955 -0.0231
 2311SOL    HW118395   3.301   3.761   0.764 -0.2476  2.1006 -3.9143
 2311SOL    HW218396   3.407   3.661   0.805 -0.3017 -0.4071 -1.4985
 2312SOL     OW18397   3.533   0.798   6.070 -0.1476 -0.1509  0.1472
 2312SOL    HW118398   3.624   0.769   6.079 -0.7485 -2.2601 -0.7099
 2312SOL    HW218399   3.494   0.758   6.147 -1.7706  0.2533 -0.4741
 2313SOL     OW18400   0.889   0.234   7.570  0.6664 -0.3337 -0.1146
 2313SOL    HW118401   0.850   0.282   7.497  0.7457 -0.1739 -0.0531
 2313SOL    HW218402   0.924   0.309   7.619 -3.5042  1.6912 -0.2484
 2314SOL     OW18403   3.156   4.695  12.480 -0.1670  0.6130 -0.1236
 2314SOL    HW118404   3.067   4.713  12.511 -0.5578 -0.0964 -0.8621
 2314SOL    HW218405   3.153   4.600  12.469 -0.9345  0.3723  2.0854
 2315SOL     OW18406   3.204   4.037   5.574 -0.2383 -0.1229 -0.3006
 2315SOL    HW118407   3.152   4.108   5.536  1.2731  0.3511 -1.4645
 2315SOL    HW218408   3.159   3.971   5.520  0.6686 -1.4999  0.6199
 2316SOL     OW18409   0.811   4.024   6.307 -0.8540 -0.4749  0.0157
 2316SOL    HW118410   0.728   4.066   6.288 -0.0847  1.1378  0.1942
 2316SOL    HW218411   0.856   4.094   6.354 -0.6924 -1.5766  1.4908
 2317SOL     OW18412   2.708   1.836   1.033  0.1999 -0.6682 -0.4057
 2317SOL    HW118413   2.752   1.791   0.961  2.0553  0.7389 -0.1589
 2317SOL    HW218414   2.620   1.798   1.026  0.5263 -1.6669  0.8438
 2318SOL     OW18415   4.401   3.465   5.243  0.1456  0.6935 -0.4381
 2318SOL    HW118416   4.403   3.556   5.215 -2.7251  0.4289 -1.4334
 2318SOL    HW218417   4.475   3.459   5.304  1.2072 -0.7127 -1.8274
 2319SOL     OW18418   2.920   1.876   7.279  0.0200  0.4380  0.1059
 2319SOL    HW118419   2.880   1.947   7.229 -1.9225 -1.8060 -1.5404
 2319SOL    HW218420   2.916   1.807   7.213  2.4360 -0.0650  0.4755
 2320SOL     OW18421   1.641   0.724   9.315  0.0116  0.2021  0.1057
 2320SOL    HW118422   1.687   0.663   9.257 -0.5268  0.9089 -1.0642
 2320SOL    HW218423   1.629   0.806   9.266  3.2547 -0.2334 -1.4256
 2321SOL     OW18424   0.487   3.620   7.472 -0.7242 -0.9221  0.1065
 2321SOL    HW118425   0.462   3.527   7.468 -0.5952 -0.9355 -0.4154
 2321SOL    HW218426   0.459   3.643   7.561  0.9114  1.0535  0.0899
 2322SOL     OW18427   0.924   3.637   7.278  0.2542 -0.0925 -0.5444
 2322SOL    HW118428   0.898   3.639   7.186  0.1849 -2.3850 -0.5829
 2322SOL    HW218429   0.961   3.722   7.301  1.7502 -0.2466 -2.4049
 2323SOL     OW18430   2.683   2.597   2.130 -0.1656 -0.0935  0.0743
 2323SOL    HW118431   2.663   2.691   2.122  1.8142  0.3451  0.2374
 2323SOL    HW218432   2.595   2.560   2.130  0.1686 -0.9649 -3.3017
 2324SOL     OW18433   3.754   3.202   6.221 -0.6540 -0.5095 -0.2670
 2324SOL    HW118434   3.776   3.164   6.306  0.6152  2.3630  0.6951
 2324SOL    HW218435   3.838   3.238   6.191 -0.0411  0.7362  3.0183
 2325SOL     OW18436   4.201   2.199  16.832  0.4004  0.3648 -0.6576
 2325SOL    HW118437   4.265   2.248  16.780  1.5333 -1.6802 -1.1920
 2325SOL    HW218438   4.141   2.185  16.760 -1.4874 -0.3173  1.0486
 2326SOL     OW18439   4.035   3.079   5.134  0.1178 -0.2817 -0.1532
 2326SOL    HW118440   4.084   3.104   5.056 -3.1537 -1.1781 -2.5114
 2326SOL    HW218441   4.063   3.147   5.195  2.0083 -1.7276  0.5934
 2327SOL     OW18442   4.132   4.635   8.858  0.0226  0.7540 -0.4242
 2327SOL    HW118443   4.114   0.002   8.848  1.9485  1.3518  1.6493
 2327SOL    HW218444   4.169   4.620   8.771  1.3420  0.9844  0.1004
 2328SOL     OW18445   0.951   2.152   4.018 -0.2599  0.6721 -0.2385
 2328SOL    HW118446   0.995   2.087   4.072  0.5369  0.5129 -1.0879
 2328SOL    HW218447   1.019   2.161   3.952 -0.4752  0.9625 -0.4224
 2329SOL     OW18448   1.489   0.648  13.308 -0.1681  0.0452  0.0633
 2329SOL    HW118449   1.443   0.567  13.287 -1.3216  0.4982  0.8477
 2329SOL    HW218450   1.436   0.712  13.261 -0.5579 -1.3052 -1.3308
 2330SOL     OW18451   2.554   1.484   8.433 -0.1693 -0.2861 -0.2636
 2330SOL    HW118452   2.498   1.453   8.504  0.9195  0.7513  1.0570
 2330SOL    HW218453   2.634   1.436   8.455 -1.0234 -1.4342  0.2984
 2331SOL     OW18454   1.050   4.583   8.570  0.3878  0.1668  0.1822
 2331SOL    HW118455   1.052   4.624   8.483 -0.3252  0.1729  0.1718
 2331SOL    HW218456   0.958   4.576   8.595 -0.4690 -1.0258 -3.2370
 2332SOL     OW18457   2.524   1.726   3.867  0.1487 -0.1014 -0.3855
 2332SOL    HW118458   2.590   1.657   3.863  1.4845  1.1457  0.1451
 2332SOL    HW218459   2.589   1.796   3.858 -0.0165  0.1955  0.7568
 2333SOL     OW18460   2.098   3.647   6.139  0.3237  0.0029 -0.7013
 2333SOL    HW118461   2.115   3.558   6.109 -2.3159 -0.7793  0.0742
 2333SOL    HW218462   2.144   3.698   6.072  0.4971 -1.0283 -1.3638
 2334SOL     OW18463   3.929   4.127   7.357 -0.2901  0.6373  0.2061
 2334SOL    HW118464   3.978   4.209   7.349 -1.9093  1.6134  0.1454
 2334SOL    HW218465   3.851   4.151   7.408 -0.2457 -1.5541  1.2873
 2335SOL     OW18466   3.337   0.249  10.333 -0.3086  0.1567 -0.0167
 2335SOL    HW118467   3.339   0.309  10.408 -0.0393 -0.5891  0.5712
 2335SOL    HW218468   3.282   0.181  10.372 -1.0750 -0.3877 -2.0543
 2336SOL     OW18469   4.184   3.279   7.981  0.4796 -0.1203 -0.5305
 2336SOL    HW118470   4.208   3.365   8.016 -0.3269  0.3062 -1.0292
 2336SOL    HW218471   4.145   3.306   7.898 -0.2961 -0.1344 -0.1703
 2337SOL     OW18472   0.668   1.356   7.314 -0.0988  0.3079  0.1765
 2337SOL    HW118473   0.615   1.426   7.350  0.2281  1.1086 -0.9044
 2337SOL    HW218474   0.754   1.392   7.336 -0.5052  0.7583  1.0361
 2338SOL     OW18475   1.533   0.517   6.887 -0.4060 -0.1758 -0.3842
 2338SOL    HW118476   1.585   0.451   6.933  0.8182 -0.3445 -2.0166
 2338SOL    HW218477   1.587   0.510   6.808  1.1553 -1.8094  0.8350
 2339SOL     OW18478   2.198   4.556   9.310  0.3319 -0.5199  0.4336
 2339SOL    HW118479   2.188   4.645   9.345  3.2291 -1.1957  2.9924
 2339SOL    HW218480   2.230   4.565   9.221  0.5723 -0.1906  0.5526
 2340SOL     OW18481   1.367   2.987   5.404 -0.2642 -0.3958 -0.5880
 2340SOL    HW118482   1.444   2.939   5.435 -1.9239 -3.7267 -1.6894
 2340SOL    HW218483   1.307   2.962   5.474 -0.0865 -0.3336 -0.4126
 2341SOL     OW18484   3.989   3.995  12.412  0.5154  0.4181  0.0865
 2341SOL    HW118485   3.908   4.038  12.441 -0.3243 -1.2061  0.1890
 2341SOL    HW218486   3.960   3.987  12.321  2.6945  1.5894 -0.6915
 2342SOL     OW18487   2.944   0.743   3.854  0.1196  0.2952 -0.0307
 2342SOL    HW118488   2.946   0.647   3.859  2.5133  0.4320  1.4055
 2342SOL    HW218489   2.856   0.747   3.816 -0.6045  0.9211  1.7308
 2343SOL     OW18490   4.591   0.165   6.183 -0.8960 -0.0422 -0.3925
 2343SOL    HW118491   4.625   0.079   6.209 -2.5964 -0.9860 -1.2615
 2343SOL    HW218492   4.666   0.215   6.152  1.5053 -2.4238  1.5347
 2344SOL     OW18493   1.581   2.400   3.329  0.2152  0.0249 -0.1811
 2344SOL    HW118494   1.638   2.417   3.404  1.3494  0.5489 -1.1492
 2344SOL    HW218495   1.620   2.460   3.265 -0.5347  0.3127 -0.3640
 2345SOL     OW18496   1.994   0.830   2.810  0.2105  0.5898  0.5424
 2345SOL    HW118497   1.970   0.748   2.768  1.7037 -1.3936  3.5196
 2345SOL    HW218498   2.086   0.808   2.828 -0.0649 -0.2162  0.9602
 2346SOL     OW18499   2.716   0.500  13.569  0.7765 -1.4460  0.5001
 2346SOL    HW118500   2.683   0.447  13.496  0.3501  2.2608 -2.0442
 2346SOL    HW218501   2.706   0.438  13.641 -0.6022 -0.4467  1.1696
 2347SOL     OW18502   1.007   1.770   6.090 -0.0345 -0.1553  0.0876
 2347SOL    HW118503   1.051   1.701   6.140 -0.9733 -0.0609  1.0491
 2347SOL    HW218504   1.004   1.838   6.158 -1.2427  1.8224 -1.9670
 2348SOL     OW18505   0.530   4.327   4.885  0.6026  0.4811  0.2448
 2348SOL    HW118506   0.615   4.367   4.906  0.5496  0.0633  1.2589
 2348SOL    HW218507   0.492   4.401   4.838 -0.7977 -0.8928 -0.7727
 2349SOL     OW18508   2.038   1.649   4.340  0.5872 -0.3987  0.5208
 2349SOL    HW118509   2.030   1.744   4.343  1.3860 -0.2913 -0.8938
 2349SOL    HW218510   1.961   1.617   4.293  0.7036 -0.6415  0.4936
 2350SOL     OW18511   3.779   3.148   3.776 -0.0441  0.3727  0.3376
 2350SOL    HW118512   3.824   3.232   3.782  2.9817 -1.2122  0.0651
 2350SOL    HW218513   3.790   3.114   3.865  1.7417 -0.2957 -0.1372
 2351SOL     OW18514   3.025   1.321   7.448 -0.0556  0.1730  0.0483
 2351SOL    HW118515   2.988   1.386   7.389 -0.3312 -0.0636 -0.0415
 2351SOL    HW218516   3.111   1.361   7.438 -0.1540  0.5554  0.7357
 2352SOL     OW18517   1.035   2.441   9.182 -0.0036 -0.2025  0.6498
 2352SOL    HW118518   1.009   2.446   9.090 -0.6664  1.0061  0.9121
 2352SOL    HW218519   1.122   2.402   9.168  0.4082  1.2483 -0.7881
 2353SOL     OW18520   1.228   1.747   3.623 -0.3319 -0.4719 -0.3087
 2353SOL    HW118521   1.307   1.765   3.674 -1.0328 -2.6989  1.6131
 2353SOL    HW218522   1.196   1.836   3.610  1.7227  0.1938 -0.7786
 2354SOL     OW18523   0.705   3.967   1.981 -0.1649  0.0254 -0.7178
 2354SOL    HW118524   0.718   3.902   2.049 -0.0965 -0.0631 -0.8147
 2354SOL    HW218525   0.798   3.976   1.961 -0.0129 -2.5923 -1.1744
 2355SOL     OW18526   0.390   0.626   1.804  0.6176 -0.1597 -0.4354
 2355SOL    HW118527   0.410   0.714   1.772 -1.9812 -0.7940 -3.7414
 2355SOL    HW218528   0.436   0.570   1.741 -0.3227 -1.1681 -0.2124
 2356SOL     OW18529   2.663   2.128  16.192 -0.1306  0.2586 -0.0293
 2356SOL    HW118530   2.691   2.043  16.226 -3.0913  0.0904  1.9974
 2356SOL    HW218531   2.602   2.110  16.120  0.5475  1.5558 -0.9256
 2357SOL     OW18532   1.892   4.448   5.949  0.2848  0.3843 -0.4640
 2357SOL    HW118533   1.940   4.531   5.938 -0.8312  1.1748  0.6121
 2357SOL    HW218534   1.802   4.479   5.956  0.3211 -0.0228  1.8017
 2358SOL     OW18535   3.661   0.259   4.914  0.0755  0.1335  0.2707
 2358SOL    HW118536   3.571   0.230   4.924  0.2465 -0.7536 -0.7557
 2358SOL    HW218537   3.651   0.323   4.843 -0.9919 -0.2488  0.0819
 2359SOL     OW18538   0.573   1.755   4.799  0.1432 -0.6470  1.0333
 2359SOL    HW118539   0.552   1.662   4.808 -1.1179 -0.1287  3.6613
 2359SOL    HW218540   0.622   1.777   4.878  0.4776 -1.8539  1.1579
 2360SOL     OW18541   0.338   2.216   2.693 -0.1579 -0.6388  0.0268
 2360SOL    HW118542   0.291   2.265   2.626  0.4536 -0.1708 -0.0588
 2360SOL    HW218543   0.271   2.198   2.758 -0.9546  1.3587 -0.2568
 2361SOL     OW18544   4.051   1.053   7.099 -0.2018  0.1998 -0.0953
 2361SOL    HW118545   3.957   1.072   7.094 -0.0335  1.0646 -0.0453
 2361SOL    HW218546   4.047   0.971   7.149 -0.5313 -0.6687 -1.5677
 2362SOL     OW18547   3.820   0.054   8.192 -0.6513  0.6028  0.0223
 2362SOL    HW118548   3.762   0.010   8.129  0.4796 -0.8843  0.0188
 2362SOL    HW218549   3.901   0.011   8.166 -1.6181 -1.4352  0.2789
 2363SOL     OW18550   3.750   1.941   0.479 -0.3174 -0.0989  0.6903
 2363SOL    HW118551   3.741   2.014   0.417  1.9335  0.2876  0.8239
 2363SOL    HW218552   3.701   1.867   0.445 -2.4800 -0.2422  4.0704
 2364SOL     OW18553   1.933   1.792   2.556 -0.2261 -0.3994 -0.4004
 2364SOL    HW118554   1.851   1.799   2.507  0.2506  1.3188 -0.9470
 2364SOL    HW218555   1.926   1.867   2.614  0.9584 -0.3024 -0.3803
 2365SOL     OW18556   3.313   2.022   6.755 -0.3779  0.1353  0.2675
 2365SOL    HW118557   3.360   2.059   6.681 -0.6468  0.7733  0.4197
 2365SOL    HW218558   3.247   2.091   6.759  0.9715  1.4538 -0.4863
 2366SOL     OW18559   0.850   4.403   0.710 -0.2454  0.3432  0.2966
 2366SOL    HW118560   0.929   4.351   0.725 -0.7568 -0.3659  0.5366
 2366SOL    HW218561   0.812   4.342   0.646 -0.9026  0.3085  0.7241
 2367SOL     OW18562   3.847   3.793   5.319  0.2622 -0.1480 -0.2027
 2367SOL    HW118563   3.824   3.868   5.373 -1.4334  0.0690 -1.2068
 2367SOL    HW218564   3.768   3.740   5.325 -1.0370  1.9516  1.1478
 2368SOL     OW18565   4.282   0.478  10.340  0.3559 -0.4081 -0.2793
 2368SOL    HW118566   4.263   0.406  10.400 -2.3995  0.1473 -0.4842
 2368SOL    HW218567   4.308   0.431  10.261 -0.8520  1.4702 -1.7999
 2369SOL     OW18568   2.149   0.303   5.410 -0.0246 -0.5895 -0.4540
 2369SOL    HW118569   2.233   0.326   5.451 -0.0114 -3.9420  1.4662
 2369SOL    HW218570   2.182   0.272   5.326 -1.2492  1.5430 -1.6944
 2370SOL     OW18571   0.134   2.810   2.982 -0.0933  0.7674 -0.3237
 2370SOL    HW118572   0.216   2.769   2.952 -0.8024 -0.8530 -0.0574
 2370SOL    HW218573   0.132   2.888   2.928  0.1171  0.5679 -0.6217
 2371SOL     OW18574   3.192   2.805   5.381  0.6482  0.5414  0.0871
 2371SOL    HW118575   3.263   2.750   5.415 -1.1505 -1.0362  1.2710
 2371SOL    HW218576   3.237   2.852   5.311 -1.0125  0.0572 -1.3068
 2372SOL     OW18577   3.422   2.536  15.935 -0.3574  0.2106 -0.1072
 2372SOL    HW118578   3.347   2.563  15.988 -0.0326  1.7793 -0.4566
 2372SOL    HW218579   3.497   2.596  15.940 -0.6724  0.5254  0.8582
 2373SOL     OW18580   2.794   1.793   8.467 -0.3305  0.0068  0.9423
 2373SOL    HW118581   2.785   1.772   8.560 -0.3071 -3.5305  0.1444
 2373SOL    HW218582   2.714   1.834   8.433  0.4227  0.6230 -0.0856
 2374SOL     OW18583   3.305   0.581   2.051 -0.2721 -0.2787  0.2565
 2374SOL    HW118584   3.352   0.618   1.976  1.5211 -0.7998  1.1364
 2374SOL    HW218585   3.237   0.524   2.015 -2.0341  1.3039  1.0633
 2375SOL     OW18586   2.960   2.888   1.946 -0.1512 -0.2490  0.0627
 2375SOL    HW118587   3.042   2.881   1.897 -0.0365 -1.6206  0.4590
 2375SOL    HW218588   2.893   2.879   1.879  0.1131  0.5130 -0.3061
 2376SOL     OW18589   1.031   2.126   5.020 -0.7638  0.0244  0.1378
 2376SOL    HW118590   1.009   2.168   4.937  1.7658 -2.3375 -1.7357
 2376SOL    HW218591   0.999   2.038   4.998 -0.0055 -0.3730  0.6006
 2377SOL     OW18592   2.009   0.825   9.594 -0.4188  0.1358 -0.0703
 2377SOL    HW118593   1.926   0.872   9.600 -0.9444 -0.8248  0.0744
 2377SOL    HW218594   2.022   0.847   9.501  0.9189 -1.6044 -0.2890
 2378SOL     OW18595   3.520   3.011   3.438  0.3621 -0.3701  0.4440
 2378SOL    HW118596   3.557   2.983   3.354  1.2336  0.1928  0.6438
 2378SOL    HW218597   3.481   2.931   3.474 -0.0306  0.3332  1.5658
 2379SOL     OW18598   0.070   1.418  16.971 -0.2726 -0.4784  0.2652
 2379SOL    HW118599   0.019   1.419  17.052 -0.6295 -0.6209  0.0413
 2379SOL    HW218600   0.029   1.488  16.920 -0.5354 -0.8285  0.0007
 2380SOL     OW18601   3.057   3.230   5.807  0.2677 -0.5403  0.1088
 2380SOL    HW118602   3.088   3.165   5.743  1.0589  0.5615 -0.6325
 2380SOL    HW218603   3.134   3.288   5.812 -0.8276  1.1218 -2.0794
 2381SOL     OW18604   1.234   2.910  10.162 -0.7441 -0.1841 -0.1083
 2381SOL    HW118605   1.228   3.001  10.133  1.1695 -0.0433 -0.0350
 2381SOL    HW218606   1.308   2.911  10.222  1.1708 -2.2986 -2.4503
 2382SOL     OW18607   1.168   0.649  12.456 -0.0301  0.4310 -1.3369
 2382SOL    HW118608   1.075   0.670  12.466  0.5041  1.5758  1.1382
 2382SOL    HW218609   1.175   0.564  12.499  0.9813  0.3577 -1.6427
 2383SOL     OW18610   3.291   1.132  10.232 -0.1772  0.3531 -0.3320
 2383SOL    HW118611   3.265   1.061  10.291 -0.7855 -0.9666 -2.1454
 2383SOL    HW218612   3.226   1.122  10.162 -0.9576  0.6695  0.3396
 2384SOL     OW18613   4.723   2.064   6.615  0.7303 -0.3818 -0.5937
 2384SOL    HW118614   4.634   2.031   6.627  0.4920  0.9289  1.2859
 2384SOL    HW218615   4.717   2.084   6.522 -1.4835  0.1422 -0.3471
 2385SOL     OW18616   4.436   2.885   5.346  0.3871 -0.5322  0.2342
 2385SOL    HW118617   4.361   2.936   5.376  1.3945  0.9887  0.1836
 2385SOL    HW218618   4.512   2.937   5.376  0.6240 -0.5604 -0.3260
 2386SOL     OW18619   0.677   4.476   3.790 -0.3182 -0.1297  0.6454
 2386SOL    HW118620   0.682   4.479   3.885 -0.2727  1.8537  0.5928
 2386SOL    HW218621   0.656   4.383   3.783 -0.4194  0.0383 -1.1831
 2387SOL     OW18622   1.383   2.023   2.428  0.2025 -0.4170  0.4362
 2387SOL    HW118623   1.462   1.969   2.424  0.5048 -0.0328  1.1760
 2387SOL    HW218624   1.324   1.956   2.393 -0.8539  0.5638  0.3429
 2388SOL     OW18625   2.205   4.155   5.081 -0.0700  0.2582 -0.4331
 2388SOL    HW118626   2.199   4.246   5.051 -0.1069  0.5464  0.4305
 2388SOL    HW218627   2.127   4.148   5.136  1.8620 -2.7519  1.8998
 2389SOL     OW18628   2.670   3.910   8.400  0.3374 -0.1874  0.1565
 2389SOL    HW118629   2.691   3.909   8.307 -3.1481 -1.7781 -0.6108
 2389SOL    HW218630   2.588   3.862   8.411  0.1274  0.2654  0.6034
 2390SOL     OW18631   1.122   3.365  16.609 -0.3759  0.0200  0.2356
 2390SOL    HW118632   1.071   3.321  16.677  2.3153 -4.8044 -0.8777
 2390SOL    HW218633   1.113   3.449  16.653 -1.1619 -0.2143  0.5156
 2391SOL     OW18634   0.091   0.687  14.796 -0.2860 -0.3009  0.0677
 2391SOL    HW118635   0.155   0.643  14.851  1.5101  2.0269 -0.1809
 2391SOL    HW218636   0.109   0.659  14.706  2.0428  1.5008 -0.0179
 2392SOL     OW18637   1.839   0.184   1.881 -0.0422  0.8190  0.2737
 2392SOL    HW118638   1.803   0.227   1.959  0.5367 -0.1519  1.0833
 2392SOL    HW218639   1.798   0.238   1.814 -2.7330 -1.9776 -0.2947
 2393SOL     OW18640   0.213   0.572   7.597  0.4171 -0.0855 -0.8095
 2393SOL    HW118641   0.166   0.493   7.569 -2.2386  0.3244  2.4508
 2393SOL    HW218642   0.290   0.542   7.645 -0.0761  0.7497  0.5070
 2394SOL     OW18643   0.208   3.513  17.632 -0.2366 -0.0736  0.5141
 2394SOL    HW118644   0.116   3.500  17.611 -0.3637 -1.8879  2.1686
 2394SOL    HW218645   0.202   3.600  17.673 -1.5772  0.4878 -0.8654
 2395SOL     OW18646   2.264   1.380   5.792  0.0943  0.1310 -0.6516
 2395SOL    HW118647   2.257   1.450   5.727  1.5537  1.5921  0.7370
 2395SOL    HW218648   2.208   1.318   5.745 -0.4234  0.6308 -0.6994
 2396SOL     OW18649   3.222   1.039   9.930  0.6644 -0.4347  0.0160
 2396SOL    HW118650   3.305   1.006   9.963  0.0229 -3.3112 -1.1903
 2396SOL    HW218651   3.204   0.961   9.878  0.5055 -0.8159  0.6394
 2397SOL     OW18652   2.615   3.224   3.285 -0.4102  0.7387 -0.4729
 2397SOL    HW118653   2.663   3.199   3.206  0.5793 -0.8305  0.6049
 2397SOL    HW218654   2.582   3.139   3.314  0.3754  0.0618 -1.5860
 2398SOL     OW18655   4.705   1.386   3.422  0.1211  0.1489 -0.0955
 2398SOL    HW118656   4.612   1.411   3.421 -0.5259 -2.2484  1.1067
 2398SOL    HW218657   4.725   1.399   3.514 -1.7283 -0.5631  0.4157
 2399SOL     OW18658   4.369   1.707   7.036  0.2642 -0.3469  0.2860
 2399SOL    HW118659   4.363   1.747   6.949  0.9876  1.9972  1.3210
 2399SOL    HW218660   4.278   1.719   7.064 -0.5571  1.0316 -2.9862
 2400SOL     OW18661   3.807   4.516   2.645  0.0258  0.0114  0.3895
 2400SOL    HW118662   3.852   4.439   2.681 -2.2965 -2.5898 -2.3146
 2400SOL    HW218663   3.817   4.585   2.710 -3.9926  1.2677 -0.3687
 2401SOL     OW18664   2.627   3.440   2.158 -0.6247 -0.2124  0.0233
 2401SOL    HW118665   2.570   3.426   2.082  0.0693 -0.2393 -0.4929
 2401SOL    HW218666   2.573   3.493   2.217  1.2763  1.4385  0.2543
 2402SOL     OW18667   1.324   4.063  17.326  0.3168 -0.0600  0.1066
 2402SOL    HW118668   1.354   4.010  17.252 -0.6309 -1.8918  1.0670
 2402SOL    HW218669   1.403   4.053  17.378  1.3987 -0.8381 -1.6654
 2403SOL     OW18670   3.507   0.449  11.043  0.2115  0.6301  0.2147
 2403SOL    HW118671   3.483   0.386  10.976 -1.2469 -0.2213  1.5341
 2403SOL    HW218672   3.439   0.417  11.103 -1.3146 -1.0275 -2.3828
 2404SOL     OW18673   1.963   3.487   4.309  0.3052  0.5173  0.2746
 2404SOL    HW118674   2.001   3.427   4.245 -0.1193 -0.1788  0.6786
 2404SOL    HW218675   1.934   3.422   4.373 -2.0639  0.3665 -0.9531
 2405SOL     OW18676   3.953   2.215   6.170  0.5795 -0.3839 -0.0258
 2405SOL    HW118677   3.954   2.297   6.219  0.8050 -0.0954 -0.5053
 2405SOL    HW218678   3.918   2.250   6.088 -0.3267  3.4862  2.0086
 2406SOL     OW18679   0.998   2.778  10.254 -0.0357 -0.0244 -0.1421
 2406SOL    HW118680   0.950   2.832  10.190 -0.2214  0.3716  0.3272
 2406SOL    HW218681   1.090   2.800  10.240  0.0425 -0.4845 -0.3291
 2407SOL     OW18682   3.781   1.465   7.471 -0.0950 -0.3302 -0.6138
 2407SOL    HW118683   3.722   1.457   7.546 -0.3441  0.2298 -0.7504
 2407SOL    HW218684   3.728   1.426   7.401  0.6019 -0.8462 -0.8505
 2408SOL     OW18685   0.737   0.219   0.340  0.1804  0.0741  0.0400
 2408SOL    HW118686   0.696   0.305   0.348 -1.1504 -0.7867  2.5501
 2408SOL    HW218687   0.714   0.202   0.249 -0.4900 -0.5217  0.3189
 2409SOL     OW18688   1.022   2.712   6.066  0.4887  0.2498 -0.3348
 2409SOL    HW118689   1.095   2.682   6.120 -1.2534  2.4222  3.3209
 2409SOL    HW218690   0.976   2.760   6.136  0.6353 -0.7380  0.4379
 2410SOL     OW18691   2.613   3.679   4.401  0.0572 -0.3569  0.0134
 2410SOL    HW118692   2.600   3.670   4.307 -1.0450 -0.1259  0.1454
 2410SOL    HW218693   2.533   3.725   4.425 -0.0388 -0.1750 -0.6573
 2411SOL     OW18694   2.820   3.929  10.584 -0.1937 -0.5189  0.4131
 2411SOL    HW118695   2.752   3.889  10.639  0.1590 -2.5073 -0.5922
 2411SOL    HW218696   2.877   3.974  10.647 -1.0633 -0.4373  1.1503
 2412SOL     OW18697   0.757   0.261  15.698  0.5545 -0.0174 -0.2045
 2412SOL    HW118698   0.719   0.219  15.621  0.3408 -3.1278  1.6039
 2412SOL    HW218699   0.798   0.179  15.727 -0.9050 -1.1641 -1.3382
 2413SOL     OW18700   2.802   2.576   2.386  0.1703 -0.0439  0.0899
 2413SOL    HW118701   2.776   2.604   2.298  1.0186 -3.2744 -1.1861
 2413SOL    HW218702   2.817   2.482   2.372  0.5064 -0.1231  0.9801
 2414SOL     OW18703   4.589   3.589   3.150  0.2539 -0.7174 -0.1257
 2414SOL    HW118704   4.618   3.500   3.130 -1.2099 -1.2082 -0.1122
 2414SOL    HW218705   4.529   3.558   3.218  2.3836 -0.8580  1.6605
 2415SOL     OW18706   2.887   0.495   8.091 -0.0318 -0.6795  0.3383
 2415SOL    HW118707   2.824   0.564   8.068 -0.4085 -1.1984 -0.1813
 2415SOL    HW218708   2.863   0.417   8.041 -0.2192  0.2521 -1.0038
 2416SOL     OW18709   4.496   1.452  16.055  0.2121  0.3582  0.4305
 2416SOL    HW118710   4.486   1.531  16.109  2.6974  0.6931  0.3821
 2416SOL    HW218711   4.514   1.498  15.973  1.2954 -2.4498 -0.9007
 2417SOL     OW18712   3.637   4.627   4.294  0.1093  0.2541  0.1347
 2417SOL    HW118713   3.680   4.641   4.210 -0.2277 -1.7867 -0.3777
 2417SOL    HW218714   3.687   4.553   4.328 -0.5916 -0.1083  0.3800
 2418SOL     OW18715   0.917   0.014   4.549 -0.0558 -0.7151  0.4654
 2418SOL    HW118716   0.924   4.646   4.534  0.2285 -1.0215  2.5153
 2418SOL    HW218717   0.826   0.027   4.521 -0.1117 -1.0020  0.5045
 2419SOL     OW18718   1.024   1.264   6.773 -0.3063 -0.1288 -0.3849
 2419SOL    HW118719   0.972   1.306   6.842  0.9673 -0.6343  0.8751
 2419SOL    HW218720   0.969   1.187   6.762  2.0594 -1.9369  0.4843
 2420SOL     OW18721   1.554   3.112   5.957  0.5237  0.1258 -0.5340
 2420SOL    HW118722   1.495   3.175   5.916 -0.3309  0.4669  1.2062
 2420SOL    HW218723   1.499   3.035   5.968  1.9145 -0.3640  2.8795
 2421SOL     OW18724   1.053   1.658   1.353  0.3507  0.7018  0.4027
 2421SOL    HW118725   1.020   1.713   1.424  1.1188  3.2408 -1.2033
 2421SOL    HW218726   0.972   1.613   1.329  1.1012 -0.6060  0.3274
 2422SOL     OW18727   1.087   3.862  17.617  0.3482 -0.2059  0.2661
 2422SOL    HW118728   1.052   3.915  17.688  0.5049  1.6496 -1.0513
 2422SOL    HW218729   1.180   3.885  17.611  0.1818  0.6595  0.9515
 2423SOL     OW18730   1.753   3.712   1.663  0.1220 -0.1346 -0.6149
 2423SOL    HW118731   1.740   3.655   1.587 -0.8171  2.2916 -2.2821
 2423SOL    HW218732   1.664   3.738   1.689  0.5725  1.9324 -1.1242
 2424SOL     OW18733   3.095   1.801   2.010 -0.1308 -0.1709 -0.0666
 2424SOL    HW118734   3.025   1.794   1.945 -0.9497 -0.1626  0.8186
 2424SOL    HW218735   3.166   1.848   1.967 -0.4447  2.5752  2.4814
 2425SOL     OW18736   2.514   3.152   7.635  0.3462 -0.6097  0.3501
 2425SOL    HW118737   2.441   3.091   7.642 -2.2981  2.3882 -1.1315
 2425SOL    HW218738   2.571   3.141   7.712 -0.0647 -1.1069  0.5801
 2426SOL     OW18739   2.677   2.487   9.546 -0.5845  0.2072 -0.2120
 2426SOL    HW118740   2.762   2.481   9.502 -0.0491  1.7423  0.6126
 2426SOL    HW218741   2.709   2.469   9.635 -1.1646 -2.1887 -0.4918
 2427SOL     OW18742   4.308   2.234  11.289  0.1983 -0.0435 -0.5898
 2427SOL    HW118743   4.362   2.226  11.367 -0.2917 -1.3617 -0.3903
 2427SOL    HW218744   4.336   2.315  11.246 -0.7395  0.6841  0.1640
 2428SOL     OW18745   0.726   0.495   8.743 -0.0925 -0.5271  0.4417
 2428SOL    HW118746   0.799   0.537   8.788 -0.6105  0.1553  0.6470
 2428SOL    HW218747   0.669   0.476   8.817  1.8306 -1.5047  1.6503
 2429SOL     OW18748   3.167   0.560   3.223 -0.5550  0.1261 -0.8626
 2429SOL    HW118749   3.146   0.540   3.314 -0.5698 -0.0235 -0.8987
 2429SOL    HW218750   3.182   0.473   3.185  1.6464  0.3441 -0.4701
 2430SOL     OW18751   2.684   2.232   3.332 -0.0720  0.6199  0.2144
 2430SOL    HW118752   2.689   2.143   3.295 -0.6683  0.8294 -0.3650
 2430SOL    HW218753   2.726   2.292   3.270  0.0060  0.8340  0.4778
 2431SOL     OW18754   3.531   1.232  11.229 -0.5197 -0.0386  0.0598
 2431SOL    HW118755   3.477   1.223  11.150  0.5789 -1.1935 -0.5476
 2431SOL    HW218756   3.481   1.181  11.292 -0.8705 -0.3041 -0.4247
 2432SOL     OW18757   2.467   0.906   3.829 -0.3235 -0.4805 -0.0398
 2432SOL    HW118758   2.516   0.934   3.906  1.9942 -0.6362 -1.4407
 2432SOL    HW218759   2.454   0.988   3.782  0.1029 -0.7239 -0.5903
 2433SOL     OW18760   4.038   4.032  14.700  0.3194 -0.0435  1.0092
 2433SOL    HW118761   4.127   4.032  14.667 -0.3010 -0.1291 -0.6648
 2433SOL    HW218762   4.027   3.948  14.745 -4.1030  1.8215  3.4851
 2434SOL     OW18763   3.712   2.020   3.282 -0.2644 -0.1266 -0.3410
 2434SOL    HW118764   3.765   1.944   3.259 -0.0542 -0.6269  1.7901
 2434SOL    HW218765   3.707   2.073   3.202 -0.0915 -0.7145 -0.7381
 2435SOL     OW18766   2.672   3.946   1.631  0.1582 -0.2252 -0.2447
 2435SOL    HW118767   2.680   4.040   1.615 -1.5280 -0.4545 -2.3609
 2435SOL    HW218768   2.639   3.909   1.549 -2.0739  0.7019  0.2637
 2436SOL     OW18769   2.285   2.669  11.354  0.2565 -1.2365  0.4549
 2436SOL    HW118770   2.359   2.608  11.342  1.5484  0.2853  0.7202
 2436SOL    HW218771   2.208   2.613  11.364 -0.4140 -0.3105  0.3958
 2437SOL     OW18772   2.715   3.640   1.074  0.2774  0.5442 -0.2681
 2437SOL    HW118773   2.804   3.662   1.047  1.6601 -2.4042  1.8481
 2437SOL    HW218774   2.687   3.720   1.119 -1.4689  0.4896 -1.2595
 2438SOL     OW18775   1.550   1.009   3.976 -0.5353 -1.0220 -0.7062
 2438SOL    HW118776   1.529   1.018   3.883 -0.0301  3.3064 -0.4060
 2438SOL    HW218777   1.598   0.926   3.975  1.0105 -0.1313 -0.1799
 2439SOL     OW18778   2.313   2.688   2.744 -0.5886 -0.5247 -0.2620
 2439SOL    HW118779   2.370   2.762   2.768 -0.1687 -0.2776 -1.9899
 2439SOL    HW218780   2.258   2.669   2.819 -1.0545  0.6552 -0.3003
 2440SOL     OW18781   0.396   2.669   6.454  0.2995 -0.3057 -0.1289
 2440SOL    HW118782   0.413   2.603   6.521  0.9219  1.0219  1.0058
 2440SOL    HW218783   0.410   2.755   6.494  2.5292 -1.1884  0.9879
 2441SOL     OW18784   4.427   2.477   5.040  0.2797  0.3100  0.0615
 2441SOL    HW118785   4.473   2.482   4.956 -0.5380  1.8404 -0.2988
 2441SOL    HW218786   4.458   2.559   5.080 -0.8318  0.5719  0.4043
 2442SOL     OW18787   2.270   2.469   1.290  0.1331  0.0061 -0.0246
 2442SOL    HW118788   2.269   2.456   1.195 -0.0167 -2.9548  0.4103
 2442SOL    HW218789   2.273   2.382   1.329 -2.1029 -0.4565 -0.8698
 2443SOL     OW18790   4.573   1.688  12.897  0.3796 -0.0247 -0.3302
 2443SOL    HW118791   4.654   1.654  12.857  1.6433  2.0105  0.4701
 2443SOL    HW218792   4.513   1.667  12.825 -0.1792 -0.0560  0.1500
 2444SOL     OW18793   0.591   3.601  17.465 -0.2199  0.3872 -0.2429
 2444SOL    HW118794   0.612   3.517  17.422 -0.6027 -0.0574  0.4428
 2444SOL    HW218795   0.635   3.587  17.549  1.5204 -2.4118 -1.6038
 2445SOL     OW18796   0.841   1.943   6.940  0.0528 -0.7028  0.2836
 2445SOL    HW118797   0.756   1.987   6.947 -0.3526 -1.6777  1.4877
 2445SOL    HW218798   0.818   1.866   6.888 -3.2505  0.8903 -0.6136
 2446SOL     OW18799   3.685   3.707  12.315 -0.4430  0.1131  0.6063
 2446SOL    HW118800   3.717   3.683  12.227 -1.3785  3.3924 -0.6394
 2446SOL    HW218801   3.656   3.621  12.345 -1.1231 -0.4828 -1.7008
 2447SOL     OW18802   0.234   0.471   6.674 -0.1209  0.2948 -0.0301
 2447SOL    HW118803   0.282   0.400   6.630 -0.2004  0.6392 -0.6688
 2447SOL    HW218804   0.250   0.446   6.765 -1.1338 -0.9963 -0.2024
 2448SOL     OW18805   4.248   1.342   5.088  0.4321  0.0008 -0.5395
 2448SOL    HW118806   4.183   1.389   5.034 -1.9050 -1.2376  1.1835
 2448SOL    HW218807   4.296   1.300   5.017  2.1791 -1.7336  1.6779
 2449SOL     OW18808   4.129   3.856  12.586 -0.2182 -0.8685 -0.3087
 2449SOL    HW118809   4.090   3.913  12.520 -1.9625 -1.1761  0.4435
 2449SOL    HW218810   4.219   3.865  12.554  0.0894  0.5089  0.9443
 2450SOL     OW18811   2.269   3.984   9.202  0.1097 -0.3923  0.0945
 2450SOL    HW118812   2.299   3.903   9.161 -0.7632  0.0745 -1.4526
 2450SOL    HW218813   2.234   3.953   9.286  2.4276  2.0025  1.9488
 2451SOL     OW18814   4.221   3.593   4.755 -0.2285 -0.7812  0.2945
 2451SOL    HW118815   4.291   3.529   4.740  0.4928  0.6721 -2.5200
 2451SOL    HW218816   4.254   3.627   4.838 -0.7063 -1.1582  0.6452
 2452SOL     OW18817   0.928   3.546  17.021  0.6761 -0.4799 -0.2162
 2452SOL    HW118818   0.900   3.606  17.090  0.7575 -2.8151  1.8351
 2452SOL    HW218819   0.848   3.493  17.013 -0.0080  0.4144  0.7372
 2453SOL     OW18820   1.743   0.102   4.069  0.3660 -0.1040 -0.2562
 2453SOL    HW118821   1.652   0.130   4.077  0.4984  0.2626 -0.0555
 2453SOL    HW218822   1.767   0.078   4.159  1.2830 -0.2820 -0.5439
 2454SOL     OW18823   1.922   2.540   9.422  0.2973 -0.3952 -0.5792
 2454SOL    HW118824   1.832   2.518   9.396  0.8434 -0.3973 -2.4513
 2454SOL    HW218825   1.969   2.527   9.340  0.2930  2.6065 -1.0544
 2455SOL     OW18826   4.350   2.826   9.435  0.3259  0.1766  0.4118
 2455SOL    HW118827   4.433   2.789   9.467  0.9143  1.4068  0.2939
 2455SOL    HW218828   4.284   2.800   9.499  1.1180  1.4979  1.7652
 2456SOL     OW18829   2.851   2.162   4.513  0.0381  0.5135  0.1093
 2456SOL    HW118830   2.946   2.161   4.516 -0.0549 -1.1090  2.5789
 2456SOL    HW218831   2.833   2.171   4.607 -2.7019  0.9055 -0.4454
 2457SOL     OW18832   0.979   3.820  13.061  0.2586  0.5297 -0.1407
 2457SOL    HW118833   0.991   3.877  12.985  0.2556  1.2969  0.4317
 2457SOL    HW218834   0.905   3.764  13.038  0.8805  0.2816 -1.4966
 2458SOL     OW18835   2.505   2.465  17.377  0.3509  0.3062 -0.0306
 2458SOL    HW118836   2.561   2.531  17.417  0.3236  0.4503 -0.2322
 2458SOL    HW218837   2.420   2.508  17.370  1.1360  1.6577 -1.2677
 2459SOL     OW18838   3.927   4.528  15.792  0.1334  0.1318 -0.0195
 2459SOL    HW118839   3.960   4.440  15.775 -2.4688 -1.2693  2.3250
 2459SOL    HW218840   3.886   4.521  15.878 -2.9233 -0.7321 -1.5774
 2460SOL     OW18841   0.132   4.010  17.107  0.8926 -0.1770  0.1787
 2460SOL    HW118842   0.162   4.088  17.060  0.2148 -0.2761 -0.4216
 2460SOL    HW218843   0.210   3.961  17.134  0.4513 -1.6738 -1.2494
 2461SOL     OW18844   1.671   1.062   7.757  0.0215 -0.4438 -0.0202
 2461SOL    HW118845   1.726   1.134   7.727 -0.3171 -0.1531  0.0585
 2461SOL    HW218846   1.704   1.028   7.841 -1.2703  1.3738  1.2245
 2462SOL     OW18847   1.160   2.612   4.785  0.7588 -0.1213 -0.0544
 2462SOL    HW118848   1.219   2.685   4.801 -0.9293  0.9115  1.3964
 2462SOL    HW218849   1.075   2.653   4.769  1.0279  1.0757  1.7232
 2463SOL     OW18850   0.108   0.069   8.243 -0.7300  0.3973 -0.2479
 2463SOL    HW118851   0.041   0.108   8.298 -0.1087 -0.1455  0.9142
 2463SOL    HW218852   0.184   0.073   8.302 -1.6552  1.9402  0.8195
 2464SOL     OW18853   3.833   2.732  14.755 -0.3609  0.1130  0.6279
 2464SOL    HW118854   3.738   2.721  14.747 -0.1962  0.4447 -1.7114
 2464SOL    HW218855   3.845   2.826  14.740 -0.3791  0.5510  3.2806
 2465SOL     OW18856   2.553   3.809   3.572 -0.8780  0.9518  0.0972
 2465SOL    HW118857   2.506   3.891   3.559  0.0936  1.3288 -1.0444
 2465SOL    HW218858   2.637   3.820   3.528 -1.3050  0.4215 -0.8448
 2466SOL     OW18859   1.617   4.197   9.658  0.2070  0.4390 -0.3897
 2466SOL    HW118860   1.677   4.260   9.618  0.5541  0.5706  0.3392
 2466SOL    HW218861   1.616   4.141   9.580  1.5886  0.6527 -0.5612
 2467SOL     OW18862   1.525   0.648   3.861 -0.0723  0.3863 -0.2673
 2467SOL    HW118863   1.511   0.553   3.863  0.0207  0.3929  0.4904
 2467SOL    HW218864   1.594   0.658   3.926 -0.4452 -1.4645  0.4143
 2468SOL     OW18865   0.431   3.242   0.658  0.4327  0.0178 -0.2692
 2468SOL    HW118866   0.404   3.332   0.674  1.0458  0.0628  0.5174
 2468SOL    HW218867   0.475   3.242   0.573  0.2115 -1.7442 -0.3991
 2469SOL     OW18868   3.090   0.128   6.749  0.1912 -0.3981  0.4455
 2469SOL    HW118869   3.078   0.090   6.662  0.6503  0.8513 -0.1590
 2469SOL    HW218870   3.075   0.049   6.802  1.5372 -0.9322  0.0417
 2470SOL     OW18871   2.215   2.822   1.318  0.7341 -0.1135 -0.3435
 2470SOL    HW118872   2.125   2.789   1.313  0.8553 -0.5665  0.5410
 2470SOL    HW218873   2.252   2.754   1.374 -1.1968  0.6881  1.9084
 2471SOL     OW18874   0.793   3.732   0.009  0.0223 -0.4204  0.5437
 2471SOL    HW118875   0.769   3.823  17.696  1.3465 -0.6590 -2.0853
 2471SOL    HW218876   0.885   3.748   0.030 -0.4496  1.4857  1.1905
 2472SOL     OW18877   0.622   2.608  11.398 -0.4138  0.3543 -0.2122
 2472SOL    HW118878   0.671   2.568  11.326  1.0894  0.5668  0.6946
 2472SOL    HW218879   0.554   2.647  11.343 -0.4755 -1.7567 -1.6417
 2473SOL     OW18880   2.051   0.392   1.130  0.0214  0.3579  0.2020
 2473SOL    HW118881   1.972   0.444   1.116  0.7781  1.0196 -1.7234
 2473SOL    HW218882   2.118   0.459   1.116 -1.4168  1.0978 -3.4466
 2474SOL     OW18883   2.795   2.230   2.745  0.8202 -0.0883  0.0730
 2474SOL    HW118884   2.872   2.251   2.797  0.3618 -0.7186  1.0091
 2474SOL    HW218885   2.782   2.312   2.697  1.9635  0.6591  1.0528
 2475SOL     OW18886   4.405   3.405   4.774  0.3453 -0.2800  0.5193
 2475SOL    HW118887   4.401   3.346   4.850 -0.8563 -0.5908  0.2152
 2475SOL    HW218888   4.488   3.383   4.731  0.3355 -0.0463  0.3839
 2476SOL     OW18889   4.231   2.311   7.432 -0.2942  0.6582  0.0952
 2476SOL    HW118890   4.142   2.309   7.467 -0.2271  1.0160  0.2768
 2476SOL    HW218891   4.276   2.240   7.478 -1.4667  0.2440  0.6097
 2477SOL     OW18892   2.861   0.723   9.530 -0.1812  0.0338 -0.4447
 2477SOL    HW118893   2.952   0.727   9.560 -0.9274  3.4765  1.3213
 2477SOL    HW218894   2.830   0.801   9.575 -0.1493 -0.7774  0.9914
 2478SOL     OW18895   1.537   0.285   6.715  0.0888 -0.1157 -0.8927
 2478SOL    HW118896   1.628   0.290   6.744  0.2758  0.6351 -1.6251
 2478SOL    HW218897   1.527   0.190   6.709 -1.8180  0.0667 -0.6185
 2479SOL     OW18898   1.022   2.064   6.536  0.3838 -0.7596 -0.2276
 2479SOL    HW118899   1.022   1.976   6.574 -0.7692 -0.1018  1.2482
 2479SOL    HW218900   0.986   2.117   6.607  2.0147 -1.6359  1.2625
 2480SOL     OW18901   2.946   3.617   6.048 -0.2054  0.3762  0.2231
 2480SOL    HW118902   2.892   3.630   6.125 -0.8692 -1.1263  0.0095
 2480SOL    HW218903   2.894   3.553   5.999 -1.4661 -0.1341  2.2392
 2481SOL     OW18904   1.456   0.227   2.752  0.6749  0.0702 -0.1442
 2481SOL    HW118905   1.455   0.268   2.666 -0.1080 -0.0942 -0.2091
 2481SOL    HW218906   1.507   0.149   2.728 -0.4738 -1.2831  1.7974
 2482SOL     OW18907   0.285   3.470   6.484 -0.4855  0.0392 -0.0849
 2482SOL    HW118908   0.213   3.428   6.531  0.0730  1.7793  2.3497
 2482SOL    HW218909   0.247   3.472   6.396 -0.2938 -2.8194 -0.2215
 2483SOL     OW18910   0.207   3.150   6.363  0.3690  0.5890 -0.6773
 2483SOL    HW118911   0.229   3.231   6.317  0.1309  0.7708 -0.4730
 2483SOL    HW218912   0.165   3.185   6.442  0.3295 -1.9795  0.4649
 2484SOL     OW18913   2.399   4.628  17.642 -0.2569 -0.1411  0.3096
 2484SOL    HW118914   2.336   4.701  17.639 -0.0764  0.0806  1.8099
 2484SOL    HW218915   2.400   4.621   0.030  0.6997  0.6564  0.3569
 2485SOL     OW18916   2.015   3.682   3.539 -0.2875 -0.1331 -0.4135
 2485SOL    HW118917   2.053   3.752   3.486 -0.3300 -0.7858 -1.3150
 2485SOL    HW218918   1.977   3.734   3.610 -0.0168 -0.7661  0.1971
 2486SOL     OW18919   1.350   0.690   1.860  0.1677 -0.1706 -0.4594
 2486SOL    HW118920   1.393   0.604   1.861  0.9073  0.1697 -2.0465
 2486SOL    HW218921   1.302   0.673   1.779 -0.6592  0.9623 -0.2103
 2487SOL     OW18922   0.455   2.469   2.792 -0.9620  0.0846  0.3618
 2487SOL    HW118923   0.433   2.381   2.763  1.6779 -0.3797 -0.1982
 2487SOL    HW218924   0.550   2.472   2.782 -0.9547 -2.6417 -0.2708
 2488SOL     OW18925   0.871   1.287  15.348 -0.2912 -0.7101 -0.2488
 2488SOL    HW118926   0.906   1.270  15.260  0.2397 -0.4535 -0.0826
 2488SOL    HW218927   0.939   1.245  15.399  0.3255  0.0174 -0.4654
 2489SOL     OW18928   1.795   3.489   7.453 -0.5073  0.4049 -0.0773
 2489SOL    HW118929   1.845   3.503   7.372 -1.0758  2.6703 -0.0172
 2489SOL    HW218930   1.863   3.441   7.501 -0.9471  0.6187  0.7547
 2490SOL     OW18931   3.874   2.064  13.010 -1.3041 -0.9638 -0.4759
 2490SOL    HW118932   3.887   2.106  12.925  0.9422 -0.4125  0.1381
 2490SOL    HW218933   3.825   2.128  13.061  1.0637 -1.8472  2.9138
 2491SOL     OW18934   2.148   1.582   9.168  0.3132 -0.6087  0.0943
 2491SOL    HW118935   2.159   1.490   9.192  0.1368 -0.3846  1.0251
 2491SOL    HW218936   2.238   1.616   9.162  0.3099 -0.0053  3.6702
 2492SOL     OW18937   3.094   4.098   0.556  0.2260  0.1823  0.0372
 2492SOL    HW118938   3.024   4.154   0.522 -0.2238  0.1834  0.9672
 2492SOL    HW218939   3.158   4.169   0.555 -0.6036  0.8793 -2.1207
 2493SOL     OW18940   2.718   3.669   7.479 -0.7820 -0.2328 -0.0705
 2493SOL    HW118941   2.705   3.704   7.391  0.3161 -1.3053 -0.6553
 2493SOL    HW218942   2.696   3.576   7.477  2.0838 -0.9714  2.4348
 2494SOL     OW18943   1.771   0.315   6.828  0.3758  0.4724  0.4185
 2494SOL    HW118944   1.849   0.342   6.780  1.1149 -2.1706  0.1426
 2494SOL    HW218945   1.809   0.255   6.892  1.8817  1.4473  0.4377
 2495SOL     OW18946   2.009   0.370   5.841  0.0422 -0.1163 -0.0043
 2495SOL    HW118947   1.966   0.391   5.925  1.3198  1.7928  0.1648
 2495SOL    HW218948   2.100   0.385   5.867  0.7058 -1.5044 -1.6008
 2496SOL     OW18949   3.529   1.194   5.329  0.2827 -0.2392  0.3023
 2496SOL    HW118950   3.619   1.216   5.307  0.5421  0.0418  1.6147
 2496SOL    HW218951   3.490   1.280   5.312 -1.8676 -1.5737 -1.4657
 2497SOL     OW18952   4.575   0.113   5.579  0.1589 -0.3046 -0.1119
 2497SOL    HW118953   4.501   0.075   5.532 -0.9300  1.1096  0.4460
 2497SOL    HW218954   4.657   0.088   5.537  1.2694  2.1671  0.5342
 2498SOL     OW18955   2.824   1.810   5.887  0.0913 -0.3975 -0.1258
 2498SOL    HW118956   2.751   1.844   5.938  1.4429  2.3675 -0.0652
 2498SOL    HW218957   2.867   1.751   5.950  1.3469  1.1370  0.4437
 2499SOL     OW18958   3.275   4.276   0.998 -1.1302  0.5501 -0.0310
 2499SOL    HW118959   3.362   4.312   0.981 -1.1371  0.6687  0.1738
 2499SOL    HW218960   3.280   4.192   0.953  0.4462  0.1018  0.9645
 2500SOL     OW18961   3.820   3.608   2.634 -0.0156 -0.1890 -0.1060
 2500SOL    HW118962   3.905   3.592   2.675  0.1870 -0.3501 -0.5883
 2500SOL    HW218963   3.777   3.522   2.628 -0.9194  0.2884 -0.4735
 2501SOL     OW18964   0.917   1.677   5.643 -0.2132  0.2107  0.1763
 2501SOL    HW118965   0.960   1.664   5.559 -0.9583  0.0146 -0.1762
 2501SOL    HW218966   0.957   1.758   5.675 -1.4278  1.4413 -1.4150
 2502SOL     OW18967   4.223   2.341   3.393 -0.3503  0.2391  0.1220
 2502SOL    HW118968   4.139   2.378   3.364  0.7189 -0.2256 -3.6002
 2502SOL    HW218969   4.207   2.257   3.352 -0.1325  0.0067  0.5126
 2503SOL     OW18970   3.243   2.418   6.151 -0.2110 -0.0125  0.2269
 2503SOL    HW118971   3.251   2.409   6.056  2.4185  1.4991  0.3054
 2503SOL    HW218972   3.255   2.513   6.154  1.5460 -0.2154 -0.3734
 2504SOL     OW18973   1.458   1.502   4.070 -0.5535  0.0742 -0.3454
 2504SOL    HW118974   1.549   1.518   4.043 -0.7604  1.8015 -0.0051
 2504SOL    HW218975   1.428   1.519   3.981 -0.9702 -2.3173 -0.6743
 2505SOL     OW18976   0.185   3.293   8.228 -0.4642  0.0476  0.2586
 2505SOL    HW118977   0.128   3.366   8.204 -0.8544 -0.1546  0.5720
 2505SOL    HW218978   0.221   3.285   8.139  0.0205 -1.4754  0.5857
 2506SOL     OW18979   4.097   3.982   3.439 -0.3182  0.1326 -0.2860
 2506SOL    HW118980   4.136   4.031   3.367  0.5806 -0.1439  0.0217
 2506SOL    HW218981   4.007   3.967   3.411  0.1227  1.0268 -2.1348
 2507SOL     OW18982   4.710   4.249   8.709  0.3972 -0.0596  0.3090
 2507SOL    HW118983   0.020   4.189   8.644  1.0741  1.8555 -1.0618
 2507SOL    HW218984   4.644   4.198   8.755 -0.1114 -0.1562 -0.5363
 2508SOL     OW18985   3.532   3.723   1.417  0.2995 -0.0682  0.5825
 2508SOL    HW118986   3.588   3.645   1.418  0.0548 -0.3007 -2.3853
 2508SOL    HW218987   3.607   3.781   1.435  2.0883 -2.1957 -0.0513
 2509SOL     OW18988   3.430   1.038  14.057 -0.3600 -0.3207  0.4520
 2509SOL    HW118989   3.448   1.106  13.992 -2.2004  0.3960  0.7020
 2509SOL    HW218990   3.350   1.067  14.101  0.3639  1.2743  0.7042
 2510SOL     OW18991   4.534   0.627   0.055 -0.2534  0.0967 -0.0416
 2510SOL    HW118992   4.464   0.597  17.705 -0.1523 -0.5281  0.1673
 2510SOL    HW218993   4.606   0.639  17.701  0.7673 -1.0728  0.9262
 2511SOL     OW18994   3.370   2.646   5.466  0.3403  0.3442 -0.2570
 2511SOL    HW118995   3.348   2.556   5.442  0.8288  0.3799 -0.8263
 2511SOL    HW218996   3.456   2.649   5.423  0.6179  1.3223  0.3767
 2512SOL     OW18997   0.724   0.394  11.426 -0.2476  0.5129  0.7293
 2512SOL    HW118998   0.719   0.464  11.491 -0.4466 -1.4592  2.8385
 2512SOL    HW218999   0.810   0.417  11.392  0.5957 -0.1949  2.3505
 2513SOL     OW19000   0.952   2.074  12.745 -0.6199 -0.3785  0.3956
 2513SOL    HW119001   0.873   2.019  12.748 -0.4766 -0.5492  0.9802
 2513SOL    HW219002   0.998   2.027  12.675  2.5252  2.4212  0.6066
 2514SOL     OW19003   3.630   1.839   8.843  0.3786  0.2010  0.9291
 2514SOL    HW119004   3.598   1.750   8.828 -0.9102  0.2807  3.2199
 2514SOL    HW219005   3.678   1.830   8.925  0.3433 -0.2379  0.9005
 2515SOL     OW19006   0.655   1.322   7.038  0.0072 -0.0389 -0.3453
 2515SOL    HW119007   0.709   1.399   7.024 -0.8225  0.7226  0.6774
 2515SOL    HW219008   0.653   1.315   7.133 -2.0188 -0.6277 -0.4223
 2516SOL     OW19009   3.324   0.428  11.371 -0.2748 -0.3347 -0.0304
 2516SOL    HW119010   3.362   0.503  11.417 -1.7157  1.3018 -1.4732
 2516SOL    HW219011   3.296   0.369  11.441 -0.9334  0.4925  0.4064
 2517SOL     OW19012   0.309   3.710  11.678 -0.2337  0.3422  0.1074
 2517SOL    HW119013   0.236   3.766  11.704  1.3446  2.7067 -0.5891
 2517SOL    HW219014   0.271   3.672  11.599  0.1188  0.3975 -0.0900
 2518SOL     OW19015   3.272   3.378   8.054  0.1031  0.1336  0.0307
 2518SOL    HW119016   3.277   3.285   8.032 -1.5971 -0.3151  1.6126
 2518SOL    HW219017   3.276   3.418   7.967  0.3874 -2.2390 -1.0673
 2519SOL     OW19018   3.147   3.162   5.333  0.8239 -0.3357 -0.1608
 2519SOL    HW119019   3.134   3.180   5.240  0.3875  0.2647  0.0193
 2519SOL    HW219020   3.231   3.116   5.333  0.2962 -1.2993 -1.0385
 2520SOL     OW19021   4.523   0.807   1.033 -0.0493 -0.1969 -0.4495
 2520SOL    HW119022   4.496   0.899   1.033  0.0905 -0.1570  0.1987
 2520SOL    HW219023   4.463   0.762   1.092  0.1393 -3.0017 -2.3602
 2521SOL     OW19024   0.731   2.389   4.878 -0.4045  0.1247  0.0275
 2521SOL    HW119025   0.665   2.362   4.942  1.1972 -0.7224  1.3481
 2521SOL    HW219026   0.772   2.466   4.919 -0.3655  0.8101 -1.3001
 2522SOL     OW19027   2.962   0.624  13.159 -0.4809  0.3812 -0.6439
 2522SOL    HW119028   2.919   0.655  13.079  0.0588 -0.0664 -1.1155
 2522SOL    HW219029   3.055   0.645  13.146 -0.0114 -0.3947  1.5355
 2523SOL     OW19030   2.382   1.671   9.301 -0.1714 -0.2588  0.3337
 2523SOL    HW119031   2.456   1.730   9.287  1.4208 -2.2022  0.6282
 2523SOL    HW219032   2.392   1.653   9.395  0.1432 -1.2175  0.1126
 2524SOL     OW19033   3.351   1.989   8.067 -0.2695  0.4614  0.6423
 2524SOL    HW119034   3.363   1.895   8.056  1.5098  0.5926  1.4761
 2524SOL    HW219035   3.380   2.000   8.157  1.2559  1.7087  0.0094
 2525SOL     OW19036   1.983   2.697   4.097  0.1611  0.6239  0.2163
 2525SOL    HW119037   2.070   2.735   4.082  0.3868 -0.1670 -0.5178
 2525SOL    HW219038   1.936   2.733   4.021  0.6317 -0.1629 -0.4433
 2526SOL     OW19039   0.398   0.262   6.555  0.1040 -0.0470  0.2025
 2526SOL    HW119040   0.491   0.285   6.554 -0.0717  0.6311 -0.2498
 2526SOL    HW219041   0.361   0.244   6.469  0.9989 -4.2139  0.6896
 2527SOL     OW19042   2.863   3.640  13.633  0.0377  0.3671 -0.1878
 2527SOL    HW119043   2.954   3.657  13.655  1.0781 -1.3434 -3.0816
 2527SOL    HW219044   2.824   3.694  13.701 -3.0012 -2.6998  0.5227
 2528SOL     OW19045   3.640   2.065   8.332  0.4246 -0.4531  0.2601
 2528SOL    HW119046   3.548   2.040   8.342  1.2212 -3.3837  0.0315
 2528SOL    HW219047   3.677   2.072   8.420 -0.1002 -0.8872  0.5167
 2529SOL     OW19048   3.074   1.888  12.452  0.0734 -0.4695 -0.1398
 2529SOL    HW119049   3.089   1.820  12.386 -0.8556  0.6502 -1.4878
 2529SOL    HW219050   3.145   1.946  12.425  1.9322 -2.4433  0.4623
 2530SOL     OW19051   3.386   0.939   6.950  0.1783 -0.2776 -0.2341
 2530SOL    HW119052   3.330   0.989   7.009  1.2288 -0.3247  0.8105
 2530SOL    HW219053   3.353   0.852   6.972  2.3558 -0.5205  2.0730
 2531SOL     OW19054   2.273   2.013  10.934  0.0349  0.4409  0.5675
 2531SOL    HW119055   2.283   2.080  11.002 -0.0632  0.6206  0.4085
 2531SOL    HW219056   2.199   1.963  10.969 -0.5788 -0.0538 -1.4256
 2532SOL     OW19057   2.766   0.987   3.602  0.4009 -0.4727 -0.0570
 2532SOL    HW119058   2.787   0.971   3.510 -2.7078  0.0279 -0.8727
 2532SOL    HW219059   2.670   0.987   3.597  0.3208  0.3406  1.3977
 2533SOL     OW19060   0.347   4.006  13.853 -0.3801 -0.2380 -0.3031
 2533SOL    HW119061   0.394   4.069  13.909  0.1556 -1.1726  0.3056
 2533SOL    HW219062   0.270   3.994  13.909 -0.6583 -1.0124 -0.8555
 2534SOL     OW19063   2.153   1.189  13.810 -0.3104 -0.1194 -0.2095
 2534SOL    HW119064   2.069   1.231  13.791  0.6227  1.0270 -1.7793
 2534SOL    HW219065   2.195   1.190  13.724 -1.5305 -0.3563 -0.8153
 2535SOL     OW19066   3.411   2.995   8.614  0.1910  0.2048  0.1898
 2535SOL    HW119067   3.420   2.953   8.699  2.2403  0.7137  0.2323
 2535SOL    HW219068   3.502   3.019   8.597  0.0041 -0.4597 -1.7640
 2536SOL     OW19069   0.936   0.729  16.869 -0.1185 -0.3179 -0.0983
 2536SOL    HW119070   0.892   0.671  16.932  0.0568 -0.6465 -0.2774
 2536SOL    HW219071   0.861   0.778  16.834 -1.0927 -1.8776 -0.2054
 2537SOL     OW19072   4.023   1.120  15.287 -0.0085  0.0012  0.3081
 2537SOL    HW119073   4.101   1.079  15.251 -1.1752 -1.7576 -0.1704
 2537SOL    HW219074   3.993   1.178  15.218 -1.2813 -0.7429  0.2441
 2538SOL     OW19075   1.048   3.311   5.218  0.3334 -0.0945 -0.7372
 2538SOL    HW119076   1.108   3.271   5.282 -1.0976  0.3468  0.8704
 2538SOL    HW219077   0.968   3.310   5.271  0.6387  2.2768 -0.2330
 2539SOL     OW19078   0.464   3.077   5.916 -0.4308  0.1292  0.3358
 2539SOL    HW119079   0.528   3.076   5.988 -0.6577 -0.2909  0.5266
 2539SOL    HW219080   0.417   2.996   5.933 -0.2981  0.0471  0.3157
 2540SOL     OW19081   2.016   0.799   6.825  0.4287 -0.0119  0.3597
 2540SOL    HW119082   2.067   0.874   6.856  1.8815 -0.9102  0.1637
 2540SOL    HW219083   2.077   0.771   6.757 -0.4096 -0.7836 -0.0758
 2541SOL     OW19084   2.207   1.782   5.529  0.0391  0.1648 -0.3446
 2541SOL    HW119085   2.247   1.849   5.474  2.1908  1.4961  2.8263
 2541SOL    HW219086   2.118   1.814   5.541 -1.2514 -2.4707 -3.1648
 2542SOL     OW19087   1.697   3.931   2.112 -0.3113  0.7662 -0.2582
 2542SOL    HW119088   1.722   3.971   2.029  1.5421 -0.1511 -0.1503
 2542SOL    HW219089   1.753   3.854   2.101 -2.3532 -0.9796  1.5356
 2543SOL     OW19090   1.224   1.464   4.223 -0.5664  0.4641  0.0626
 2543SOL    HW119091   1.311   1.469   4.183  0.6187  1.5864  2.8001
 2543SOL    HW219092   1.215   1.381   4.270  0.0976 -0.0314 -0.6688
 2544SOL     OW19093   3.512   0.052   6.728 -0.7147  0.2545  0.0818
 2544SOL    HW119094   3.469   0.137   6.721  2.3433  1.8572  0.7466
 2544SOL    HW219095   3.599   0.068   6.691 -1.1362  2.0606 -0.1112
 2545SOL     OW19096   1.974   2.607   2.250  0.1850 -0.5335 -0.2365
 2545SOL    HW119097   1.955   2.679   2.190  0.5299 -0.5468 -0.3604
 2545SOL    HW219098   1.893   2.603   2.301 -0.0977  0.1908 -0.6323
 2546SOL     OW19099   2.911   3.733   2.956  0.4903  0.1852 -0.0261
 2546SOL    HW119100   2.933   3.772   2.872 -0.0687 -0.6022 -0.5394
 2546SOL    HW219101   2.973   3.782   3.010 -0.4170 -0.9038  1.9980
 2547SOL     OW19102   4.720   2.217   2.851 -0.3179  0.4079  0.1802
 2547SOL    HW119103   0.043   2.135   2.843 -1.2764  0.0499 -2.1647
 2547SOL    HW219104   4.637   2.172   2.840 -0.2234  0.2614  0.0582
 2548SOL     OW19105   3.596   0.729   7.948  0.5726 -0.3904  0.0950
 2548SOL    HW119106   3.599   0.816   7.908 -2.1326 -1.0496 -1.5230
 2548SOL    HW219107   3.509   0.734   7.987 -0.0828  0.7759 -1.4995
 2549SOL     OW19108   2.556   3.611   5.018  0.1505  0.2666  0.4509
 2549SOL    HW119109   2.489   3.637   4.955 -1.9686 -2.5556  1.5281
 2549SOL    HW219110   2.617   3.567   4.960  0.6583  0.9636  0.4687
 2550SOL     OW19111   3.919   2.363   5.442  0.7103  0.2734 -0.5006
 2550SOL    HW119112   3.835   2.392   5.407  0.5666 -1.3669 -1.5350
 2550SOL    HW219113   3.919   2.271   5.414 -1.5650  0.1959 -0.1925
 2551SOL     OW19114   2.038   1.176   6.145 -0.1120 -0.1083 -0.1334
 2551SOL    HW119115   1.987   1.140   6.217 -0.5602 -0.8064 -0.8014
 2551SOL    HW219116   2.034   1.271   6.161 -0.1225  0.0045 -0.7830
 2552SOL     OW19117   3.532   1.943  13.006 -0.7086  0.1973 -0.0920
 2552SOL    HW119118   3.612   1.933  13.058  0.5523  0.6863 -1.9253
 2552SOL    HW219119   3.576   1.940  12.920  0.9862 -1.2076  0.8155
 2553SOL     OW19120   1.079   0.370  12.451  0.0029 -0.6297  0.1623
 2553SOL    HW119121   1.141   0.297  12.454 -0.2068 -0.7044  2.6451
 2553SOL    HW219122   0.995   0.325  12.442 -0.7870  0.4352  2.2661
 2554SOL     OW19123   2.947   2.831   5.511  0.3712 -0.2396 -0.0763
 2554SOL    HW119124   2.922   2.918   5.480  4.1728  1.2265  0.9471
 2554SOL    HW219125   3.038   2.823   5.481  0.6317  0.9965  0.3706
 2555SOL     OW19126   0.761   1.316   4.071 -0.0323 -0.1961 -0.2133
 2555SOL    HW119127   0.855   1.298   4.066  0.0488  0.5849 -1.5082
 2555SOL    HW219128   0.732   1.331   3.981 -1.7396 -0.5715  0.2664
 2556SOL     OW19129   4.319   1.214   7.902  0.1317  0.3530 -0.4293
 2556SOL    HW119130   4.237   1.181   7.864 -0.5397  2.2047 -0.6018
 2556SOL    HW219131   4.278   1.287   7.947 -0.4737 -1.1379  1.4444
 2557SOL     OW19132   0.096   3.456   4.697 -0.0056  0.2196  0.2471
 2557SOL    HW119133   0.165   3.466   4.632  1.2935 -1.9218  1.2831
 2557SOL    HW219134   0.052   3.541   4.701 -0.3666 -0.0226  1.5083
 2558SOL     OW19135   0.067   3.575  12.809 -0.7214  0.4339  0.5944
 2558SOL    HW119136   0.088   3.495  12.857  0.9873 -0.9721 -2.5284
 2558SOL    HW219137   4.706   3.556  12.776  0.8566 -3.5247 -1.3242
 2559SOL     OW19138   2.699   3.920   8.135  0.0785  0.5591  0.4826
 2559SOL    HW119139   2.749   3.992   8.096 -0.6398  1.0713  0.4927
 2559SOL    HW219140   2.726   3.841   8.090  0.5484  1.9615 -1.6939
 2560SOL     OW19141   3.098   2.904   1.062  0.0186  0.0631  0.3792
 2560SOL    HW119142   3.072   2.872   0.976  0.4439 -1.1259  0.6911
 2560SOL    HW219143   3.157   2.833   1.086 -0.7843 -0.6897  0.1212
 2561SOL     OW19144   0.409   3.941   3.808  0.7578  0.2028  0.8522
 2561SOL    HW119145   0.357   3.886   3.866  0.2058 -0.3546 -0.1758
 2561SOL    HW219146   0.337   3.987   3.765  0.4721 -0.7662  0.3010
 2562SOL     OW19147   2.213   2.475  12.598 -0.1320  0.4430  0.1077
 2562SOL    HW119148   2.199   2.450  12.689 -0.5609 -0.5755 -0.2361
 2562SOL    HW219149   2.300   2.513  12.598 -0.2241  0.6619 -0.5968
 2563SOL     OW19150   0.654   1.105   1.180  0.4827  0.0058 -0.0426
 2563SOL    HW119151   0.710   1.071   1.250  0.5542 -0.5861 -0.3836
 2563SOL    HW219152   0.579   1.047   1.190 -0.3333  0.6332 -2.3727
 2564SOL     OW19153   4.034   2.750   2.332 -0.2270 -0.3730  0.2514
 2564SOL    HW119154   4.024   2.679   2.396  0.5599  0.4223  1.2551
 2564SOL    HW219155   3.982   2.704   2.266 -0.7815 -3.2440  2.6551
 2565SOL     OW19156   0.236   4.471   6.271 -0.0654 -0.3845  0.5700
 2565SOL    HW119157   0.282   4.489   6.188 -2.4480  1.6697 -0.3432
 2565SOL    HW219158   0.260   4.379   6.279  2.3870 -0.1341 -3.6271
 2566SOL     OW19159   2.316   1.750   2.090 -0.7785  0.2873 -0.9965
 2566SOL    HW119160   2.286   1.712   2.007 -1.0944 -1.1993 -0.2117
 2566SOL    HW219161   2.388   1.689   2.107 -3.9427 -3.5444 -1.4078
 2567SOL     OW19162   2.021   0.252   3.106 -0.7207 -0.3012  0.4969
 2567SOL    HW119163   2.081   0.228   3.177 -1.2508 -0.2538  0.9680
 2567SOL    HW219164   1.942   0.288   3.147 -0.0354 -0.5403  2.0247
 2568SOL     OW19165   0.701   3.611   0.428 -0.1320  0.4823 -0.1734
 2568SOL    HW119166   0.680   3.671   0.499  3.2942  2.0251 -0.4640
 2568SOL    HW219167   0.617   3.589   0.386  0.1204  0.2059 -0.5293
 2569SOL     OW19168   2.238   4.303   8.261  0.5975  0.3574 -0.3271
 2569SOL    HW119169   2.223   4.397   8.262 -1.7878  0.0116 -2.7918
 2569SOL    HW219170   2.153   4.267   8.287  0.6671  0.5862  0.2270
 2570SOL     OW19171   0.976   0.482   7.696 -0.5963 -0.3677 -0.5617
 2570SOL    HW119172   1.033   0.526   7.759 -0.0079 -1.5850 -0.2386
 2570SOL    HW219173   0.906   0.544   7.676 -0.5992 -0.0352  0.4928
 2571SOL     OW19174   2.396   2.692   1.473 -0.1804  0.7465  0.3983
 2571SOL    HW119175   2.434   2.624   1.528  1.7457 -0.3680 -2.2966
 2571SOL    HW219176   2.474   2.747   1.461  0.2573  0.2002  0.7140
 2572SOL     OW19177   2.359   3.348  15.755  0.3154 -0.7967 -0.0557
 2572SOL    HW119178   2.414   3.274  15.728 -0.5087 -1.6718  0.6658
 2572SOL    HW219179   2.401   3.368  15.838 -0.8143 -0.8044  0.5046
 2573SOL     OW19180   0.346   2.878  13.784  0.3000 -0.7043  0.3416
 2573SOL    HW119181   0.263   2.924  13.797  1.8921  1.5006  2.9855
 2573SOL    HW219182   0.406   2.929  13.840 -0.1277  0.0575  0.1140
 2574SOL     OW19183   4.542   3.463  10.893 -0.5159 -0.4669  0.6328
 2574SOL    HW119184   4.560   3.384  10.842 -1.3503 -0.9408  1.0654
 2574SOL    HW219185   4.455   3.443  10.929 -1.2245  0.9925 -0.2726
 2575SOL     OW19186   2.824   1.643  10.186 -0.6010 -0.3278 -0.6294
 2575SOL    HW119187   2.914   1.648  10.220 -0.2824 -0.0571 -1.5032
 2575SOL    HW219188   2.774   1.671  10.263  0.9845  1.8327 -0.3872
 2576SOL     OW19189   2.403   2.879  17.674 -0.4985  0.6673 -0.7523
 2576SOL    HW119190   2.446   2.823  17.610  0.0854  0.5281 -0.2399
 2576SOL    HW219191   2.457   2.869   0.045 -1.7549  0.6800  0.1208
 2577SOL     OW19192   2.490   1.779   7.280  0.3578  0.5162  0.5147
 2577SOL    HW119193   2.416   1.786   7.340  0.5937 -1.2172  0.9911
 2577SOL    HW219194   2.473   1.865   7.240 -0.8375  0.0955  0.1106
 2578SOL     OW19195   2.556   2.652  10.385 -0.0643  0.5323 -0.5937
 2578SOL    HW119196   2.540   2.610  10.301 -1.2569 -1.4347  0.6086
 2578SOL    HW219197   2.607   2.731  10.364 -0.6662  1.9130  3.1191
 2579SOL     OW19198   4.357   2.571  15.271  0.1241  0.0724 -0.7475
 2579SOL    HW119199   4.389   2.486  15.299  0.6955  0.4456 -0.2687
 2579SOL    HW219200   4.427   2.624  15.309 -0.7758 -0.4170  1.5836
 2580SOL     OW19201   2.052   1.052   2.656  0.5424  0.3589  0.0906
 2580SOL    HW119202   1.975   1.026   2.607  0.3058 -0.1882  0.7602
 2580SOL    HW219203   2.036   0.988   2.725 -2.8727  0.7772 -0.3323
 2581SOL     OW19204   0.138   2.840   9.211  0.2824 -0.0558 -0.1867
 2581SOL    HW119205   0.077   2.766   9.216 -1.1978  1.2315  1.1013
 2581SOL    HW219206   0.097   2.897   9.147  1.4918  0.5054 -0.4588
 2582SOL     OW19207   4.259   4.569   2.733 -0.1801 -0.0788 -0.2032
 2582SOL    HW119208   4.335   4.520   2.765 -0.6380 -0.7652 -0.1570
 2582SOL    HW219209   4.303   4.605   2.656  0.6720 -0.0624  0.2946
 2583SOL     OW19210   3.755   3.325   8.869 -0.2464 -0.4666  0.1020
 2583SOL    HW119211   3.833   3.307   8.816 -2.2605 -1.3980 -2.5731
 2583SOL    HW219212   3.726   3.235   8.881 -2.4329 -0.0416 -1.9386
 2584SOL     OW19213   3.013   0.691   2.978  0.5961  0.4676 -0.3158
 2584SOL    HW119214   3.064   0.693   2.897  0.4068  2.1776 -0.3834
 2584SOL    HW219215   3.090   0.678   3.034  0.9273  1.4507 -0.5400
 2585SOL     OW19216   2.016   3.724   9.998 -0.3941  0.2747 -0.3536
 2585SOL    HW119217   2.050   3.814   9.991  0.1859  0.0449 -0.5308
 2585SOL    HW219218   1.930   3.737  10.036 -0.4150 -5.3777  1.5309
 2586SOL     OW19219   2.118   2.283   6.441 -0.5316 -0.0579  0.2104
 2586SOL    HW119220   2.175   2.337   6.386 -1.9537 -1.9878 -3.1352
 2586SOL    HW219221   2.041   2.255   6.392  0.3423  0.8361 -1.6786
 2587SOL     OW19222   3.080   3.799   3.754 -0.3832 -0.0889 -0.0907
 2587SOL    HW119223   3.065   3.708   3.727 -2.2645  0.2907 -0.3157
 2587SOL    HW219224   3.154   3.782   3.813  0.3760  2.6515 -0.2591
 2588SOL     OW19225   0.937   0.155   6.458  0.2902  0.1121  0.8938
 2588SOL    HW119226   0.843   0.141   6.470  0.8975 -1.7121  3.5934
 2588SOL    HW219227   0.944   0.249   6.473  0.5577  0.3008 -0.4130
 2589SOL     OW19228   3.152   1.024  11.150 -0.0289  0.4055  0.3569
 2589SOL    HW119229   3.120   0.983  11.069  1.0344 -1.2214  0.7557
 2589SOL    HW219230   3.143   0.955  11.215 -0.2725 -0.5948 -0.7292
 2590SOL     OW19231   3.626   2.292   4.502 -0.2459 -0.3519 -0.4014
 2590SOL    HW119232   3.608   2.220   4.442 -4.4704  1.0657 -0.8078
 2590SOL    HW219233   3.544   2.339   4.517 -0.0866 -0.4579  0.8425
 2591SOL     OW19234   2.876   2.523  10.212 -0.5520  0.2323  0.6526
 2591SOL    HW119235   2.884   2.461  10.285  1.5245  1.0179  1.1058
 2591SOL    HW219236   2.932   2.473  10.152 -1.1622 -0.2393  0.4807
 2592SOL     OW19237   4.261   4.338   9.033  0.6070  0.2837 -0.1755
 2592SOL    HW119238   4.236   4.352   8.941  1.4059 -0.0516 -0.4503
 2592SOL    HW219239   4.354   4.358   9.020  0.8247  0.4718  1.6778
 2593SOL     OW19240   2.579   3.205   2.784  0.2701  0.6265 -0.0437
 2593SOL    HW119241   2.533   3.127   2.751  0.8804 -0.5794  1.9805
 2593SOL    HW219242   2.659   3.173   2.743  1.2332 -1.1653  3.2674
 2594SOL     OW19243   2.069   4.307   5.720  0.0744  0.4064  0.2556
 2594SOL    HW119244   2.011   4.351   5.783  0.0181 -0.1308  0.5855
 2594SOL    HW219245   2.115   4.255   5.786  0.5714 -0.9751 -1.1904
 2595SOL     OW19246   3.817   4.330   6.866 -0.9280  0.3466  0.6209
 2595SOL    HW119247   3.812   4.424   6.851 -0.1365  0.3967  0.6779
 2595SOL    HW219248   3.873   4.306   6.793 -1.1083  0.0404  0.5804
 2596SOL     OW19249   2.000   3.495   7.262 -0.0486  0.3160  0.0991
 2596SOL    HW119250   1.978   3.550   7.187 -0.9719 -2.1057 -1.4375
 2596SOL    HW219251   2.013   3.557   7.334 -0.0658 -0.3922  0.7217
 2597SOL     OW19252   4.102   3.881   5.701 -0.4879 -0.2028  0.3113
 2597SOL    HW119253   4.194   3.858   5.707 -0.1782  0.4521 -1.9776
 2597SOL    HW219254   4.108   3.934   5.622  0.0113 -0.3130  0.2797
 2598SOL     OW19255   3.985   1.188  16.463  0.6003  0.4937  0.3300
 2598SOL    HW119256   4.019   1.132  16.533 -0.7344 -0.5416  0.1349
 2598SOL    HW219257   3.946   1.121  16.407  0.5274  0.9765 -0.2024
 2599SOL     OW19258   1.584   3.333   7.791 -0.0011  0.9993  0.0263
 2599SOL    HW119259   1.505   3.280   7.794  1.0316 -0.5694  0.1085
 2599SOL    HW219260   1.643   3.273   7.837  0.3658  0.7982 -0.6984
 2600SOL     OW19261   0.180   1.908   5.258  0.1414  0.6772  0.6374
 2600SOL    HW119262   0.154   1.827   5.303  2.2172 -0.4989 -0.2355
 2600SOL    HW219263   0.098   1.922   5.211  0.2976 -1.2827 -0.2139
 2601SOL     OW19264   1.990   3.054  17.251 -0.0763  0.3146  0.4835
 2601SOL    HW119265   1.921   3.026  17.191  0.2926 -1.1447  0.7209
 2601SOL    HW219266   2.042   2.974  17.238 -2.0446 -0.9507  0.3875
 2602SOL     OW19267   4.435   4.162   8.781  0.0418  0.3157  0.1842
 2602SOL    HW119268   4.411   4.255   8.775  1.5184  0.8021  2.1291
 2602SOL    HW219269   4.375   4.122   8.844  1.0939 -0.3115  0.7836
 2603SOL     OW19270   1.785   2.906   1.862 -0.0558 -0.3362 -0.1998
 2603SOL    HW119271   1.834   2.828   1.836 -0.8821 -1.3179  1.1838
 2603SOL    HW219272   1.849   2.977   1.866 -0.5446  0.0082  1.6943
 2604SOL     OW19273   1.602   2.811   5.755 -0.5652  0.2816  0.3232
 2604SOL    HW119274   1.588   2.716   5.748  1.0779  0.1758 -1.2878
 2604SOL    HW219275   1.693   2.829   5.731 -0.9487 -0.4739 -1.7051
 2605SOL     OW19276   2.681   1.881  16.306  0.0990  0.0291  0.5581
 2605SOL    HW119277   2.607   1.821  16.309 -1.0134  1.3510 -0.4695
 2605SOL    HW219278   2.744   1.855  16.238 -0.2075 -0.3793  0.4309
 2606SOL     OW19279   2.771   2.213   0.824 -0.3111  0.1507 -0.0750
 2606SOL    HW119280   2.732   2.207   0.911 -0.1505 -0.0328 -0.0168
 2606SOL    HW219281   2.745   2.125   0.799 -0.1737  0.2192 -0.4619
 2607SOL     OW19282   2.545   2.991   0.958 -0.2782  0.0267  0.1651
 2607SOL    HW119283   2.507   2.909   0.988 -1.8543  0.6331 -0.1885
 2607SOL    HW219284   2.624   2.997   1.012 -1.4863  1.1578  1.8122
 2608SOL     OW19285   0.354   2.494   0.192 -0.2572 -0.2635 -0.0979
 2608SOL    HW119286   0.364   2.416   0.246 -3.2013 -0.0551  0.7288
 2608SOL    HW219287   0.270   2.532   0.218  0.0740  1.2016 -1.1314
 2609SOL     OW19288   0.859   4.045   4.782 -0.0119 -0.0620  0.1424
 2609SOL    HW119289   0.948   4.011   4.770 -1.1525 -2.0231 -2.7411
 2609SOL    HW219290   0.816   3.964   4.806  0.8789 -0.7013 -0.4073
 2610SOL     OW19291   2.895   3.743  16.709 -0.5499 -0.4671 -0.3268
 2610SOL    HW119292   2.842   3.687  16.766 -1.2744  0.2345 -0.3043
 2610SOL    HW219293   2.959   3.783  16.768 -2.5343 -0.6324  1.9388
 2611SOL     OW19294   2.386   0.256  10.733  0.4122 -0.3216 -0.5862
 2611SOL    HW119295   2.423   0.180  10.687  0.2493 -0.3982 -0.5895
 2611SOL    HW219296   2.293   0.234  10.743  0.1753 -0.0635 -2.1214
 2612SOL     OW19297   4.259   2.250  10.664 -0.7588  0.8183 -0.3298
 2612SOL    HW119298   4.256   2.344  10.681 -3.0025  1.1650 -2.7039
 2612SOL    HW219299   4.279   2.214  10.750  1.0968  0.2534 -0.9741
 2613SOL     OW19300   0.815   2.594  17.543  0.2556  0.2824 -0.2892
 2613SOL    HW119301   0.752   2.647  17.493  0.2948  0.8190  0.2219
 2613SOL    HW219302   0.777   2.510  17.518 -2.4184  0.9010  1.6507
 2614SOL     OW19303   1.992   1.264   1.515 -0.2761  0.1552  0.1712
 2614SOL    HW119304   2.068   1.208   1.499  0.5257  2.0542 -2.7926
 2614SOL    HW219305   2.005   1.308   1.599  1.1887  0.2386 -0.0995
 2615SOL     OW19306   4.052   2.195   6.979 -0.4046  0.0190 -0.4509
 2615SOL    HW119307   4.002   2.119   7.009 -2.0436  1.3285  0.1051
 2615SOL    HW219308   3.995   2.272   6.982 -2.3066 -1.4887  1.3178
 2616SOL     OW19309   3.361   1.706  11.609 -0.2738  0.2348  0.1425
 2616SOL    HW119310   3.416   1.766  11.558 -1.2424  1.7775  0.9371
 2616SOL    HW219311   3.411   1.718  11.690  0.2609  0.4059 -0.2103
 2617SOL     OW19312   1.985   0.703   2.470 -0.0362 -0.3033 -0.4799
 2617SOL    HW119313   1.947   0.787   2.497 -0.7894 -0.1728 -1.9851
 2617SOL    HW219314   1.980   0.655   2.553 -1.8555  0.4235 -0.1729
 2618SOL     OW19315   2.506   4.194   7.968  0.6214  0.2495  0.5273
 2618SOL    HW119316   2.446   4.121   7.984 -0.0394  1.1632  2.2343
 2618SOL    HW219317   2.564   4.168   7.896  1.2747 -0.5067  1.3292
 2619SOL     OW19318   1.826   3.855   0.907 -0.4650  0.0116 -0.2235
 2619SOL    HW119319   1.769   3.844   0.831  1.2711  1.3949 -1.7098
 2619SOL    HW219320   1.801   3.773   0.951 -0.5410  1.0380  1.6817
 2620SOL     OW19321   1.901   3.183   8.780 -0.4733 -0.3931 -0.4127
 2620SOL    HW119322   1.868   3.225   8.700 -0.5345 -0.1830 -0.2758
 2620SOL    HW219323   1.977   3.134   8.747 -1.1034 -0.2961 -1.9897
 2621SOL     OW19324   3.267   1.953   1.638  0.5134 -0.6292  0.0970
 2621SOL    HW119325   3.195   1.905   1.597  1.4130 -1.0621 -0.9856
 2621SOL    HW219326   3.337   1.934   1.576  1.4615  2.4134  0.2578
 2622SOL     OW19327   3.410   3.973  17.011 -0.1435 -0.4030 -0.2252
 2622SOL    HW119328   3.498   4.000  16.984  0.4665  0.6496  2.7990
 2622SOL    HW219329   3.357   4.050  16.992  0.7734  0.2564 -0.1370
 2623SOL     OW19330   3.119   4.092   9.652 -0.1347 -0.3962 -0.8666
 2623SOL    HW119331   3.089   4.073   9.563  0.3720 -0.0340 -1.1119
 2623SOL    HW219332   3.124   4.188   9.654  2.0540 -0.5136 -1.7317
 2624SOL     OW19333   0.981   0.088   0.668 -0.3116  0.0185  0.0167
 2624SOL    HW119334   1.056   0.040   0.702  1.3853 -0.0316 -3.8180
 2624SOL    HW219335   0.971   0.138   0.749 -1.2740 -0.4274  0.1695
 2625SOL     OW19336   3.997   0.333   2.779 -0.5603 -0.2664 -0.0163
 2625SOL    HW119337   4.041   0.417   2.766 -2.0066  0.6656  1.1017
 2625SOL    HW219338   4.072   0.273   2.780 -0.2697  0.1477  2.8480
 2626SOL     OW19339   2.677   0.701   4.123  0.3543 -0.5427  0.2046
 2626SOL    HW119340   2.671   0.646   4.044 -0.2930 -2.4976  1.6069
 2626SOL    HW219341   2.767   0.688   4.153  0.7054 -2.8131 -1.7794
 2627SOL     OW19342   2.210   4.283   9.612  0.0460 -0.3606 -0.2111
 2627SOL    HW119343   2.273   4.212   9.600  0.5370  0.3885 -2.0632
 2627SOL    HW219344   2.155   4.261   9.688  0.2412 -4.1292 -1.1458
 2628SOL     OW19345   2.557   3.191   8.745  0.4658 -0.1811 -0.2623
 2628SOL    HW119346   2.494   3.121   8.764  1.1909 -0.6987  0.2856
 2628SOL    HW219347   2.501   3.268   8.737  0.4959 -0.4092 -2.5387
 2629SOL     OW19348   3.673   2.230  10.130 -0.3626 -0.1771 -0.5072
 2629SOL    HW119349   3.684   2.314  10.085 -1.6235 -0.3272 -1.0904
 2629SOL    HW219350   3.704   2.162  10.071  0.2656 -0.0345 -0.3379
 2630SOL     OW19351   0.410   3.380  16.976  0.4871 -0.7339  0.0475
 2630SOL    HW119352   0.383   3.342  17.060  2.6819 -1.7497  0.2817
 2630SOL    HW219353   0.364   3.323  16.914  0.3765 -0.0167 -0.5216
 2631SOL     OW19354   2.061   1.220   5.412  0.3231 -0.2368  0.0776
 2631SOL    HW119355   2.067   1.241   5.319 -0.4887  4.1419  0.9858
 2631SOL    HW219356   2.052   1.125   5.415  0.0731 -0.2822 -2.9334
 2632SOL     OW19357   0.936   0.009   2.847  0.5718  0.9253  0.3523
 2632SOL    HW119358   0.863   0.054   2.805 -1.0015 -2.0397 -0.0512
 2632SOL    HW219359   0.898   4.713   2.932 -2.1907 -3.7853 -2.1533
 2633SOL     OW19360   2.596   0.343   8.917 -0.2019  0.3709 -0.0177
 2633SOL    HW119361   2.635   0.385   8.841 -1.3388  0.9105 -0.2981
 2633SOL    HW219362   2.654   0.379   8.984  0.6795 -0.6180 -0.2427
 2634SOL     OW19363   2.113   0.435   1.746  0.0243  0.3277  0.4369
 2634SOL    HW119364   2.203   0.463   1.728  0.4969 -2.1979 -1.1542
 2634SOL    HW219365   2.081   0.495   1.813 -1.1792 -1.0410  1.1033
 2635SOL     OW19366   0.584   3.920  14.013 -0.5066  0.0403  0.0579
 2635SOL    HW119367   0.509   3.951  14.062  0.1667  1.2699  0.3134
 2635SOL    HW219368   0.650   3.989  14.029  1.2505 -1.2891 -1.3898
 2636SOL     OW19369   3.790   0.263   9.589 -0.2060 -0.3261  0.3443
 2636SOL    HW119370   3.730   0.213   9.533  0.5560 -0.5262 -0.3106
 2636SOL    HW219371   3.793   0.212   9.669  1.4441 -1.1974 -0.2617
 2637SOL     OW19372   3.013   3.164   2.870 -0.1928 -0.1506 -0.1186
 2637SOL    HW119373   2.947   3.166   2.801  1.7016  1.4736 -1.8314
 2637SOL    HW219374   2.992   3.249   2.909  0.1280 -1.0284  2.0271
 2638SOL     OW19375   3.828   3.872   1.500 -0.4832 -0.1364  0.5565
 2638SOL    HW119376   3.813   3.820   1.580 -0.1252 -0.2193  0.5686
 2638SOL    HW219377   3.922   3.888   1.503 -0.6338  0.6396  0.9554
 2639SOL     OW19378   3.486   0.115   3.926 -0.3821  0.4593 -0.1435
 2639SOL    HW119379   3.560   0.170   3.902  0.1438  0.9783  2.6553
 2639SOL    HW219380   3.421   0.185   3.934 -0.6199  0.1096  1.0292
 2640SOL     OW19381   4.035   0.162   8.845 -0.1994  0.0452 -0.4174
 2640SOL    HW119382   3.961   0.208   8.886  0.9712 -1.3997  3.2914
 2640SOL    HW219383   4.007   0.176   8.755 -1.9334  1.7594  0.3839
 2641SOL     OW19384   4.253   0.394   5.872 -0.0443 -0.5864 -0.1705
 2641SOL    HW119385   4.329   0.389   5.930  1.5436  0.8570 -2.1205
 2641SOL    HW219386   4.220   0.304   5.863 -1.0580 -0.2069 -0.1815
 2642SOL     OW19387   2.688   2.204   7.734 -0.1550  0.0167  0.0819
 2642SOL    HW119388   2.607   2.256   7.729 -0.6497 -0.7923 -0.2645
 2642SOL    HW219389   2.757   2.271   7.730 -0.2356  0.1945  2.0865
 2643SOL     OW19390   0.558   0.222  15.902 -0.2582  0.4868  0.0853
 2643SOL    HW119391   0.521   0.156  15.844 -0.2349  1.6484 -1.2606
 2643SOL    HW219392   0.626   0.253  15.842  0.1798  3.3022  1.9910
 2644SOL     OW19393   2.949   1.133   9.874 -0.3187  0.4163  0.2900
 2644SOL    HW119394   2.898   1.215   9.876  0.0152  0.6296  0.0641
 2644SOL    HW219395   3.039   1.161   9.890 -1.1178  2.9626  0.4082
 2645SOL     OW19396   1.534   3.083  17.274 -0.0387 -0.4017  0.0333
 2645SOL    HW119397   1.566   3.173  17.266  1.1643 -0.8495 -0.2159
 2645SOL    HW219398   1.476   3.090  17.349 -0.3583 -0.4521 -0.2088
 2646SOL     OW19399   3.766   2.608   7.575 -0.2736  0.2249 -0.5258
 2646SOL    HW119400   3.824   2.623   7.650 -2.9072  0.4616  1.4548
 2646SOL    HW219401   3.715   2.532   7.602  1.9097 -1.2548 -0.5576
 2647SOL     OW19402   1.079   1.006   7.210 -0.0165  0.0346 -0.1412
 2647SOL    HW119403   1.005   1.041   7.260  1.1669  0.5197  1.2488
 2647SOL    HW219404   1.114   0.929   7.256  0.3376  0.4146  0.2171
 2648SOL     OW19405   2.306   1.939   3.255  0.0778  0.0049  0.7891
 2648SOL    HW119406   2.285   1.946   3.348 -2.7495  0.1877  0.1339
 2648SOL    HW219407   2.397   1.908   3.247  0.0854  0.2451 -0.0937
 2649SOL     OW19408   2.387   3.121   4.327  0.4675  0.1829 -0.4099
 2649SOL    HW119409   2.469   3.159   4.357  0.4255  0.8776 -1.1771
 2649SOL    HW219410   2.394   3.029   4.352  0.5884  0.2491 -0.2048
 2650SOL     OW19411   2.102   2.965   5.270  0.2719  0.3992 -0.8389
 2650SOL    HW119412   2.141   2.877   5.273 -1.2117 -0.3304 -2.7612
 2650SOL    HW219413   2.175   3.020   5.299  0.8889 -1.1143  0.5397
 2651SOL     OW19414   0.013   1.355   7.978  0.0028  0.0974 -1.0655
 2651SOL    HW119415   0.089   1.410   7.963  0.5653  0.2199  2.2199
 2651SOL    HW219416   0.033   1.321   8.065 -2.3011  0.7684 -0.2753
 2652SOL     OW19417   1.260   2.289   0.362 -0.0243 -0.4643 -0.1658
 2652SOL    HW119418   1.184   2.339   0.392 -0.5296 -0.4852 -1.4107
 2652SOL    HW219419   1.271   2.227   0.434  0.7592  0.4050  0.4530
 2653SOL     OW19420   3.893   1.703   9.783  0.3919 -0.1726 -0.3521
 2653SOL    HW119421   3.967   1.647   9.806 -0.2921 -1.5044 -1.3830
 2653SOL    HW219422   3.822   1.640   9.795 -0.6798  0.7846 -1.6936
 2654SOL     OW19423   4.425   0.463   7.633 -0.0218 -0.0053 -0.1054
 2654SOL    HW119424   4.344   0.413   7.620  0.7497 -0.8388 -1.7015
 2654SOL    HW219425   4.489   0.393   7.645  1.2373  1.0406 -0.6872
 2655SOL     OW19426   3.230   0.793  12.239 -0.3382  0.1378 -0.7615
 2655SOL    HW119427   3.194   0.842  12.313 -0.5666 -1.1677 -0.0162
 2655SOL    HW219428   3.147   0.785  12.191 -0.3894 -0.0367 -0.6431
 2656SOL     OW19429   4.575   1.191   3.745  0.4187  0.3409 -0.5193
 2656SOL    HW119430   4.551   1.153   3.660  0.3130  1.0929 -0.8285
 2656SOL    HW219431   4.606   1.113   3.791 -0.6124 -0.5659 -1.3591
 2657SOL     OW19432   3.971   3.434   5.304 -0.4379 -0.1338 -0.0878
 2657SOL    HW119433   4.039   3.389   5.254  1.3609  2.9867 -0.4601
 2657SOL    HW219434   3.936   3.481   5.228 -3.6471  0.8028  1.9837
 2658SOL     OW19435   2.403   3.006  17.132 -0.0959 -0.3775  0.2079
 2658SOL    HW119436   2.318   3.048  17.116  0.2867  1.1482  2.0561
 2658SOL    HW219437   2.457   3.075  17.170  1.0657 -2.9310  3.1770
 2659SOL     OW19438   3.391   4.150   6.051  0.4664  0.0173 -0.4062
 2659SOL    HW119439   3.379   4.089   5.978 -3.1590  0.4396 -0.1723
 2659SOL    HW219440   3.473   4.196   6.035  0.7179 -0.1220  0.4644
 2660SOL     OW19441   1.944   2.537  10.601 -0.2734  0.4697 -0.2476
 2660SOL    HW119442   2.011   2.481  10.561 -1.9551 -0.5585 -1.6541
 2660SOL    HW219443   1.974   2.628  10.595 -0.1569  0.5825  2.3571
 2661SOL     OW19444   3.620   3.311   7.050  0.2399  0.1019 -0.3452
 2661SOL    HW119445   3.602   3.218   7.063  2.5950 -0.4894 -1.2681
 2661SOL    HW219446   3.545   3.350   7.095 -0.1379 -1.0081  0.0062
 2662SOL     OW19447   1.403   2.252   3.182  0.2989 -0.0191  0.1044
 2662SOL    HW119448   1.459   2.314   3.229  0.5567  0.3778 -0.7370
 2662SOL    HW219449   1.449   2.227   3.102 -1.4416 -0.4627 -0.7481
 2663SOL     OW19450   0.327   2.460   2.352 -0.0894  0.0545 -0.3243
 2663SOL    HW119451   0.334   2.365   2.362 -2.1165  0.1422  2.1242
 2663SOL    HW219452   0.240   2.482   2.388 -0.3752  1.4071 -1.8640
 2664SOL     OW19453   2.314   1.749   1.635 -0.2795  0.5352  0.0153
 2664SOL    HW119454   2.408   1.739   1.619 -0.3526  1.7930 -1.2651
 2664SOL    HW219455   2.311   1.712   1.723  2.1968  2.2254  0.8240
 2665SOL     OW19456   4.196   4.569  10.120  0.3333 -0.0242 -0.1640
 2665SOL    HW119457   4.213   4.657  10.155 -0.1550  0.0492 -0.1142
 2665SOL    HW219458   4.107   4.582  10.088  1.0370  2.0027 -1.3141
 2666SOL     OW19459   3.816   1.271  14.480 -0.2399  0.2132 -0.2810
 2666SOL    HW119460   3.749   1.301  14.542 -0.3475 -1.1373  0.2606
 2666SOL    HW219461   3.898   1.298  14.522  0.7375 -0.4110 -1.8199
 2667SOL     OW19462   3.343   1.766   8.461 -0.2022 -0.4311  0.3327
 2667SOL    HW119463   3.324   1.842   8.517 -0.5840 -0.6464  0.4973
 2667SOL    HW219464   3.437   1.755   8.477  0.0281  0.5777 -0.3501
 2668SOL     OW19465   4.114   2.226   3.861  0.5982 -0.3255  0.0050
 2668SOL    HW119466   4.204   2.249   3.839  0.6252  1.9166  2.5628
 2668SOL    HW219467   4.063   2.244   3.782 -0.4702 -1.6397  0.3857
 2669SOL     OW19468   2.446   1.104   9.067  0.4349  0.0304 -0.7519
 2669SOL    HW119469   2.371   1.157   9.038 -1.9844 -2.4723  0.8372
 2669SOL    HW219470   2.429   1.102   9.161 -0.6863 -1.4572 -0.9706
 2670SOL     OW19471   3.409   3.914   7.502 -0.1532 -0.1131  0.3370
 2670SOL    HW119472   3.380   3.991   7.453 -1.8693 -0.3972  0.9031
 2670SOL    HW219473   3.408   3.855   7.426 -0.7357  0.6635 -0.2523
 2671SOL     OW19474   0.387   0.024   4.063  0.2012 -0.1258 -0.5814
 2671SOL    HW119475   0.325   0.004   3.993  0.0595  0.5867 -0.6656
 2671SOL    HW219476   0.359   4.682   4.123  3.2474 -1.0308 -0.1550
 2672SOL     OW19477   3.247   0.183   8.349  0.2160 -0.0212 -0.6347
 2672SOL    HW119478   3.255   0.087   8.353  0.0067  0.0191  0.6089
 2672SOL    HW219479   3.225   0.190   8.256 -1.1135  0.4909 -0.2902
 2673SOL     OW19480   4.384   1.220   3.032 -0.1120 -0.1553 -0.2131
 2673SOL    HW119481   4.472   1.210   2.997  1.1418  2.9047  2.0966
 2673SOL    HW219482   4.390   1.193   3.123 -0.9225  0.9374  0.1640
 2674SOL     OW19483   3.426   4.724   7.674  0.2105  0.1998  0.3606
 2674SOL    HW119484   3.408   0.085   7.708 -2.6298 -0.2106 -0.1078
 2674SOL    HW219485   3.507   4.705   7.721  1.6103  1.1798 -1.6871
 2675SOL     OW19486   3.967   0.223   8.335  0.1959  0.8149 -0.1188
 2675SOL    HW119487   3.930   0.150   8.285  0.3685  1.1504 -0.7335
 2675SOL    HW219488   4.054   0.191   8.359  0.3974  3.0716  2.1378
 2676SOL     OW19489   0.888   3.386   8.181 -0.1644 -0.1200 -0.4223
 2676SOL    HW119490   0.981   3.370   8.196 -0.8683 -1.2263  2.7161
 2676SOL    HW219491   0.883   3.377   8.085  0.7200 -0.3387 -0.4407
 2677SOL     OW19492   4.523   0.675   3.921  0.3717 -0.1781 -0.2135
 2677SOL    HW119493   4.428   0.677   3.930  0.1602 -1.4188 -2.0441
 2677SOL    HW219494   4.553   0.741   3.984 -1.7723  0.6039 -0.0360
 2678SOL     OW19495   0.905   3.100   9.389 -0.2067 -0.4360 -0.1118
 2678SOL    HW119496   0.944   3.078   9.305  2.1435  0.6718  0.6755
 2678SOL    HW219497   0.811   3.101   9.373 -0.4371  0.2096  1.2362
 2679SOL     OW19498   3.095   0.000   0.613  0.2146 -0.0135 -0.3307
 2679SOL    HW119499   3.148   0.033   0.686  0.2033 -0.6760 -0.0270
 2679SOL    HW219500   3.156   4.670   0.567  0.1344 -0.3983  0.0346
 2680SOL     OW19501   2.567   2.551   1.056 -0.2052  0.1859 -0.0485
 2680SOL    HW119502   2.517   2.628   1.082 -0.0896  0.2283  0.0517
 2680SOL    HW219503   2.490   2.499   1.032  0.1514 -0.6058  0.5102
 2681SOL     OW19504   1.293   0.440   7.455 -0.2269 -0.0171 -0.0473
 2681SOL    HW119505   1.310   0.389   7.534 -0.9818  2.2672  1.5986
 2681SOL    HW219506   1.319   0.382   7.384  1.4651 -0.1777  0.7158
 2682SOL     OW19507   2.946   3.695  11.431 -0.8233  0.0101 -0.2696
 2682SOL    HW119508   2.882   3.689  11.501 -0.2844 -2.2475  0.0543
 2682SOL    HW219509   3.010   3.728  11.494  1.3215 -1.3909 -1.6790
 2683SOL     OW19510   1.499   4.299   8.104 -0.2509  0.2334  0.2548
 2683SOL    HW119511   1.536   4.365   8.164 -1.2824  1.6709 -0.6940
 2683SOL    HW219512   1.572   4.285   8.043 -0.9597 -0.1461 -0.4898
 2684SOL     OW19513   1.089   3.753  13.326 -0.0761  0.3653  0.2906
 2684SOL    HW119514   1.023   3.777  13.262 -0.4598  0.1317  0.5985
 2684SOL    HW219515   1.169   3.772  13.277 -0.6931  1.9439 -0.0868
 2685SOL     OW19516   3.161   1.139  17.619  0.0457 -0.4919 -0.3101
 2685SOL    HW119517   3.152   1.047  17.645 -0.8158 -0.0251  0.9987
 2685SOL    HW219518   3.084   1.150  17.564 -0.6028  0.2862  0.7547
 2686SOL     OW19519   3.449   1.335  11.804  0.1009  0.5700 -0.6421
 2686SOL    HW119520   3.520   1.384  11.761  0.4121 -0.1807 -0.9792
 2686SOL    HW219521   3.431   1.275  11.731 -0.4295 -0.1719  0.1051
 2687SOL     OW19522   0.875   0.370   2.573  0.9004 -0.0043  0.3648
 2687SOL    HW119523   0.866   0.428   2.498 -1.0174  2.1620  2.2572
 2687SOL    HW219524   0.965   0.342   2.555  1.2978  2.3933 -1.3061
 2688SOL     OW19525   1.230   4.414   0.869  0.0591 -0.1902  0.0557
 2688SOL    HW119526   1.152   4.454   0.909  0.9394  2.1626 -0.5716
 2688SOL    HW219527   1.272   4.394   0.953  1.2754  0.9818 -0.2814
 2689SOL     OW19528   2.441   3.249   4.802 -0.4014  0.3129  0.1449
 2689SOL    HW119529   2.411   3.268   4.713  0.5124  3.8409  0.5792
 2689SOL    HW219530   2.528   3.289   4.797 -0.0774 -0.2179  1.8013
 2690SOL     OW19531   3.430   1.546   2.768 -0.0341  0.3304 -0.4856
 2690SOL    HW119532   3.443   1.635   2.799 -0.6927  0.4527 -0.5638
 2690SOL    HW219533   3.513   1.504   2.789 -1.7048 -3.1050 -0.6423
 2691SOL     OW19534   1.522   2.141   2.935  0.1714 -0.5725  0.4579
 2691SOL    HW119535   1.533   2.051   2.906  1.5064  0.2914 -1.6672
 2691SOL    HW219536   1.537   2.194   2.857  0.9535  1.5765  2.0602
 2692SOL     OW19537   1.235   2.236   2.857  0.3889 -0.5465 -0.3253
 2692SOL    HW119538   1.323   2.201   2.869  0.4317 -0.2249  0.3047
 2692SOL    HW219539   1.204   2.202   2.774 -0.3730 -1.6970  0.4331
 2693SOL     OW19540   1.996   0.690   4.604 -0.2230 -0.1903  0.0140
 2693SOL    HW119541   2.007   0.666   4.512  1.3537 -2.7759  0.8623
 2693SOL    HW219542   1.942   0.769   4.600 -1.1475 -0.7593  1.3371
 2694SOL     OW19543   1.161   2.395   0.118 -0.4492  0.1644  0.8143
 2694SOL    HW119544   1.201   2.354   0.194  0.5034  1.0482  0.7957
 2694SOL    HW219545   1.191   2.484   0.135  0.2261  0.1451 -0.2674
 2695SOL     OW19546   1.108   1.690  13.393 -0.1179  0.2457  0.3018
 2695SOL    HW119547   1.028   1.669  13.346 -0.9426 -1.5425  2.4841
 2695SOL    HW219548   1.106   1.786  13.392  0.0306  0.2409 -0.2201
 2696SOL     OW19549   2.142   0.090  10.771  1.3000  0.0945 -0.3723
 2696SOL    HW119550   2.155   0.001  10.740 -0.5432 -0.2748 -0.0614
 2696SOL    HW219551   2.047   0.103  10.762  1.1359 -0.4625  0.5160
 2697SOL     OW19552   1.618   3.195  10.709 -0.3361 -0.0356 -0.5508
 2697SOL    HW119553   1.652   3.210  10.797 -2.1192 -0.0987  0.1511
 2697SOL    HW219554   1.621   3.283  10.672  2.6651 -0.4885 -1.4362
 2698SOL     OW19555   1.190   3.869  11.666 -0.7531  0.4541  0.5815
 2698SOL    HW119556   1.267   3.829  11.707 -0.5743  0.6381  0.4264
 2698SOL    HW219557   1.118   3.820  11.706 -0.8617  1.3293  1.4624
 2699SOL     OW19558   2.603   4.124  10.816  0.3026 -0.7195 -0.2566
 2699SOL    HW119559   2.660   4.047  10.812  0.5618 -0.6291  1.4155
 2699SOL    HW219560   2.604   4.150  10.724 -1.5119  2.7835  0.7232
 2700SOL     OW19561   4.131   1.983   6.157 -0.0964  0.1664  0.0806
 2700SOL    HW119562   4.091   2.068   6.172  0.2961  0.2673  0.5398
 2700SOL    HW219563   4.224   2.005   6.163 -0.2565 -0.0551  3.2586
 2701SOL     OW19564   4.551   1.668   4.442 -0.6169 -0.5107 -0.0416
 2701SOL    HW119565   4.555   1.597   4.506 -1.4160 -0.6691 -0.1595
 2701SOL    HW219566   4.480   1.635   4.386  0.6425  1.1589 -2.5983
 2702SOL     OW19567   4.283   0.583   6.210  0.7072  0.3791  0.1585
 2702SOL    HW119568   4.307   0.504   6.259  0.9336 -1.5859 -3.1345
 2702SOL    HW219569   4.334   0.569   6.130  1.1799  0.9427  0.3661
 2703SOL     OW19570   0.365   2.444   3.326  0.6748  0.1266  0.4117
 2703SOL    HW119571   0.358   2.455   3.232  2.9729  0.9159  0.3351
 2703SOL    HW219572   0.451   2.402   3.331  0.2903 -0.8820 -1.5899
 2704SOL     OW19573   2.996   4.205  16.340 -0.1958  0.6666  0.1237
 2704SOL    HW119574   3.087   4.201  16.371 -0.8763  0.6690  2.1707
 2704SOL    HW219575   2.956   4.168  16.419  0.0978  3.3915  1.5504
 2705SOL     OW19576   3.643   0.040   5.275  0.5168  0.4476  0.2230
 2705SOL    HW119577   3.570   4.707   5.291 -0.5615  1.5475 -0.5704
 2705SOL    HW219578   3.682   0.061   5.360 -0.0511 -0.8169  0.7940
 2706SOL     OW19579   4.245   0.924  16.499  0.1293 -0.0691 -0.1278
 2706SOL    HW119580   4.243   0.969  16.583  2.2650 -1.6932  0.8191
 2706SOL    HW219581   4.295   0.991  16.453  1.6997 -0.2172  1.3187
 2707SOL     OW19582   4.011   3.636   0.054 -0.2127  0.6196  0.3810
 2707SOL    HW119583   3.979   3.709   0.000 -1.7199  0.4828  1.1003
 2707SOL    HW219584   4.055   3.681   0.126 -0.8743 -0.0021  1.1810
 2708SOL     OW19585   2.220   4.367   7.008  0.1288  0.1390 -0.3360
 2708SOL    HW119586   2.235   4.455   7.044  0.9598  0.3777 -1.2871
 2708SOL    HW219587   2.199   4.394   6.919  0.3926 -1.7068 -0.9399
 2709SOL     OW19588   3.018   2.122   1.958  0.0302 -0.3728 -0.0828
 2709SOL    HW119589   2.996   2.048   1.901 -0.5772 -0.4746  0.2832
 2709SOL    HW219590   2.954   2.174   1.911  0.2052  0.5121  0.6540
 2710SOL     OW19591   2.604   4.446   7.530 -0.2618  0.3699  0.4928
 2710SOL    HW119592   2.637   4.486   7.611  1.3202 -1.5853  0.7957
 2710SOL    HW219593   2.569   4.522   7.483  1.8741  1.3015  0.3771
 2711SOL     OW19594   4.012   1.268  17.113  0.1046 -0.7617 -0.0908
 2711SOL    HW119595   4.012   1.189  17.059  1.8518 -1.2180  0.5950
 2711SOL    HW219596   3.922   1.295  17.093 -0.0899  0.1748  2.0553
 2712SOL     OW19597   1.111   0.010   4.752 -0.0822 -0.5455  0.3651
 2712SOL    HW119598   1.167   0.082   4.725 -0.5900 -0.9131 -1.6670
 2712SOL    HW219599   1.054   0.000   4.675 -1.8816 -0.8258  1.7342
 2713SOL     OW19600   3.903   0.978   2.888 -0.3875 -0.1016  0.2004
 2713SOL    HW119601   3.922   1.003   2.797 -0.4434 -0.5985  0.0493
 2713SOL    HW219602   3.900   0.884   2.869 -2.2203  0.0176 -0.1207
 2714SOL     OW19603   4.120   1.960  15.463 -1.0097  0.0252 -0.5288
 2714SOL    HW119604   4.082   1.906  15.394 -0.4161 -0.0494 -0.7948
 2714SOL    HW219605   4.183   1.895  15.493 -3.1510 -1.8736 -0.1340
 2715SOL     OW19606   2.858   3.625  15.353 -0.4497  0.3098 -0.2193
 2715SOL    HW119607   2.908   3.593  15.278  0.2736 -0.2205  0.4857
 2715SOL    HW219608   2.929   3.670  15.399  1.1209 -0.4334 -1.9089
 2716SOL     OW19609   4.349   4.054  14.895  0.4552  0.2084  0.4887
 2716SOL    HW119610   4.306   3.973  14.920  1.8603 -1.7942 -3.7011
 2716SOL    HW219611   4.440   4.028  14.907  0.1402 -0.3687  1.6130
 2717SOL     OW19612   1.167   0.145   7.399  0.4817 -0.6628 -0.0267
 2717SOL    HW119613   1.078   0.121   7.423  0.7533 -1.6058  0.0088
 2717SOL    HW219614   1.147   0.231   7.363 -2.0705 -1.1142  0.3685
 2718SOL     OW19615   0.846   1.218   4.998 -0.3885 -0.5714 -0.6346
 2718SOL    HW119616   0.841   1.193   4.906  1.0391  0.5620 -1.0208
 2718SOL    HW219617   0.752   1.213   5.019  0.5684  1.4854  4.0340
 2719SOL     OW19618   3.451   3.362   2.396 -0.1556  0.1208  1.2481
 2719SOL    HW119619   3.478   3.367   2.304 -2.6657 -1.1185  0.4285
 2719SOL    HW219620   3.357   3.348   2.379  0.3298 -2.1093  0.3384
 2720SOL     OW19621   2.218   3.854  14.287 -0.1637  0.4120 -0.3789
 2720SOL    HW119622   2.144   3.806  14.324  1.3136  0.3721  2.4897
 2720SOL    HW219623   2.199   3.945  14.310 -3.4402  0.4434 -3.2687
 2721SOL     OW19624   0.326   4.213   8.819  0.1422 -0.4608 -0.1572
 2721SOL    HW119625   0.313   4.262   8.738  0.8477  0.0118  0.0104
 2721SOL    HW219626   0.328   4.128   8.776 -1.2080 -0.2618 -0.6095
 2722SOL     OW19627   4.168   0.420   6.942  0.6013 -0.0608 -0.1000
 2722SOL    HW119628   4.091   0.431   6.887  0.8358  3.4095  0.2468
 2722SOL    HW219629   4.203   0.508   6.929  0.1388  0.0720 -0.4380
 2723SOL     OW19630   4.708   2.525   3.437  0.0138  0.1861 -0.2215
 2723SOL    HW119631   4.650   2.449   3.440 -1.1415  1.0277 -1.1636
 2723SOL    HW219632   4.699   2.555   3.346 -0.9538 -1.6412 -0.7343
 2724SOL     OW19633   2.951   1.747   5.541  0.1687 -0.2887 -0.2216
 2724SOL    HW119634   2.933   1.781   5.453  2.0288  1.7139  0.2033
 2724SOL    HW219635   2.881   1.681   5.540 -0.9300  0.8828  0.1449
 2725SOL     OW19636   1.086   0.964   8.091 -0.2352 -0.2824 -0.5182
 2725SOL    HW119637   1.134   1.047   8.086 -0.5079 -0.0020  1.7265
 2725SOL    HW219638   1.083   0.936   7.999 -1.4461  1.3591 -0.9936
 2726SOL     OW19639   3.748   4.622   1.304  0.6971  0.0014 -0.6277
 2726SOL    HW119640   3.679   4.619   1.237  0.1093 -0.1810 -0.0057
 2726SOL    HW219641   3.762   4.717   1.309  0.8971 -0.0182 -0.7783
 2727SOL     OW19642   2.053   1.422   3.246  0.5306 -0.1825  0.3211
 2727SOL    HW119643   2.104   1.496   3.213  0.3928 -0.2452 -0.0353
 2727SOL    HW219644   1.964   1.456   3.238  0.4861 -0.1813  0.7981
 2728SOL     OW19645   3.121   0.821  10.649 -0.7111  0.9020  0.1937
 2728SOL    HW119646   3.185   0.774  10.703 -1.0389 -0.7239 -0.8090
 2728SOL    HW219647   3.037   0.803  10.691 -1.0242 -0.6980 -1.0713
 2729SOL     OW19648   2.172   0.876   1.777  0.0706 -0.1225  0.3941
 2729SOL    HW119649   2.157   0.872   1.871  0.2401 -0.7734  0.3974
 2729SOL    HW219650   2.093   0.845   1.732 -0.4780  0.5887  0.8743
 2730SOL     OW19651   3.322   0.864  16.944  0.2111  0.0362 -0.1439
 2730SOL    HW119652   3.342   0.833  17.033 -0.2818 -0.0040 -0.0461
 2730SOL    HW219653   3.240   0.913  16.953  0.3784  0.9093 -3.4968
 2731SOL     OW19654   0.616   4.598   2.856 -0.4263  0.2935  0.4278
 2731SOL    HW119655   0.627   4.669   2.919 -1.3427  1.1712 -0.4032
 2731SOL    HW219656   0.645   4.643   2.777 -0.6562  0.0995  0.2358
 2732SOL     OW19657   3.884   1.506   2.954  0.2239 -0.1339 -0.9570
 2732SOL    HW119658   3.945   1.433   2.945  0.7646  0.2117 -0.1366
 2732SOL    HW219659   3.818   1.461   3.006 -0.2527 -0.5046 -1.9096
 2733SOL     OW19660   4.426   3.508   3.845  0.1904  0.2127 -0.0745
 2733SOL    HW119661   4.346   3.465   3.814  0.3839 -0.7483  0.7598
 2733SOL    HW219662   4.386   3.586   3.882  1.3412  1.8662 -2.3492
 2734SOL     OW19663   2.998   1.551   9.052 -0.3552  0.1594 -0.1422
 2734SOL    HW119664   2.996   1.642   9.080 -0.2492  0.5946 -1.5895
 2734SOL    HW219665   2.940   1.517   9.121  0.8240 -0.0234  0.7506
 2735SOL     OW19666   3.945   4.192  16.490 -0.4359 -0.4539  0.1110
 2735SOL    HW119667   3.989   4.245  16.556  1.2559 -0.5920 -0.9287
 2735SOL    HW219668   3.860   4.218  16.527  0.1660  0.9331  0.5458
 2736SOL     OW19669   2.783   1.045   8.697  0.0989 -0.5892  0.0559
 2736SOL    HW119670   2.776   1.139   8.717  0.4690 -0.1622 -1.8428
 2736SOL    HW219671   2.693   1.019   8.683  0.3891 -2.7584  2.2517
 2737SOL     OW19672   3.302   1.911   1.885  0.4432  0.2929  0.2186
 2737SOL    HW119673   3.272   1.928   1.795  1.1513  1.0505  0.1255
 2737SOL    HW219674   3.366   1.981   1.896  3.6261 -2.6061  0.1404
 2738SOL     OW19675   1.762   2.633  12.171  0.1424 -0.1041 -0.5006
 2738SOL    HW119676   1.838   2.674  12.213  1.0062 -0.9735 -1.2088
 2738SOL    HW219677   1.694   2.671  12.227  0.2009  0.0208 -0.5129
 2739SOL     OW19678   0.213   0.394  11.227  0.5663  0.7072  0.0858
 2739SOL    HW119679   0.214   0.391  11.131  2.4672 -0.2981  0.1490
 2739SOL    HW219680   0.293   0.345  11.247  0.4620  0.2637 -0.6051
 2740SOL     OW19681   1.621   0.916   4.663  0.4123 -0.2082  0.1447
 2740SOL    HW119682   1.598   0.845   4.603 -1.7852  1.2207 -0.6917
 2740SOL    HW219683   1.539   0.942   4.705  2.0393  0.8837  2.6859
 2741SOL     OW19684   1.819   3.149   2.914  0.1650 -0.0892 -0.1214
 2741SOL    HW119685   1.767   3.106   2.846 -0.6949  0.7850 -0.0206
 2741SOL    HW219686   1.841   3.069   2.962  0.2809  0.3455  0.5427
 2742SOL     OW19687   1.116   2.793  11.651 -0.0517  0.2571 -0.2281
 2742SOL    HW119688   1.126   2.861  11.585  0.6802 -0.3391 -0.7338
 2742SOL    HW219689   1.127   2.721  11.589  0.3591 -0.7857  1.0425
 2743SOL     OW19690   3.564   3.229   1.504  0.0937  0.6174  0.1516
 2743SOL    HW119691   3.594   3.169   1.572 -0.2698  0.2543 -0.0092
 2743SOL    HW219692   3.562   3.168   1.430 -3.0835 -1.2267  1.7780
 2744SOL     OW19693   3.697   2.201  13.163  0.3666 -0.0483 -0.4602
 2744SOL    HW119694   3.603   2.186  13.171  0.3953  0.0611  0.1418
 2744SOL    HW219695   3.722   2.158  13.245 -0.4888 -0.6871 -0.5345
 2745SOL     OW19696   0.349   4.348   3.578  0.4834  0.4864 -0.1474
 2745SOL    HW119697   0.362   4.293   3.655  1.7373 -1.3319 -1.6436
 2745SOL    HW219698   0.253   4.354   3.585  0.3221 -0.6295 -1.3185
 2746SOL     OW19699   4.373   4.105  14.238 -0.0213 -0.3267 -0.1110
 2746SOL    HW119700   4.291   4.150  14.261  0.4606 -0.5347  2.0111
 2746SOL    HW219701   4.341   4.017  14.223 -0.4920 -0.1240 -0.3017
 2747SOL     OW19702   3.309   1.246   7.231 -0.6252  0.4216 -0.2715
 2747SOL    HW119703   3.319   1.333   7.192  1.7716 -0.9246 -2.5918
 2747SOL    HW219704   3.223   1.230   7.193 -1.6982 -0.4420  2.5039
 2748SOL     OW19705   2.678   0.012   8.987 -0.1506 -0.5738 -0.2783
 2748SOL    HW119706   2.672   4.647   9.015 -0.9322 -0.4197  0.0330
 2748SOL    HW219707   2.589   0.044   8.978  0.4251  0.6523 -1.6953
 2749SOL     OW19708   0.569   1.676   6.955 -0.0507  0.2135 -0.4201
 2749SOL    HW119709   0.540   1.624   6.881 -2.4286 -1.7645  1.8848
 2749SOL    HW219710   0.485   1.689   7.000 -0.1810  1.8254 -1.1081
 2750SOL     OW19711   0.477   4.186   5.323 -0.1926  0.0647 -0.3496
 2750SOL    HW119712   0.463   4.142   5.407  0.8372  2.0535  0.8457
 2750SOL    HW219713   0.401   4.153   5.274 -0.2909 -1.2138  0.6614
 2751SOL     OW19714   2.584   1.341   4.919 -0.1080  0.3875 -0.3159
 2751SOL    HW119715   2.497   1.308   4.898 -0.5653  0.1071  2.0495
 2751SOL    HW219716   2.595   1.394   4.840  0.4351  1.2049  0.3071
 2752SOL     OW19717   0.860   3.403  14.064  0.2939  0.3535  0.2974
 2752SOL    HW119718   0.891   3.430  13.977 -1.5735 -0.5413 -0.6465
 2752SOL    HW219719   0.804   3.479  14.084 -0.6910 -0.2445 -0.2156
 2753SOL     OW19720   1.754   3.568   4.110 -0.8751 -0.2703  0.2510
 2753SOL    HW119721   1.701   3.629   4.161  1.9696  0.0253  2.8546
 2753SOL    HW219722   1.779   3.504   4.177 -2.2900 -2.9646 -1.7843
 2754SOL     OW19723   0.009   4.454  10.663  0.5017 -0.1061  0.8640
 2754SOL    HW119724   4.715   4.415  10.578  1.9675 -0.3508  0.6056
 2754SOL    HW219725   4.724   4.382  10.725  1.0885 -0.9110  0.0380
 2755SOL     OW19726   0.763   2.588   0.926  0.3775 -0.4347  0.3285
 2755SOL    HW119727   0.790   2.516   0.869  1.7764  0.5504 -0.2469
 2755SOL    HW219728   0.828   2.586   0.996  0.1044  2.1172  0.6395
 2756SOL     OW19729   1.628   1.374   0.762  0.3890  0.3117 -0.0902
 2756SOL    HW119730   1.641   1.415   0.676  0.9367  1.3817  0.4946
 2756SOL    HW219731   1.549   1.324   0.742 -0.7074  1.5383  1.2039
 2757SOL     OW19732   2.302   3.100   0.323 -0.6102  0.0530  0.1796
 2757SOL    HW119733   2.371   3.039   0.350 -1.6305 -0.6337  1.2718
 2757SOL    HW219734   2.244   3.049   0.267 -1.6656 -0.0360  1.3424
 2758SOL     OW19735   0.233   3.143   6.807  1.2362  0.1783 -0.5802
 2758SOL    HW119736   0.207   3.198   6.882 -2.9673 -0.8118 -1.3097
 2758SOL    HW219737   0.254   3.063   6.854 -0.8792  0.3977  0.7266
 2759SOL     OW19738   2.310   4.464  15.125 -0.3610 -0.2756 -0.0314
 2759SOL    HW119739   2.299   4.404  15.051  1.9214  0.5980 -1.0810
 2759SOL    HW219740   2.216   4.466  15.141 -0.0227 -0.7719  2.0096
 2760SOL     OW19741   0.578   0.172  16.944  0.5407 -0.2244 -0.5465
 2760SOL    HW119742   0.629   0.213  16.874 -1.9052  0.7486 -1.7408
 2760SOL    HW219743   0.491   0.208  16.929 -0.2816 -1.7102  0.5435
 2761SOL     OW19744   2.750   3.977  14.946 -0.5505 -0.1606 -0.0209
 2761SOL    HW119745   2.767   4.060  14.901  0.5541 -0.3710  0.0297
 2761SOL    HW219746   2.668   3.999  14.990  0.6478 -0.2333  2.2462
 2762SOL     OW19747   1.934   3.176  16.908  0.7096 -0.1912  0.0643
 2762SOL    HW119748   1.999   3.205  16.972  2.5084 -1.1056 -1.3789
 2762SOL    HW219749   1.895   3.096  16.942  0.9130  0.4742  1.8673
 2763SOL     OW19750   0.479   4.714   1.213  0.2949  0.1541 -0.1819
 2763SOL    HW119751   0.389   0.019   1.225  0.6812  1.3316 -0.4175
 2763SOL    HW219752   0.475   4.619   1.227 -0.0422  0.4197  1.4795
 2764SOL     OW19753   2.227   0.231   6.473  0.7436  0.4887 -0.3452
 2764SOL    HW119754   2.282   0.182   6.413  0.2606 -0.1122 -0.2963
 2764SOL    HW219755   2.156   0.260   6.414 -1.2195  1.7437  2.6203
 2765SOL     OW19756   3.826   2.862   7.296  0.4743  0.4424  0.5806
 2765SOL    HW119757   3.765   2.858   7.369  0.3389 -0.8233  0.3917
 2765SOL    HW219758   3.813   2.952   7.265  1.7974  0.0316 -1.1370
 2766SOL     OW19759   4.361   0.504   8.245 -0.3749 -0.0342 -0.0006
 2766SOL    HW119760   4.272   0.495   8.281 -0.2122 -0.9960  0.1515
 2766SOL    HW219761   4.406   0.559   8.310  0.0405 -1.3544  0.8352
 2767SOL     OW19762   3.823   1.094   7.501  0.0160  0.0010 -0.3987
 2767SOL    HW119763   3.911   1.131   7.494 -0.5877  1.0088 -2.6728
 2767SOL    HW219764   3.767   1.172   7.497 -2.0352 -1.5319 -1.4077
 2768SOL     OW19765   0.568   4.176   8.969  0.1621 -0.3180  0.2529
 2768SOL    HW119766   0.504   4.190   8.900  1.1602 -1.3106 -0.8843
 2768SOL    HW219767   0.528   4.228   9.038  1.5538  1.7490 -0.4780
 2769SOL     OW19768   1.390   2.268   5.016  0.6489 -0.2585  0.3571
 2769SOL    HW119769   1.314   2.284   4.960  0.2665 -0.3159  0.8621
 2769SOL    HW219770   1.386   2.173   5.031 -0.2434 -0.1810  0.6219
 2770SOL     OW19771   0.049   1.288   0.355  0.5133 -0.6419 -0.0578
 2770SOL    HW119772   0.027   1.259   0.443 -0.5689  1.5086  0.4034
 2770SOL    HW219773   0.123   1.234   0.329  1.1653  0.6056 -0.8311
 2771SOL     OW19774   0.643   3.072  17.070 -0.2801  0.1038 -0.3393
 2771SOL    HW119775   0.710   3.006  17.086 -0.2567  0.8938  2.7996
 2771SOL    HW219776   0.694   3.128  17.012 -0.3750 -0.0551 -0.5764
 2772SOL     OW19777   4.678   0.949  14.834 -0.3111  0.4320 -0.5996
 2772SOL    HW119778   0.031   0.911  14.798 -0.2705 -0.2082  0.1681
 2772SOL    HW219779   4.714   0.996  14.909  0.7414 -0.3949 -0.5798
 2773SOL     OW19780   4.413   0.597  16.914 -0.7855  0.6695 -0.5273
 2773SOL    HW119781   4.330   0.552  16.899 -0.2083 -0.2204 -1.0456
 2773SOL    HW219782   4.390   0.665  16.851 -2.7137  1.5307  1.1008
 2774SOL     OW19783   1.086   4.707   9.222 -0.3324 -0.3197  0.1753
 2774SOL    HW119784   1.095   0.075   9.212  1.3199 -0.2932  1.9006
 2774SOL    HW219785   0.998   4.705   9.259  0.1945 -1.8948  1.3313
 2775SOL     OW19786   3.566   3.716   9.866  0.6725  0.2916  0.2834
 2775SOL    HW119787   3.621   3.683   9.795 -1.5412  0.7545 -1.6217
 2775SOL    HW219788   3.523   3.635   9.894  0.0744  0.8148  0.8628
 2776SOL     OW19789   4.401   2.190  15.521  0.3677  0.0316  0.1255
 2776SOL    HW119790   4.429   2.110  15.478 -3.7591 -1.4736  0.2217
 2776SOL    HW219791   4.309   2.173  15.540 -0.2200  3.2382  0.1546
 2777SOL     OW19792   4.382   2.481   8.048 -0.5081  0.1955  0.3803
 2777SOL    HW119793   4.433   2.403   8.073  1.3628  1.5556  0.7927
 2777SOL    HW219794   4.416   2.498   7.960  1.4371  3.4770  1.7918
 2778SOL     OW19795   0.005   3.158   2.505 -0.4379 -0.1820  0.4239
 2778SOL    HW119796   4.678   3.236   2.518 -1.1762 -0.5264 -0.5930
 2778SOL    HW219797   4.671   3.086   2.491 -2.1305  1.1291  0.9466
 2779SOL     OW19798   3.591   1.326  14.008  0.2684  0.1206  0.2322
 2779SOL    HW119799   3.582   1.315  13.913 -0.2473 -2.7063  0.6070
 2779SOL    HW219800   3.685   1.347  14.010  0.1828  0.5067  0.1131
 2780SOL     OW19801   4.522   3.930   8.576  0.3893  0.5034  0.0580
 2780SOL    HW119802   4.490   4.018   8.594 -0.2606  0.4332 -0.7744
 2780SOL    HW219803   4.486   3.909   8.490 -0.9000 -1.2256  1.0275
 2781SOL     OW19804   0.292   3.667   1.787 -0.6393  0.0761  0.0937
 2781SOL    HW119805   0.338   3.602   1.840 -1.0151 -0.1776  0.1078
 2781SOL    HW219806   0.364   3.689   1.728  0.6636 -1.2681  1.1585
 2782SOL     OW19807   2.948   3.764  17.460 -0.8161  0.6072 -0.1718
 2782SOL    HW119808   3.000   3.815  17.398  0.2903 -2.5536 -1.8194
 2782SOL    HW219809   2.918   3.839  17.512 -0.6549  1.1628 -0.8812
 2783SOL     OW19810   3.201   2.256   3.292  0.6111  0.6867  0.2188
 2783SOL    HW119811   3.151   2.332   3.264  0.8078  1.1009  0.9781
 2783SOL    HW219812   3.185   2.259   3.387  0.0967  0.0970  0.1537
 2784SOL     OW19813   1.731   3.268   8.363 -0.4397 -0.5361  0.0997
 2784SOL    HW119814   1.797   3.287   8.430  1.1404 -1.0054 -1.3150
 2784SOL    HW219815   1.789   3.264   8.287 -0.1124 -0.4629  0.3431
 2785SOL     OW19816   2.652   4.237  16.001 -0.0874 -0.2185 -0.3562
 2785SOL    HW119817   2.738   4.203  16.025  0.5284  2.3105  0.9643
 2785SOL    HW219818   2.674   4.316  15.951 -0.0428 -0.5148 -0.8029
 2786SOL     OW19819   2.876   3.088  17.206 -0.5839 -0.1385 -0.2039
 2786SOL    HW119820   2.859   3.180  17.225 -0.3758 -0.2434  0.5271
 2786SOL    HW219821   2.969   3.080  17.228 -0.4387 -2.8553 -1.8354
 2787SOL     OW19822   4.646   0.564   8.968 -0.5895 -0.3124 -0.2883
 2787SOL    HW119823   4.626   0.560   9.061 -2.0778 -0.2019 -0.6113
 2787SOL    HW219824   4.596   0.643   8.949 -2.1745 -0.9457  1.3092
 2788SOL     OW19825   0.510   2.853   7.417  0.5882 -0.1879  0.3083
 2788SOL    HW119826   0.541   2.943   7.419  2.1712 -0.6771 -1.6823
 2788SOL    HW219827   0.592   2.806   7.430 -0.5672 -2.4213 -0.4315
 2789SOL     OW19828   0.377   0.682  14.159  0.0532 -0.4682 -0.5451
 2789SOL    HW119829   0.473   0.684  14.160  0.0661  2.4343 -3.8536
 2789SOL    HW219830   0.356   0.763  14.205  3.6145  0.3007 -0.2476
 2790SOL     OW19831   1.582   1.980  11.452  0.3933 -0.1337 -0.0671
 2790SOL    HW119832   1.664   1.949  11.414 -0.5691  0.6482 -2.7633
 2790SOL    HW219833   1.530   1.902  11.432  0.9778 -0.2802 -1.0075
 2791SOL     OW19834   2.919   3.522   3.514 -0.1967  0.4179 -0.0696
 2791SOL    HW119835   2.885   3.605   3.478 -0.8319  0.5558  0.8588
 2791SOL    HW219836   3.012   3.543   3.515  0.0865 -0.9678  1.8197
 2792SOL     OW19837   2.789   4.191  14.790  0.4082 -0.6803 -0.2538
 2792SOL    HW119838   2.861   4.245  14.758  1.7768 -2.8038 -0.7284
 2792SOL    HW219839   2.725   4.261  14.803  1.3709 -0.0061  0.8549
 2793SOL     OW19840   0.323   0.999   6.390  0.5266 -0.2975 -0.4412
 2793SOL    HW119841   0.359   1.083   6.419 -0.7630  0.3360 -0.6854
 2793SOL    HW219842   0.344   0.943   6.464 -0.6849 -1.3092 -0.8690
 2794SOL     OW19843   4.507   0.663   9.179 -0.4227  0.3256 -0.2810
 2794SOL    HW119844   4.512   0.756   9.200  1.8339  0.0887  0.2907
 2794SOL    HW219845   4.412   0.651   9.177 -0.4067  0.0023  0.5103
 2795SOL     OW19846   0.500   2.225   3.725  0.4841  0.1731 -0.3824
 2795SOL    HW119847   0.479   2.313   3.694 -0.7205  0.1790  0.4618
 2795SOL    HW219848   0.432   2.178   3.676 -0.8907 -0.3560  2.0589
 2796SOL     OW19849   1.804   3.942   5.729  1.3327  0.4062  0.4384
 2796SOL    HW119850   1.734   3.884   5.699  0.1879  1.5706  0.8694
 2796SOL    HW219851   1.853   3.881   5.784 -1.7560 -4.1257 -1.7648
 2797SOL     OW19852   3.403   2.268   6.864 -0.2171 -0.0658  0.2407
 2797SOL    HW119853   3.475   2.282   6.802  0.6819 -0.9008  1.0929
 2797SOL    HW219854   3.417   2.328   6.937  2.1955  1.0455 -1.1264
 2798SOL     OW19855   4.431   0.556  13.341 -0.5460  0.2945  0.1029
 2798SOL    HW119856   4.400   0.520  13.258  0.5371  0.3904 -0.3359
 2798SOL    HW219857   4.389   0.642  13.338 -1.2491 -0.0358  0.4297
 2799SOL     OW19858   1.030   3.200   6.506 -0.1208 -0.4549  0.1521
 2799SOL    HW119859   0.980   3.161   6.578  2.8648 -2.6108  1.0835
 2799SOL    HW219860   1.081   3.263   6.557 -2.8687  0.2917  1.9875
 2800SOL     OW19861   2.912   2.357  11.315  0.3383  0.1513 -0.0228
 2800SOL    HW119862   2.976   2.379  11.382 -1.1065 -0.9178  1.6982
 2800SOL    HW219863   2.832   2.406  11.337  0.8837  0.4366  1.2967
 2801SOL     OW19864   2.024   2.784  10.574 -0.4150 -0.3355 -0.6890
 2801SOL    HW119865   1.940   2.820  10.546  0.0596 -0.9402 -2.8880
 2801SOL    HW219866   2.076   2.863  10.557 -2.0112  0.3388 -2.4022
 2802SOL     OW19867   3.285   3.606   0.496  0.5398  0.0188  0.7445
 2802SOL    HW119868   3.242   3.679   0.541 -2.4145 -1.8210  0.8729
 2802SOL    HW219869   3.324   3.557   0.568  0.7317  1.2487  1.4857
 2803SOL     OW19870   3.420   3.967   7.912  0.1444 -0.3265 -0.1773
 2803SOL    HW119871   3.390   3.954   8.002 -0.5174 -1.1706 -0.5134
 2803SOL    HW219872   3.373   3.896   7.869 -0.3960 -0.7412  1.0867
 2804SOL     OW19873   4.362   3.853   5.609 -0.4602  0.0800 -0.1212
 2804SOL    HW119874   4.382   3.831   5.518  0.7972 -2.9303  0.9033
 2804SOL    HW219875   4.447   3.858   5.653  1.7861 -1.2627 -4.3310
 2805SOL     OW19876   3.977   1.163   0.431  0.2031  0.3403  0.0743
 2805SOL    HW119877   4.019   1.205   0.507  1.2062 -0.5706  0.0317
 2805SOL    HW219878   4.035   1.201   0.366 -0.2792  1.2360  0.1686
 2806SOL     OW19879   0.125   0.575   7.013 -0.1275 -0.0182 -0.5103
 2806SOL    HW119880   0.206   0.535   7.044 -0.3996  0.6197  1.0444
 2806SOL    HW219881   0.053   0.515   7.034 -2.4568  2.8400 -0.3353
 2807SOL     OW19882   3.617   0.248  12.620  0.3438 -0.3734 -0.2576
 2807SOL    HW119883   3.554   0.269  12.688 -0.0739 -2.1164 -0.1078
 2807SOL    HW219884   3.562   0.267  12.544  0.9248 -0.2654 -0.6549
 2808SOL     OW19885   2.882   2.852   7.359 -0.2766  0.0745  0.9588
 2808SOL    HW119886   2.812   2.861   7.424 -1.0902  0.0722  0.0949
 2808SOL    HW219887   2.944   2.811   7.419 -1.7024 -0.9567  1.7231
 2809SOL     OW19888   3.119   3.958  16.470 -0.1119  0.5555  0.3985
 2809SOL    HW119889   3.119   3.980  16.563 -0.4074 -0.7879  0.7227
 2809SOL    HW219890   3.199   4.001  16.439 -0.5644 -0.3562 -2.0700
 2810SOL     OW19891   0.903   3.613   9.684  0.6404  0.0818 -0.1378
 2810SOL    HW119892   0.810   3.607   9.702  0.6658  0.9121  0.2613
 2810SOL    HW219893   0.903   3.597   9.590 -0.8889  2.2453 -0.4974
 2811SOL     OW19894   2.475   3.662   8.082  0.2486 -0.4896  0.5220
 2811SOL    HW119895   2.491   3.699   8.169 -1.6266  0.1919  0.5801
 2811SOL    HW219896   2.484   3.731   8.016 -2.0634  1.1510  1.9216
 2812SOL     OW19897   2.249   3.057   1.477 -0.5018 -0.2903 -0.7648
 2812SOL    HW119898   2.167   3.105   1.466 -1.1956 -1.3462 -0.2172
 2812SOL    HW219899   2.225   2.964   1.471 -0.1117 -0.4537  0.1746
 2813SOL     OW19900   1.401   1.098   3.176 -0.1113  0.2921 -0.2440
 2813SOL    HW119901   1.365   1.178   3.215 -2.4189 -1.2165  0.6550
 2813SOL    HW219902   1.486   1.132   3.147 -1.2272  1.5073 -2.1163
 2814SOL     OW19903   2.766   1.613   7.890  0.4665  0.3647 -0.7513
 2814SOL    HW119904   2.832   1.679   7.867 -0.5184  1.5717 -0.1688
 2814SOL    HW219905   2.805   1.572   7.967 -0.4004  0.9546  0.0184
 2815SOL     OW19906   1.692   2.468   2.136  0.4325  0.2230 -0.3529
 2815SOL    HW119907   1.627   2.401   2.114  0.6748  0.2708 -1.2257
 2815SOL    HW219908   1.767   2.434   2.087 -0.1924 -2.5434  0.5818
 2816SOL     OW19909   3.585   2.247   1.538 -0.0101 -0.3752 -0.3731
 2816SOL    HW119910   3.600   2.157   1.566  1.8147  0.8186  2.5722
 2816SOL    HW219911   3.520   2.283   1.599 -2.2679 -2.3132 -1.6810
 2817SOL     OW19912   3.393   1.002   0.517  0.2014  0.2776 -0.0175
 2817SOL    HW119913   3.340   1.035   0.445 -0.8543 -1.1143  0.1138
 2817SOL    HW219914   3.480   0.980   0.483  0.2901 -0.7899  0.8733
 2818SOL     OW19915   0.887   2.889   5.095  0.0279 -0.2661 -0.4355
 2818SOL    HW119916   0.948   2.879   5.168 -0.2789  1.2328  0.0174
 2818SOL    HW219917   0.946   2.938   5.037 -2.4039  2.0219 -0.9885
 2819SOL     OW19918   1.575   2.441  12.047 -0.1018  0.0297 -0.2131
 2819SOL    HW119919   1.639   2.504  12.079  0.2477 -0.1282 -0.5979
 2819SOL    HW219920   1.505   2.449  12.112  1.2716  1.1238  1.1348
 2820SOL     OW19921   3.885   4.256  14.731 -0.1538 -0.3638 -0.0811
 2820SOL    HW119922   3.948   4.187  14.708  0.3401  0.2314 -0.5329
 2820SOL    HW219923   3.884   4.306  14.650  0.2619 -3.0961 -1.7638
 2821SOL     OW19924   3.606   1.444  12.131 -0.1486  0.1807  0.4850
 2821SOL    HW119925   3.519   1.479  12.111  0.0175  0.9547  1.0996
 2821SOL    HW219926   3.574   1.367  12.179 -0.9646 -0.9946 -1.9531
 2822SOL     OW19927   4.456   1.362   5.687 -0.2194 -0.2034  0.2286
 2822SOL    HW119928   4.473   1.444   5.732 -1.7665  1.4923 -2.2766
 2822SOL    HW219929   4.481   1.376   5.596  0.7718 -0.8960  0.3961
 2823SOL     OW19930   1.180   0.070   2.571  0.2522 -0.4377  0.0748
 2823SOL    HW119931   1.204   0.055   2.662  0.7220 -0.2725 -0.0208
 2823SOL    HW219932   1.091   0.037   2.576 -0.5361  1.2528 -2.7858
 2824SOL     OW19933   1.023   4.445  13.177 -0.0228 -0.0976 -0.0070
 2824SOL    HW119934   1.060   4.514  13.231  0.2147  1.2162 -1.8646
 2824SOL    HW219935   1.024   4.484  13.090  1.9726 -0.9751 -0.3881
 2825SOL     OW19936   1.260   3.922   2.133  0.4083 -0.2797  0.2595
 2825SOL    HW119937   1.319   3.979   2.083  0.3664 -0.7624 -0.3373
 2825SOL    HW219938   1.306   3.838   2.133  1.3278  0.2244 -0.9512
 2826SOL     OW19939   0.996   0.899   4.449 -0.1294  1.0755  0.1730
 2826SOL    HW119940   0.960   0.826   4.500 -0.3639 -1.2962 -3.3429
 2826SOL    HW219941   1.084   0.861   4.441 -0.5930  0.0923 -0.3057
 2827SOL     OW19942   3.559   3.244   4.495 -0.1349  0.1040 -0.2412
 2827SOL    HW119943   3.621   3.233   4.423  2.1225 -1.0133  1.8789
 2827SOL    HW219944   3.579   3.161   4.539  1.8290  2.1933  2.8313
 2828SOL     OW19945   3.220   4.646   5.739 -0.3737 -0.3815 -0.5436
 2828SOL    HW119946   3.136   4.691   5.748  0.6592  1.3915  0.1284
 2828SOL    HW219947   3.239   4.613   5.827  0.7467  1.4349 -0.1064
 2829SOL     OW19948   4.720   2.056   7.218  0.3338  0.0457  0.1570
 2829SOL    HW119949   4.633   2.024   7.196  0.3363  0.7202 -0.8345
 2829SOL    HW219950   4.709   2.148   7.193  2.7581 -0.7524 -3.7203
 2830SOL     OW19951   2.507   2.418  16.385 -0.0624  0.3258  0.2124
 2830SOL    HW119952   2.481   2.510  16.393 -0.6542 -0.0417  2.6918
 2830SOL    HW219953   2.447   2.398  16.314 -0.2575 -1.3047  0.8430
 2831SOL     OW19954   1.815   3.031   4.114  0.1370  0.2698  0.1062
 2831SOL    HW119955   1.907   3.033   4.142  1.1352 -2.9939 -2.9414
 2831SOL    HW219956   1.819   2.984   4.031  2.7669 -0.3457  0.5629
 2832SOL     OW19957   0.450   0.190   5.178 -0.3019  0.7705 -0.1337
 2832SOL    HW119958   0.377   0.253   5.183 -0.0093  0.9988  1.1370
 2832SOL    HW219959   0.415   0.116   5.129 -0.8359  1.3418 -0.6207
 2833SOL     OW19960   3.579   1.752   2.584  0.4341  0.1008  0.1357
 2833SOL    HW119961   3.556   1.669   2.541 -2.1458 -0.2034  2.1051
 2833SOL    HW219962   3.635   1.717   2.653 -0.0199  1.5298  1.2211
 2834SOL     OW19963   4.494   2.474   8.438  0.2020 -0.3641 -0.2753
 2834SOL    HW119964   4.578   2.428   8.429  1.0127  1.0005  0.2017
 2834SOL    HW219965   4.497   2.551   8.496 -1.8035  0.2490 -1.0098
 2835SOL     OW19966   0.216   4.154   1.989 -0.0318 -0.0297 -0.5357
 2835SOL    HW119967   0.268   4.132   1.911  0.8696 -2.2383  0.7153
 2835SOL    HW219968   0.170   4.234   1.961  0.8466  1.2437  1.6948
 2836SOL     OW19969   0.038   1.878   1.362 -0.1437 -0.2547 -0.7270
 2836SOL    HW119970   0.125   1.919   1.358 -0.8430  1.1836 -0.8185
 2836SOL    HW219971   0.061   1.785   1.355  3.2450  0.4799  0.2595
 2837SOL     OW19972   2.170   1.802   2.818  0.2719 -0.1293 -0.3530
 2837SOL    HW119973   2.182   1.822   2.725 -0.7355 -0.1693 -0.4930
 2837SOL    HW219974   2.087   1.846   2.834  0.2521 -0.0070 -0.7949
 2838SOL     OW19975   2.602   3.182   8.167  0.1497 -0.6776  0.1063
 2838SOL    HW119976   2.677   3.239   8.186 -1.3485  0.6057  2.1556
 2838SOL    HW219977   2.572   3.153   8.253 -2.7049 -0.0816 -0.6751
 2839SOL     OW19978   2.592   0.174   2.662  0.3473 -0.5985  0.6598
 2839SOL    HW119979   2.637   0.090   2.667  0.3191 -0.6362  0.2477
 2839SOL    HW219980   2.628   0.199   2.577  1.7158 -0.3025  1.3338
 2840SOL     OW19981   0.234   4.657  11.106  0.4350 -0.2412 -0.1683
 2840SOL    HW119982   0.311   4.713  11.121 -0.7618  1.4767 -0.5096
 2840SOL    HW219983   0.243   4.653  11.011  1.1874 -1.9491 -0.0215
 2841SOL     OW19984   1.994   2.503   3.728  0.2543  0.9331 -0.0728
 2841SOL    HW119985   2.027   2.555   3.655 -1.1662  1.3079 -0.4420
 2841SOL    HW219986   2.079   2.481   3.767 -0.7247 -0.9658  1.0034
 2842SOL     OW19987   1.942   3.537   9.712 -0.1395 -0.6620  0.4921
 2842SOL    HW119988   1.935   3.565   9.620 -0.8579  0.8773  1.0226
 2842SOL    HW219989   1.872   3.588   9.752 -0.2303 -0.7800  0.4860
 2843SOL     OW19990   4.491   2.335   3.404  0.1834 -0.7970 -0.0482
 2843SOL    HW119991   4.488   2.261   3.343 -2.1902 -0.9919  0.3189
 2843SOL    HW219992   4.398   2.348   3.422  0.1902 -0.5930 -0.1630
 2844SOL     OW19993   0.496   0.636   5.193 -0.2596  0.5387  0.0729
 2844SOL    HW119994   0.560   0.706   5.206 -1.2657  1.9734 -2.8563
 2844SOL    HW219995   0.498   0.631   5.098  0.1566  0.0267  0.1121
 2845SOL     OW19996   0.055   0.802   6.451 -0.3941  0.1752 -0.6375
 2845SOL    HW119997   0.057   0.889   6.491  1.5453  0.3450 -1.0791
 2845SOL    HW219998   4.694   0.783   6.482 -0.3162  0.0813 -0.4754
 2846SOL     OW19999   1.333   2.070   6.736 -0.2914 -0.2076 -0.0057
 2846SOL    HW120000   1.425   2.088   6.757 -0.8385  0.3698  1.8793
 2846SOL    HW220001   1.298   2.128   6.803  0.0418  2.0889 -1.7958
 2847SOL     OW20002   3.536   1.492   9.965  0.4257 -0.2432 -0.6391
 2847SOL    HW120003   3.517   1.401   9.987 -1.4701  0.1440 -0.6911
 2847SOL    HW220004   3.563   1.532  10.047  1.3598  0.1488 -1.1341
 2848SOL     OW20005   2.246   1.738   7.786 -0.0477 -0.4245 -0.0626
 2848SOL    HW120006   2.214   1.803   7.847  4.2833  0.1302  1.5856
 2848SOL    HW220007   2.337   1.745   7.813 -0.7894  2.7812  1.5022
 2849SOL     OW20008   3.063   1.867   1.222 -0.1469  0.1111 -0.1108
 2849SOL    HW120009   3.079   1.861   1.127  1.4310 -0.7544  0.2042
 2849SOL    HW220010   3.028   1.955   1.230  0.7619  0.5201 -0.5878
 2850SOL     OW20011   3.830   2.734   1.275  0.7990 -0.1221  0.4843
 2850SOL    HW120012   3.916   2.771   1.296 -0.1510  2.5716 -0.4202
 2850SOL    HW220013   3.805   2.797   1.208  0.8256  0.7629  1.3179
 2851SOL     OW20014   1.724   3.011   9.170  0.4886  0.0628 -0.3998
 2851SOL    HW120015   1.696   2.956   9.096 -1.1474 -1.0040  1.0015
 2851SOL    HW220016   1.682   3.096   9.158 -0.5940 -0.5502 -1.0860
 2852SOL     OW20017   1.569   3.884   6.942 -1.2910 -0.0460  0.2691
 2852SOL    HW120018   1.637   3.881   6.875  0.0389 -1.1469  1.6664
 2852SOL    HW220019   1.611   3.821   7.001 -1.6985  0.7933  1.4421
 2853SOL     OW20020   0.941   3.940   0.128 -0.4641 -0.2312 -0.2599
 2853SOL    HW120021   0.927   3.884   0.204 -0.0530  1.4799  1.0738
 2853SOL    HW220022   0.914   4.022   0.169 -1.7923  0.3721 -2.3628
 2854SOL     OW20023   4.268   2.584   6.518 -0.3341  0.0219 -0.5299
 2854SOL    HW120024   4.261   2.552   6.607  1.3771  0.7745 -0.1237
 2854SOL    HW220025   4.241   2.507   6.468 -0.8022 -0.5729  0.6435
 2855SOL     OW20026   2.460   0.910  17.687 -0.3440 -0.0239  0.5752
 2855SOL    HW120027   2.460   0.975  17.617  0.1232 -0.9236 -0.2582
 2855SOL    HW220028   2.440   0.967   0.054  0.6092  2.3007 -0.9676
 2856SOL     OW20029   1.734   3.594   6.429 -0.1901 -0.0649 -0.0498
 2856SOL    HW120030   1.809   3.640   6.392  0.1988 -1.2557 -0.7378
 2856SOL    HW220031   1.688   3.579   6.347  0.4846 -1.0894 -0.2387
 2857SOL     OW20032   1.175   3.995   8.148  0.4486  0.0675  0.4603
 2857SOL    HW120033   1.224   4.058   8.201  0.2468  0.5094  0.1220
 2857SOL    HW220034   1.086   4.023   8.167 -0.0475 -0.6746 -0.7624
 2858SOL     OW20035   1.770   1.553   7.382 -0.0828 -0.3015  0.1519
 2858SOL    HW120036   1.712   1.552   7.458  0.8442 -1.5693  0.8411
 2858SOL    HW220037   1.718   1.602   7.318 -1.5719 -0.9810  0.8478
 2859SOL     OW20038   4.575   2.610   6.410  0.2167 -0.0847  0.2944
 2859SOL    HW120039   4.562   2.547   6.480  3.2614  1.2192  2.0535
 2859SOL    HW220040   4.518   2.683   6.433  2.3574  1.3571  1.0268
 2860SOL     OW20041   0.796   4.484   8.875 -0.1398  0.8273  0.2635
 2860SOL    HW120042   0.806   4.498   8.781 -1.7003  0.7489  0.0857
 2860SOL    HW220043   0.712   4.438   8.869 -0.1350  1.0159 -1.2596
 2861SOL     OW20044   0.821   3.481   6.396  0.8140  0.0803  0.2591
 2861SOL    HW120045   0.825   3.576   6.408  0.0975  0.3163 -1.4572
 2861SOL    HW220046   0.801   3.448   6.484 -0.2992  1.7214  0.6207
 2862SOL     OW20047   3.802   1.468  16.583 -0.6021  0.4130  0.6666
 2862SOL    HW120048   3.818   1.380  16.549  0.0477  0.5740  0.5563
 2862SOL    HW220049   3.837   1.459  16.672 -1.3316  2.7224  1.2030
 2863SOL     OW20050   2.490   0.273   7.207  0.1485 -0.0185 -0.0883
 2863SOL    HW120051   2.549   0.341   7.175 -0.9358  0.9519 -0.0143
 2863SOL    HW220052   2.427   0.336   7.242 -2.7253 -3.2042  0.4967
 2864SOL     OW20053   3.004   1.961   8.179 -0.3269  0.3763 -0.0238
 2864SOL    HW120054   3.066   1.889   8.190  1.3967  1.8003 -0.3862
 2864SOL    HW220055   2.976   1.991   8.265  1.4907  1.2647  0.2695
 2865SOL     OW20056   1.851   4.402   4.129 -0.0674 -0.2333  0.0471
 2865SOL    HW120057   1.845   4.310   4.103 -0.2392 -0.8601  2.3879
 2865SOL    HW220058   1.774   4.429   4.078 -0.0360  1.6831  0.9866
 2866SOL     OW20059   1.849   4.345   2.424 -0.4800  0.0726  0.4189
 2866SOL    HW120060   1.766   4.301   2.443 -2.0287  2.1521 -1.3680
 2866SOL    HW220061   1.806   4.396   2.354 -0.2243  2.6457  2.1396
 2867SOL     OW20062   1.950   1.446   6.207 -0.3083  0.3238  0.2418
 2867SOL    HW120063   1.974   1.444   6.114 -2.4428  1.1437 -0.3243
 2867SOL    HW220064   1.873   1.390   6.197  0.5727 -0.8067 -0.0990
 2868SOL     OW20065   0.706   2.000  16.357  0.1469  0.2661 -0.1802
 2868SOL    HW120066   0.713   1.991  16.452  1.3757 -1.6698 -0.4537
 2868SOL    HW220067   0.701   1.907  16.337  2.0325  0.1437 -0.0417
 2869SOL     OW20068   4.019   4.407   2.763  0.3285 -0.1943  0.6789
 2869SOL    HW120069   4.049   4.345   2.696 -1.9466  0.5598 -1.0459
 2869SOL    HW220070   4.072   4.483   2.741  0.3040 -0.1833  0.6572
 2870SOL     OW20071   0.513   3.846   5.673  0.6526 -0.5223 -0.3932
 2870SOL    HW120072   0.547   3.758   5.691  3.6339  0.7663  0.3769
 2870SOL    HW220073   0.426   3.845   5.713 -0.1566 -0.0020 -2.1282
 2871SOL     OW20074   4.642   1.186   2.935 -0.0648  0.2749  0.5236
 2871SOL    HW120075   4.657   1.134   2.856  1.0026  1.2406  0.1066
 2871SOL    HW220076   4.668   1.121   3.000  1.0681  0.5247  0.3186
 2872SOL     OW20077   3.293   2.118   1.327 -0.3282 -0.0314 -0.6714
 2872SOL    HW120078   3.340   2.047   1.283  1.2623  0.9690 -0.5660
 2872SOL    HW220079   3.274   2.186   1.263  1.3364 -1.0825 -2.2849
 2873SOL     OW20080   1.148   4.300   8.669 -0.1846 -0.5083  0.3285
 2873SOL    HW120081   1.095   4.356   8.612 -0.3138  0.7793  1.7090
 2873SOL    HW220082   1.146   4.343   8.755  0.2123  0.8680 -0.3551
 2874SOL     OW20083   3.747   3.395   1.037  0.3235  0.2406 -0.2216
 2874SOL    HW120084   3.663   3.437   1.018 -0.1765 -0.5438  0.2592
 2874SOL    HW220085   3.801   3.462   1.079 -0.6302 -0.2500  1.8182
 2875SOL     OW20086   3.852   2.482   6.808  0.4487 -0.6837 -0.0396
 2875SOL    HW120087   3.879   2.568   6.775 -0.4396 -0.6264 -0.6121
 2875SOL    HW220088   3.807   2.514   6.887 -0.4323 -2.8746  0.3323
 2876SOL     OW20089   0.684   0.908   2.499 -0.3116 -0.2136  0.5795
 2876SOL    HW120090   0.740   0.847   2.547 -1.9563 -1.1264  1.3649
 2876SOL    HW220091   0.604   0.856   2.485 -0.1322 -0.3084 -0.0880
 2877SOL     OW20092   2.776   1.598   6.694 -0.1921  0.2232  0.2521
 2877SOL    HW120093   2.756   1.590   6.787 -1.1541  1.2868  0.1279
 2877SOL    HW220094   2.858   1.647   6.701  0.9615 -1.9065  1.8953
 2878SOL     OW20095   0.560   4.434   6.372  0.0651  0.1327  0.2025
 2878SOL    HW120096   0.551   4.527   6.392 -0.1877  1.0775 -4.2010
 2878SOL    HW220097   0.496   4.398   6.433 -1.3873 -0.3326 -1.5727
 2879SOL     OW20098   3.493   3.987   9.854  0.7598 -0.4900 -0.6451
 2879SOL    HW120099   3.506   3.893   9.842  1.8526 -0.1292 -2.3200
 2879SOL    HW220100   3.576   4.009   9.896 -0.2025 -0.4284  1.2268
 2880SOL     OW20101   2.919   2.978  15.362  0.3167 -0.4351  0.0236
 2880SOL    HW120102   2.858   2.996  15.290  0.7999  0.9621 -0.0345
 2880SOL    HW220103   2.998   2.964  15.310  0.4160 -2.2326  0.6526
 2881SOL     OW20104   3.100   2.717   6.465 -0.2922  0.2060 -0.3047
 2881SOL    HW120105   3.123   2.732   6.373  1.0916 -0.2689 -0.0241
 2881SOL    HW220106   3.008   2.742   6.478 -0.4529  0.2812 -1.5337
 2882SOL     OW20107   2.709   1.919   7.708 -0.4294  0.2582  0.1320
 2882SOL    HW120108   2.621   1.895   7.678 -0.0003 -1.7296  0.4620
 2882SOL    HW220109   2.704   2.013   7.691  0.4863 -0.2438 -2.9140
 2883SOL     OW20110   2.256   2.733   8.974  0.4256  0.0200 -0.1766
 2883SOL    HW120111   2.339   2.736   8.928  1.4136  2.0840  1.7819
 2883SOL    HW220112   2.199   2.709   8.900  0.5490 -2.7071  0.5945
 2884SOL     OW20113   0.711   3.030   5.269  0.0669  0.1484 -0.3357
 2884SOL    HW120114   0.762   3.001   5.194  1.6881  1.4998  0.2433
 2884SOL    HW220115   0.677   2.943   5.292 -0.1010 -0.0491 -1.3500
 2885SOL     OW20116   0.110   1.517  14.858 -0.2709  0.2510 -0.2856
 2885SOL    HW120117   0.024   1.533  14.820 -0.1698 -0.7868 -0.9397
 2885SOL    HW220118   0.164   1.505  14.780  1.3422 -0.6771  0.9776
 2886SOL     OW20119   2.882   0.596  12.868  0.0047 -0.3092 -0.6318
 2886SOL    HW120120   2.942   0.637  12.806 -1.4260  0.0126 -1.7952
 2886SOL    HW220121   2.810   0.658  12.873  1.0463  0.6270  2.6801
 2887SOL     OW20122   3.459   1.821   4.087 -0.0453  0.0574 -0.2472
 2887SOL    HW120123   3.477   1.736   4.128 -0.0210 -0.2977 -0.9853
 2887SOL    HW220124   3.472   1.881   4.159 -0.2581  0.6932 -0.7361
 2888SOL     OW20125   0.350   2.860   6.014  0.9737  0.9678  0.5573
 2888SOL    HW120126   0.287   2.873   6.084  1.4440  0.9804  0.9811
 2888SOL    HW220127   0.421   2.821   6.065  0.2691  0.1381  0.8962
 2889SOL     OW20128   2.466   3.579   7.166 -0.3962  0.3555 -0.7479
 2889SOL    HW120129   2.416   3.498   7.177 -2.8423  1.8064 -1.2838
 2889SOL    HW220130   2.393   3.636   7.190 -1.3553 -1.0997 -0.1816
 2890SOL     OW20131   2.172   3.395   5.285  0.0453 -0.0967  0.4359
 2890SOL    HW120132   2.117   3.406   5.208  1.4784  2.3761 -0.2468
 2890SOL    HW220133   2.252   3.376   5.236 -0.3351 -1.4085  0.3257
 2891SOL     OW20134   1.330   1.485   5.307 -0.6350  0.2553  0.1508
 2891SOL    HW120135   1.247   1.495   5.353 -0.4844 -1.2868  0.7458
 2891SOL    HW220136   1.385   1.486   5.386 -0.9032 -0.6885  0.3481
 2892SOL     OW20137   2.516   3.812  11.904  0.2698  0.1183 -0.2413
 2892SOL    HW120138   2.577   3.740  11.924 -0.4168 -0.7136 -1.1565
 2892SOL    HW220139   2.566   3.893  11.908 -0.5109  0.5463  0.8065
 2893SOL     OW20140   4.192   2.242   2.091  0.4632 -0.0880  0.6691
 2893SOL    HW120141   4.145   2.217   2.171  0.8179 -0.2974  0.8137
 2893SOL    HW220142   4.189   2.160   2.042  0.2192  1.3209 -1.6352
 2894SOL     OW20143   1.041   4.496  10.821  0.3038 -0.3348 -0.3244
 2894SOL    HW120144   0.969   4.521  10.880 -0.5276 -1.3889 -0.8988
 2894SOL    HW220145   1.102   4.457  10.884  0.3895  0.1632 -0.0947
 2895SOL     OW20146   0.031   1.176   5.202 -0.3800  0.1806  0.2055
 2895SOL    HW120147   4.664   1.193   5.194 -0.1211  2.5854  2.1033
 2895SOL    HW220148   0.058   1.207   5.115 -0.0202 -0.9213 -0.0693
 2896SOL     OW20149   0.730   3.141   7.917  0.0462  0.2483 -0.2422
 2896SOL    HW120150   0.687   3.225   7.904 -0.7927 -0.3457 -1.2520
 2896SOL    HW220151   0.682   3.110   7.994  1.9899 -2.6937 -0.2291
 2897SOL     OW20152   1.373   0.788   0.610  0.2768  0.2713  0.0669
 2897SOL    HW120153   1.322   0.868   0.622  0.0581  0.1920 -0.3208
 2897SOL    HW220154   1.323   0.748   0.539  3.3427 -1.0855 -1.3030
 2898SOL     OW20155   4.381   4.376   8.439 -0.0132  0.4324  0.0406
 2898SOL    HW120156   4.413   4.326   8.364  0.4514 -0.9980  1.2189
 2898SOL    HW220157   4.330   4.446   8.397 -0.2463  0.3950  0.2620
 2899SOL     OW20158   0.921   4.465  10.568  0.2702 -0.4924 -0.6543
 2899SOL    HW120159   0.881   4.550  10.551 -1.0362 -0.4305  2.7792
 2899SOL    HW220160   0.954   4.476  10.657  1.9378 -0.0774 -1.3281
 2900SOL     OW20161   1.419   3.968  16.086 -0.4880 -0.8273  0.1508
 2900SOL    HW120162   1.436   3.921  16.004 -2.4142  0.0692 -0.7494
 2900SOL    HW220163   1.456   4.056  16.078  1.9730 -1.8952 -0.6067
 2901SOL     OW20164   2.315   3.254   6.876  0.8892  0.1597 -0.1632
 2901SOL    HW120165   2.262   3.182   6.909  0.8314  0.2485 -0.0625
 2901SOL    HW220166   2.324   3.225   6.785  0.3910  1.1310 -0.5236
 2902SOL     OW20167   2.720   2.586   2.896 -0.6605 -0.0592  0.1720
 2902SOL    HW120168   2.667   2.524   2.946 -0.1212 -3.1183 -3.0796
 2902SOL    HW220169   2.709   2.563   2.804 -1.6705 -0.6709  0.4502
 2903SOL     OW20170   4.028   2.606   4.350 -0.1248 -0.5415 -0.7069
 2903SOL    HW120171   4.042   2.701   4.347 -2.5775 -0.2395 -2.5408
 2903SOL    HW220172   3.991   2.594   4.437 -1.4254 -1.7694 -1.4450
 2904SOL     OW20173   3.700   2.783   2.439 -0.5344  0.2628 -0.3816
 2904SOL    HW120174   3.653   2.858   2.475  0.9709 -0.8918  3.9606
 2904SOL    HW220175   3.781   2.820   2.407  0.1827  0.8732  2.1282
 2905SOL     OW20176   1.139   0.965   2.755 -0.3053  0.3374 -0.1967
 2905SOL    HW120177   1.081   0.945   2.828  0.4769 -2.5750 -0.4103
 2905SOL    HW220178   1.160   0.879   2.721  0.4709  0.8853 -1.1000
 2906SOL     OW20179   2.494   4.059  15.014  0.9539  0.2260 -0.3199
 2906SOL    HW120180   2.426   4.034  15.078  1.3501  1.3343  0.5240
 2906SOL    HW220181   2.473   4.149  14.989 -1.5572  0.2258  1.7938
 2907SOL     OW20182   2.451   4.303   4.752 -0.2741  0.3229 -0.2715
 2907SOL    HW120183   2.415   4.380   4.795 -1.2169 -0.0518 -0.3793
 2907SOL    HW220184   2.490   4.256   4.826 -0.6015 -1.2833 -1.1264
 2908SOL     OW20185   3.346   0.601   7.463  0.5890  0.8612  0.1515
 2908SOL    HW120186   3.292   0.673   7.431  1.8967  1.0904 -1.4835
 2908SOL    HW220187   3.295   0.556   7.531  1.8981  0.6953  1.0160
 2909SOL     OW20188   0.139   4.723   3.243  0.5236 -1.2175 -0.3322
 2909SOL    HW120189   0.234   4.725   3.257  0.4953 -2.2814 -0.0146
 2909SOL    HW220190   0.112   0.072   3.297 -0.2424 -0.6005 -1.5732
 2910SOL     OW20191   1.504   2.464  16.128 -0.2553 -0.8187  0.3527
 2910SOL    HW120192   1.502   2.549  16.083 -0.1653  0.2104  2.3002
 2910SOL    HW220193   1.410   2.443  16.127 -0.6738  1.0495 -0.6447
 2911SOL     OW20194   3.838   1.762   7.055 -0.2569  0.4325  1.2177
 2911SOL    HW120195   3.847   1.668   7.040  1.3307  0.5100  1.6896
 2911SOL    HW220196   3.905   1.797   6.997  1.9898 -2.4065  2.0816
 2912SOL     OW20197   3.719   2.517   1.185 -0.0811  0.0147 -0.0381
 2912SOL    HW120198   3.794   2.460   1.170 -0.4372 -0.2836 -0.7207
 2912SOL    HW220199   3.760   2.594   1.225 -1.1151  0.3246  0.4309
 2913SOL     OW20200   1.176   2.701   2.233 -0.3417 -0.0975  0.1113
 2913SOL    HW120201   1.141   2.614   2.214 -0.3571 -0.2484  0.8400
 2913SOL    HW220202   1.211   2.693   2.322 -1.1629 -0.9398  0.3554
 2914SOL     OW20203   0.522   3.804   3.252 -0.1722  0.4957  0.2622
 2914SOL    HW120204   0.536   3.734   3.188 -0.8560  1.4275 -0.8872
 2914SOL    HW220205   0.435   3.835   3.228  0.0277  0.2782 -0.7492
 2915SOL     OW20206   3.479   0.002   1.536 -0.0386 -0.3312 -0.5076
 2915SOL    HW120207   3.436   0.002   1.621  1.1137  0.2581  0.0731
 2915SOL    HW220208   3.410   0.038   1.479 -0.2549  1.2834  0.7689
 2916SOL     OW20209   1.794   2.537   3.931 -0.1273 -0.5466 -0.0483
 2916SOL    HW120210   1.862   2.517   3.867  0.2503  1.1270 -0.1744
 2916SOL    HW220211   1.844   2.524   4.011  1.1669 -2.9164 -1.2451
 2917SOL     OW20212   2.811   1.870  12.512  0.2785 -0.4429 -0.1433
 2917SOL    HW120213   2.896   1.859  12.469  0.1745 -0.6312 -0.3030
 2917SOL    HW220214   2.741   1.846  12.452  1.0263 -0.7422 -0.9017
 2918SOL     OW20215   3.099   0.790   2.107 -0.6340 -0.4538  0.1854
 2918SOL    HW120216   3.075   0.702   2.078 -3.2571  0.8014 -1.3669
 2918SOL    HW220217   3.133   0.773   2.195 -3.3477  1.0693  1.5139
 2919SOL     OW20218   1.627   0.193   8.664  0.3830 -0.6202  0.6963
 2919SOL    HW120219   1.670   0.109   8.651 -2.1467 -1.2493 -3.6354
 2919SOL    HW220220   1.594   0.174   8.752  0.2908  0.6729  0.9480
 2920SOL     OW20221   0.448   0.358   3.407  0.2199  0.6511 -0.1084
 2920SOL    HW120222   0.449   0.398   3.494 -2.4527  0.1115  0.1967
 2920SOL    HW220223   0.409   0.428   3.355 -1.6350  0.3721  0.8891
 2921SOL     OW20224   3.446   2.093   4.692 -0.6418  0.1690  0.3383
 2921SOL    HW120225   3.442   2.084   4.596  0.5391  1.0005  0.2188
 2921SOL    HW220226   3.531   2.057   4.717 -1.5606 -0.5508  2.3958
 2922SOL     OW20227   0.446   1.360   1.455 -0.6092  0.2636 -0.5063
 2922SOL    HW120228   0.491   1.338   1.374 -1.0138 -1.4752 -0.2508
 2922SOL    HW220229   0.356   1.377   1.426 -1.4342 -0.5226  1.5394
 2923SOL     OW20230   0.032   3.511   8.121  0.3163  0.3016 -0.5608
 2923SOL    HW120231   4.671   3.514   8.083  0.4585 -1.6116 -1.0441
 2923SOL    HW220232   0.091   3.546   8.054  1.0071  0.0823 -0.0598
 2924SOL     OW20233   4.205   0.093   8.398 -0.0547  0.1917  0.6210
 2924SOL    HW120234   4.278   0.050   8.353 -0.0681  1.1587 -0.3301
 2924SOL    HW220235   4.246   0.145   8.468 -0.7409 -0.8495  1.7995
 2925SOL     OW20236   4.168   4.689   5.636  0.1469  0.1787  0.5736
 2925SOL    HW120237   4.236   4.720   5.576  0.2774 -0.3149  0.4593
 2925SOL    HW220238   4.151   4.597   5.616  3.2488 -0.3220  0.2145
 2926SOL     OW20239   3.134   2.714   2.241  0.2287 -0.1171 -0.5148
 2926SOL    HW120240   3.124   2.619   2.247  0.1603 -0.0873 -0.1296
 2926SOL    HW220241   3.213   2.729   2.293 -0.2884 -0.9192  0.5187
 2927SOL     OW20242   1.582   2.366   7.924  0.2659 -0.0416  0.3121
 2927SOL    HW120243   1.506   2.417   7.897 -0.8113 -2.0515 -0.3969
 2927SOL    HW220244   1.630   2.445   7.949  1.4740 -0.7131  0.1372
 2928SOL     OW20245   2.970   3.325   8.565  0.1491  0.0306  0.6758
 2928SOL    HW120246   3.056   3.285   8.573 -0.8029 -1.9043  1.2761
 2928SOL    HW220247   3.004   3.407   8.601 -0.3928  0.6452 -0.1903
 2929SOL     OW20248   3.244   3.545  11.845  0.3961 -0.5829  0.1840
 2929SOL    HW120249   3.208   3.629  11.875 -0.4543 -0.9002  0.0514
 2929SOL    HW220250   3.176   3.483  11.870  0.1548  0.7508  2.9513
 2930SOL     OW20251   0.374   3.889  17.120  0.0966  0.6049  0.1771
 2930SOL    HW120252   0.434   3.814  17.123  0.4190  0.8047 -1.6998
 2930SOL    HW220253   0.353   3.900  17.027 -0.1273 -0.8986  0.0427
 2931SOL     OW20254   1.974   1.505   1.113 -0.1616  0.5502 -0.8958
 2931SOL    HW120255   1.965   1.514   1.208 -0.0991 -2.3763 -0.5896
 2931SOL    HW220256   1.887   1.530   1.082 -0.5045  1.5374  0.8614
 2932SOL     OW20257   0.786   4.583   7.728  0.4644  0.0998 -0.2458
 2932SOL    HW120258   0.738   4.522   7.672 -0.8525 -0.7156  1.7601
 2932SOL    HW220259   0.869   4.536   7.736 -0.3413 -1.5199 -1.4081
 2933SOL     OW20260   3.580   1.478   7.662  0.2874  0.1298 -0.1460
 2933SOL    HW120261   3.577   1.523   7.746 -0.1216 -0.4110  0.1272
 2933SOL    HW220262   3.495   1.435   7.662  0.4107 -0.1090  1.2884
 2934SOL     OW20263   2.705   3.909   9.109 -0.3833  0.2218  0.0220
 2934SOL    HW120264   2.647   3.861   9.049  0.4277 -1.2146  0.3787
 2934SOL    HW220265   2.668   3.997   9.112  0.5430  0.5859  0.8903
 2935SOL     OW20266   2.508   3.820   7.589  0.2891 -0.0889  0.0056
 2935SOL    HW120267   2.564   3.753   7.551 -0.4893 -0.2171 -0.9075
 2935SOL    HW220268   2.570   3.893   7.584  1.3373 -1.1040 -1.7171
 2936SOL     OW20269   2.283   1.415   2.137 -0.3415  0.0971 -0.0090
 2936SOL    HW120270   2.357   1.374   2.182 -1.1713 -0.0007  1.2450
 2936SOL    HW220271   2.309   1.381   2.051 -0.6823  0.9427 -0.4544
 2937SOL     OW20272   1.197   3.718   3.492  0.0729  0.1095  0.6143
 2937SOL    HW120273   1.170   3.626   3.499  1.2974 -0.2090  1.1077
 2937SOL    HW220274   1.278   3.699   3.539  2.0112  0.5097 -2.5854
 2938SOL     OW20275   4.666   4.526   0.198  0.2689 -0.0310  0.0911
 2938SOL    HW120276   4.720   4.602   0.220 -0.1940  0.0043  1.1303
 2938SOL    HW220277   0.003   4.479   0.144  1.6542  2.7794 -0.7082
 2939SOL     OW20278   3.378   2.652   8.912  0.5335  0.4220  0.3142
 2939SOL    HW120279   3.294   2.613   8.935  0.6065 -0.1471 -0.3839
 2939SOL    HW220280   3.441   2.580   8.917 -1.5835 -1.2889  2.4039
 2940SOL     OW20281   1.719   0.501   4.152 -0.2851 -0.1614 -0.6216
 2940SOL    HW120282   1.759   0.470   4.071  1.4316  1.4081 -0.3653
 2940SOL    HW220283   1.791   0.499   4.215  0.7618 -0.9197 -1.8398
 2941SOL     OW20284   2.007   3.090   1.878 -0.2515 -0.2137 -0.0964
 2941SOL    HW120285   1.962   3.148   1.939 -1.0586  0.5776 -1.4546
 2941SOL    HW220286   2.065   3.151   1.832  0.8376  0.7908  2.5963
 2942SOL     OW20287   2.431   1.778   8.623 -0.3377  0.2325 -1.3011
 2942SOL    HW120288   2.483   1.796   8.702 -0.8192 -0.3933 -0.8383
 2942SOL    HW220289   2.499   1.765   8.556 -0.1946  2.9602 -1.6671
 2943SOL     OW20290   2.793   2.111   7.240 -0.5095 -0.4072 -0.3876
 2943SOL    HW120291   2.713   2.131   7.288  0.8349 -0.1915  1.7914
 2943SOL    HW220292   2.795   2.177   7.170  1.0295 -1.7116 -1.5787
 2944SOL     OW20293   0.912   2.635   8.968  0.5937 -0.3571 -0.2188
 2944SOL    HW120294   0.877   2.714   9.009  0.1706 -0.3402 -0.6083
 2944SOL    HW220295   0.839   2.574   8.983 -0.6022  1.4780  1.4633
 2945SOL     OW20296   0.527   1.066  11.069 -0.3111 -0.1514 -0.4634
 2945SOL    HW120297   0.595   1.049  11.134  0.4007  0.5748 -1.0223
 2945SOL    HW220298   0.532   0.986  11.017 -1.5478  0.4965 -1.5824
 2946SOL     OW20299   0.440   2.452  13.569  0.7075 -0.6225 -0.1421
 2946SOL    HW120300   0.349   2.443  13.596  0.7293 -1.1269 -0.2357
 2946SOL    HW220301   0.451   2.546  13.556  1.5271 -0.1530  3.8824
 2947SOL     OW20302   1.756   3.843   6.709  0.2739 -0.1270  0.1214
 2947SOL    HW120303   1.689   3.780   6.683  0.6542 -0.2501 -0.5654
 2947SOL    HW220304   1.782   3.878   6.623 -0.6689  1.1088  0.3418
 2948SOL     OW20305   3.036   2.985   8.187 -0.6071  0.3263 -0.4386
 2948SOL    HW120306   3.034   2.894   8.158  1.9344  0.0376  0.2167
 2948SOL    HW220307   2.976   2.980   8.262  1.2833 -2.5379  0.8992
 2949SOL     OW20308   0.681   0.341  15.291  0.1518 -0.6004  0.3116
 2949SOL    HW120309   0.756   0.361  15.234 -0.5888 -0.6743 -0.7007
 2949SOL    HW220310   0.665   0.432  15.315  2.1879 -0.1500 -0.0598
 2950SOL     OW20311   0.170   4.585  13.407  0.1237  0.4821 -0.0172
 2950SOL    HW120312   0.183   4.584  13.312  1.1720 -0.2398  0.1326
 2950SOL    HW220313   0.186   4.492  13.422 -0.1143  0.1384 -1.8392
 2951SOL     OW20314   1.536   0.698   4.214 -0.5768  0.2703 -0.1923
 2951SOL    HW120315   1.587   0.764   4.260  0.9207 -1.1750  0.2237
 2951SOL    HW220316   1.594   0.631   4.179 -0.6797 -0.3763  0.8743
 2952SOL     OW20317   1.840   2.803   3.324  0.0297  0.0201  0.3603
 2952SOL    HW120318   1.908   2.759   3.375  1.6712  0.2497 -1.6227
 2952SOL    HW220319   1.782   2.728   3.315 -2.4423  1.8130  1.2800
 2953SOL     OW20320   2.853   3.971   4.911 -0.5796 -0.4796 -0.5657
 2953SOL    HW120321   2.842   3.926   4.828 -0.0981 -2.5780  0.4988
 2953SOL    HW220322   2.900   4.046   4.875  1.1348 -1.6628 -0.8030
 2954SOL     OW20323   4.173   0.852   6.713  0.1721  0.6260  0.1739
 2954SOL    HW120324   4.108   0.802   6.664 -0.9683  0.2244  2.1217
 2954SOL    HW220325   4.230   0.871   6.638  1.1626 -2.2031  0.1932
 2955SOL     OW20326   2.768   3.375  17.256  1.0491  0.2991  0.0909
 2955SOL    HW120327   2.725   3.461  17.257  0.4855 -0.0010  2.0459
 2955SOL    HW220328   2.847   3.396  17.305 -1.0291  1.2812  3.0342
 2956SOL     OW20329   1.460   1.517   2.076  0.2873  0.3850 -0.6899
 2956SOL    HW120330   1.503   1.433   2.057 -0.2066 -0.0918  0.3042
 2956SOL    HW220331   1.450   1.558   1.990  1.5002  1.1117 -0.4818
 2957SOL     OW20332   3.928   3.626   3.147 -0.7175 -0.0695  0.1381
 2957SOL    HW120333   3.860   3.693   3.145 -0.1518  0.4305 -2.8806
 2957SOL    HW220334   4.004   3.664   3.191 -0.0668 -0.5435 -0.5788
 2958SOL     OW20335   1.530   3.328   5.580 -0.5876 -0.0092 -0.0020
 2958SOL    HW120336   1.584   3.296   5.507 -0.3007 -2.2210  1.1861
 2958SOL    HW220337   1.443   3.289   5.576 -1.0249  1.1310 -1.8433
 2959SOL     OW20338   3.973   2.025   8.670 -0.5675 -0.0095  0.6312
 2959SOL    HW120339   3.977   2.120   8.664  1.0097 -0.0443  1.0599
 2959SOL    HW220340   3.879   2.007   8.664 -0.7087  0.6839  0.7966
 2960SOL     OW20341   0.819   2.382   7.942  0.2761  0.2103 -0.0773
 2960SOL    HW120342   0.747   2.436   7.975 -2.6051 -1.5695 -3.5057
 2960SOL    HW220343   0.888   2.442   7.914  1.4204 -0.9640  0.2683
 2961SOL     OW20344   2.214   3.383   7.164  0.3360 -0.3015 -0.0545
 2961SOL    HW120345   2.198   3.292   7.190 -0.5653 -0.7569 -2.1959
 2961SOL    HW220346   2.135   3.433   7.187  0.6824  0.1761  0.0776
 2962SOL     OW20347   3.129   1.342   4.275  0.1390  0.4129  0.0808
 2962SOL    HW120348   3.106   1.249   4.270 -1.3697  0.6858  1.8389
 2962SOL    HW220349   3.106   1.367   4.186  0.6208 -1.9154 -0.6762
 2963SOL     OW20350   3.219   2.764  16.367 -0.0608 -0.2707  0.2315
 2963SOL    HW120351   3.201   2.688  16.422  1.2118 -0.9010 -0.2417
 2963SOL    HW220352   3.211   2.837  16.429  0.2968  0.0968 -0.1501
 2964SOL     OW20353   3.007   0.713  16.155  0.1641 -0.2471  0.9744
 2964SOL    HW120354   2.976   0.803  16.155 -0.7593 -0.5597  0.0101
 2964SOL    HW220355   2.936   0.665  16.112 -0.5528  0.6163  1.1987
 2965SOL     OW20356   2.994   4.215   5.842 -0.1872  0.8565 -0.1989
 2965SOL    HW120357   3.052   4.281   5.882  0.7558 -1.4827  2.3232
 2965SOL    HW220358   3.026   4.133   5.878 -2.0743  0.5539  0.7909
 2966SOL     OW20359   1.811   0.346   9.602 -0.4418  0.1251  0.4892
 2966SOL    HW120360   1.894   0.339   9.650 -0.8603 -1.1399  1.0291
 2966SOL    HW220361   1.743   0.307   9.657 -0.1343 -1.2169 -0.0757
 2967SOL     OW20362   3.493   1.254  11.517  0.3302 -0.1743  0.3644
 2967SOL    HW120363   3.429   1.324  11.505  1.2733  0.4393 -1.1417
 2967SOL    HW220364   3.452   1.176  11.480  0.8440 -0.4758  0.4370
 2968SOL     OW20365   4.520   1.160   6.794  0.8628  0.3146 -0.3844
 2968SOL    HW120366   4.568   1.078   6.810 -1.0358 -0.6785  0.1594
 2968SOL    HW220367   4.448   1.165   6.857  0.0953  2.2677 -1.4150
 2969SOL     OW20368   0.771   0.307   3.732 -0.6893 -0.2041  0.4481
 2969SOL    HW120369   0.726   0.249   3.670 -0.9607 -0.1202  0.5642
 2969SOL    HW220370   0.695   0.312   3.790 -2.6486 -1.5261 -2.0007
 2970SOL     OW20371   4.323   2.824   4.197 -0.6891 -0.0920  0.2326
 2970SOL    HW120372   4.331   2.729   4.190  1.0073  0.0927 -0.3602
 2970SOL    HW220373   4.414   2.852   4.187 -0.9663  0.4222 -0.8264
 2971SOL     OW20374   4.311   1.881   5.352  0.0340  0.1838 -0.7461
 2971SOL    HW120375   4.286   1.964   5.392 -2.0385 -1.3125  1.0106
 2971SOL    HW220376   4.249   1.876   5.279  1.1617 -2.0553 -1.5677
 2972SOL     OW20377   2.052   2.232  16.754 -0.6068 -0.0948 -0.0762
 2972SOL    HW120378   1.996   2.309  16.750  0.7233  0.9063  0.7843
 2972SOL    HW220379   2.105   2.237  16.675 -0.7234  0.1914 -0.1352
 2973SOL     OW20380   4.529   4.456   8.659 -0.3439 -0.3200 -0.3654
 2973SOL    HW120381   4.472   4.427   8.588  0.0635  0.0864 -0.8562
 2973SOL    HW220382   4.603   4.394   8.664 -0.4657 -0.2240  2.7294
 2974SOL     OW20383   0.536   3.770   1.735 -0.1544  0.0855  0.5339
 2974SOL    HW120384   0.508   3.821   1.659 -0.6369  1.3122  1.5340
 2974SOL    HW220385   0.632   3.778   1.734 -0.3434  2.1679 -0.1307
 2975SOL     OW20386   4.526   3.718  16.195  0.2162  0.1538 -0.7266
 2975SOL    HW120387   4.523   3.622  16.188 -3.2780  0.3466 -1.7640
 2975SOL    HW220388   4.433   3.736  16.206  0.3765  0.4530  0.1257
 2976SOL     OW20389   3.549   3.910   0.577  0.2503 -0.0686  0.2368
 2976SOL    HW120390   3.625   3.852   0.568 -0.4022 -1.2987  2.6538
 2976SOL    HW220391   3.503   3.852   0.639  0.1074  0.7327  0.8814
 2977SOL     OW20392   2.988   3.916  16.904 -0.7735 -0.2221  0.0451
 2977SOL    HW120393   3.017   3.999  16.865  0.8321 -0.3058  1.0797
 2977SOL    HW220394   2.895   3.936  16.915 -0.8132 -0.0952 -0.4749
 2978SOL     OW20395   4.405   3.608   2.804 -0.2747  0.1390  0.5750
 2978SOL    HW120396   4.385   3.580   2.714  0.0368 -1.2783  0.9551
 2978SOL    HW220397   4.378   3.537   2.861 -1.6231  0.4799  0.3827
 2979SOL     OW20398   0.013   1.763   2.329  0.3347 -0.0832 -0.2875
 2979SOL    HW120399   0.047   1.711   2.402  0.8727  2.4104  1.2213
 2979SOL    HW220400   4.656   1.717   2.324  0.7371 -0.9446  0.7508
 2980SOL     OW20401   2.354   2.160  13.697 -0.0649 -0.0227 -0.0808
 2980SOL    HW120402   2.285   2.144  13.632  1.3149 -0.9354 -1.3176
 2980SOL    HW220403   2.382   2.070  13.711 -3.1799 -0.8003  1.1818
 2981SOL     OW20404   4.578   2.247  12.135  0.5864  0.4869  0.2996
 2981SOL    HW120405   4.581   2.152  12.146 -2.2186  0.5986  2.0891
 2981SOL    HW220406   4.555   2.268  12.045 -0.9425  2.2734  1.1129
 2982SOL     OW20407   3.563   0.992   4.245 -0.2450  0.1285  0.5277
 2982SOL    HW120408   3.546   1.083   4.268 -4.2816 -0.7833  1.1340
 2982SOL    HW220409   3.659   0.993   4.248 -0.2711 -0.7986  1.8113
 2983SOL     OW20410   2.501   1.677   0.586  1.0005  0.1883  0.2276
 2983SOL    HW120411   2.561   1.692   0.513  1.3318  0.2445  0.5121
 2983SOL    HW220412   2.478   1.769   0.604  0.9508  0.4424 -1.0792
 2984SOL     OW20413   0.351   2.373   5.426  0.4006 -0.2613 -0.5985
 2984SOL    HW120414   0.277   2.405   5.479  1.2325  1.2987 -0.4073
 2984SOL    HW220415   0.316   2.291   5.392 -0.2637  0.0416 -0.6515
 2985SOL     OW20416   3.130   1.409   2.526 -0.6781  0.8057 -0.6454
 2985SOL    HW120417   3.196   1.392   2.458 -0.6025  0.0899 -0.3966
 2985SOL    HW220418   3.152   1.498   2.552 -0.5176  0.5482  0.1093
 2986SOL     OW20419   3.143   0.659   2.417 -0.1595  0.2234  0.7426
 2986SOL    HW120420   3.111   0.746   2.442 -0.9218  0.4574 -1.0358
 2986SOL    HW220421   3.234   0.668   2.389 -0.9048 -0.6188 -1.9627
 2987SOL     OW20422   1.868   0.947   4.551 -0.2687 -0.4934  0.5738
 2987SOL    HW120423   1.893   1.037   4.569 -2.5380 -0.1422  1.9147
 2987SOL    HW220424   1.774   0.948   4.570 -0.2930  0.0829  0.4132
 2988SOL     OW20425   0.373   0.062   3.347  0.1964  0.0404 -0.3550
 2988SOL    HW120426   0.391   0.156   3.357 -0.1340  0.1486 -0.7787
 2988SOL    HW220427   0.466   0.038   3.338 -0.1837 -2.2418  1.9294
 2989SOL     OW20428   4.613   3.443   7.368  0.0909  0.2333  0.5606
 2989SOL    HW120429   4.523   3.426   7.393 -0.3772  0.4337 -0.9774
 2989SOL    HW220430   4.601   3.535   7.343 -0.3991 -0.3560 -1.3899
 2990SOL     OW20431   1.512   1.147   5.813  0.3830 -0.0336 -0.4452
 2990SOL    HW120432   1.476   1.156   5.901 -2.2387  3.2420 -1.8691
 2990SOL    HW220433   1.527   1.053   5.803  0.8478 -0.1696  1.5837
 2991SOL     OW20434   2.300   3.389   0.339 -0.7303 -0.1306 -0.8141
 2991SOL    HW120435   2.342   3.415   0.256  2.5683 -1.6865  0.3702
 2991SOL    HW220436   2.306   3.294   0.335 -0.9728 -0.2855  2.7590
 2992SOL     OW20437   1.715   3.559   7.825 -0.1962  0.0265 -0.2016
 2992SOL    HW120438   1.652   3.490   7.803  2.1918 -2.6064  1.2879
 2992SOL    HW220439   1.787   3.501   7.848  0.9995  1.5063 -0.2398
 2993SOL     OW20440   1.730   3.651  16.386 -0.2726  0.6427 -0.5820
 2993SOL    HW120441   1.756   3.719  16.448 -0.9184  1.1682 -0.8911
 2993SOL    HW220442   1.675   3.701  16.326 -1.4749  1.7742  1.4616
 2994SOL     OW20443   0.850   4.013  10.189  0.1395 -0.1034  0.0905
 2994SOL    HW120444   0.822   3.939  10.135 -1.5675 -0.1142  0.9891
 2994SOL    HW220445   0.885   4.067  10.118  0.5331  0.8119  0.9822
 2995SOL     OW20446   2.773   0.029  17.142 -0.0678 -0.1148  0.4643
 2995SOL    HW120447   2.683   4.722  17.134  0.0747 -0.6716  1.2327
 2995SOL    HW220448   2.754   0.115  17.178  0.7347 -0.2076  1.0973
 2996SOL     OW20449   3.932   2.755   6.804  0.2000  0.0286  0.4085
 2996SOL    HW120450   3.994   2.799   6.747 -0.4297 -0.5642 -0.7378
 2996SOL    HW220451   3.986   2.737   6.881 -0.4330  1.2274  1.1277
 2997SOL     OW20452   4.348   4.704   5.405 -0.0248 -0.2434  0.2797
 2997SOL    HW120453   4.309   0.024   5.331  0.0794  0.9326  0.9583
 2997SOL    HW220454   4.347   4.617   5.365 -1.1614 -0.3135  0.4390
 2998SOL     OW20455   2.025   4.417  16.382 -0.3554 -0.0795 -0.0949
 2998SOL    HW120456   1.951   4.470  16.350 -1.4725 -1.2079  0.5964
 2998SOL    HW220457   1.980   4.334  16.368 -0.2999  0.1666 -1.7088
 2999SOL     OW20458   2.049   1.408   5.952  0.3971  0.1061 -0.2013
 2999SOL    HW120459   2.008   1.362   5.878  0.7797 -1.1519  0.3728
 2999SOL    HW220460   2.126   1.439   5.905 -0.4362  1.7608 -0.4789
 3000SOL     OW20461   4.448   2.058   3.043  0.0729  0.1803 -0.2662
 3000SOL    HW120462   4.429   1.991   2.977  0.8981  1.4547 -1.7919
 3000SOL    HW220463   4.427   2.129   2.982 -2.0059  0.1612  0.4069
 3001SOL     OW20464   1.771   0.860   3.232  0.0282  0.0808  0.1010
 3001SOL    HW120465   1.714   0.878   3.157  1.1381  1.6678 -0.3511
 3001SOL    HW220466   1.848   0.831   3.183 -1.0532 -3.2442  0.3369
 3002SOL     OW20467   2.804   4.657   1.125  0.8682  0.2527  0.1872
 3002SOL    HW120468   2.826   4.608   1.204  1.3219  2.8789  1.6704
 3002SOL    HW220469   2.793   4.583   1.065 -2.5643 -0.2334  1.3912
 3003SOL     OW20470   1.626   1.847   8.822 -0.0656 -0.8395  0.1980
 3003SOL    HW120471   1.622   1.752   8.813 -0.6241 -1.0080  2.2848
 3003SOL    HW220472   1.546   1.859   8.771  0.4603 -2.3920 -1.0163
 3004SOL     OW20473   1.357   1.678  16.618  0.0569  0.0323 -0.0227
 3004SOL    HW120474   1.281   1.732  16.639 -0.8863 -1.4839  0.4573
 3004SOL    HW220475   1.333   1.589  16.645 -0.1852  0.8485  2.4538
 3005SOL     OW20476   1.081   3.201  14.047  0.3937  0.0637 -0.1087
 3005SOL    HW120477   1.016   3.260  14.084  0.4659 -0.0295  0.1685
 3005SOL    HW220478   1.075   3.222  13.954  0.4894  1.8405  0.2754
 3006SOL     OW20479   1.754   0.769  13.208 -0.1456  0.4479 -0.2502
 3006SOL    HW120480   1.732   0.739  13.120  0.5404  0.4224 -0.4119
 3006SOL    HW220481   1.685   0.719  13.253 -1.2139  0.3365 -2.0018
 3007SOL     OW20482   1.997   4.343  10.415 -0.5478  0.3975 -0.4629
 3007SOL    HW120483   2.010   4.390  10.498  0.0788 -2.4090  1.0260
 3007SOL    HW220484   2.025   4.407  10.350 -0.0540 -1.1358 -1.7680
 3008SOL     OW20485   0.266   1.785   3.267  0.7137 -0.2028  0.3471
 3008SOL    HW120486   0.288   1.783   3.360  0.3442 -0.1730  0.4329
 3008SOL    HW220487   0.214   1.706   3.257 -0.4225  0.4781  0.9271
 3009SOL     OW20488   3.474   0.597   7.223  0.0595 -0.2483 -0.2478
 3009SOL    HW120489   3.556   0.642   7.242  0.6537 -0.6553 -1.9041
 3009SOL    HW220490   3.433   0.618   7.307 -2.3246  0.7230 -1.6346
 3010SOL     OW20491   1.782   2.716  13.922 -0.7733  0.5426  0.4834
 3010SOL    HW120492   1.875   2.697  13.908 -0.1430  3.5508  0.5902
 3010SOL    HW220493   1.774   2.796  13.870  0.1070  0.2896 -0.0413
 3011SOL     OW20494   4.053   4.387   7.300 -0.0319  0.1801 -0.2609
 3011SOL    HW120495   4.039   4.481   7.290  3.0351  0.7797  1.1266
 3011SOL    HW220496   4.102   4.355   7.225  1.8794 -0.5073  1.2829
 3012SOL     OW20497   0.103   3.016   1.637  0.1720 -0.2641 -0.1965
 3012SOL    HW120498   0.118   3.106   1.664 -0.7516 -0.0717 -0.3022
 3012SOL    HW220499   0.018   3.001   1.681  0.3995 -0.6740  0.1095
 3013SOL     OW20500   0.608   2.526   5.866  0.1724  0.0027  0.5813
 3013SOL    HW120501   0.526   2.527   5.915 -2.0273  0.7266 -3.0782
 3013SOL    HW220502   0.650   2.444   5.889  1.0805  0.1612 -0.5090
 3014SOL     OW20503   3.529   2.622   6.343 -0.0612 -0.2858  0.4051
 3014SOL    HW120504   3.623   2.639   6.337  0.0177 -0.8929 -0.0939
 3014SOL    HW220505   3.487   2.700   6.308  0.9211 -0.3895 -0.9786
 3015SOL     OW20506   3.642   0.776   6.977 -0.3258 -0.3531 -0.1082
 3015SOL    HW120507   3.687   0.693   6.962  1.4720  0.4807  0.7902
 3015SOL    HW220508   3.548   0.760   6.992 -0.4429  1.3535  1.0857
 3016SOL     OW20509   0.002   4.273  14.859 -0.4620 -0.1095 -0.3100
 3016SOL    HW120510   4.646   4.320  14.871  0.5407  1.7556 -0.6376
 3016SOL    HW220511   0.065   4.340  14.886  0.1189 -0.4111 -0.9072
 3017SOL     OW20512   3.246   0.924   4.004  0.7447 -0.1009  0.2600
 3017SOL    HW120513   3.325   0.937   3.952  0.7574 -1.6811 -0.1326
 3017SOL    HW220514   3.288   0.956   4.084 -1.9860 -1.4571  2.2437
 3018SOL     OW20515   0.782   2.037   5.762  0.3705  0.2209  0.1866
 3018SOL    HW120516   0.845   2.061   5.830 -0.9129  0.3558  1.3229
 3018SOL    HW220517   0.819   2.079   5.684 -1.9230  0.3946 -0.8220
 3019SOL     OW20518   2.369   2.305   3.724  0.1683  0.4130  0.1474
 3019SOL    HW120519   2.409   2.229   3.765 -1.3256  0.1115  1.0472
 3019SOL    HW220520   2.373   2.281   3.631  0.3889 -0.4943  0.3906
 3020SOL     OW20521   4.502   1.059  13.319  0.5225 -0.3619  0.4405
 3020SOL    HW120522   4.571   1.106  13.366  1.0845 -2.1697  1.4052
 3020SOL    HW220523   4.461   1.134  13.276 -2.0833 -0.9475  1.8933
 3021SOL     OW20524   1.933   1.948   8.961 -0.1343 -1.1419 -0.1090
 3021SOL    HW120525   1.908   2.028   8.915  1.5803 -1.6425 -1.9076
 3021SOL    HW220526   2.026   1.941   8.940  0.1418  1.4405  0.2246
 3022SOL     OW20527   3.015   2.793   4.177  0.2496 -0.5115 -0.4528
 3022SOL    HW120528   3.014   2.889   4.174  3.0506 -0.5438 -1.5835
 3022SOL    HW220529   2.922   2.773   4.194  0.4712 -0.1631  1.1998
 3023SOL     OW20530   0.241   3.005   7.478  0.2857 -0.1722 -0.1556
 3023SOL    HW120531   0.271   2.919   7.508  3.0285 -0.7230 -4.3457
 3023SOL    HW220532   0.316   3.064   7.466 -0.0846  0.0503 -1.3332
 3024SOL     OW20533   0.521   2.399   8.204 -0.5117 -0.1904  0.0534
 3024SOL    HW120534   0.478   2.392   8.290  1.1473  0.2177  0.9167
 3024SOL    HW220535   0.512   2.314   8.160  0.7459  0.0773 -0.6966
 3025SOL     OW20536   2.450   3.396  10.749  0.2097 -0.3082 -0.2265
 3025SOL    HW120537   2.539   3.360  10.752 -0.1413 -1.2784 -1.5745
 3025SOL    HW220538   2.439   3.403  10.844  1.1917 -2.7350  0.0570
 3026SOL     OW20539   4.024   4.025   7.127  0.4242 -0.0032 -0.4036
 3026SOL    HW120540   4.003   3.932   7.133  1.0482 -0.0672  0.8165
 3026SOL    HW220541   3.986   4.053   7.211  0.1102  0.7506 -0.7957
 3027SOL     OW20542   3.449   3.368  12.709 -0.7811 -0.3631 -0.1626
 3027SOL    HW120543   3.467   3.362  12.803  1.1695  1.6097 -0.4257
 3027SOL    HW220544   3.429   3.462  12.711 -0.2874 -0.2895  1.6655
 3028SOL     OW20545   1.004   3.881   7.404 -0.4934  0.3494 -0.4927
 3028SOL    HW120546   1.023   3.872   7.497  0.1843  1.1594 -0.5519
 3028SOL    HW220547   1.044   3.961   7.370  0.7216 -0.0575 -0.0279
 3029SOL     OW20548   4.674   1.042   7.251 -0.0441 -0.5155  0.2347
 3029SOL    HW120549   4.677   1.072   7.342  1.8103  0.2079 -0.0715
 3029SOL    HW220550   4.632   1.116   7.208 -1.8888 -1.7872 -0.1814
 3030SOL     OW20551   2.071   0.443   5.077  0.0690 -0.1750  0.4125
 3030SOL    HW120552   2.012   0.414   5.006  0.8310 -1.1069  0.1652
 3030SOL    HW220553   2.157   0.447   5.036 -0.2939 -1.0275 -0.4416
 3031SOL     OW20554   1.682   3.657  10.422  0.2693 -0.2124  0.2669
 3031SOL    HW120555   1.674   3.586  10.358  0.7790 -0.2138  0.2084
 3031SOL    HW220556   1.764   3.694  10.389 -0.1931  2.0110  1.5997
 3032SOL     OW20557   0.545   4.268   8.636 -0.2903  0.5121 -0.2020
 3032SOL    HW120558   0.473   4.327   8.617 -1.2750 -0.3162  1.0110
 3032SOL    HW220559   0.591   4.296   8.716 -0.7826 -0.3316  0.3789
 3033SOL     OW20560   2.053   3.613   0.050 -0.6392 -0.0804  0.1390
 3033SOL    HW120561   2.081   3.639   0.138 -0.5969  1.2372 -0.2676
 3033SOL    HW220562   2.138   3.607   0.006 -0.5670  0.0832  0.2546
 3034SOL     OW20563   1.218   1.477  14.203  0.0176  0.2812  0.4572
 3034SOL    HW120564   1.236   1.483  14.109 -0.2097  1.6595  0.4976
 3034SOL    HW220565   1.189   1.386  14.199  0.0842  0.3128 -0.8427
 3035SOL     OW20566   0.132   0.096  12.731 -1.0415 -0.2522 -0.1352
 3035SOL    HW120567   0.137   0.055  12.645  1.0785  0.6994 -0.4506
 3035SOL    HW220568   0.156   0.186  12.712  0.0001 -0.6160 -0.5334
 3036SOL     OW20569   4.602   3.905   9.004 -0.5963  0.4066 -0.1034
 3036SOL    HW120570   4.673   3.940   8.950  1.0515 -1.7652  0.6404
 3036SOL    HW220571   4.558   3.848   8.940 -0.7763  1.7984 -1.2180
 3037SOL     OW20572   3.897   2.270   3.637 -0.8245 -0.2250 -0.2955
 3037SOL    HW120573   3.876   2.184   3.600 -0.0324 -0.3728 -0.4022
 3037SOL    HW220574   3.811   2.311   3.640 -0.5704  0.3557 -0.8842
 3038SOL     OW20575   0.058   2.982  12.859  0.2365 -0.3842 -0.0924
 3038SOL    HW120576   0.095   3.068  12.838 -0.8037  0.6016  2.1428
 3038SOL    HW220577   0.014   3.005  12.941 -1.4769 -0.2993 -1.0310
 3039SOL     OW20578   3.875   0.940   7.706  0.1105  0.1613  0.6741
 3039SOL    HW120579   3.799   0.952   7.762  0.2826  0.8919  0.7471
 3039SOL    HW220580   3.859   1.000   7.633  0.7351  0.5572  0.8649
 3040SOL     OW20581   1.776   1.574   0.648 -0.2646 -0.7723 -0.0009
 3040SOL    HW120582   1.741   1.662   0.659 -1.4615 -1.4932  1.8694
 3040SOL    HW220583   1.798   1.553   0.738 -2.3798 -0.5995  0.5488
 3041SOL     OW20584   2.613   2.769   8.464  0.3588  0.6457  0.2737
 3041SOL    HW120585   2.567   2.695   8.503 -0.2551  0.3654 -0.9601
 3041SOL    HW220586   2.660   2.805   8.538 -0.7087  0.4960  1.0239
 3042SOL     OW20587   3.666   2.160  15.961 -0.1930 -0.1644  0.0959
 3042SOL    HW120588   3.725   2.120  15.898 -0.1449  0.8321 -0.4964
 3042SOL    HW220589   3.626   2.081  15.995  0.3450 -0.4401  0.0843
 3043SOL     OW20590   2.040   3.707   4.436  0.0894 -0.1980  0.0386
 3043SOL    HW120591   1.949   3.724   4.459  0.3559 -0.1554  1.0360
 3043SOL    HW220592   2.015   3.631   4.384  0.3283  0.5953 -1.2415
 3044SOL     OW20593   2.792   0.420   4.047  0.2384 -0.2582  0.0143
 3044SOL    HW120594   2.882   0.419   4.014 -0.3782 -0.5112 -1.6971
 3044SOL    HW220595   2.748   0.366   3.981  0.9794 -2.0164  0.9617
 3045SOL     OW20596   3.523   0.431   2.668  0.1937 -0.0936  0.6313
 3045SOL    HW120597   3.600   0.390   2.630 -1.7414 -1.1898 -2.1214
 3045SOL    HW220598   3.568   0.466   2.745 -1.7497  0.7128  1.4099
 3046SOL     OW20599   4.378   1.509  15.035  0.1187  0.3721  0.1260
 3046SOL    HW120600   4.432   1.430  15.030  1.4414  1.3029 -0.3775
 3046SOL    HW220601   4.449   1.572  15.026 -0.2283  0.6993 -0.3217
 3047SOL     OW20602   0.362   2.600   2.111 -0.0093  0.2699  0.1080
 3047SOL    HW120603   0.339   2.562   2.196  0.0080 -0.3310 -0.1560
 3047SOL    HW220604   0.455   2.579   2.106 -0.1161 -0.2735  0.4159
 3048SOL     OW20605   3.540   1.887  11.493  0.7191 -0.6198  0.0470
 3048SOL    HW120606   3.535   1.963  11.435  2.3693 -0.0659  0.6457
 3048SOL    HW220607   3.592   1.821  11.449 -0.3352 -0.8988 -0.7788
 3049SOL     OW20608   2.809   1.335   8.428  0.6694  0.5278 -0.5290
 3049SOL    HW120609   2.839   1.382   8.350  1.3768 -0.5251 -0.8984
 3049SOL    HW220610   2.865   1.258   8.430 -0.1183 -0.0822 -2.1408
 3050SOL     OW20611   2.830   1.111   6.796  0.3741 -0.8342 -0.0259
 3050SOL    HW120612   2.760   1.090   6.735  0.4487 -1.0616 -0.0361
 3050SOL    HW220613   2.895   1.151   6.739  1.4394  1.2870  2.6459
 3051SOL     OW20614   3.751   1.556  13.361 -0.4838  0.5780 -0.0856
 3051SOL    HW120615   3.776   1.639  13.321  1.6617 -0.1999 -0.3580
 3051SOL    HW220616   3.719   1.510  13.284  3.2278  1.7522 -2.3092
 3052SOL     OW20617   4.712   3.265   5.512 -0.1814  0.1882 -0.0679
 3052SOL    HW120618   4.691   3.195   5.450  1.2266  0.6974 -1.1195
 3052SOL    HW220619   0.079   3.248   5.521 -0.1298  1.6340  2.1034
 3053SOL     OW20620   2.576   0.843   0.433 -0.0700  0.3769 -0.5159
 3053SOL    HW120621   2.576   0.753   0.402  0.4801 -0.0140  0.6226
 3053SOL    HW220622   2.664   0.848   0.471 -0.0399  0.4407 -0.5930
 3054SOL     OW20623   1.928   0.874   1.264  0.0729  0.3286 -0.0030
 3054SOL    HW120624   1.974   0.896   1.346  3.8834 -0.8215 -1.8187
 3054SOL    HW220625   1.885   0.958   1.253  1.2391  0.7861 -1.0345
 3055SOL     OW20626   4.440   3.263   2.242  0.3114  0.3348 -0.4056
 3055SOL    HW120627   4.349   3.248   2.219  0.0554  1.3723 -0.0511
 3055SOL    HW220628   4.475   3.225   2.161  0.3838  0.6602 -0.5246
 3056SOL     OW20629   0.102   3.937   1.626 -0.3498 -0.1988 -0.1555
 3056SOL    HW120630   0.168   3.983   1.678 -1.4563  0.2577  0.8581
 3056SOL    HW220631   0.077   4.007   1.566  0.5991  0.5358  0.2976
 3057SOL     OW20632   2.727   0.279   0.021 -0.1608 -0.3110 -0.2852
 3057SOL    HW120633   2.807   0.319   0.055 -0.8542  0.5054  0.4099
 3057SOL    HW220634   2.707   0.343  17.660 -0.4978 -2.2865 -2.0144
 3058SOL     OW20635   0.564   3.269  12.441 -0.1012 -0.4650  0.6237
 3058SOL    HW120636   0.591   3.199  12.501  0.5072 -1.1318 -0.4245
 3058SOL    HW220637   0.478   3.235  12.414  0.7886 -1.5762 -0.8619
 3059SOL     OW20638   3.783   1.927   8.140  0.2029  0.2633  0.4817
 3059SOL    HW120639   3.867   1.954   8.177 -0.2133  2.5434 -0.2405
 3059SOL    HW220640   3.733   1.958   8.215 -0.4124  0.1234  0.1269
 3060SOL     OW20641   3.016   0.818  13.514  0.2748  0.6153  0.3446
 3060SOL    HW120642   2.924   0.837  13.529  0.1143  1.3995 -1.5779
 3060SOL    HW220643   3.009   0.724  13.529 -0.1468  0.4395 -0.9007
 3061SOL     OW20644   4.099   0.232  16.373 -0.3871  0.0988 -0.4874
 3061SOL    HW120645   4.127   0.300  16.312 -1.6264  0.9708 -0.1041
 3061SOL    HW220646   4.141   0.250  16.457 -0.5401  0.4512 -0.4850
 3062SOL     OW20647   3.926   2.454   2.904  0.4496 -0.0001 -0.1371
 3062SOL    HW120648   3.908   2.361   2.914  0.3784  0.0030 -0.2403
 3062SOL    HW220649   3.867   2.481   2.975 -0.0118  0.9631 -0.8863
 3063SOL     OW20650   1.153   4.723   6.299  0.4413  0.5128 -0.1217
 3063SOL    HW120651   1.096   4.692   6.228 -0.4655  0.2442  0.7138
 3063SOL    HW220652   1.099   0.040   6.366 -1.2184  0.3133 -1.3323
 3064SOL     OW20653   4.398   3.583   2.270 -0.1921  0.0651 -0.1127
 3064SOL    HW120654   4.349   3.523   2.213  0.5832 -1.8211  1.2271
 3064SOL    HW220655   4.445   3.644   2.213 -0.3460  0.0284 -0.2798
 3065SOL     OW20656   3.490   2.825   6.586 -0.0449 -0.0995  0.2820
 3065SOL    HW120657   3.477   2.837   6.491 -0.7817 -0.0587  0.3858
 3065SOL    HW220658   3.579   2.792   6.574 -0.3045 -0.3066 -1.1568
 3066SOL     OW20659   2.750   2.578  11.349 -0.4074  0.8049 -0.1434
 3066SOL    HW120660   2.790   2.557  11.433  0.4632 -0.8600 -0.9559
 3066SOL    HW220661   2.657   2.561  11.365 -0.4631 -0.3570 -1.7136
 3067SOL     OW20662   0.320   3.491  12.560 -0.0973 -0.4644  0.4055
 3067SOL    HW120663   0.294   3.449  12.478 -0.2051 -0.2381  0.3239
 3067SOL    HW220664   0.332   3.418  12.620  0.9829  0.0580  0.8235
 3068SOL     OW20665   4.690   1.419   3.691 -0.4485 -0.1626  0.4204
 3068SOL    HW120666   4.638   1.341   3.709  0.4431 -0.5592  1.2540
 3068SOL    HW220667   0.005   1.412   3.777 -2.2150  0.4251  1.3285
 3069SOL     OW20668   2.113   2.832   7.815  0.5750  0.2592 -0.1708
 3069SOL    HW120669   2.060   2.753   7.817 -0.4642  0.9518 -0.7511
 3069SOL    HW220670   2.193   2.806   7.863 -0.1842 -0.6679  0.5986
 3070SOL     OW20671   0.969   4.502   9.095  0.3815  0.6354  0.1492
 3070SOL    HW120672   1.022   4.582   9.099  2.1304 -0.4401 -1.2238
 3070SOL    HW220673   0.927   4.516   9.010  2.7699 -0.6382 -1.2448
 3071SOL     OW20674   0.089   4.705   0.545  0.0263 -0.2940 -0.5055
 3071SOL    HW120675   4.720   4.704   0.551 -0.0371 -1.0427 -1.5408
 3071SOL    HW220676   0.102   0.073   0.557  1.4509 -0.5114 -0.3833
 3072SOL     OW20677   4.404   2.396   5.384 -0.4879 -0.0678  0.3051
 3072SOL    HW120678   4.320   2.441   5.371 -0.2430 -0.2254 -1.8765
 3072SOL    HW220679   4.468   2.467   5.382 -0.7711  0.1591 -1.0700
 3073SOL     OW20680   1.364   2.474   2.263  0.2135  0.3195  0.0613
 3073SOL    HW120681   1.412   2.422   2.198 -0.7173  0.7302 -0.9622
 3073SOL    HW220682   1.272   2.454   2.243  0.2431 -0.2145  0.4706
 3074SOL     OW20683   3.761   2.463   4.818 -0.3928 -0.9008  0.4780
 3074SOL    HW120684   3.779   2.372   4.794  0.1074 -0.4998 -0.6310
 3074SOL    HW220685   3.827   2.466   4.887 -0.5865  0.3604  0.6007
 3075SOL     OW20686   2.219   4.671  17.101 -0.5884 -0.9506 -0.2138
 3075SOL    HW120687   2.179   4.664  17.014 -3.4255  0.3553  0.9821
 3075SOL    HW220688   2.141   4.664  17.156 -1.2164 -0.9024 -1.1029
 3076SOL     OW20689   3.891   4.114  14.145  0.5391 -0.6820 -0.1794
 3076SOL    HW120690   3.867   4.202  14.117  2.8058  0.4662  1.5107
 3076SOL    HW220691   3.910   4.071  14.062  0.9212  0.4699 -0.6873
 3077SOL     OW20692   3.250   4.632   3.653 -0.1555  0.3412  0.0079
 3077SOL    HW120693   3.246   4.664   3.563 -1.0584 -0.4540 -0.2468
 3077SOL    HW220694   3.233   4.705   3.712  0.4839  0.4403  0.0688
 3078SOL     OW20695   2.108   1.448   2.359  0.2666  0.7013  0.1080
 3078SOL    HW120696   2.151   1.430   2.275  1.4569  2.4493  0.3322
 3078SOL    HW220697   2.146   1.533   2.382 -1.3284  1.2032  0.8762
 3079SOL     OW20698   3.355   1.079  11.365 -0.1222  0.0773  0.0594
 3079SOL    HW120699   3.407   1.000  11.379 -0.2914  0.2113  1.4560
 3079SOL    HW220700   3.289   1.050  11.302  0.1057  0.9083 -0.5524
 3080SOL     OW20701   2.219   2.639  17.625  0.2125  0.1007 -0.5068
 3080SOL    HW120702   2.260   2.561  17.662 -1.5238  0.0106  1.2180
 3080SOL    HW220703   2.204   2.621  17.532 -0.2361  1.4839 -0.6972
 3081SOL     OW20704   0.602   1.949   0.379 -0.6581 -0.2837  0.7821
 3081SOL    HW120705   0.581   1.986   0.294 -2.2554  0.7885  1.6551
 3081SOL    HW220706   0.553   2.005   0.439  3.2789  2.3832  1.5336
 3082SOL     OW20707   0.661   2.374   4.135  0.3938 -0.0235  0.4414
 3082SOL    HW120708   0.580   2.354   4.182 -0.4262  3.0394  0.3247
 3082SOL    HW220709   0.672   2.469   4.147  0.1609  0.3235 -2.2225
 3083SOL     OW20710   4.557   1.058  11.948  0.7530  0.1142  0.0466
 3083SOL    HW120711   4.503   0.991  11.992  1.7419  0.5124  1.8463
 3083SOL    HW220712   4.554   1.015  11.863  0.0140  1.4665 -0.6130
 3084SOL     OW20713   0.276   2.077   8.558 -0.5697  0.0451 -0.9526
 3084SOL    HW120714   0.329   2.005   8.593  0.2851  0.9030 -0.4875
 3084SOL    HW220715   0.219   2.091   8.634  2.8284  2.3931  1.1571
 3085SOL     OW20716   0.833   2.179   5.550 -0.8467  0.3737 -0.2664
 3085SOL    HW120717   0.748   2.218   5.570 -1.9921 -1.7155 -1.0820
 3085SOL    HW220718   0.870   2.255   5.505  0.4416 -0.8159 -1.2049
 3086SOL     OW20719   3.496   2.556   6.698  0.0802 -0.0465 -0.5410
 3086SOL    HW120720   3.417   2.528   6.651 -0.4842 -0.5399  0.6914
 3086SOL    HW220721   3.522   2.630   6.643  0.4371  0.4566  0.2988
 3087SOL     OW20722   2.761   3.669  14.079 -0.1771 -0.0593  0.0385
 3087SOL    HW120723   2.753   3.583  14.121  0.1342  0.6723  1.5647
 3087SOL    HW220724   2.682   3.696  14.125  0.4059  2.4291 -0.4251
 3088SOL     OW20725   4.001   0.581  12.067  0.2157 -0.1227 -0.5632
 3088SOL    HW120726   3.907   0.593  12.085  0.0200  0.8695 -2.2083
 3088SOL    HW220727   3.996   0.534  11.984 -0.2933  0.5398 -0.9117
 3089SOL     OW20728   4.707   2.434  13.277  0.0419 -0.1891  0.0121
 3089SOL    HW120729   0.015   2.420  13.189  1.0362 -2.3830  0.7488
 3089SOL    HW220730   0.029   2.507  13.315  0.0633 -0.4473  0.4776
 3090SOL     OW20731   1.792   1.500   6.610  0.0957 -0.0164  0.1964
 3090SOL    HW120732   1.794   1.561   6.536  1.3570 -1.1652 -0.7160
 3090SOL    HW220733   1.882   1.474   6.628  0.1700 -1.3386 -2.1647
 3091SOL     OW20734   0.137   3.145   8.803  0.8405 -0.2948 -0.2567
 3091SOL    HW120735   0.050   3.184   8.800 -0.3838 -2.9394  1.5982
 3091SOL    HW220736   0.194   3.222   8.801  0.0176  0.3054 -0.7440
 3092SOL     OW20737   0.658   4.278   8.148  0.2267 -0.3111  0.4376
 3092SOL    HW120738   0.639   4.256   8.239  0.5405 -1.8560  0.1237
 3092SOL    HW220739   0.741   4.323   8.162  0.4730 -1.2429  1.9056
 3093SOL     OW20740   4.131   2.598   3.900 -0.6382  0.0259 -0.3859
 3093SOL    HW120741   4.204   2.538   3.884 -0.9313 -0.3872 -0.2038
 3093SOL    HW220742   4.087   2.565   3.979  0.7897 -0.2767  0.2875
 3094SOL     OW20743   3.488   1.603  13.976 -0.1254  0.0915 -0.4328
 3094SOL    HW120744   3.573   1.647  13.983 -1.0087  1.4824  1.5483
 3094SOL    HW220745   3.507   1.541  13.905  0.9102 -0.7737  0.5939
 3095SOL     OW20746   4.241   2.677   8.667 -0.0026 -0.2714 -0.5489
 3095SOL    HW120747   4.307   2.696   8.733 -0.6177  0.9961 -0.2909
 3095SOL    HW220748   4.183   2.619   8.715  1.7031 -2.5724 -1.2623
 3096SOL     OW20749   2.122   0.131   6.736  0.0490 -0.4104  0.2174
 3096SOL    HW120750   2.177   0.150   6.659  0.0346  0.3915  0.4004
 3096SOL    HW220751   2.192   0.124   6.800 -0.5027 -2.4090  0.5794
 3097SOL     OW20752   3.686   3.878   2.831 -0.1191 -0.1224 -0.2172
 3097SOL    HW120753   3.690   3.962   2.785  1.7705 -0.4333 -0.5932
 3097SOL    HW220754   3.637   3.816   2.777  1.6219 -0.5657 -1.2753
 3098SOL     OW20755   1.861   2.974  12.995 -0.4028  0.0556 -0.0229
 3098SOL    HW120756   1.806   2.941  13.067  0.4697  0.0188  0.6264
 3098SOL    HW220757   1.802   3.044  12.968 -0.7767  0.0685  0.8214
 3099SOL     OW20758   3.854   4.573   5.994  0.1055 -0.6391  0.3242
 3099SOL    HW120759   3.786   4.608   5.936  1.3884  0.5470 -0.4700
 3099SOL    HW220760   3.812   4.571   6.080  1.2786 -3.1244  0.8386
 3100SOL     OW20761   0.742   0.009   8.941  0.3213  0.4389  0.3841
 3100SOL    HW120762   0.700   0.053   8.868 -0.9661  1.3684  1.6704
 3100SOL    HW220763   0.716   4.644   8.929 -0.2560  0.9422 -2.1510
 3101SOL     OW20764   0.728   1.383  15.705  0.2921 -0.3221  0.6332
 3101SOL    HW120765   0.746   1.472  15.675  1.3047 -0.9908 -0.8089
 3101SOL    HW220766   0.660   1.399  15.769  1.3023  0.2147  1.5727
 3102SOL     OW20767   1.706   1.555   0.969 -0.5165 -0.7126  0.1781
 3102SOL    HW120768   1.641   1.577   1.036  0.0322 -0.0811  0.4995
 3102SOL    HW220769   1.668   1.482   0.919 -0.8438 -0.0131 -0.5992
 3103SOL     OW20770   1.991   1.206   9.588  0.5557 -0.5124  0.0715
 3103SOL    HW120771   1.932   1.279   9.606  1.5394 -0.6116  3.7613
 3103SOL    HW220772   1.920   1.144   9.569 -0.7965  1.3923 -1.0287
 3104SOL     OW20773   4.679   0.932   4.876  0.3014  0.2845  0.3038
 3104SOL    HW120774   4.617   0.900   4.941  1.4163 -1.3489  0.5443
 3104SOL    HW220775   0.011   0.983   4.931 -0.3000  0.5927  0.6595
 3105SOL     OW20776   1.959   4.097  13.761 -0.0043  0.2346  0.3359
 3105SOL    HW120777   1.942   4.186  13.731 -0.8311 -0.4085 -1.0661
 3105SOL    HW220778   1.922   4.052  13.685 -2.1037  1.5576  0.5894
 3106SOL     OW20779   0.217   2.113   3.164  0.1287 -0.0415  0.0968
 3106SOL    HW120780   0.288   2.145   3.108 -0.1435 -0.4676 -0.4835
 3106SOL    HW220781   0.222   2.026   3.126 -2.1972 -0.5108  0.8506
 3107SOL     OW20782   2.707   2.425   5.036 -0.2576 -0.1733 -0.6135
 3107SOL    HW120783   2.773   2.474   5.085 -0.1022  0.8233 -1.8263
 3107SOL    HW220784   2.668   2.492   4.979 -0.6171 -1.2513 -1.6391
 3108SOL     OW20785   1.073   3.772   2.726  0.5027  0.1014 -0.4327
 3108SOL    HW120786   1.069   3.772   2.822  0.5649  2.6321 -0.4333
 3108SOL    HW220787   1.032   3.688   2.702  1.9746 -0.6259 -0.4131
 3109SOL     OW20788   3.241   4.502   5.249 -0.1303  0.2491  0.2198
 3109SOL    HW120789   3.180   4.522   5.320 -0.2511 -1.6559  0.6424
 3109SOL    HW220790   3.287   4.425   5.281 -0.6881 -0.5054 -0.8037
 3110SOL     OW20791   1.848   3.148   7.402  0.6290 -0.1162  0.6728
 3110SOL    HW120792   1.762   3.189   7.394 -0.3942 -2.3798 -0.0561
 3110SOL    HW220793   1.899   3.218   7.441 -0.4266  1.1205 -0.1788
 3111SOL     OW20794   2.981   2.359   8.068 -0.2019 -0.1523  0.1667
 3111SOL    HW120795   2.994   2.354   8.163  1.0485 -0.2233 -0.0140
 3111SOL    HW220796   2.996   2.269   8.041 -0.8508 -0.8930  2.3137
 3112SOL     OW20797   4.352   4.415   1.949  0.7581  0.0469 -0.3780
 3112SOL    HW120798   4.358   4.425   2.044 -2.7250  0.2139 -0.1858
 3112SOL    HW220799   4.408   4.338   1.944 -1.8426 -1.9708  1.7922
 3113SOL     OW20800   1.496   3.059  11.773 -0.1390  0.1180  0.0656
 3113SOL    HW120801   1.463   3.140  11.812 -1.5258  0.0799 -1.0327
 3113SOL    HW220802   1.447   2.987  11.812  0.0374 -0.3215 -0.5199
 3114SOL     OW20803   2.749   1.292   4.036 -0.3606  0.1987  0.0285
 3114SOL    HW120804   2.745   1.224   3.968  1.0083 -1.0255  1.1696
 3114SOL    HW220805   2.839   1.285   4.068 -0.9057 -3.8227  0.7890
 3115SOL     OW20806   4.498   4.187   1.980 -0.6213 -0.8221  0.5600
 3115SOL    HW120807   4.578   4.138   1.999  1.5799  1.8160 -2.0433
 3115SOL    HW220808   4.427   4.144   2.028 -1.4765  0.3217  0.3183
 3116SOL     OW20809   4.040   3.211   0.795 -0.3196 -0.0547 -0.4528
 3116SOL    HW120810   4.120   3.263   0.788  1.4276 -2.7046 -0.1808
 3116SOL    HW220811   4.003   3.244   0.876 -0.4510  0.5736 -0.7747
 3117SOL     OW20812   0.292   2.614   4.417 -0.1293  0.1159  0.1684
 3117SOL    HW120813   0.265   2.533   4.459  2.4740 -1.4140 -1.1184
 3117SOL    HW220814   0.317   2.666   4.494 -1.4703  0.7300  0.1945
 3118SOL     OW20815   0.629   3.401   9.268 -0.5831 -0.3026  0.0603
 3118SOL    HW120816   0.608   3.458   9.194 -0.1468  1.3133  1.1892
 3118SOL    HW220817   0.541   3.374   9.295 -1.3952  0.1871 -2.1151
 3119SOL     OW20818   0.487   2.978   0.362 -0.1230 -0.0746  0.1039
 3119SOL    HW120819   0.474   2.891   0.323  1.6873 -0.8857  1.3579
 3119SOL    HW220820   0.579   2.989   0.341 -0.5346 -2.1506 -2.9343
 3120SOL     OW20821   2.375   4.346   5.947  0.2433 -0.2947  0.0455
 3120SOL    HW120822   2.347   4.376   5.861 -0.7350 -1.8962 -0.2125
 3120SOL    HW220823   2.331   4.413   5.999 -1.2865 -0.3713 -1.1637
 3121SOL     OW20824   4.067   2.778   5.370  0.0926 -0.1189  0.0696
 3121SOL    HW120825   4.133   2.847   5.366  1.0199 -0.9230  1.4415
 3121SOL    HW220826   4.119   2.699   5.352 -0.7166 -0.4606 -0.7686
 3122SOL     OW20827   3.824   1.331   2.295  0.1813 -0.1979 -0.1033
 3122SOL    HW120828   3.889   1.370   2.237  0.1403 -1.5797 -1.0738
 3122SOL    HW220829   3.746   1.349   2.243 -0.0784 -1.5890 -0.1910
 3123SOL     OW20830   4.247   4.360   6.737 -0.0669 -0.0508 -0.0318
 3123SOL    HW120831   4.224   4.267   6.745 -1.5327  0.1612 -1.7210
 3123SOL    HW220832   4.168   4.398   6.777 -2.0738 -0.8093 -3.2429
 3124SOL     OW20833   3.382   2.250  14.553  0.0065 -0.3602 -0.2017
 3124SOL    HW120834   3.359   2.302  14.476  1.6883 -1.7138 -1.6065
 3124SOL    HW220835   3.477   2.242  14.540  0.1121  0.9747 -0.2927
 3125SOL     OW20836   0.829   0.911   2.247  0.2207 -0.4165 -0.2084
 3125SOL    HW120837   0.771   0.915   2.322 -1.6319 -1.5755 -1.5870
 3125SOL    HW220838   0.903   0.857   2.277  2.0191  2.7836  1.1236
 3126SOL     OW20839   4.170   1.891   9.048  0.4500 -0.1187  0.4267
 3126SOL    HW120840   4.108   1.912   9.118 -0.0365 -0.3014  0.0498
 3126SOL    HW220841   4.253   1.935   9.070  1.3552 -1.4166 -0.4234
 3127SOL     OW20842   0.289   3.931   6.678 -0.0745  0.1960  0.2949
 3127SOL    HW120843   0.293   4.018   6.716 -2.8032  0.2801  0.4255
 3127SOL    HW220844   0.374   3.890   6.695  0.3571  1.3145  0.8419
 3128SOL     OW20845   4.394   1.728  11.481  0.3240  0.0176 -0.7248
 3128SOL    HW120846   4.301   1.738  11.464  0.1332 -0.9704 -0.2363
 3128SOL    HW220847   4.417   1.814  11.517 -2.3711  0.5674 -0.3216
 3129SOL     OW20848   4.306   1.095   4.107 -0.2018 -0.3811 -0.6427
 3129SOL    HW120849   4.333   1.187   4.109 -2.4850  0.2441  1.0391
 3129SOL    HW220850   4.384   1.045   4.082  0.1088 -0.4282  0.4226
 3130SOL     OW20851   4.024   3.481   2.750  0.4205  0.0093  1.0583
 3130SOL    HW120852   4.007   3.390   2.774  0.8231  0.2287  2.2116
 3130SOL    HW220853   4.036   3.472   2.656 -2.0636 -1.1226  0.8610
 3131SOL     OW20854   0.377   3.084   5.009 -0.0720  0.1593  0.1536
 3131SOL    HW120855   0.363   3.141   5.085 -0.8563  0.9207 -0.5751
 3131SOL    HW220856   0.292   3.076   4.967 -1.4828  2.5330  2.5381
 3132SOL     OW20857   4.346   0.840  13.380  0.2740  0.0076 -0.1613
 3132SOL    HW120858   4.262   0.880  13.357  1.9284  2.5956 -1.7668
 3132SOL    HW220859   4.405   0.915  13.374  1.0153 -0.5492  0.2325
 3133SOL     OW20860   1.143   3.038   6.300 -0.2816  0.2088  0.6957
 3133SOL    HW120861   1.115   3.111   6.354 -1.2420  1.1138 -1.0147
 3133SOL    HW220862   1.220   3.004   6.346  0.0326  0.0244  0.0412
 3134SOL     OW20863   3.890   3.736   1.851 -0.2635 -0.3595 -0.5889
 3134SOL    HW120864   3.821   3.802   1.854  1.3202  1.3025 -0.7671
 3134SOL    HW220865   3.877   3.691   1.768 -2.0186  0.2624 -0.6562
 3135SOL     OW20866   2.919   1.633   9.893 -0.1715 -0.1062  0.2502
 3135SOL    HW120867   2.983   1.702   9.873 -1.9968  0.4373 -3.7041
 3135SOL    HW220868   2.891   1.658   9.981  0.4488 -1.8521  0.9499
 3136SOL     OW20869   2.138   1.789   4.033 -0.1344  0.3579 -0.0621
 3136SOL    HW120870   2.104   1.807   3.945 -1.2518 -0.1278  0.2700
 3136SOL    HW220871   2.065   1.830   4.079 -0.9399 -1.5708  0.3855
 3137SOL     OW20872   4.704   1.836   8.706 -0.1337  0.3889  0.4063
 3137SOL    HW120873   4.651   1.819   8.784 -0.1710  0.4887  0.4026
 3137SOL    HW220874   0.037   1.903   8.739  0.5161 -0.0827  0.1818
 3138SOL     OW20875   0.006   4.468   7.328  0.3151  0.0740 -0.2080
 3138SOL    HW120876   0.068   4.443   7.396  0.6091  2.0567  0.2529
 3138SOL    HW220877   4.698   4.381   7.306 -0.1716 -0.4213  2.5721
 3139SOL     OW20878   4.374   3.137  12.482 -0.0893  0.5555 -0.2359
 3139SOL    HW120879   4.329   3.132  12.398 -1.5484  0.9923  0.5195
 3139SOL    HW220880   4.446   3.198  12.464  0.1213  0.2608 -0.4015
 3140SOL     OW20881   1.073   3.098   5.028  0.2603  0.2576  0.5613
 3140SOL    HW120882   1.066   3.161   5.100  1.5541  0.6665  0.3295
 3140SOL    HW220883   1.148   3.126   4.975  0.6929  0.9210  1.5237
 3141SOL     OW20884   3.636   1.901   1.185 -0.7483  0.4378 -0.1505
 3141SOL    HW120885   3.712   1.922   1.240  1.1060 -2.1263 -1.7645
 3141SOL    HW220886   3.665   1.931   1.099  1.9557 -1.2651  0.1540
 3142SOL     OW20887   4.361   4.630   4.350 -0.8747 -0.1945  0.5731
 3142SOL    HW120888   4.432   4.571   4.326 -0.3643  0.8835 -0.6293
 3142SOL    HW220889   4.296   4.595   4.289 -0.8467 -1.6250  1.3589
 3143SOL     OW20890   3.979   4.267   2.088  0.1386  0.4956 -0.1524
 3143SOL    HW120891   4.049   4.265   2.153 -0.5440 -1.0276  0.5346
 3143SOL    HW220892   3.897   4.254   2.135  0.5620  0.3636  0.5462
 3144SOL     OW20893   2.703   1.052   3.040  0.4752  0.3751  0.4800
 3144SOL    HW120894   2.679   0.972   2.994 -0.1125  1.0308 -0.3615
 3144SOL    HW220895   2.755   1.096   2.973  1.5752 -1.7721 -0.0792
 3145SOL     OW20896   0.035   2.264   6.332  0.3342 -0.2036  0.0209
 3145SOL    HW120897   0.042   2.326   6.259 -3.4179 -1.9512 -1.8055
 3145SOL    HW220898   0.117   2.280   6.379  1.3345  1.2878 -2.2037
 3146SOL     OW20899   3.944   4.563   5.073 -0.9117 -0.7856  0.2457
 3146SOL    HW120900   4.008   4.617   5.028 -2.8900 -0.4181 -2.1609
 3146SOL    HW220901   3.873   4.628   5.081 -0.3964 -0.0839 -0.8587
 3147SOL     OW20902   3.164   3.283   6.271  0.2799 -0.4894 -0.1847
 3147SOL    HW120903   3.074   3.251   6.271  1.3380 -3.5365 -0.1289
 3147SOL    HW220904   3.178   3.336   6.349  0.6726 -1.0357  0.1153
 3148SOL     OW20905   4.490   0.825  16.299  0.1978  0.4259 -0.0312
 3148SOL    HW120906   4.400   0.855  16.313  0.4610  0.9323  0.5586
 3148SOL    HW220907   4.479   0.791  16.210 -0.1552 -1.8156  0.8735
 3149SOL     OW20908   1.834   0.057  16.989  0.5115 -0.5354  0.3658
 3149SOL    HW120909   1.796   0.142  17.010  0.1881 -1.2141  2.6512
 3149SOL    HW220910   1.912   0.092  16.946 -0.2861  1.9789  0.9584
 3150SOL     OW20911   3.307   4.538   7.511  0.2626  0.2032  0.0342
 3150SOL    HW120912   3.228   4.522   7.564 -1.2098 -0.2990 -2.2983
 3150SOL    HW220913   3.353   4.596   7.570  1.1224 -0.3583 -0.0883
 3151SOL     OW20914   4.389   2.500   4.205  0.6001  0.1218  0.5301
 3151SOL    HW120915   4.437   2.529   4.127 -0.0516  1.0776  0.4744
 3151SOL    HW220916   4.469   2.496   4.258  2.1436  0.3589 -1.7880
 3152SOL     OW20917   4.114   1.357   3.894 -0.1908 -0.0499 -0.0295
 3152SOL    HW120918   4.210   1.352   3.897 -0.0260  2.8945 -0.0528
 3152SOL    HW220919   4.098   1.269   3.861  2.0915  0.3064 -2.0607
 3153SOL     OW20920   3.347   1.788   9.005  0.3518  0.5611 -0.1974
 3153SOL    HW120921   3.415   1.799   9.071 -2.0017 -0.5994  2.4161
 3153SOL    HW220922   3.398   1.746   8.935  2.9611  1.2033  1.3000
 3154SOL     OW20923   3.264   1.033   6.568 -0.2453 -0.6258 -1.1986
 3154SOL    HW120924   3.223   0.948   6.581  1.5622 -1.2890  0.2522
 3154SOL    HW220925   3.182   1.081   6.569  0.5667  0.7872 -1.4161
 3155SOL     OW20926   1.643   2.827   8.953 -0.5126  0.1938 -0.5038
 3155SOL    HW120927   1.626   2.736   8.975 -0.6800  0.2003 -0.6139
 3155SOL    HW220928   1.566   2.863   8.910 -0.3153 -0.2715 -1.2513
 3156SOL     OW20929   2.684   4.488  16.798  0.0512 -0.3493  0.2725
 3156SOL    HW120930   2.595   4.520  16.813 -0.0867  0.0381 -1.4055
 3156SOL    HW220931   2.733   4.557  16.843 -0.6805 -1.4015  2.7201
 3157SOL     OW20932   0.767   4.468  17.046 -0.1311 -0.0526  0.4650
 3157SOL    HW120933   0.773   4.409  16.971  1.0388  2.3770 -1.3036
 3157SOL    HW220934   0.854   4.461  17.085 -0.7783  1.5548  2.1855
 3158SOL     OW20935   0.722   4.020   1.528  0.5078  0.2349 -0.2578
 3158SOL    HW120936   0.653   3.958   1.505 -1.1934  1.0645  2.6938
 3158SOL    HW220937   0.772   3.962   1.585  1.2619 -0.1980 -1.3570
 3159SOL     OW20938   1.401   0.976  14.676 -0.2482 -0.1236 -0.5213
 3159SOL    HW120939   1.408   1.018  14.762  0.0083  0.4839 -0.8354
 3159SOL    HW220940   1.411   0.885  14.703 -2.9618  0.0679  1.1764
 3160SOL     OW20941   1.647   3.115   2.317 -0.5268  0.3758  0.3513
 3160SOL    HW120942   1.615   3.079   2.234 -2.0406  2.7655 -0.1237
 3160SOL    HW220943   1.733   3.074   2.325 -1.1994 -1.3397 -1.2270
 3161SOL     OW20944   3.197   1.646  10.898  0.6990  0.1694  0.1027
 3161SOL    HW120945   3.150   1.577  10.851  1.4334 -0.7174  0.6783
 3161SOL    HW220946   3.124   1.684  10.948  2.0739  2.4246  0.4309
 3162SOL     OW20947   1.549   3.239   6.204  0.4559 -0.2421  0.1305
 3162SOL    HW120948   1.563   3.201   6.118 -2.2714  3.1308 -1.7672
 3162SOL    HW220949   1.599   3.171   6.250  1.8407 -0.3467 -1.5236
 3163SOL     OW20950   1.628   1.864   6.354  0.1984  0.1126  0.2617
 3163SOL    HW120951   1.663   1.784   6.393  0.2766 -0.8623 -1.8313
 3163SOL    HW220952   1.579   1.896   6.429 -0.5415  2.8588 -1.3861
 3164SOL     OW20953   1.884   2.269   5.804  0.4936 -0.7965  0.0340
 3164SOL    HW120954   1.844   2.231   5.726 -0.4546  0.9134 -0.3163
 3164SOL    HW220955   1.848   2.357   5.793  1.5706 -0.3670  0.0152
 3165SOL     OW20956   4.438   0.076   8.202  0.5752 -0.0811 -0.2200
 3165SOL    HW120957   4.428   0.162   8.160  2.2708  0.8076  1.2038
 3165SOL    HW220958   4.533   0.071   8.208  0.8540  2.9452 -1.8297
 3166SOL     OW20959   3.650   3.837   7.764  0.1203 -0.0553  0.1143
 3166SOL    HW120960   3.611   3.759   7.724  0.3372  0.2701 -0.7429
 3166SOL    HW220961   3.581   3.867   7.823  0.8026  0.2494  0.7630
 3167SOL     OW20962   3.384   2.459  11.209  0.1272  0.5921 -0.0621
 3167SOL    HW120963   3.322   2.499  11.270  3.3152  0.6557  3.1561
 3167SOL    HW220964   3.429   2.394  11.263 -2.0664  0.0362  1.0952
 3168SOL     OW20965   4.239   3.801  14.750  0.1164  0.1368 -0.0301
 3168SOL    HW120966   4.148   3.774  14.757 -0.1985  1.7894  2.3492
 3168SOL    HW220967   4.266   3.734  14.813 -0.7699 -0.7151 -0.5537
 3169SOL     OW20968   2.324   0.816   5.390  0.4394  0.0868  0.3756
 3169SOL    HW120969   2.405   0.767   5.387 -0.0993 -0.6469 -1.7605
 3169SOL    HW220970   2.290   0.791   5.304  1.8478 -2.6491  0.6324
 3170SOL     OW20971   2.562   1.645   9.985  0.4597  0.1202  0.0471
 3170SOL    HW120972   2.621   1.570   9.982 -0.1474 -0.3428 -0.4006
 3170SOL    HW220973   2.526   1.645  10.074  1.0962 -0.5738  0.3000
 3171SOL     OW20974   2.485   0.271  11.828 -0.2654 -0.0612  0.1638
 3171SOL    HW120975   2.549   0.209  11.794  2.5621  2.2396  1.2641
 3171SOL    HW220976   2.517   0.354  11.792 -1.7924  0.2534 -0.4476
 3172SOL     OW20977   0.311   4.435   3.126  0.3846  0.8465 -0.1698
 3172SOL    HW120978   0.359   4.420   3.045  0.6101  2.7256 -0.3962
 3172SOL    HW220979   0.381   4.444   3.191  0.6506 -3.3398  0.1381
 3173SOL     OW20980   1.272   1.703   6.406 -0.4355 -0.0344 -0.9646
 3173SOL    HW120981   1.279   1.796   6.426  2.8814 -0.3355 -0.8001
 3173SOL    HW220982   1.180   1.689   6.383 -1.2111  1.9159  0.9523
 3174SOL     OW20983   0.460   1.612  15.331  0.0795  0.3365 -0.0165
 3174SOL    HW120984   0.435   1.580  15.244 -0.4537  2.1296 -0.5376
 3174SOL    HW220985   0.510   1.537  15.362 -0.0722 -0.3287 -1.3596
 3175SOL     OW20986   4.460   1.572   3.103 -0.1804 -0.1223  0.5259
 3175SOL    HW120987   4.516   1.622   3.044  2.2991 -0.6372  2.4337
 3175SOL    HW220988   4.516   1.496   3.121  1.5368  0.7952 -0.9672
 3176SOL     OW20989   1.934   2.999   7.635 -0.4309  0.0662  0.4230
 3176SOL    HW120990   1.923   3.041   7.550 -2.2438 -2.3655 -0.5751
 3176SOL    HW220991   1.925   2.908   7.605  3.5871  0.6321 -2.4170
 3177SOL     OW20992   2.165   1.183   9.119 -0.5139 -0.6140  0.0191
 3177SOL    HW120993   2.106   1.112   9.091 -2.2251  0.7728  0.0790
 3177SOL    HW220994   2.142   1.208   9.209 -3.2737  0.5476 -0.9957
 3178SOL     OW20995   1.240   3.500   2.108  0.8135 -0.2020  0.0195
 3178SOL    HW120996   1.335   3.498   2.117  0.6762  0.8211  1.9077
 3178SOL    HW220997   1.221   3.512   2.201  0.7836 -3.8196  0.4875
 3179SOL     OW20998   3.870   2.754   6.303  0.6303 -0.4013 -0.2753
 3179SOL    HW120999   3.949   2.727   6.348 -0.4428 -0.6724  1.4315
 3179SOL    HW221000   3.881   2.688   6.234 -0.3934  0.3641 -1.1778
 3180SOL     OW21001   2.181   1.559   2.985 -0.0356 -0.0759 -0.2744
 3180SOL    HW121002   2.169   1.608   2.904  0.7969 -1.6637 -1.3583
 3180SOL    HW221003   2.175   1.627   3.051  0.7701  0.6054 -0.9040
 3181SOL     OW21004   4.714   2.699   4.684  0.2159 -0.8176 -0.1143
 3181SOL    HW121005   0.043   2.773   4.707 -1.0237  0.8150 -2.3686
 3181SOL    HW221006   0.002   2.682   4.591 -0.6165  3.7476 -1.0499
 3182SOL     OW21007   2.601   1.129   2.605 -0.4416  0.2611 -0.0543
 3182SOL    HW121008   2.573   1.209   2.649  0.1227  0.0021  0.7733
 3182SOL    HW221009   2.516   1.113   2.564 -1.5009  0.6694  1.9721
 3183SOL     OW21010   0.373   2.539   8.935  0.2511 -0.1833  0.3378
 3183SOL    HW121011   0.377   2.579   9.022  1.5459  2.5818 -0.9769
 3183SOL    HW221012   0.333   2.613   8.889 -0.0530  0.5215  1.7102
 3184SOL     OW21013   2.428   2.285   6.660  0.3943 -0.1121 -0.4312
 3184SOL    HW121014   2.385   2.302   6.576  1.2057 -2.5697 -1.3488
 3184SOL    HW221015   2.435   2.190   6.659  0.2972 -0.1286  0.3683
 3185SOL     OW21016   1.934   2.508   8.970 -0.5349  0.0390 -0.1559
 3185SOL    HW121017   1.958   2.594   8.936  1.9520 -0.2907  0.7785
 3185SOL    HW221018   1.860   2.518   9.030  0.3938 -2.2089  1.3468
 3186SOL     OW21019   2.598   2.239  16.560  0.1938  0.1414 -0.0198
 3186SOL    HW121020   2.567   2.313  16.509  1.0966  0.3719 -0.2314
 3186SOL    HW221021   2.569   2.273  16.645 -0.4255 -0.1208 -0.1257
 3187SOL     OW21022   2.742   2.070   5.454 -0.0055  0.2424  0.1819
 3187SOL    HW121023   2.740   2.127   5.378  1.4095  0.2432  0.1566
 3187SOL    HW221024   2.833   2.058   5.481  0.1881  3.3534  0.9443
 3188SOL     OW21025   1.790   4.022  13.531 -0.0773  0.6227 -0.6350
 3188SOL    HW121026   1.838   3.948  13.495 -0.8875  0.3323 -1.1163
 3188SOL    HW221027   1.779   4.084  13.460 -0.1963  0.1003 -1.0732
 3189SOL     OW21028   0.312   0.345   9.388 -0.1296 -0.2602 -0.1505
 3189SOL    HW121029   0.329   0.271   9.330  0.3214  1.8417 -2.7264
 3189SOL    HW221030   0.384   0.324   9.447  0.6115  0.4414 -0.8060
 3190SOL     OW21031   1.411   1.381   5.679  0.0701 -0.2440  0.1413
 3190SOL    HW121032   1.495   1.427   5.680  0.1309 -0.3524 -0.2340
 3190SOL    HW221033   1.453   1.296   5.692 -0.4923 -0.2799  1.8508
 3191SOL     OW21034   4.221   4.134   8.245 -0.2634  0.3124  0.0947
 3191SOL    HW121035   4.201   4.205   8.184 -2.9218 -0.5695 -0.0697
 3191SOL    HW221036   4.135   4.092   8.251  0.0501 -0.2927  0.3704
 3192SOL     OW21037   3.773   3.564   8.297 -0.0139 -0.0626 -0.2019
 3192SOL    HW121038   3.773   3.492   8.360  0.8611 -0.4713 -0.6688
 3192SOL    HW221039   3.721   3.632   8.339  2.0195  1.9903 -0.9691
 3193SOL     OW21040   1.037   1.712   4.758 -0.7018  0.3333  1.1909
 3193SOL    HW121041   1.116   1.669   4.724 -1.0705  0.0943  0.6538
 3193SOL    HW221042   1.005   1.763   4.685  0.6401 -1.8660 -0.9288
 3194SOL     OW21043   3.965   1.761   4.045  0.2535 -0.4889 -0.4932
 3194SOL    HW121044   4.011   1.839   4.013 -1.3688  0.7044  0.0697
 3194SOL    HW221045   3.881   1.761   4.000  1.2243 -1.3446 -2.3240
 3195SOL     OW21046   2.117   4.412   3.102 -0.0703 -0.1992  0.7574
 3195SOL    HW121047   2.135   4.383   3.013  2.5391 -1.4815  1.6990
 3195SOL    HW221048   2.124   4.508   3.101  1.3098 -0.3279 -1.3512
 3196SOL     OW21049   2.746   4.212   8.132 -0.2189 -0.0460  0.6325
 3196SOL    HW121050   2.751   4.281   8.066  3.6318 -1.1235 -0.2074
 3196SOL    HW221051   2.655   4.183   8.136 -0.0064 -0.9007 -0.7533
 3197SOL     OW21052   1.608   3.944   8.794 -0.6709  1.2365 -0.7322
 3197SOL    HW121053   1.693   3.901   8.794 -2.0321 -1.4040  0.7272
 3197SOL    HW221054   1.574   3.911   8.711 -0.5197 -0.3506 -0.1578
 3198SOL     OW21055   4.264   0.733   9.829 -0.3438 -0.3214  0.6710
 3198SOL    HW121056   4.221   0.698   9.907  0.1746  1.4897  1.7706
 3198SOL    HW221057   4.193   0.712   9.769  1.0534 -0.5585 -0.9037
 3199SOL     OW21058   2.810   4.020   1.861  0.6847 -0.4739  0.2527
 3199SOL    HW121059   2.854   4.079   1.800 -3.0120  0.3343 -1.5846
 3199SOL    HW221060   2.751   3.987   1.794  0.9496 -1.0468  0.2992
 3200SOL     OW21061   2.589   1.532   4.716  0.5661 -0.4776 -0.2443
 3200SOL    HW121062   2.518   1.588   4.748  2.7317  2.9157 -1.4652
 3200SOL    HW221063   2.631   1.582   4.647 -0.1404  1.4675  0.7228
 3201SOL     OW21064   1.524   2.023  16.418 -0.2710  0.7446  0.7225
 3201SOL    HW121065   1.527   2.092  16.352  0.2427 -0.4281 -0.4812
 3201SOL    HW221066   1.430   2.016  16.435  0.3837 -1.6744  3.3601
 3202SOL     OW21067   2.857   3.333   1.015 -0.0747  0.5475  0.1764
 3202SOL    HW121068   2.798   3.278   1.067  1.2156  0.1369  1.2048
 3202SOL    HW221069   2.841   3.307   0.925  1.2737  0.5529 -0.0609
 3203SOL     OW21070   4.053   4.244  16.241  0.1162  0.1702  0.0138
 3203SOL    HW121071   4.021   4.217  16.327 -1.0490  0.7932 -0.2221
 3203SOL    HW221072   4.105   4.169  16.213  0.0867  0.3108 -0.4116
 3204SOL     OW21073   4.286   4.447  17.109  0.2602 -0.1762 -0.6145
 3204SOL    HW121074   4.343   4.432  17.033  0.8256  1.7364 -0.5813
 3204SOL    HW221075   4.227   4.514  17.073 -1.1610 -0.8261  0.5380
 3205SOL     OW21076   0.134   3.960   8.916 -0.2246  0.3500  0.1629
 3205SOL    HW121077   0.172   3.875   8.938  1.6597  0.9385 -0.8979
 3205SOL    HW221078   0.170   3.977   8.829 -1.7287 -0.2570 -0.5815
 3206SOL     OW21079   3.840   4.369   3.200  0.3725 -0.1179  0.0767
 3206SOL    HW121080   3.766   4.309   3.188  0.5178 -0.2990  0.0927
 3206SOL    HW221081   3.835   4.389   3.293  0.5440  2.3103 -0.4479
 3207SOL     OW21082   2.281   4.489   5.732  0.5469 -0.3655 -0.0357
 3207SOL    HW121083   2.342   4.465   5.663  0.0618 -1.5762 -0.0590
 3207SOL    HW221084   2.197   4.483   5.687  0.0212 -2.0379  1.1439
 3208SOL     OW21085   2.504   1.718   8.322 -0.2655  0.0092  0.1823
 3208SOL    HW121086   2.517   1.636   8.369 -0.1138  1.3515  2.5138
 3208SOL    HW221087   2.481   1.690   8.234 -1.7357  5.2203 -1.1060
 3209SOL     OW21088   0.650   1.288  10.291  0.4206 -0.0586 -0.4974
 3209SOL    HW121089   0.575   1.231  10.271 -1.6705  1.3192  3.4926
 3209SOL    HW221090   0.687   1.245  10.368 -2.8939 -0.8974  0.6418
 3210SOL     OW21091   4.606   0.326   4.663  0.0341  0.2178 -0.3751
 3210SOL    HW121092   4.537   0.279   4.617  0.7690  0.0472 -1.2931
 3210SOL    HW221093   4.592   0.293   4.752 -0.2036  0.7099 -0.2274
 3211SOL     OW21094   2.100   1.338   5.155  0.1126 -0.2186 -0.8769
 3211SOL    HW121095   2.121   1.367   5.066  0.4590 -1.1472 -1.1003
 3211SOL    HW221096   2.114   1.420   5.203 -0.2776 -0.0266 -1.0926
 3212SOL     OW21097   2.415   0.978   5.593  0.1571  0.2973 -0.0442
 3212SOL    HW121098   2.396   1.069   5.570 -1.1796 -0.2808 -1.1683
 3212SOL    HW221099   2.371   0.936   5.519 -0.7366 -3.2190  2.4919
 3213SOL     OW21100   3.567   1.979   0.694 -0.1772 -0.0945 -0.2330
 3213SOL    HW121101   3.639   1.963   0.633 -0.0322 -1.7965  0.3831
 3213SOL    HW221102   3.509   1.909   0.664 -0.6498 -0.0493  0.5797
 3214SOL     OW21103   0.164   4.020   9.400  0.7092 -0.2986 -0.5287
 3214SOL    HW121104   0.123   3.962   9.465  0.0775 -0.6929 -1.2819
 3214SOL    HW221105   0.195   4.096   9.449 -1.1360  1.3206 -1.8426
 3215SOL     OW21106   1.153   4.442   4.103 -0.3018  0.2960  0.0331
 3215SOL    HW121107   1.171   4.387   4.027 -0.6305  0.7677 -0.3892
 3215SOL    HW221108   1.194   4.524   4.077 -1.6695  0.0672 -2.8914
 3216SOL     OW21109   3.760   2.691  14.224 -0.1802  0.0378 -0.5265
 3216SOL    HW121110   3.815   2.769  14.216  0.6298 -0.5091 -0.2105
 3216SOL    HW221111   3.818   2.618  14.205  0.8184  0.9877 -1.1813
 3217SOL     OW21112   3.998   1.214   8.182 -0.0442  0.0332 -0.1237
 3217SOL    HW121113   4.086   1.201   8.219 -0.4742 -0.3687  0.7789
 3217SOL    HW221114   3.976   1.123   8.163  0.8175  0.1693 -1.7138
 3218SOL     OW21115   2.598   1.848   5.424 -0.1396  0.1331 -0.1060
 3218SOL    HW121116   2.603   1.816   5.514  1.7560  0.2745 -0.1557
 3218SOL    HW221117   2.661   1.919   5.418  1.2921 -0.9940  1.3618
 3219SOL     OW21118   3.843   3.212  15.391  0.4988  0.2193 -0.6345
 3219SOL    HW121119   3.921   3.240  15.438  1.3121 -0.6266 -1.4777
 3219SOL    HW221120   3.776   3.187  15.455 -1.4623  2.3708 -1.8572
 3220SOL     OW21121   3.168   3.447   6.047  0.5920  0.6670  0.4975
 3220SOL    HW121122   3.157   3.380   6.115 -1.5578 -1.6000 -2.1164
 3220SOL    HW221123   3.105   3.514   6.075 -0.7129  0.3409 -1.6377
 3221SOL     OW21124   4.241   3.865  14.219 -0.8802  0.2532  0.3202
 3221SOL    HW121125   4.147   3.872  14.239 -0.7884  0.1256  0.7788
 3221SOL    HW221126   4.265   3.793  14.276 -0.3033  1.5086  1.6705
 3222SOL     OW21127   1.563   2.508   4.553 -0.0895  0.2537 -0.0089
 3222SOL    HW121128   1.617   2.501   4.632  1.2985 -0.2853 -1.0279
 3222SOL    HW221129   1.566   2.603   4.544  3.2278  0.3192  1.8912
 3223SOL     OW21130   1.181   4.580   4.454 -0.3500  0.0479  0.2814
 3223SOL    HW121131   1.217   4.669   4.459  1.3180 -0.7271  2.0449
 3223SOL    HW221132   1.251   4.525   4.419 -0.7327 -1.1869  1.4612
 3224SOL     OW21133   4.496   3.982   5.994 -0.4833  0.0284  0.1038
 3224SOL    HW121134   4.560   4.015   5.931  0.8937 -0.1998  1.3860
 3224SOL    HW221135   4.425   4.031   5.953 -1.8301 -2.0525 -0.0718
 3225SOL     OW21136   0.449   3.545  14.467  0.2729  0.1822  0.1818
 3225SOL    HW121137   0.360   3.509  14.461  1.9420 -3.7811 -0.9474
 3225SOL    HW221138   0.458   3.544  14.562  0.2125  1.6381  0.1947
 3226SOL     OW21139   0.810   0.054   3.538  0.0711  0.0846 -0.1294
 3226SOL    HW121140   0.803   4.690   3.508  2.3046 -0.4821  1.1118
 3226SOL    HW221141   0.830   0.037   3.630  1.9159  2.2414 -0.1202
 3227SOL     OW21142   3.529   1.276   4.303  0.1232  0.1136 -0.3055
 3227SOL    HW121143   3.567   1.265   4.390 -0.9914  1.7853  0.3895
 3227SOL    HW221144   3.470   1.343   4.339 -0.7827 -0.8126 -0.0727
 3228SOL     OW21145   1.258   4.244   9.497  0.0109  0.0968 -0.0469
 3228SOL    HW121146   1.235   4.337   9.488 -1.8551 -0.5196 -1.7588
 3228SOL    HW221147   1.331   4.236   9.435 -0.4787 -0.7516 -0.5136
 3229SOL     OW21148   1.561   3.878   9.872 -0.4367  0.3015  0.5487
 3229SOL    HW121149   1.627   3.936   9.909  0.4876 -1.0814  1.0556
 3229SOL    HW221150   1.494   3.895   9.938 -0.6306 -0.8525  0.6603
 3230SOL     OW21151   2.204   3.723   0.961  0.1163 -0.2904  0.2188
 3230SOL    HW121152   2.290   3.683   0.967 -0.9163 -2.6054 -0.1914
 3230SOL    HW221153   2.234   3.813   0.950  1.6436 -0.7136  0.9174
 3231SOL     OW21154   1.077   1.929   8.618 -0.3069 -0.1997  0.2394
 3231SOL    HW121155   1.138   1.862   8.586  1.1712  1.1721  0.1719
 3231SOL    HW221156   1.120   1.967   8.694  1.8274 -0.2533 -0.9248
 3232SOL     OW21157   3.472   3.464   1.213  0.7979  0.3757  0.0779
 3232SOL    HW121158   3.460   3.371   1.230 -0.5239  0.4775 -0.2890
 3232SOL    HW221159   3.385   3.494   1.240  0.4290  0.0345 -0.7207
 3233SOL     OW21160   0.667   2.195   2.819  0.0104 -0.0196  0.3101
 3233SOL    HW121161   0.633   2.202   2.730  1.2426 -1.8223 -0.3202
 3233SOL    HW221162   0.707   2.108   2.819 -0.3560 -0.1840  0.2798
 3234SOL     OW21163   4.719   4.305   3.832  0.8126  0.3598  0.0532
 3234SOL    HW121164   4.695   4.216   3.806  0.3936 -0.0115  1.7151
 3234SOL    HW221165   0.014   4.348   3.749  0.2542  0.5587  0.0118
 3235SOL     OW21166   2.794   0.409   5.434  0.2077  0.2669 -0.3775
 3235SOL    HW121167   2.748   0.329   5.409  0.7361 -0.7228  1.8115
 3235SOL    HW221168   2.873   0.414   5.380 -0.2998  0.9699 -1.0564
 3236SOL     OW21169   1.260   0.070   1.016 -0.4431 -0.1753 -0.0642
 3236SOL    HW121170   1.263   0.066   0.921 -1.3926  0.1320 -0.1077
 3236SOL    HW221171   1.328   0.134   1.038  0.1346 -1.3050  1.4646
 3237SOL     OW21172   0.910   0.913   6.114  0.0738 -0.3033 -0.0679
 3237SOL    HW121173   0.852   0.943   6.044  1.4236 -1.8836 -1.8621
 3237SOL    HW221174   0.989   0.893   6.063  0.6882 -0.0518  0.7752
 3238SOL     OW21175   2.913   2.599  17.433 -0.0083 -0.9360  0.2589
 3238SOL    HW121176   2.922   2.521  17.378 -1.3388 -0.4763 -0.6084
 3238SOL    HW221177   2.993   2.642  17.405 -0.1746 -0.0782  1.1303
 3239SOL     OW21178   0.621   4.357   5.620 -0.0432  0.3774  0.3780
 3239SOL    HW121179   0.638   4.262   5.622  1.0017  0.5539 -0.3321
 3239SOL    HW221180   0.526   4.352   5.615  0.0326 -0.2942 -0.4375
 3240SOL     OW21181   4.535   1.253   7.144  0.0333  0.0915  0.0712
 3240SOL    HW121182   4.575   1.311   7.079 -1.1569 -0.7654 -1.4390
 3240SOL    HW221183   4.446   1.289   7.142 -0.0760 -0.3572 -3.5041
 3241SOL     OW21184   4.296   3.506   6.671  0.0597 -0.2225  0.0942
 3241SOL    HW121185   4.257   3.582   6.628 -0.2138 -1.0225 -1.0615
 3241SOL    HW221186   4.241   3.437   6.634  0.6192 -1.3459  1.3880
 3242SOL     OW21187   3.388   2.438   2.165  0.7085  0.2222  0.2787
 3242SOL    HW121188   3.295   2.420   2.173  1.0681 -1.7006 -0.0559
 3242SOL    HW221189   3.421   2.362   2.212  1.0388  1.1871  1.6225
 3243SOL     OW21190   3.753   3.390   3.311  0.3161  0.2951  0.4482
 3243SOL    HW121191   3.697   3.354   3.380  1.6463 -2.1619  0.2382
 3243SOL    HW221192   3.833   3.355   3.349  0.0733 -0.8858 -0.1110
 3244SOL     OW21193   2.972   3.821   8.266  0.5337 -0.0722 -0.0078
 3244SOL    HW121194   2.929   3.901   8.299  1.0928  0.6927 -1.1370
 3244SOL    HW221195   3.001   3.851   8.180  1.3292  2.0046  0.9732
 3245SOL     OW21196   1.354   2.508   9.384 -0.3341 -0.6706 -0.3451
 3245SOL    HW121197   1.288   2.477   9.445 -1.0688  2.3696  0.3778
 3245SOL    HW221198   1.414   2.435   9.400  0.1147 -0.0452  0.8055
 3246SOL     OW21199   3.026   3.574   0.415  0.0729 -0.3021 -0.6662
 3246SOL    HW121200   3.044   3.665   0.440  1.1992 -0.3766 -1.2080
 3246SOL    HW221201   3.117   3.547   0.406 -0.3026 -1.7464 -0.0320
 3247SOL     OW21202   2.826   0.845   6.602 -0.3043 -0.3176  0.6119
 3247SOL    HW121203   2.920   0.845   6.586 -0.5104 -2.4912 -0.5995
 3247SOL    HW221204   2.809   0.798   6.683  0.2790  0.1717  1.0140
 3248SOL     OW21205   3.442   0.713   4.473 -0.1175 -0.1718  0.4467
 3248SOL    HW121206   3.371   0.664   4.515  1.9283 -1.1526  2.7616
 3248SOL    HW221207   3.521   0.662   4.489  2.5450  2.8250 -3.3701
 3249SOL     OW21208   3.530   2.341   4.930  0.3988  0.4081  0.3649
 3249SOL    HW121209   3.581   2.284   4.987  0.7229 -1.1608 -1.5155
 3249SOL    HW221210   3.600   2.403   4.907 -0.4439  0.9244 -0.8354
 3250SOL     OW21211   4.314   2.157   6.563 -0.1334 -0.0244 -0.3404
 3250SOL    HW121212   4.239   2.131   6.617 -0.1456  0.2447 -0.2262
 3250SOL    HW221213   4.374   2.084   6.574  2.3303  1.6727 -2.6346
 3251SOL     OW21214   3.771   3.477  17.640 -0.1219 -0.1694  0.0359
 3251SOL    HW121215   3.823   3.519   0.001  0.3708 -1.6202  0.5624
 3251SOL    HW221216   3.688   3.466  17.687  0.3353  0.5192  1.0045
 3252SOL     OW21217   2.778   2.491   8.670 -0.3663  0.6120  0.3534
 3252SOL    HW121218   2.690   2.510   8.636 -0.1974  1.3440  0.3280
 3252SOL    HW221219   2.810   2.579   8.691  1.1079  0.4238 -1.1214
 3253SOL     OW21220   2.135   0.264   8.758  0.0830 -0.7676  0.6154
 3253SOL    HW121221   2.219   0.229   8.726  0.9691  0.5941  1.4520
 3253SOL    HW221222   2.087   0.194   8.714 -0.6757 -0.1603  0.4840
 3254SOL     OW21223   0.552   1.986  17.583 -0.1865 -0.7552 -0.0147
 3254SOL    HW121224   0.470   2.035  17.577  0.4996  0.0705 -2.5735
 3254SOL    HW221225   0.620   2.048  17.555 -1.2565  0.1042 -0.6986
 3255SOL     OW21226   1.035   2.689   2.818  0.3765  0.5188 -0.0019
 3255SOL    HW121227   1.015   2.650   2.733 -0.8335  0.4361  0.3226
 3255SOL    HW221228   1.098   2.623   2.847 -2.0796 -1.5061  0.7407
 3256SOL     OW21229   4.459   1.690   2.327 -0.0257  0.4338 -0.4087
 3256SOL    HW121230   4.421   1.665   2.243 -0.9226  0.2016  0.0618
 3256SOL    HW221231   4.426   1.781   2.331 -0.3026  0.4380 -2.7726
 3257SOL     OW21232   1.975   0.529   7.768  0.2783  0.3486  0.1678
 3257SOL    HW121233   2.057   0.535   7.719  1.1352 -0.0547  1.5637
 3257SOL    HW221234   1.949   0.439   7.751  0.4180  0.6618 -1.6930
 3258SOL     OW21235   0.140   0.341   8.557  0.0605 -0.6615 -0.7372
 3258SOL    HW121236   0.200   0.275   8.593  1.9643  1.6791  0.4213
 3258SOL    HW221237   0.152   0.405   8.627  0.1320  0.3170 -1.6459
 3259SOL     OW21238   2.149   3.904   3.388  0.1891  0.1472 -0.0593
 3259SOL    HW121239   2.241   3.886   3.404 -0.7074 -3.1674  1.3982
 3259SOL    HW221240   2.138   3.844   3.313  1.7574  0.8264 -0.8380
 3260SOL     OW21241   1.736   0.437   2.620 -0.6370 -0.2996 -0.6461
 3260SOL    HW121242   1.655   0.429   2.570 -1.7516 -1.3712  1.3480
 3260SOL    HW221243   1.781   0.352   2.618 -1.4332 -0.7359  0.2047
 3261SOL     OW21244   0.840   3.697   8.705 -0.0148  0.1521 -0.3798
 3261SOL    HW121245   0.918   3.730   8.659  0.6391 -3.3245 -1.7432
 3261SOL    HW221246   0.841   3.746   8.787  0.2969  0.3341 -0.4924
 3262SOL     OW21247   2.188   4.204   6.108  0.4425  0.6225  0.4823
 3262SOL    HW121248   2.113   4.171   6.059 -1.8629  0.9218  3.8671
 3262SOL    HW221249   2.249   4.199   6.034  0.2557 -0.9315  0.4240
 3263SOL     OW21250   4.059   3.262   1.197  0.1373 -0.0734  0.3358
 3263SOL    HW121251   4.004   3.317   1.253 -1.9188 -2.2350  0.4050
 3263SOL    HW221252   3.999   3.240   1.127  1.1476  0.5592 -0.7312
 3264SOL     OW21253   0.240   1.949   0.835 -0.0119 -0.0489 -0.4361
 3264SOL    HW121254   0.219   2.002   0.912 -0.7243 -2.1424  0.8039
 3264SOL    HW221255   0.330   1.983   0.831 -0.0989  0.1629 -0.5737
 3265SOL     OW21256   1.134   3.960   3.939  0.0785 -0.6211  0.2918
 3265SOL    HW121257   1.075   3.915   4.000  0.2377 -1.7551 -0.3947
 3265SOL    HW221258   1.173   3.888   3.890 -0.4251  0.9802 -2.4530
 3266SOL     OW21259   3.776   1.276  11.484 -0.3717 -0.3411 -0.1601
 3266SOL    HW121260   3.776   1.276  11.388  1.1516  0.6466 -0.1535
 3266SOL    HW221261   3.683   1.286  11.505  0.1011  3.3110  0.1157
 3267SOL     OW21262   0.132   0.008   5.751  0.0616 -0.1105  0.2388
 3267SOL    HW121263   0.169   0.095   5.735  1.0430 -0.7079 -0.7339
 3267SOL    HW221264   0.058   0.025   5.810 -0.4096  1.1357 -0.7014
 3268SOL     OW21265   1.363   3.176  12.218 -0.0146  0.2576  0.1115
 3268SOL    HW121266   1.326   3.249  12.168 -0.9615  0.7205  1.5080
 3268SOL    HW221267   1.453   3.206  12.232 -0.0806  0.1163  0.8058
 3269SOL     OW21268   0.623   3.574   8.553  0.1317 -0.6859  0.2071
 3269SOL    HW121269   0.545   3.611   8.594  0.4478  0.7634 -0.5350
 3269SOL    HW221270   0.683   3.625   8.607  2.0118 -1.7940 -0.8368
 3270SOL     OW21271   1.432   0.941   4.854  0.5447 -0.1909 -0.7064
 3270SOL    HW121272   1.406   0.854   4.884  0.9464  0.2896  1.0762
 3270SOL    HW221273   1.406   0.987   4.934  1.0312 -1.4031  0.1466
 3271SOL     OW21274   1.326   3.361   9.654 -0.2039  0.5978  0.4260
 3271SOL    HW121275   1.268   3.340   9.581 -1.3315 -1.1087  1.8248
 3271SOL    HW221276   1.411   3.386   9.618 -0.5626  0.4180 -0.5354
 3272SOL     OW21277   1.228   2.699   5.449 -0.2734 -0.1660  0.2107
 3272SOL    HW121278   1.248   2.615   5.489 -0.4726 -0.1840  0.2693
 3272SOL    HW221279   1.292   2.699   5.378  1.8844  0.4372  2.1437
 3273SOL     OW21280   2.558   4.719  11.620  0.2345 -0.1354 -0.5107
 3273SOL    HW121281   2.473   4.692  11.585  0.8377 -2.5635 -0.1051
 3273SOL    HW221282   2.603   0.019  11.539 -0.8557  1.5008 -0.5858
 3274SOL     OW21283   1.068   3.898   7.673 -0.5157  0.1101 -0.3735
 3274SOL    HW121284   1.125   3.975   7.684  0.6477 -1.2894  3.3885
 3274SOL    HW221285   1.127   3.824   7.686 -0.3596  0.4653  0.9254
 3275SOL     OW21286   2.184   1.441   4.424 -0.4230  0.3897  0.4142
 3275SOL    HW121287   2.112   1.380   4.412  0.1467 -0.3827  0.9094
 3275SOL    HW221288   2.148   1.523   4.389  2.0884  0.9917 -0.8150
 3276SOL     OW21289   3.871   3.912  17.666  0.0087  0.6174  0.1364
 3276SOL    HW121290   3.781   3.925  17.695 -0.7277 -1.3686 -1.2082
 3276SOL    HW221291   3.912   3.951   0.035  0.7854  0.7095 -0.3248
 3277SOL     OW21292   0.989   0.591   4.216  0.7845  0.3852 -0.1256
 3277SOL    HW121293   0.943   0.576   4.133 -0.1635 -1.8480  0.7952
 3277SOL    HW221294   1.008   0.684   4.206  0.5702  0.2800 -1.6011
 3278SOL     OW21295   1.776   2.560   2.783 -0.2187  0.3978  0.0196
 3278SOL    HW121296   1.817   2.571   2.868  0.9064  0.9422 -0.5934
 3278SOL    HW221297   1.847   2.511   2.740 -1.7914 -1.7577 -0.0994
 3279SOL     OW21298   3.328   3.081  16.341  0.2604  0.5610  0.3339
 3279SOL    HW121299   3.239   3.087  16.376  0.0205 -0.8201 -0.0350
 3279SOL    HW221300   3.322   3.143  16.268 -0.6462  0.6293  0.4702
 3280SOL     OW21301   2.515   3.892  16.730 -0.1472 -0.4406  0.1094
 3280SOL    HW121302   2.571   3.945  16.788 -1.5868  0.2642  0.8467
 3280SOL    HW221303   2.576   3.886  16.657  1.9022 -0.2438  1.7707
 3281SOL     OW21304   0.879   1.577   3.225  0.5761 -0.5767  0.0790
 3281SOL    HW121305   0.813   1.627   3.273 -0.4353 -1.5655 -0.2888
 3281SOL    HW221306   0.948   1.564   3.290 -0.4574 -0.9547  1.0810
 3282SOL     OW21307   2.105   0.957   5.405 -0.5133  0.1452 -0.6128
 3282SOL    HW121308   2.197   0.933   5.405 -0.9755 -1.6114  0.2953
 3282SOL    HW221309   2.054   0.880   5.432 -0.3298  0.8726  1.8607
 3283SOL     OW21310   0.983   1.890   7.472  0.7235  0.1916  0.1715
 3283SOL    HW121311   0.993   1.943   7.393  0.1570  0.5810  0.3652
 3283SOL    HW221312   0.908   1.932   7.514 -0.1689 -0.5945 -0.6222
 3284SOL     OW21313   3.337   0.471  14.485 -0.5641  0.3816 -0.5013
 3284SOL    HW121314   3.414   0.474  14.428  1.1204 -4.3890  1.5899
 3284SOL    HW221315   3.304   0.383  14.468  1.0701 -0.0435 -1.4142
 3285SOL     OW21316   1.374   4.712   9.212  0.1380 -0.6414  0.2180
 3285SOL    HW121317   1.280   4.701   9.223  0.1400  0.1676  1.0148
 3285SOL    HW221318   1.393   0.025   9.127 -1.8841  2.2200  1.1026
 3286SOL     OW21319   2.229   1.996   1.581 -0.1617  0.0554 -0.0551
 3286SOL    HW121320   2.262   1.907   1.586  1.2039  0.5824  0.3517
 3286SOL    HW221321   2.190   2.014   1.667  0.9721 -2.1227  0.9056
 3287SOL     OW21322   2.575   2.926   1.511 -0.3838 -0.6720 -0.0692
 3287SOL    HW121323   2.525   3.007   1.519 -1.7293 -1.5147  0.0631
 3287SOL    HW221324   2.615   2.950   1.427  0.9108 -2.8144 -0.0758
 3288SOL     OW21325   2.388   4.524   2.372 -0.1906  0.5431  0.0464
 3288SOL    HW121326   2.304   4.568   2.382 -0.6664 -0.5477  0.9664
 3288SOL    HW221327   2.368   4.466   2.298 -1.7670 -0.7616  1.4981
 3289SOL     OW21328   3.182   0.752   9.866  0.2991 -0.1619 -0.5996
 3289SOL    HW121329   3.212   0.682   9.924  0.8872 -1.3979 -2.4066
 3289SOL    HW221330   3.222   0.732   9.781 -0.0365 -1.2745 -0.4978
 3290SOL     OW21331   3.745   1.633  12.273  0.0045  0.6843 -0.2525
 3290SOL    HW121332   3.726   1.696  12.204 -0.0812 -0.4483 -1.2677
 3290SOL    HW221333   3.726   1.556  12.219  0.7205 -0.2999  0.8789
 3291SOL     OW21334   4.389   4.670   9.065  0.4201  0.0050  0.5219
 3291SOL    HW121335   4.395   4.693   8.972 -1.4789 -2.0187 -0.0969
 3291SOL    HW221336   4.304   4.626   9.067  0.8552 -0.8108  0.9698
 3292SOL     OW21337   1.796   1.865   5.971 -0.0242 -0.2570 -0.6034
 3292SOL    HW121338   1.713   1.864   5.924  0.0134 -1.2104 -0.6637
 3292SOL    HW221339   1.856   1.871   5.897  1.2080  0.8031  0.4719
 3293SOL     OW21340   1.617   1.848   8.282 -0.0212  0.5835  0.0455
 3293SOL    HW121341   1.550   1.779   8.277  0.4979  0.0509  0.4919
 3293SOL    HW221342   1.602   1.889   8.367  1.8433  1.7000 -0.1801
 3294SOL     OW21343   4.425   1.834  10.054 -0.1662  0.4697  0.3350
 3294SOL    HW121344   4.484   1.906  10.031  2.9477 -1.9499  0.7098
 3294SOL    HW221345   4.488   1.786  10.108 -2.5822 -0.9140  1.9579
 3295SOL     OW21346   4.135   0.254   6.471  0.2235 -0.0665 -0.3086
 3295SOL    HW121347   4.171   0.218   6.552  0.0178 -0.8942 -0.5842
 3295SOL    HW221348   4.149   0.186   6.404 -0.4390 -0.7970  0.3030
 3296SOL     OW21349   1.050   2.496  15.031  0.4708  0.6701 -0.3340
 3296SOL    HW121350   0.990   2.554  15.079 -0.6506 -0.5844 -0.1973
 3296SOL    HW221351   1.053   2.416  15.083 -2.1138  1.0494  0.4003
 3297SOL     OW21352   3.111   3.698   2.722 -0.0883  0.2367 -0.2235
 3297SOL    HW121353   3.138   3.655   2.640 -1.0033 -1.1725  0.1970
 3297SOL    HW221354   3.042   3.756   2.690 -1.2571 -1.2759 -0.4748
 3298SOL     OW21355   4.663   4.523   5.226  0.3365 -0.1209  0.0170
 3298SOL    HW121356   4.603   4.577   5.277  0.4055  1.1079 -1.1958
 3298SOL    HW221357   4.633   4.433   5.231 -0.3488  0.1003 -0.1799
 3299SOL     OW21358   2.654   0.907  14.151 -0.0658 -0.1307 -0.2766
 3299SOL    HW121359   2.618   0.968  14.087  1.3659  1.0548  0.0364
 3299SOL    HW221360   2.586   0.917  14.218 -0.7534 -1.9206 -0.6917
 3300SOL     OW21361   3.706   1.927  12.376 -0.5570  0.6003  0.4961
 3300SOL    HW121362   3.747   1.963  12.454 -0.0468 -0.1749  0.5929
 3300SOL    HW221363   3.786   1.904  12.327 -0.6349  1.2151  0.0872
 3301SOL     OW21364   2.638   3.672   2.694  0.1889 -0.3788 -0.4154
 3301SOL    HW121365   2.559   3.626   2.664  1.1102 -1.2176 -1.5337
 3301SOL    HW221366   2.662   3.633   2.779 -3.1663  2.3078  1.7828
 3302SOL     OW21367   0.961   0.668  17.182 -0.2651  0.6709 -0.0415
 3302SOL    HW121368   0.906   0.745  17.166 -1.8739 -0.6251 -0.6952
 3302SOL    HW221369   0.997   0.687  17.269  0.6652  0.8264 -0.4533
 3303SOL     OW21370   0.488   0.280   6.247  0.6022 -0.2449  0.7185
 3303SOL    HW121371   0.455   0.366   6.273  0.9882  0.2040 -0.3041
 3303SOL    HW221372   0.405   0.233   6.258  0.0088  0.6584  0.1372
 3304SOL     OW21373   0.500   0.313  11.271  0.2137 -0.0979 -0.0056
 3304SOL    HW121374   0.579   0.349  11.231  0.7062 -1.1745 -0.0154
 3304SOL    HW221375   0.531   0.326  11.361 -0.1982  3.1243 -0.3547
 3305SOL     OW21376   2.476   0.023  10.632  0.0220 -0.1675 -0.0452
 3305SOL    HW121377   2.471   4.674  10.689 -0.8111 -0.8441 -1.0038
 3305SOL    HW221378   2.489   4.710  10.546 -2.8950  1.3682 -1.2013
 3306SOL     OW21379   1.627   2.078  15.807 -0.0153  0.1733  0.2465
 3306SOL    HW121380   1.645   2.151  15.747  1.2067  1.5926  2.3359
 3306SOL    HW221381   1.683   2.016  15.759 -1.5964 -0.8784 -0.2249
 3307SOL     OW21382   2.926   0.451  11.371  0.1519  0.1713  0.2320
 3307SOL    HW121383   2.976   0.450  11.290 -0.0096 -0.1026  0.1343
 3307SOL    HW221384   2.908   0.357  11.381  2.4886 -0.1555  1.3044
 3308SOL     OW21385   4.184   0.972   4.361  0.1351 -0.2518 -0.1807
 3308SOL    HW121386   4.136   0.942   4.284  0.8146 -0.0497 -0.6852
 3308SOL    HW221387   4.253   1.020   4.315 -1.0193  2.3767  0.8550
 3309SOL     OW21388   0.891   0.090   9.371 -0.1390 -0.3550 -0.0948
 3309SOL    HW121389   0.845   0.144   9.436 -0.0065  1.9482 -1.8847
 3309SOL    HW221390   0.827   0.101   9.301  1.1177  0.4196 -1.1115
 3310SOL     OW21391   2.872   2.737  13.509 -0.1988  0.1448  0.6801
 3310SOL    HW121392   2.882   2.809  13.447  2.6372 -0.3205  0.6109
 3310SOL    HW221393   2.777   2.730  13.513 -0.0260 -1.7731  1.2879
 3311SOL     OW21394   3.995   0.381   5.037  0.2821  0.0842  0.2088
 3311SOL    HW121395   4.009   0.361   4.944  2.6982  1.8063  0.2089
 3311SOL    HW221396   4.083   0.385   5.075 -0.2649 -2.1495  1.7565
 3312SOL     OW21397   1.988   0.689   1.074 -0.6045 -0.2175 -0.6598
 3312SOL    HW121398   1.969   0.763   1.132  0.4436  0.5940 -1.3680
 3312SOL    HW221399   1.912   0.689   1.016 -1.4373 -2.8432  0.4332
 3313SOL     OW21400   1.029   2.511   7.686 -0.6745 -0.7392  0.0391
 3313SOL    HW121401   1.074   2.595   7.691 -2.9860  0.4103  1.4117
 3313SOL    HW221402   1.103   2.450   7.689  0.7300  1.0854  2.1047
 3314SOL     OW21403   4.339   0.860   2.265 -0.1961  0.4518 -0.1835
 3314SOL    HW121404   4.277   0.787   2.265  2.2688 -1.6568  0.2404
 3314SOL    HW221405   4.283   0.937   2.262 -2.2900 -1.0825 -0.6520
 3315SOL     OW21406   0.232   0.934   7.960 -0.9841 -0.0328 -0.2220
 3315SOL    HW121407   0.176   0.876   7.909 -0.4757 -0.8149  0.1090
 3315SOL    HW221408   0.289   0.872   8.006 -1.6605 -0.5645 -0.0896
 3316SOL     OW21409   2.343   3.685   4.863 -0.1198  0.0429  0.1250
 3316SOL    HW121410   2.273   3.744   4.893  1.0437  0.7475  1.4501
 3316SOL    HW221411   2.287   3.630   4.808  2.1015 -1.9595 -0.0969
 3317SOL     OW21412   3.794   1.001   6.629 -0.3649 -0.0963  0.4020
 3317SOL    HW121413   3.702   1.000   6.655 -0.2307 -1.2051  0.8525
 3317SOL    HW221414   3.804   1.094   6.610  0.9115 -0.4264 -0.5832
 3318SOL     OW21415   2.422   2.286   5.919  0.0500  0.0945  0.6104
 3318SOL    HW121416   2.391   2.200   5.946  0.9998 -0.1238  1.0087
 3318SOL    HW221417   2.493   2.267   5.857 -1.3799 -0.5496 -0.8411
 3319SOL     OW21418   4.374   2.543   1.477  0.0361 -0.1613 -0.2680
 3319SOL    HW121419   4.377   2.468   1.537  0.5248  0.3296  0.3298
 3319SOL    HW221420   4.412   2.503   1.399 -0.3420 -1.2212  0.0955
 3320SOL     OW21421   3.378   1.460   3.530 -0.1511 -0.4376 -0.0943
 3320SOL    HW121422   3.354   1.451   3.438  0.0694  0.2085 -0.2099
 3320SOL    HW221423   3.441   1.389   3.536  0.3930  0.1017  0.5195
 3321SOL     OW21424   3.069   2.509   7.849 -0.6935 -0.1851  0.4640
 3321SOL    HW121425   3.039   2.446   7.915 -2.2866 -1.2970 -1.3166
 3321SOL    HW221426   3.097   2.444   7.785 -0.3464  1.8980 -1.4894
 3322SOL     OW21427   2.342   0.694   0.299 -0.0932  0.3095  0.3856
 3322SOL    HW121428   2.421   0.747   0.308  2.2734 -3.3008  1.2406
 3322SOL    HW221429   2.376   0.614   0.340  0.9408  0.3194 -0.4405
 3323SOL     OW21430   1.199   1.829   7.146  0.3899  0.2149  0.1071
 3323SOL    HW121431   1.217   1.780   7.226 -2.1061 -2.0720 -0.7458
 3323SOL    HW221432   1.127   1.886   7.173 -0.7630 -0.9180 -0.5561
 3324SOL     OW21433   4.449   2.733   8.997 -0.5595 -0.1295 -0.0014
 3324SOL    HW121434   4.406   2.648   9.006 -1.4735  0.1910 -1.3173
 3324SOL    HW221435   4.460   2.747   8.903  1.8923 -0.0887  0.3103
 3325SOL     OW21436   4.265   3.116   4.013  0.5392  0.2989  0.2341
 3325SOL    HW121437   4.336   3.103   3.949  0.7911  0.9871  0.3703
 3325SOL    HW221438   4.229   3.028   4.001 -4.9764  2.7195 -0.7135
 3326SOL     OW21439   1.375   4.161   3.748 -0.0171 -0.6620 -0.4882
 3326SOL    HW121440   1.341   4.119   3.670 -0.2753 -2.2153  0.4484
 3326SOL    HW221441   1.442   4.207   3.698  0.8229 -0.1199  1.1211
 3327SOL     OW21442   0.529   2.630   5.430 -0.8984  0.0237 -0.4738
 3327SOL    HW121443   0.607   2.682   5.413  0.7932 -2.1998  0.4806
 3327SOL    HW221444   0.550   2.547   5.387  2.0662  1.6177 -2.1022
 3328SOL     OW21445   2.388   0.437   6.577 -0.0838  0.2738 -0.9219
 3328SOL    HW121446   2.444   0.452   6.501  2.8384  0.2537  1.2755
 3328SOL    HW221447   2.336   0.360   6.554 -1.2179  0.7213  0.1170
 3329SOL     OW21448   3.587   1.207   8.014  0.5702  0.1504  0.7322
 3329SOL    HW121449   3.495   1.228   7.995  0.0864 -2.9835 -0.4396
 3329SOL    HW221450   3.626   1.294   8.011 -1.3777  1.0124 -0.2208
 3330SOL     OW21451   3.465   0.595   8.290 -0.0316  0.1626 -0.6829
 3330SOL    HW121452   3.525   0.664   8.319 -1.0985  0.6905  0.2516
 3330SOL    HW221453   3.507   0.521   8.334  1.1827 -0.4481 -2.8324
 3331SOL     OW21454   4.484   1.909   8.143  0.3791  0.7696  0.1395
 3331SOL    HW121455   4.462   2.001   8.128  1.2515  0.6552 -1.8916
 3331SOL    HW221456   4.434   1.885   8.221  1.5554  2.8682  1.5438
 3332SOL     OW21457   4.026   2.645   3.640  0.1070 -0.1037  0.1022
 3332SOL    HW121458   3.965   2.716   3.657 -0.4264 -0.1061 -1.7860
 3332SOL    HW221459   4.054   2.610   3.725 -0.9518  0.0613  0.5152
 3333SOL     OW21460   3.467   0.712   3.364 -0.1760  0.7962 -0.4634
 3333SOL    HW121461   3.561   0.725   3.353 -0.0523  1.3980  1.4524
 3333SOL    HW221462   3.472   0.616   3.374  1.6850  0.7768 -1.4714
 3334SOL     OW21463   3.332   3.193   1.275 -0.7933 -0.0925  0.3882
 3334SOL    HW121464   3.249   3.148   1.290 -2.0799  1.5877 -1.6205
 3334SOL    HW221465   3.393   3.120   1.275  0.5877  1.0670 -1.2511
 3335SOL     OW21466   4.601   0.461   9.747  0.0284 -0.9093 -0.3381
 3335SOL    HW121467   4.576   0.447   9.656 -0.6008  2.1940 -0.6449
 3335SOL    HW221468   4.529   0.518   9.774  0.4702  0.2302 -1.5089
 3336SOL     OW21469   2.589   1.724   5.685  0.0164  0.4944 -0.5021
 3336SOL    HW121470   2.633   1.735   5.770 -0.0481 -1.4215 -0.2091
 3336SOL    HW221471   2.499   1.693   5.697  0.5939 -0.8475  0.3867
 3337SOL     OW21472   2.733   4.443   0.968 -0.0560 -0.4458 -0.4392
 3337SOL    HW121473   2.712   4.352   0.990  0.0780 -0.4761 -0.4325
 3337SOL    HW221474   2.653   4.449   0.916 -0.0530 -2.9606 -0.7138
 3338SOL     OW21475   2.056   3.447  14.391  0.1694 -0.4466  0.1275
 3338SOL    HW121476   2.015   3.381  14.333 -0.4773  0.3313 -0.3043
 3338SOL    HW221477   1.973   3.471  14.433  0.7398  1.7795 -0.0536
 3339SOL     OW21478   3.480   1.725   5.952 -0.1387 -0.0113 -0.7048
 3339SOL    HW121479   3.436   1.795   6.000 -0.3933 -0.0579 -0.8737
 3339SOL    HW221480   3.452   1.740   5.862 -0.2155  1.6551 -0.3917
 3340SOL     OW21481   0.705   4.515  12.575 -0.2736  0.5303  0.3663
 3340SOL    HW121482   0.689   4.606  12.600  0.5884  0.9147 -0.5029
 3340SOL    HW221483   0.636   4.499  12.512 -0.7089  0.4510  0.8609
 3341SOL     OW21484   4.307   0.668   6.881  0.2024  0.9798  0.2565
 3341SOL    HW121485   4.386   0.702   6.838  1.1407  0.1875  1.3582
 3341SOL    HW221486   4.241   0.724   6.841 -0.7463 -1.3309 -1.4218
 3342SOL     OW21487   0.702   2.116   9.073  0.5569  0.1194  0.2845
 3342SOL    HW121488   0.683   2.171   9.150 -0.7639 -0.1946  0.1702
 3342SOL    HW221489   0.622   2.076   9.041 -0.1235  0.9919  0.8939
 3343SOL     OW21490   2.071   2.762  16.929  0.0524 -0.0398 -0.2528
 3343SOL    HW121491   1.990   2.775  16.880  0.7066 -0.9065 -1.5567
 3343SOL    HW221492   2.139   2.811  16.882  0.1302  0.7339  0.6685
 3344SOL     OW21493   0.253   1.178  14.865  0.5036 -0.1361  0.2379
 3344SOL    HW121494   0.185   1.217  14.811  0.8968  2.2725  1.5037
 3344SOL    HW221495   0.262   1.094  14.819  1.0800 -1.2615  2.3751
 3345SOL     OW21496   1.312   3.776   7.416  0.0411 -0.0477 -0.0014
 3345SOL    HW121497   1.403   3.804   7.412  0.6851 -1.8848  1.8792
 3345SOL    HW221498   1.309   3.746   7.507 -0.6203  0.2032  0.0633
 3346SOL     OW21499   0.327   2.301   6.368 -0.5352  0.0065  0.4096
 3346SOL    HW121500   0.318   2.272   6.459 -1.7969 -1.0020 -0.0250
 3346SOL    HW221501   0.419   2.327   6.362 -0.7341  0.0239 -2.3497
 3347SOL     OW21502   4.051   1.558  11.902  0.4790 -0.5124  0.6479
 3347SOL    HW121503   4.037   1.545  11.808  1.7511  2.5606  0.0380
 3347SOL    HW221504   3.966   1.596  11.923 -1.5626 -3.9010 -1.3903
 3348SOL     OW21505   3.837   2.069   6.735  0.0060 -0.0830 -0.0895
 3348SOL    HW121506   3.759   2.107   6.774 -1.7096 -1.3767 -2.2566
 3348SOL    HW221507   3.845   2.104   6.646  0.8589 -0.4958 -0.1777
 3349SOL     OW21508   2.034   4.156  10.684  0.5004  0.7809  0.1018
 3349SOL    HW121509   2.046   4.169  10.778 -3.0237 -0.1185  0.6802
 3349SOL    HW221510   2.122   4.175  10.651 -0.4831  3.5313 -0.9533
 3350SOL     OW21511   3.264   4.591   8.052 -0.3427  0.3053 -0.1198
 3350SOL    HW121512   3.245   4.683   8.034 -1.4189 -0.2539 -1.8441
 3350SOL    HW221513   3.175   4.557   8.064  0.4588 -1.1371  1.7845
 3351SOL     OW21514   3.122   1.847   9.849  0.3263 -0.2100  0.3781
 3351SOL    HW121515   3.098   1.892   9.930  2.6169  0.9139  0.4626
 3351SOL    HW221516   3.096   1.914   9.785 -2.0165 -2.0440 -0.5566
 3352SOL     OW21517   3.713   2.614   7.035  0.2548 -0.5526  0.1114
 3352SOL    HW121518   3.800   2.616   7.075  0.6553 -1.1715 -0.7270
 3352SOL    HW221519   3.716   2.687   6.973  0.7161 -1.2014 -0.6324
 3353SOL     OW21520   0.424   1.897   6.185  0.3330 -0.3503 -1.2555
 3353SOL    HW121521   0.354   1.962   6.192  1.5979  0.9346 -0.2663
 3353SOL    HW221522   0.396   1.851   6.106 -0.7037  0.5441 -1.4111
 3354SOL     OW21523   3.074   1.603   8.590 -0.1271  0.6753 -0.2134
 3354SOL    HW121524   3.014   1.675   8.610  2.2055  2.9597 -1.4247
 3354SOL    HW221525   3.132   1.596   8.666 -2.8902  0.4122  1.8771
 3355SOL     OW21526   4.185   4.279  10.374  0.3713 -0.0764  0.4246
 3355SOL    HW121527   4.234   4.316  10.448  2.6551  0.4504 -1.3758
 3355SOL    HW221528   4.119   4.215  10.403  1.0276 -1.4330 -1.1436
 3356SOL     OW21529   1.947   1.832  10.240  0.1549 -0.4564  0.3186
 3356SOL    HW121530   1.982   1.868  10.322  2.1556  0.1863 -0.8063
 3356SOL    HW221531   2.027   1.792  10.205  1.2183  1.8087  0.1435
 3357SOL     OW21532   3.234   4.204  16.468 -0.7829 -0.5878 -0.1296
 3357SOL    HW121533   3.235   4.298  16.484  0.6337 -0.6389  0.0536
 3357SOL    HW221534   3.307   4.176  16.524 -0.0330  1.4387 -0.1177
 3358SOL     OW21535   4.084   3.889   7.949  0.3351 -0.3279  0.5323
 3358SOL    HW121536   4.070   3.842   7.866 -1.3161 -0.1445  0.7066
 3358SOL    HW221537   4.039   3.824   8.004 -1.7703  0.8674  0.2239
 3359SOL     OW21538   2.345   0.690  10.702 -0.1480  0.2061  0.0887
 3359SOL    HW121539   2.372   0.748  10.631 -2.0523  3.2471  1.8123
 3359SOL    HW221540   2.256   0.665  10.678  0.1562  0.2813 -1.1303
 3360SOL     OW21541   0.963   4.694   6.687 -0.0352  0.1888 -0.1959
 3360SOL    HW121542   0.945   0.022   6.610  0.5964  1.7637  0.7872
 3360SOL    HW221543   0.887   4.709   6.744  1.3688 -2.0481  2.2388
 3361SOL     OW21544   3.842   2.954   5.321 -0.1619 -0.4172  0.0367
 3361SOL    HW121545   3.913   2.929   5.380 -0.2920  1.4977  1.0301
 3361SOL    HW221546   3.889   3.002   5.254 -3.7549  0.1956 -2.0542
 3362SOL     OW21547   4.531   2.348  15.345 -0.1363 -0.1843 -0.4987
 3362SOL    HW121548   4.542   2.294  15.267  2.2308 -2.4223  1.3707
 3362SOL    HW221549   4.475   2.285  15.390  0.3403  0.2854  0.7721
 3363SOL     OW21550   0.390   4.300   4.117  0.7211 -0.3070  0.1498
 3363SOL    HW121551   0.386   4.253   4.034  3.7185  0.2532 -0.3119
 3363SOL    HW221552   0.324   4.369   4.111  0.8210 -0.2299 -0.0727
 3364SOL     OW21553   3.668   0.611   2.259  0.0586  0.2284 -0.0009
 3364SOL    HW121554   3.638   0.659   2.182 -2.4101 -2.9114 -0.9888
 3364SOL    HW221555   3.747   0.661   2.283  1.1001 -0.0035 -2.9070
 3365SOL     OW21556   1.706   3.644   4.815  0.2974  0.2666 -0.3727
 3365SOL    HW121557   1.655   3.681   4.887  1.2854  1.5828 -0.3632
 3365SOL    HW221558   1.630   3.648   4.756 -0.1204 -0.6233  0.1108
 3366SOL     OW21559   0.759   1.723   2.816  0.0734 -0.6502 -0.0220
 3366SOL    HW121560   0.791   1.739   2.905 -0.9257  0.5033  0.1336
 3366SOL    HW221561   0.758   1.628   2.811 -0.0106 -0.7135  1.1345
 3367SOL     OW21562   0.488   3.094   7.760  0.3775  0.6990  0.0447
 3367SOL    HW121563   0.518   3.003   7.751 -0.7686  0.1011  2.1404
 3367SOL    HW221564   0.540   3.120   7.836  1.3785 -0.5571 -0.1978
 3368SOL     OW21565   0.061   4.021   8.569 -0.6807 -0.1621 -0.3506
 3368SOL    HW121566   4.713   3.964   8.590 -0.8338  0.2039  0.1122
 3368SOL    HW221567   0.112   3.954   8.524 -1.2003 -2.1442  1.9787
 3369SOL     OW21568   3.936   2.604   0.983 -0.4064  0.7144  0.5606
 3369SOL    HW121569   3.843   2.595   0.962 -0.0592  2.2016 -1.5816
 3369SOL    HW221570   3.940   2.699   0.983 -1.1351  0.7551 -0.5509
 3370SOL     OW21571   2.677   0.308  12.054 -0.2079 -0.3180 -0.1955
 3370SOL    HW121572   2.594   0.285  12.012  0.7020  0.3635 -2.3723
 3370SOL    HW221573   2.732   0.282  11.979 -0.5025 -0.1493 -0.4705
 3371SOL     OW21574   0.532   4.498   6.995  0.4290  0.5339 -0.2202
 3371SOL    HW121575   0.589   4.422   6.993  0.1995  0.3917 -1.3121
 3371SOL    HW221576   0.478   4.485   6.917 -0.0086 -1.8196  0.4658
 3372SOL     OW21577   1.401   2.899   3.863 -0.3350  0.1689 -0.4855
 3372SOL    HW121578   1.330   2.917   3.802 -2.3260 -2.0236  1.2005
 3372SOL    HW221579   1.421   2.808   3.843  0.3818  0.2839 -0.2988
 3373SOL     OW21580   1.396   0.030  13.699 -0.5518 -0.5478 -0.1359
 3373SOL    HW121581   1.386   0.103  13.759  1.2067 -0.2125 -0.2596
 3373SOL    HW221582   1.312   0.037  13.653 -1.1585 -0.0723  1.0515
 3374SOL     OW21583   0.666   4.178   3.414  0.2199 -0.2684 -0.1251
 3374SOL    HW121584   0.724   4.167   3.490 -2.0811 -2.2097  1.3396
 3374SOL    HW221585   0.663   4.094   3.368  0.9337 -0.0441 -0.5793
 3375SOL     OW21586   1.083   3.229   3.995 -0.3103 -0.2068  0.3201
 3375SOL    HW121587   1.054   3.174   4.067  0.0123  0.0984  0.6893
 3375SOL    HW221588   1.000   3.264   3.964  0.4448  1.7148  0.4490
 3376SOL     OW21589   0.712   2.127  11.313  0.3758 -0.1044 -0.0565
 3376SOL    HW121590   0.688   2.036  11.325  1.0751 -0.0983  1.3476
 3376SOL    HW221591   0.808   2.119  11.311  0.2144 -1.3806 -3.6749
 3377SOL     OW21592   1.340   3.134   4.810 -0.4927  0.7702  0.1730
 3377SOL    HW121593   1.328   3.225   4.783 -0.3003  0.8919  0.4889
 3377SOL    HW221594   1.424   3.134   4.857  0.4047  1.0366 -1.4152
 3378SOL     OW21595   4.337   1.710   4.975 -0.0691 -0.2083  0.0737
 3378SOL    HW121596   4.263   1.695   4.916 -0.9679 -1.5581  1.5027
 3378SOL    HW221597   4.358   1.801   4.958 -0.6829  0.0543  0.7183
 3379SOL     OW21598   4.241   2.931   3.046 -0.3230  0.3167  0.0605
 3379SOL    HW121599   4.289   2.861   3.003  0.3944  1.0463 -0.3379
 3379SOL    HW221600   4.308   2.988   3.086 -0.9292  0.0246  1.5009
 3380SOL     OW21601   3.744   4.041   5.400  0.1089 -0.1982  0.6976
 3380SOL    HW121602   3.655   4.051   5.434  0.1598  3.3164 -0.2226
 3380SOL    HW221603   3.795   4.105   5.449  0.9689  0.0341 -0.4906
 3381SOL     OW21604   0.338   0.789   6.897  0.1843  0.2591  0.2393
 3381SOL    HW121605   0.248   0.759   6.886  0.0937  0.1799  1.2041
 3381SOL    HW221606   0.330   0.862   6.958  0.3681 -2.0943  3.0810
 3382SOL     OW21607   0.669   3.927   4.050  0.3697  0.9098  0.9124
 3382SOL    HW121608   0.730   4.000   4.048  1.0132  0.3404 -0.1941
 3382SOL    HW221609   0.669   3.909   3.956  2.5185  1.9792  0.7328
 3383SOL     OW21610   0.504   0.920   6.097 -0.2951 -0.2826 -0.4329
 3383SOL    HW121611   0.422   0.915   6.145  1.6298  3.0494  3.1929
 3383SOL    HW221612   0.473   0.911   6.007 -0.1835 -0.7825 -0.4266
 3384SOL     OW21613   3.637   0.652   8.985 -0.1515  0.0062 -0.5803
 3384SOL    HW121614   3.617   0.567   9.024  1.1801 -0.7140 -1.4635
 3384SOL    HW221615   3.597   0.711   9.049  0.2171 -0.7050  0.3123
 3385SOL     OW21616   2.368   2.657  16.805  0.1645 -0.5737  0.4083
 3385SOL    HW121617   2.422   2.629  16.878  0.0062 -3.1930 -0.4787
 3385SOL    HW221618   2.372   2.752  16.819  0.3313 -0.2585 -1.7546
 3386SOL     OW21619   4.571   0.653   2.709  0.3558 -0.0810  0.1134
 3386SOL    HW121620   4.594   0.718   2.642 -0.9092  0.7142  0.4552
 3386SOL    HW221621   4.509   0.592   2.669  0.6258 -0.0835 -0.3063
 3387SOL     OW21622   3.717   1.112  12.688 -0.0415  0.0956 -0.2268
 3387SOL    HW121623   3.765   1.187  12.723  3.2016 -2.5584  0.9482
 3387SOL    HW221624   3.706   1.052  12.762  0.0794 -0.4311 -0.6351
 3388SOL     OW21625   2.304   2.865   3.555 -0.3366 -0.4556 -0.7122
 3388SOL    HW121626   2.370   2.796   3.570  0.8979  1.0666  0.8394
 3388SOL    HW221627   2.253   2.857   3.636 -0.1914 -0.5576 -0.6290
 3389SOL     OW21628   4.396   0.789   7.290  0.7036  0.7367 -0.0267
 3389SOL    HW121629   4.357   0.840   7.361  0.4845  0.7713 -0.1698
 3389SOL    HW221630   4.388   0.860   7.226 -0.2485  3.0531  2.6573
 3390SOL     OW21631   2.218   3.518   9.262 -0.5502  0.2950  0.1204
 3390SOL    HW121632   2.276   3.543   9.334  0.4335 -0.5421 -0.3958
 3390SOL    HW221633   2.190   3.428   9.276 -1.5435  0.8361  1.7207
 3391SOL     OW21634   1.714   0.539  13.023  0.5478 -0.6889 -0.5165
 3391SOL    HW121635   1.804   0.545  13.055  0.5975  1.5444 -1.0547
 3391SOL    HW221636   1.686   0.449  13.035  1.3422 -0.7249  1.1305
 3392SOL     OW21637   2.057   3.500   8.158  0.0222  0.0362  0.8012
 3392SOL    HW121638   2.148   3.471   8.160 -0.4659 -1.5381 -0.0296
 3392SOL    HW221639   2.056   3.567   8.227  1.4517 -0.9944  1.8464
 3393SOL     OW21640   3.950   0.170   2.357  0.3635  0.0564  0.0442
 3393SOL    HW121641   3.988   0.250   2.320 -1.9532  0.9423 -0.4161
 3393SOL    HW221642   4.024   0.126   2.401 -0.4284 -1.9314 -0.6317
 3394SOL     OW21643   2.505   1.172   3.733 -0.0596 -0.0911 -0.2508
 3394SOL    HW121644   2.520   1.188   3.640  0.2099 -1.6330 -0.4796
 3394SOL    HW221645   2.448   1.243   3.761  1.8267  0.0712  3.2491
 3395SOL     OW21646   1.620   0.951   2.637 -0.1338  0.3309  0.2684
 3395SOL    HW121647   1.656   1.013   2.701  0.4696 -1.2317  1.4382
 3395SOL    HW221648   1.528   0.979   2.645 -0.3140  0.4007 -2.1060
 3396SOL     OW21649   0.305   3.443   9.340  0.4791  0.6889 -0.0313
 3396SOL    HW121650   0.308   3.486   9.255 -1.8407 -1.6360 -1.2900
 3396SOL    HW221651   0.221   3.398   9.334  0.4613  0.9793 -1.8035
 3397SOL     OW21652   1.844   2.806   7.083  0.3403  0.4790 -0.6782
 3397SOL    HW121653   1.780   2.824   7.152  2.4625  1.4134  1.0583
 3397SOL    HW221654   1.879   2.895   7.074  0.8016  0.3378 -0.2461
 3398SOL     OW21655   0.578   1.974   7.952  0.0292  0.3460 -0.2330
 3398SOL    HW121656   0.578   1.931   8.037 -1.6711  0.4821 -0.1537
 3398SOL    HW221657   0.597   1.899   7.895 -0.8958 -1.4740  1.8492
 3399SOL     OW21658   4.526   3.621   9.046 -0.4160  0.1805 -0.0004
 3399SOL    HW121659   4.493   3.539   9.082  1.5642 -0.0887  1.1905
 3399SOL    HW221660   4.465   3.681   9.090  1.0671  0.9753  0.9972
 3400SOL     OW21661   4.435   4.588   3.873  0.2211  0.7396 -0.2150
 3400SOL    HW121662   4.457   4.644   3.799  1.4046 -1.4223 -1.4851
 3400SOL    HW221663   4.404   4.507   3.832  1.1818 -0.3975  1.2590
 3401SOL     OW21664   2.263   2.972   3.066 -0.7166 -0.0649 -0.1783
 3401SOL    HW121665   2.222   2.965   3.153 -1.3050 -0.6830 -0.5062
 3401SOL    HW221666   2.298   3.062   3.072  0.9699 -0.7144 -0.1685
 3402SOL     OW21667   2.078   2.127  15.028  0.4640  0.0202 -0.9530
 3402SOL    HW121668   2.013   2.122  15.098  0.8400  2.6912 -0.3918
 3402SOL    HW221669   2.058   2.205  14.976 -0.0226  0.4880 -0.0811
 3403SOL     OW21670   4.563   4.468   4.275  0.3767  0.3035 -0.4576
 3403SOL    HW121671   4.497   4.409   4.239  0.6774 -1.0871  1.2758
 3403SOL    HW221672   4.619   4.479   4.198  0.0005 -0.7654 -0.8834
 3404SOL     OW21673   0.404   3.114   0.893  0.4966  0.3442 -0.2404
 3404SOL    HW121674   0.350   3.175   0.943  1.4708  1.4550 -0.5423
 3404SOL    HW221675   0.432   3.161   0.815 -1.2274  0.3297 -0.8545
 3405SOL     OW21676   4.234   4.118   6.611  0.2504 -0.6419  0.2106
 3405SOL    HW121677   4.249   4.170   6.531 -1.0751 -0.4457  0.0924
 3405SOL    HW221678   4.303   4.053   6.601  0.3851 -0.6851  1.4735
 3406SOL     OW21679   1.803   4.271   6.456 -0.2324 -0.4840  0.1717
 3406SOL    HW121680   1.752   4.242   6.380  1.1884 -0.2639 -0.8433
 3406SOL    HW221681   1.828   4.360   6.433  1.1635 -1.0368 -0.4333
 3407SOL     OW21682   3.267   2.436   5.847  0.0934  0.4573  0.0175
 3407SOL    HW121683   3.351   2.470   5.813 -0.8102  1.3703 -1.3177
 3407SOL    HW221684   3.282   2.343   5.829  0.8199  0.5371  0.2132
 3408SOL     OW21685   0.075   3.621   8.403  0.0082  0.0638  0.1648
 3408SOL    HW121686   0.021   3.665   8.337  0.8792  2.0963  0.7986
 3408SOL    HW221687   0.091   3.539   8.355 -1.9065 -0.2030 -0.0034
 3409SOL     OW21688   1.069   3.502   5.756 -0.2623  0.6825 -0.0267
 3409SOL    HW121689   1.056   3.578   5.699 -3.6728  2.2091  2.7773
 3409SOL    HW221690   0.988   3.452   5.744 -0.3115  0.3726  1.6314
 3410SOL     OW21691   3.603   2.857   5.393  0.6509  0.6046  0.3424
 3410SOL    HW121692   3.547   2.933   5.411 -0.5268  0.2498 -1.7737
 3410SOL    HW221693   3.692   2.880   5.367  1.1273  0.1074  1.5553
 3411SOL     OW21694   4.019   2.269   2.613  0.6186 -0.0726  0.2624
 3411SOL    HW121695   3.929   2.249   2.639  0.9355 -1.8809 -0.0561
 3411SOL    HW221696   4.069   2.260   2.694 -2.3301 -1.4970  1.9180
 3412SOL     OW21697   2.557   2.243  16.934  0.1115 -0.2951  0.9224
 3412SOL    HW121698   2.539   2.316  16.876 -3.1485 -1.9273 -0.1187
 3412SOL    HW221699   2.480   2.187  16.924  0.8500 -0.9167 -1.2578
 3413SOL     OW21700   2.722   3.506   4.800  0.5690  0.1436  0.7115
 3413SOL    HW121701   2.744   3.547   4.717  0.3390 -0.7816  0.1993
 3413SOL    HW221702   2.798   3.449   4.812 -0.1296 -0.6925  1.1780
 3414SOL     OW21703   3.047   4.523   7.624 -0.1426  0.0716 -0.4819
 3414SOL    HW121704   3.017   4.608   7.656  3.2326  1.7774 -1.7870
 3414SOL    HW221705   3.000   4.453   7.670  1.0771 -1.3728 -1.4132
 3415SOL     OW21706   2.300   2.776  14.583 -0.0545 -0.4967 -0.0793
 3415SOL    HW121707   2.308   2.851  14.524  0.8678 -1.2934 -0.9774
 3415SOL    HW221708   2.387   2.768  14.623 -0.2592  2.8536  1.0639
 3416SOL     OW21709   0.506   3.744   6.061  0.3963  0.0433 -0.4978
 3416SOL    HW121710   0.557   3.672   6.100 -0.8034  0.2091  1.3882
 3416SOL    HW221711   0.490   3.801   6.136 -0.8838  0.8303 -1.3718
 3417SOL     OW21712   3.408   0.066  12.399 -0.0582  1.0038  0.2148
 3417SOL    HW121713   3.321   0.043  12.430  0.4093 -0.4442  0.4651
 3417SOL    HW221714   3.420   0.160  12.413 -2.4863  1.3351  0.0236
 3418SOL     OW21715   3.199   0.069   6.470 -0.6068 -0.4937  0.1396
 3418SOL    HW121716   3.220   0.161   6.456 -0.8909 -0.5851 -0.9355
 3418SOL    HW221717   3.209   0.037   6.380  1.3114 -1.6138  0.7659
 3419SOL     OW21718   0.455   0.446   4.402  0.3425 -0.1827  0.2637
 3419SOL    HW121719   0.376   0.480   4.444  0.1455 -1.3283  0.8182
 3419SOL    HW221720   0.432   0.355   4.386  0.3367 -0.0564 -0.4376
 3420SOL     OW21721   2.446   4.091   5.872  0.0796 -0.6546  0.0657
 3420SOL    HW121722   2.429   4.178   5.910  1.3816 -0.3320 -0.0864
 3420SOL    HW221723   2.536   4.068   5.896  0.4176 -0.4449 -1.0060
 3421SOL     OW21724   3.986   4.068  10.387  0.1497 -0.2067 -0.4191
 3421SOL    HW121725   3.929   4.006  10.433  1.3757 -1.1284 -0.1336
 3421SOL    HW221726   4.009   4.016  10.310  3.8517 -0.5825  0.9713
 3422SOL     OW21727   3.463   2.441   8.652 -0.7413 -0.1184  0.6926
 3422SOL    HW121728   3.479   2.520   8.600 -0.6778 -0.5931 -0.0007
 3422SOL    HW221729   3.516   2.458   8.730  0.4831  0.4283 -0.2432
 3423SOL     OW21730   4.365   0.337  10.110 -0.2717 -0.1254  0.3131
 3423SOL    HW121731   4.370   0.385  10.027 -2.9249 -1.0250 -0.3647
 3423SOL    HW221732   4.317   0.260  10.081  1.4891 -1.0139 -0.2609
 3424SOL     OW21733   1.354   2.758  10.603  0.7312 -0.2594 -0.3360
 3424SOL    HW121734   1.358   2.812  10.683 -2.1017  1.4320 -1.3335
 3424SOL    HW221735   1.386   2.677  10.642 -0.3868 -0.2795  0.5406
 3425SOL     OW21736   2.825   0.234  13.162 -0.4467 -0.3953 -0.0068
 3425SOL    HW121737   2.852   0.297  13.228 -0.3256 -0.7284  0.2598
 3425SOL    HW221738   2.808   0.153  13.210  4.5000 -1.2827  0.1781
 3426SOL     OW21739   4.505   3.259   1.945  0.6605 -0.4937 -0.1283
 3426SOL    HW121740   4.520   3.185   1.886  0.6380  0.4395 -1.2989
 3426SOL    HW221741   4.595   3.272   1.974 -0.2342  0.3189  2.3079
 3427SOL     OW21742   2.291   1.082   6.133 -0.2679 -0.1095  0.1892
 3427SOL    HW121743   2.201   1.108   6.113 -0.7537  1.3287  4.1549
 3427SOL    HW221744   2.340   1.123   6.062  0.0224  0.1835  0.5585
 3428SOL     OW21745   4.181   1.643   2.727 -0.3246  0.1937 -0.5767
 3428SOL    HW121746   4.242   1.642   2.653 -2.8354  0.0412 -2.6579
 3428SOL    HW221747   4.175   1.548   2.738  1.3250 -0.0166 -1.5234
 3429SOL     OW21748   1.383   4.123   6.261  0.7350 -0.3494 -0.1077
 3429SOL    HW121749   1.319   4.131   6.332 -0.7337 -0.7500 -1.3996
 3429SOL    HW221750   1.343   4.053   6.209  1.0405  1.2001 -2.4553
 3430SOL     OW21751   0.990   1.578   5.379  0.0580 -0.6115 -0.3985
 3430SOL    HW121752   0.949   1.498   5.346  1.2692 -1.2415 -0.3675
 3430SOL    HW221753   1.050   1.525   5.432  1.0856  1.4326  0.4950
 3431SOL     OW21754   0.206   4.071   3.686  0.1094  0.0498  0.4070
 3431SOL    HW121755   0.250   4.050   3.604  0.8884 -1.8651  1.3205
 3431SOL    HW221756   0.124   4.027   3.664  1.7127 -2.3005 -0.8091
 3432SOL     OW21757   3.353   3.430   2.912  0.2187  0.1915  0.2578
 3432SOL    HW121758   3.262   3.457   2.925 -0.4031 -2.0276  0.4420
 3432SOL    HW221759   3.348   3.391   2.825  0.4536 -0.9658  0.7644
 3433SOL     OW21760   3.494   0.499  13.857  0.0475  0.7842  0.2069
 3433SOL    HW121761   3.546   0.431  13.813 -0.8240  0.3603 -0.1760
 3433SOL    HW221762   3.496   0.576  13.800 -0.5408  0.1663 -0.6638
 3434SOL     OW21763   1.801   0.367   9.327  0.1324 -0.5283  0.2350
 3434SOL    HW121764   1.827   0.285   9.285  0.5667  0.7448 -1.9742
 3434SOL    HW221765   1.802   0.347   9.421 -1.6393 -1.7235 -0.0087
 3435SOL     OW21766   4.066   3.232  17.364 -0.0892  0.5143 -0.1210
 3435SOL    HW121767   4.037   3.208  17.276  1.0407 -2.0349  0.1814
 3435SOL    HW221768   4.000   3.300  17.373  0.0869  0.9046 -1.6562
 3436SOL     OW21769   4.331   2.321   5.931  0.1670 -0.1450  0.6617
 3436SOL    HW121770   4.418   2.283   5.917 -0.2113  0.5298 -3.5253
 3436SOL    HW221771   4.345   2.374   6.010  0.9974  0.8097 -0.1189
 3437SOL     OW21772   3.562   3.341  12.953  0.6801 -0.2601 -0.7191
 3437SOL    HW121773   3.615   3.418  12.972  0.6043 -0.3443 -0.1497
 3437SOL    HW221774   3.511   3.326  13.033  0.4252  1.9818 -0.4766
 3438SOL     OW21775   2.130   2.263   6.717  0.1187 -0.2777 -0.1011
 3438SOL    HW121776   2.194   2.327   6.746  1.3509 -0.9641 -1.2971
 3438SOL    HW221777   2.128   2.266   6.621 -0.1585  1.1233 -0.0510
 3439SOL     OW21778   2.834   3.532  11.728 -0.1880  0.6870 -0.4594
 3439SOL    HW121779   2.896   3.602  11.705 -0.0177  1.2288  1.5854
 3439SOL    HW221780   2.899   3.479  11.774 -1.4286 -0.3386  0.1033
 3440SOL     OW21781   1.918   1.783   8.719 -0.6297 -0.0498 -0.6731
 3440SOL    HW121782   1.829   1.764   8.688 -0.4081 -0.9965 -0.7250
 3440SOL    HW221783   1.939   1.723   8.790 -0.1410 -0.5577 -1.2451
 3441SOL     OW21784   2.589   4.199   8.461 -0.0279 -0.4018 -0.1541
 3441SOL    HW121785   2.650   4.128   8.445 -1.0358 -1.5368  1.0507
 3441SOL    HW221786   2.511   4.162   8.420 -0.8577  0.1578  0.9243
 3442SOL     OW21787   1.465   4.282   3.179  0.1884 -0.2811 -0.3584
 3442SOL    HW121788   1.550   4.271   3.222 -0.3722 -0.7333  0.6276
 3442SOL    HW221789   1.430   4.193   3.183  1.7868 -0.8845  0.3368
 3443SOL     OW21790   0.679   1.089   5.369  0.0757  0.3201 -0.1769
 3443SOL    HW121791   0.600   1.136   5.344 -1.3176 -1.3231  1.1572
 3443SOL    HW221792   0.661   1.001   5.336 -1.7513  0.9252 -0.7616
 3444SOL     OW21793   3.888   2.440   9.842 -0.2916  0.6843  0.2346
 3444SOL    HW121794   3.875   2.532   9.818  0.6581 -0.5712 -4.9280
 3444SOL    HW221795   3.910   2.438   9.935 -0.2210 -0.6100  0.1850
 3445SOL     OW21796   4.513   3.140   7.170  0.1552 -0.2700 -0.2054
 3445SOL    HW121797   4.550   3.056   7.196  2.3632  0.6874 -0.2888
 3445SOL    HW221798   4.561   3.204   7.222 -0.7800  0.3488 -0.0944
 3446SOL     OW21799   4.256   0.698  11.904  0.0961  0.0582 -0.1269
 3446SOL    HW121800   4.177   0.646  11.915  0.1732 -0.3444 -1.4157
 3446SOL    HW221801   4.315   0.625  11.884 -0.3415 -0.4477  0.4802
 3447SOL     OW21802   0.674   2.463   3.574 -0.2146 -0.2604  0.0662
 3447SOL    HW121803   0.724   2.409   3.634  1.4007  0.1855 -0.8674
 3447SOL    HW221804   0.592   2.479   3.622  1.6325 -1.5684  3.6244
 3448SOL     OW21805   3.724   1.287   1.948 -0.5658 -0.2255 -0.1336
 3448SOL    HW121806   3.700   1.213   2.003  1.0279 -0.2815  0.4764
 3448SOL    HW221807   3.725   1.245   1.862 -0.8771  0.7302 -0.6124
 3449SOL     OW21808   3.955   1.871   3.185  0.0214  0.1487  0.4039
 3449SOL    HW121809   3.965   1.822   3.104  0.0503  0.6630  0.1009
 3449SOL    HW221810   3.975   1.801   3.247  0.6146 -0.2713 -0.2602
 3450SOL     OW21811   4.500   1.910   8.934 -0.0013  0.1788  0.3174
 3450SOL    HW121812   4.560   1.847   8.974 -0.6095  0.8516  2.2655
 3450SOL    HW221813   4.467   1.961   9.008 -2.5785 -0.8697 -0.0949
 3451SOL     OW21814   1.872   2.247   6.340 -0.8942  0.1140  0.7287
 3451SOL    HW121815   1.863   2.293   6.257 -2.1482 -1.0979  0.2013
 3451SOL    HW221816   1.834   2.163   6.314 -1.9949  1.6123 -2.4327
 3452SOL     OW21817   0.951   0.094   3.805  0.5261  0.6193  0.0236
 3452SOL    HW121818   0.911   0.181   3.807 -2.4310 -0.7156 -0.1477
 3452SOL    HW221819   0.992   0.086   3.891  0.4555 -0.9761 -0.0939
 3453SOL     OW21820   2.929   2.346  16.530 -0.0235  0.8651 -0.5454
 3453SOL    HW121821   2.879   2.340  16.611 -0.9483  0.7346 -1.1314
 3453SOL    HW221822   2.869   2.345  16.456 -0.9829  0.5395  0.2311
 3454SOL     OW21823   0.498   0.162   7.986 -0.1603  0.5789  0.0154
 3454SOL    HW121824   0.518   0.255   7.980 -0.1517  0.6093  0.5559
 3454SOL    HW221825   0.462   0.153   7.897 -0.3596 -2.5221  0.3947
 3455SOL     OW21826   3.478   2.915   6.330  0.2116 -0.0225  0.2402
 3455SOL    HW121827   3.518   2.929   6.245  0.2998  0.2252  0.3227
 3455SOL    HW221828   3.392   2.951   6.309 -0.6812 -2.8522 -0.9850
 3456SOL     OW21829   1.696   2.848  13.220 -0.3038  0.1213  0.1994
 3456SOL    HW121830   1.701   2.910  13.293  0.1685  0.5122 -0.1640
 3456SOL    HW221831   1.655   2.771  13.259  0.3134 -1.5508 -2.4776
 3457SOL     OW21832   3.291   0.646   5.900 -0.1312  0.2108 -0.0625
 3457SOL    HW121833   3.364   0.707   5.891  0.0046  0.1461  0.6057
 3457SOL    HW221834   3.220   0.709   5.912  0.0977  0.3845  0.3733
 3458SOL     OW21835   0.046   0.047   5.408 -0.3797 -0.0937 -0.6174
 3458SOL    HW121836   0.142   0.048   5.414 -0.3270  0.9888 -1.6040
 3458SOL    HW221837   0.026   0.093   5.326  0.7517  3.4570  1.1028
 3459SOL     OW21838   3.878   1.686   8.041  0.2198 -0.3548  0.2383
 3459SOL    HW121839   3.962   1.689   8.088 -0.0500 -0.5509  0.7330
 3459SOL    HW221840   3.843   1.769   8.070 -1.0006 -1.4877  1.9941
 3460SOL     OW21841   2.244   4.222  14.993  0.1632  0.5416  0.0357
 3460SOL    HW121842   2.234   4.130  15.019  0.8459  0.6375  0.6214
 3460SOL    HW221843   2.157   4.232  14.954  0.0148 -0.3061  0.1416
 3461SOL     OW21844   4.228   3.030   5.428 -0.4887  0.3067  0.3481
 3461SOL    HW121845   4.161   3.095   5.448  1.0039  2.0340 -0.2991
 3461SOL    HW221846   4.258   3.022   5.518 -1.5758  1.5912  0.8260
 3462SOL     OW21847   1.517   1.800   9.336  1.1879  0.2383  0.0322
 3462SOL    HW121848   1.498   1.839   9.421 -2.8577 -1.4306 -0.1131
 3462SOL    HW221849   1.569   1.871   9.298  2.5935 -1.4329 -1.1570
 3463SOL     OW21850   1.812   1.323   8.925  0.8864 -0.3760  0.0241
 3463SOL    HW121851   1.906   1.315   8.907  1.2665 -0.8190  2.2804
 3463SOL    HW221852   1.795   1.259   8.994 -0.6569 -0.8837 -0.8428
 3464SOL     OW21853   1.613   1.931   2.801 -0.0641  0.2773 -0.0135
 3464SOL    HW121854   1.655   1.985   2.735  1.9355 -1.6472 -0.3287
 3464SOL    HW221855   1.644   1.843   2.782  0.5898  0.3425  0.7650
 3465SOL     OW21856   2.642   3.187   1.727 -0.1375 -0.4884 -0.5219
 3465SOL    HW121857   2.624   3.277   1.699 -0.0460 -0.3903 -0.2606
 3465SOL    HW221858   2.567   3.184   1.787 -0.0294 -0.0746 -0.3616
 3466SOL     OW21859   4.407   2.213   5.176 -0.1659 -0.3240  0.0417
 3466SOL    HW121860   4.411   2.295   5.126  2.7177 -0.2925  0.3463
 3466SOL    HW221861   4.464   2.234   5.250 -2.1462 -0.5074  1.6182
 3467SOL     OW21862   2.075   2.340   6.010  0.1592  0.1074  0.2013
 3467SOL    HW121863   2.148   2.402   6.009  0.0823  0.1847 -1.4395
 3467SOL    HW221864   2.045   2.336   5.919  0.8008 -1.5490  0.0649
 3468SOL     OW21865   2.401   1.469   4.232 -0.4423  0.1193 -0.3156
 3468SOL    HW121866   2.320   1.452   4.279  0.4511 -1.3059  0.7181
 3468SOL    HW221867   2.373   1.520   4.156 -2.9373 -1.8723 -0.7236
 3469SOL     OW21868   0.974   2.075  16.520 -0.1535 -0.1263  0.3090
 3469SOL    HW121869   0.891   2.052  16.562 -0.4596  0.4363  0.0028
 3469SOL    HW221870   0.950   2.155  16.474 -0.9546 -1.0582 -0.9088
 3470SOL     OW21871   1.920   0.767   1.664  0.2225  0.3487 -0.7889
 3470SOL    HW121872   1.933   0.675   1.643 -1.1265  0.1682 -0.8526
 3470SOL    HW221873   1.984   0.800   1.601  1.7552  0.1158  0.6418
 3471SOL     OW21874   3.001   4.229   7.227  0.3549 -0.2153 -1.0672
 3471SOL    HW121875   2.947   4.221   7.148 -2.3633  0.3867  0.7742
 3471SOL    HW221876   2.943   4.291   7.269 -0.3271 -0.6128 -1.4243
 3472SOL     OW21877   3.715   0.501   2.852  0.1890 -0.1465 -0.1442
 3472SOL    HW121878   3.807   0.522   2.840 -0.5893  2.0919 -2.0673
 3472SOL    HW221879   3.689   0.541   2.934 -0.2646 -4.9739  2.1034
 3473SOL     OW21880   1.006   4.137   5.641 -0.0376  0.3646 -0.0198
 3473SOL    HW121881   1.014   4.230   5.620 -0.1752  0.4864  0.4692
 3473SOL    HW221882   1.100   4.126   5.651 -0.5330 -0.6899  3.4701
 3474SOL     OW21883   3.749   0.766   9.433  0.1519 -0.6393  0.4968
 3474SOL    HW121884   3.669   0.714   9.430  0.1969 -0.8064  1.9236
 3474SOL    HW221885   3.804   0.695   9.467  0.1842 -0.5098  0.7193
 3475SOL     OW21886   2.144   2.855  12.078  0.7531 -0.3171 -0.1148
 3475SOL    HW121887   2.131   2.862  11.984  0.6356 -0.6147 -0.1230
 3475SOL    HW221888   2.153   2.946  12.104  0.2886 -0.2023 -0.3546
 3476SOL     OW21889   3.818   0.831   3.925  0.1555  0.4685  0.1430
 3476SOL    HW121890   3.892   0.771   3.934  1.8455  2.4345 -0.7312
 3476SOL    HW221891   3.846   0.877   3.846 -1.1301  0.2697 -0.4218
 3477SOL     OW21892   3.138   3.780   4.902  0.2341 -0.2778 -0.0766
 3477SOL    HW121893   3.125   3.690   4.871  1.8342 -0.2513 -0.8090
 3477SOL    HW221894   3.214   3.780   4.960  0.2790 -0.2291 -0.1351
 3478SOL     OW21895   3.112   1.471   4.032  0.1994 -0.2125  0.3689
 3478SOL    HW121896   3.179   1.439   3.972 -1.2597 -1.9779 -0.3146
 3478SOL    HW221897   3.065   1.529   3.972 -2.0026 -0.6973  1.6316
 3479SOL     OW21898   2.160   4.340  16.097 -0.3332 -0.2498  0.0359
 3479SOL    HW121899   2.215   4.415  16.073 -1.9227  1.1489  0.6962
 3479SOL    HW221900   2.112   4.378  16.171 -0.0630 -0.0451  0.1067
 3480SOL     OW21901   1.937   1.816   6.800  0.4327 -0.2310 -0.3504
 3480SOL    HW121902   1.846   1.788   6.795  0.4140 -0.1274 -0.5884
 3480SOL    HW221903   1.975   1.773   6.724 -0.2463  0.6033 -1.1676
 3481SOL     OW21904   0.334   4.540   5.814  0.2119 -0.0462 -0.1651
 3481SOL    HW121905   0.336   4.479   5.740 -1.5063 -0.1865 -0.0889
 3481SOL    HW221906   0.267   4.602   5.785 -0.9835 -1.2753 -0.0141
 3482SOL     OW21907   0.399   1.299  15.044 -0.0932 -0.5833  0.6411
 3482SOL    HW121908   0.485   1.258  15.055  0.2081 -0.3267 -0.8913
 3482SOL    HW221909   0.369   1.252  14.967  1.2674  0.1589 -0.3364
 3483SOL     OW21910   3.674   0.867   6.318 -0.1831 -0.1597  0.5864
 3483SOL    HW121911   3.767   0.889   6.312 -0.5233  1.6032  1.7893
 3483SOL    HW221912   3.662   0.841   6.409 -4.3094  1.4818  0.5092
 3484SOL     OW21913   1.945   0.753   8.651  0.2132  0.4718 -0.3708
 3484SOL    HW121914   1.919   0.661   8.646  1.2510  0.1406  0.2773
 3484SOL    HW221915   2.009   0.746   8.722 -3.5880 -0.7946  2.8794
 3485SOL     OW21916   0.130   1.203  11.155 -0.1673  0.3771 -0.5634
 3485SOL    HW121917   0.044   1.242  11.167 -0.5208  0.1391 -2.3527
 3485SOL    HW221918   0.102   1.132  11.098  1.5023 -0.1861 -0.6848
 3486SOL     OW21919   1.625   0.966   4.297  0.8933 -0.2914 -0.7190
 3486SOL    HW121920   1.628   1.015   4.215 -0.7696  3.6440  1.5967
 3486SOL    HW221921   1.703   0.988   4.346 -0.0382 -1.4204  1.2921
 3487SOL     OW21922   1.024   0.753   2.369 -0.2759 -0.4302  0.3125
 3487SOL    HW121923   1.054   0.712   2.450  0.0478  0.0533  0.4370
 3487SOL    HW221924   1.113   0.779   2.343 -1.0604  1.1160 -0.8112
 3488SOL     OW21925   2.622   1.035  12.668  0.1261 -0.2646  0.1175
 3488SOL    HW121926   2.668   1.062  12.748  1.2859 -0.9492 -0.3170
 3488SOL    HW221927   2.619   0.941  12.685 -2.8864  0.1966  2.0716
 3489SOL     OW21928   3.054   1.574   2.208  0.0934  0.0694 -0.2254
 3489SOL    HW121929   2.994   1.583   2.282  0.0732 -2.2047  0.0599
 3489SOL    HW221930   3.108   1.649   2.230 -2.0823  1.2241  1.1350
 3490SOL     OW21931   3.108   2.320  11.135 -0.2378 -0.5554  0.1423
 3490SOL    HW121932   3.111   2.410  11.102  0.1890 -0.9208 -0.8261
 3490SOL    HW221933   3.045   2.327  11.207  0.2983  0.5462  0.4963
 3491SOL     OW21934   3.962   2.952   0.749 -0.1078  0.5044  0.0903
 3491SOL    HW121935   4.027   2.929   0.683 -0.2633  1.9641 -0.5870
 3491SOL    HW221936   3.999   3.037   0.776 -3.2364  1.6669  0.7395
 3492SOL     OW21937   0.313   3.098  10.250 -0.4075 -0.1683 -0.2942
 3492SOL    HW121938   0.227   3.100  10.208 -0.5604  0.2649  0.0336
 3492SOL    HW221939   0.306   3.024  10.310  1.0894  0.0558  0.1530
 3493SOL     OW21940   4.494   2.078   2.762  0.1804 -0.5205 -0.2809
 3493SOL    HW121941   4.452   2.107   2.682  0.3336 -0.4185 -0.3230
 3493SOL    HW221942   4.522   1.991   2.731 -0.7641 -0.8196 -0.2767
 3494SOL     OW21943   2.435   0.640   3.890  0.0664  0.0560  0.3797
 3494SOL    HW121944   2.468   0.597   3.811 -1.4403  0.1065 -0.2930
 3494SOL    HW221945   2.487   0.720   3.889 -1.0679  0.8175  2.1765
 3495SOL     OW21946   1.396   1.300  11.133  0.0766 -0.3495 -0.2674
 3495SOL    HW121947   1.381   1.220  11.082 -3.0566 -0.7503  1.2870
 3495SOL    HW221948   1.424   1.352  11.057 -1.6706 -1.2925 -1.5372
 3496SOL     OW21949   4.692   4.176   4.787 -0.3146 -0.1894  0.4342
 3496SOL    HW121950   4.716   4.232   4.861 -0.5655  1.1907 -0.5296
 3496SOL    HW221951   0.010   4.096   4.814  1.6566  1.2578  1.4270
 3497SOL     OW21952   1.982   1.154   3.226  0.0082  0.4477  0.3303
 3497SOL    HW121953   1.993   1.249   3.227  2.2394  0.1803  1.1456
 3497SOL    HW221954   2.058   1.120   3.180 -0.3508  0.0697  0.0240
 3498SOL     OW21955   4.640   0.173   8.684 -0.2186 -0.0337  0.2325
 3498SOL    HW121956   4.637   0.266   8.659  0.1199  0.2767  1.3097
 3498SOL    HW221957   4.702   0.137   8.621 -1.3248 -1.9236  0.2387
 3499SOL     OW21958   3.678   2.028   2.209  0.1863  0.1411  0.3055
 3499SOL    HW121959   3.626   2.046   2.131  0.4552  0.1051  0.1154
 3499SOL    HW221960   3.658   2.106   2.261 -0.0422 -0.2629  0.8323
 3500SOL     OW21961   1.101   0.031   8.338  0.4389 -0.3099  0.1958
 3500SOL    HW121962   1.033   0.097   8.331  1.0352  0.2610 -0.2346
 3500SOL    HW221963   1.149   0.075   8.269  0.6438 -1.5017 -0.4166
 3501SOL     OW21964   4.101   4.206   1.827  0.1489 -0.0928  0.9225
 3501SOL    HW121965   4.158   4.137   1.861 -0.3137 -0.1536  1.5712
 3501SOL    HW221966   4.055   4.236   1.905 -0.2765  0.7848  0.3301
 3502SOL     OW21967   4.528   2.747  10.756 -0.5732  0.6478 -0.3526
 3502SOL    HW121968   4.451   2.804  10.766 -1.8377 -0.9234 -1.1980
 3502SOL    HW221969   4.494   2.684  10.693  1.1688  0.0172 -0.6630
 3503SOL     OW21970   3.100   2.546  11.376  0.3794  0.0185  0.5285
 3503SOL    HW121971   3.054   2.579  11.454 -0.8547 -0.5446  0.0409
 3503SOL    HW221972   3.137   2.467  11.416  1.5383  0.1688 -0.2511
 3504SOL     OW21973   0.766   2.602  10.646 -0.1835  0.0565  0.7832
 3504SOL    HW121974   0.676   2.572  10.639  0.1704 -0.6657 -0.8880
 3504SOL    HW221975   0.768   2.654  10.565  0.2359 -1.8729 -0.4496
 3505SOL     OW21976   4.230   0.651  10.554  0.5233  0.1197  0.0593
 3505SOL    HW121977   4.277   0.660  10.471  0.6311  0.6635  0.1793
 3505SOL    HW221978   4.171   0.580  10.527 -0.2205  0.4557  0.8317
 3506SOL     OW21979   2.349   3.687  16.833 -0.0505 -0.4515  0.5269
 3506SOL    HW121980   2.416   3.738  16.789 -1.7214  2.2584  1.1078
 3506SOL    HW221981   2.274   3.738  16.802  0.8112 -0.1629 -1.0324
 3507SOL     OW21982   2.350   2.140  15.330 -0.5264 -0.4180  0.6144
 3507SOL    HW121983   2.384   2.187  15.253 -1.0965  0.9270  1.1882
 3507SOL    HW221984   2.277   2.092  15.290 -2.1934  1.0028  1.9202
 3508SOL     OW21985   0.788   4.059  10.476  0.1376  0.9954 -0.4333
 3508SOL    HW121986   0.771   4.103  10.559 -0.4804 -0.0077 -0.0222
 3508SOL    HW221987   0.779   4.136  10.420 -1.6841  1.4216  0.4405
 3509SOL     OW21988   1.536   3.463   7.271  0.4073  0.4321 -0.0358
 3509SOL    HW121989   1.524   3.418   7.355  1.3592  1.1746  0.4818
 3509SOL    HW221990   1.575   3.540   7.311 -0.3217  0.0619  1.4237
 3510SOL     OW21991   3.949   2.064   1.763 -0.0332 -0.0990 -0.1232
 3510SOL    HW121992   3.940   2.042   1.670  1.6183  0.4400 -0.4204
 3510SOL    HW221993   4.045   2.061   1.770 -0.1097 -1.0502  0.6833
 3511SOL     OW21994   2.118   0.574   1.974 -0.2660 -0.4374  0.2196
 3511SOL    HW121995   2.033   0.578   2.017 -0.4197 -0.0569 -0.1382
 3511SOL    HW221996   2.184   0.558   2.042  0.0984  1.6576  0.3652
 3512SOL     OW21997   0.509   4.699   0.938  0.3226 -0.2366  0.4330
 3512SOL    HW121998   0.568   4.624   0.938 -1.3363 -1.5465 -1.4336
 3512SOL    HW221999   0.514   0.003   1.028 -1.8422  2.4607 -0.3527
 3513SOL     OW22000   3.372   2.120   2.702  0.0592  0.3161 -0.1706
 3513SOL    HW122001   3.277   2.110   2.713 -0.0090  0.7000 -0.3878
 3513SOL    HW222002   3.384   2.208   2.739  2.2078  0.2004 -0.6024
 3514SOL     OW22003   2.073   3.361   4.072  0.0480  0.7327  0.0706
 3514SOL    HW122004   2.074   3.267   4.093  2.7726  1.2572  2.1961
 3514SOL    HW222005   2.066   3.355   3.976  1.0666 -1.3012  0.1139
 3515SOL     OW22006   4.166   1.518   8.369 -0.6689  0.2813 -0.1296
 3515SOL    HW122007   4.150   1.568   8.449  2.0366 -0.6224  0.9583
 3515SOL    HW222008   4.173   1.585   8.301 -2.1478 -0.0458 -0.5997
 3516SOL     OW22009   1.727   4.676   6.171 -0.1592  0.4230  0.7674
 3516SOL    HW122010   1.793   4.609   6.186 -0.8104  0.1906  2.4824
 3516SOL    HW222011   1.765   0.018   6.227  2.9588 -0.2761 -0.5170
 3517SOL     OW22012   1.661   4.288  10.595 -0.5025  0.3462 -0.0018
 3517SOL    HW122013   1.603   4.224  10.636 -1.5287  1.6205  0.5188
 3517SOL    HW222014   1.734   4.289  10.657 -0.4825  2.1567 -0.0641
 3518SOL     OW22015   0.634   1.413  15.423 -0.3177 -0.3581 -0.1186
 3518SOL    HW122016   0.632   1.384  15.515  0.7560  0.1927  0.0713
 3518SOL    HW222017   0.717   1.377  15.392  0.3929 -0.4715  1.8958
 3519SOL     OW22018   4.456   0.017  15.949 -0.5883  0.3677  0.4437
 3519SOL    HW122019   4.409   0.028  15.866  2.8364  0.9092 -1.4280
 3519SOL    HW222020   4.397   0.058  16.012 -1.4362 -0.5306  0.2333
 3520SOL     OW22021   4.680   4.227   5.564 -0.3272 -0.1508  0.6493
 3520SOL    HW122022   4.659   4.286   5.637 -0.0834  2.1822 -1.1416
 3520SOL    HW222023   0.037   4.260   5.531 -0.7548 -0.5355 -0.8049
 3521SOL     OW22024   2.428   0.905   7.155  0.3289 -0.2936 -0.0193
 3521SOL    HW122025   2.344   0.920   7.198 -0.5159 -3.4795 -0.5076
 3521SOL    HW222026   2.496   0.939   7.213 -0.3353 -0.9522  1.1687
 3522SOL     OW22027   1.503   3.469   8.900 -0.4375 -0.1611  0.1023
 3522SOL    HW122028   1.433   3.446   8.838 -0.4512  1.5002 -0.5221
 3522SOL    HW222029   1.451   3.504   8.972  2.3642  2.0238  1.0515
 3523SOL     OW22030   4.666   1.661   8.990 -0.4321  1.3134 -0.0004
 3523SOL    HW122031   4.696   1.587   8.936  2.0257  2.4169 -0.1364
 3523SOL    HW222032   4.604   1.616   9.048  0.0831 -0.2962 -0.6698
 3524SOL     OW22033   1.269   0.420   9.157 -0.3158 -0.2287  0.0822
 3524SOL    HW122034   1.305   0.385   9.238  0.0798  0.7869  0.3533
 3524SOL    HW222035   1.343   0.405   9.099 -0.8078  0.1419 -0.6473
 3525SOL     OW22036   4.398   1.242   4.857  0.4582  0.0055 -0.0739
 3525SOL    HW122037   4.478   1.285   4.830  0.2829  1.3869  1.6061
 3525SOL    HW222038   4.412   1.154   4.822 -2.8616 -0.1696 -1.0141
 3526SOL     OW22039   1.504   4.319  10.095  0.1001  0.4088 -0.5278
 3526SOL    HW122040   1.536   4.288  10.010 -0.2291  0.9824 -0.8638
 3526SOL    HW222041   1.552   4.260  10.153  0.1776 -0.2223 -1.2385
 3527SOL     OW22042   2.794   2.553   6.256 -0.4230 -0.0087 -0.0025
 3527SOL    HW122043   2.772   2.530   6.165  1.1705 -0.5238 -0.2554
 3527SOL    HW222044   2.867   2.493   6.274 -0.7037  0.1683  1.6937
 3528SOL     OW22045   3.736   2.740   6.549 -0.1195 -0.2507  0.0824
 3528SOL    HW122046   3.770   2.769   6.464 -2.3558  0.2035 -0.6439
 3528SOL    HW222047   3.802   2.768   6.612 -2.3694 -0.1789  2.3964
 3529SOL     OW22048   0.270   0.441   5.168  0.4831  0.3373  0.2446
 3529SOL    HW122049   0.336   0.507   5.146 -0.5335  1.3279  0.1433
 3529SOL    HW222050   0.209   0.479   5.231  0.5112  0.7234  0.0423
 3530SOL     OW22051   1.439   2.323   2.500 -0.1306 -0.0374 -0.3028
 3530SOL    HW122052   1.433   2.229   2.486  0.2142  0.0925 -1.3735
 3530SOL    HW222053   1.491   2.348   2.424 -0.5152 -4.5072 -2.0148
 3531SOL     OW22054   0.831   1.349   9.158 -0.1536  0.0635  0.0203
 3531SOL    HW122055   0.765   1.350   9.089  0.4328 -0.3844 -0.5453
 3531SOL    HW222056   0.869   1.264   9.135  1.0208  0.1337  1.6821
 3532SOL     OW22057   2.822   0.296   7.523 -0.5887  0.1873 -0.0264
 3532SOL    HW122058   2.758   0.363   7.504 -0.2906  0.0718 -1.3944
 3532SOL    HW222059   2.754   0.232   7.543 -0.8867  0.1583 -1.1631
 3533SOL     OW22060   2.542   3.203   5.744  0.5460  0.2433 -0.0140
 3533SOL    HW122061   2.526   3.255   5.665  0.4809 -0.4174 -0.4375
 3533SOL    HW222062   2.624   3.242   5.773  0.2866 -0.9881  2.3517
 3534SOL     OW22063   3.726   3.536   6.809  0.0535 -0.2981 -0.3596
 3534SOL    HW122064   3.640   3.500   6.827  0.7722 -1.7801  0.1504
 3534SOL    HW222065   3.699   3.627   6.816 -1.9434 -1.0338  1.3838
 3535SOL     OW22066   2.839   1.196   2.878 -0.1340 -0.0084 -0.2367
 3535SOL    HW122067   2.884   1.201   2.794  2.0826  0.1797  0.9581
 3535SOL    HW222068   2.907   1.229   2.938  1.0837  0.1227 -1.6878
 3536SOL     OW22069   0.041   2.778   1.956  0.3425 -0.2825 -0.0147
 3536SOL    HW122070   4.693   2.761   1.899  1.1224 -2.6620 -0.3176
 3536SOL    HW222071   0.071   2.689   1.971  1.7013  0.4118  1.4014
 3537SOL     OW22072   2.327   2.770   5.312 -0.8185  0.5561 -0.6753
 3537SOL    HW122073   2.402   2.734   5.265 -0.2919 -1.4734  1.7245
 3537SOL    HW222074   2.349   2.763   5.405 -2.9833 -1.3596 -0.2891
 3538SOL     OW22075   3.993   3.556   7.545 -0.2587  0.0312  0.4050
 3538SOL    HW122076   3.978   3.463   7.535 -0.3034  0.0142  0.6367
 3538SOL    HW222077   3.904   3.591   7.543  0.1640  1.2326  1.6631
 3539SOL     OW22078   1.979   2.743  12.258  0.1268 -0.3954 -0.2250
 3539SOL    HW122079   2.034   2.762  12.182  0.8868 -1.0100  0.1668
 3539SOL    HW222080   2.033   2.799  12.314  2.0252 -1.7348 -0.7142
 3540SOL     OW22081   2.929   2.560  11.067  0.0515  0.5603 -0.0614
 3540SOL    HW122082   2.997   2.627  11.075 -0.6473  1.3283 -0.5588
 3540SOL    HW222083   2.910   2.546  11.160 -1.8975 -0.5229 -0.6163
 3541SOL     OW22084   2.380   2.517   0.204 -0.1685 -1.1679  0.2141
 3541SOL    HW122085   2.462   2.542   0.161  1.2734 -2.1793  2.3597
 3541SOL    HW222086   2.401   2.501   0.296  2.0747  1.9501  0.2362
 3542SOL     OW22087   4.149   2.753   9.640  1.1376 -0.1483 -0.1057
 3542SOL    HW122088   4.138   2.664   9.608  2.3491 -0.5348  0.5518
 3542SOL    HW222089   4.057   2.769   9.659  1.2197 -0.2514  0.3714
 3543SOL     OW22090   0.610   0.902  17.336  0.1360 -0.5739  0.2111
 3543SOL    HW122091   0.649   0.910  17.249 -0.2451  1.8421  0.2690
 3543SOL    HW222092   0.648   0.979  17.378  1.1437 -0.6539 -0.5754
 3544SOL     OW22093   4.095   0.288   9.146 -0.0228  0.0892 -0.3663
 3544SOL    HW122094   4.044   0.218   9.105 -1.8324  1.5018 -0.5300
 3544SOL    HW222095   4.101   0.351   9.074 -2.0985  0.5277 -0.1499
 3545SOL     OW22096   4.388   0.284   8.455 -0.4476  0.1166  0.2809
 3545SOL    HW122097   4.383   0.347   8.383 -1.5042  1.3549  1.4387
 3545SOL    HW222098   4.354   0.336   8.528  2.5868  3.1806 -0.5217
 3546SOL     OW22099   3.441   3.063   5.428  0.6996 -0.1947 -0.2669
 3546SOL    HW122100   3.482   3.134   5.379 -1.5936 -0.0350 -1.9236
 3546SOL    HW222101   3.418   3.112   5.507 -1.8202  0.6480 -1.5384
 3547SOL     OW22102   1.513   3.401   1.909 -0.4101 -0.2123 -0.4547
 3547SOL    HW122103   1.476   3.314   1.901 -1.3560  0.0787  0.6825
 3547SOL    HW222104   1.554   3.402   1.996  1.3442 -1.8009 -1.2694
 3548SOL     OW22105   4.568   3.764   7.802 -0.3584  0.3587 -0.2155
 3548SOL    HW122106   4.502   3.833   7.813 -0.3195  0.4784 -0.7235
 3548SOL    HW222107   4.634   3.799   7.861  0.6663 -0.9355 -0.5838
 3549SOL     OW22108   4.351   4.140  15.331 -0.8579  0.5078  0.0421
 3549SOL    HW122109   4.365   4.047  15.347 -0.9620  0.3842 -0.5812
 3549SOL    HW222110   4.284   4.146  15.262  2.7874  2.9016 -3.2819
 3550SOL     OW22111   1.197   2.038   3.238 -0.0429 -0.0838 -0.3084
 3550SOL    HW122112   1.252   2.116   3.227 -3.0308  1.9599 -0.8480
 3550SOL    HW222113   1.218   2.027   3.331 -0.1073 -0.5978 -0.3560
 3551SOL     OW22114   1.142   0.646   9.272  0.4916 -0.4843 -0.0102
 3551SOL    HW122115   1.166   0.562   9.232 -0.8912 -0.9669  0.2012
 3551SOL    HW222116   1.229   0.681   9.291  0.4525 -0.3454 -0.0800
 3552SOL     OW22117   3.754   4.140   8.541 -0.0449  0.1062 -0.0720
 3552SOL    HW122118   3.691   4.102   8.603 -0.8113  3.2926  1.1040
 3552SOL    HW222119   3.700   4.187   8.478  0.1794 -1.0325 -1.1005
 3553SOL     OW22120   0.206   3.283   7.057 -0.5169  0.2737 -0.7818
 3553SOL    HW122121   0.295   3.294   7.090  1.0214  0.1228 -4.9767
 3553SOL    HW222122   0.157   3.269   7.138 -0.8100  0.9576 -0.8381
 3554SOL     OW22123   3.377   1.553   5.343 -0.4957 -0.1823 -0.2971
 3554SOL    HW122124   3.314   1.600   5.398  0.5406  0.8058  0.0180
 3554SOL    HW222125   3.423   1.503   5.410 -1.5046  1.0654  1.3234
 3555SOL     OW22126   3.203   3.216  10.945 -0.3867 -0.0747  0.0639
 3555SOL    HW122127   3.174   3.220  10.853  0.4413  2.3798 -0.0823
 3555SOL    HW222128   3.278   3.275  10.939 -0.0458 -0.5874 -0.6763
 3556SOL     OW22129   4.571   3.947   1.781 -0.0869 -0.0673 -0.2527
 3556SOL    HW122130   4.621   3.971   1.858 -1.6632  0.1898  0.7060
 3556SOL    HW222131   4.644   3.902   1.740 -0.9852 -1.7977  0.0231
 3557SOL     OW22132   1.173   2.907   4.360  0.4607 -0.1245  0.3784
 3557SOL    HW122133   1.166   2.811   4.359 -0.7164 -0.0382  0.7491
 3557SOL    HW222134   1.222   2.928   4.281 -0.1678 -1.1744 -0.2824
 3558SOL     OW22135   1.553   4.247   3.552 -0.9250  0.1932 -0.3082
 3558SOL    HW122136   1.474   4.269   3.502 -1.4967 -0.6419  0.2335
 3558SOL    HW222137   1.575   4.162   3.514  0.5373  0.7960 -0.8102
 3559SOL     OW22138   0.980   2.948  11.980  0.0017  0.7604 -0.0516
 3559SOL    HW122139   0.915   2.911  11.920 -0.2963 -0.9690  1.3289
 3559SOL    HW222140   0.937   2.951  12.065  0.4242 -0.1193  0.1976
 3560SOL     OW22141   4.485   1.792   4.725 -0.3682 -0.3860  0.0492
 3560SOL    HW122142   4.460   1.758   4.639 -3.2149  0.6888  0.4600
 3560SOL    HW222143   4.573   1.826   4.708 -0.5260 -1.1562 -2.3231
 3561SOL     OW22144   3.983   0.249   5.697 -0.5948 -0.0701  0.7484
 3561SOL    HW122145   4.033   0.212   5.769  1.4275  0.6121 -0.3207
 3561SOL    HW222146   3.984   0.340   5.725  0.3034  0.8363 -2.2187
 3562SOL     OW22147   2.997   3.158  17.530 -0.6493  0.0199  0.2766
 3562SOL    HW122148   3.029   3.223  17.467  1.9261  1.3112  2.8994
 3562SOL    HW222149   3.017   3.075  17.487 -0.5132 -0.1629  0.6897
 3563SOL     OW22150   3.070   4.164   1.413  0.1983 -0.7116 -0.0658
 3563SOL    HW122151   3.105   4.225   1.479 -0.0604 -0.1289 -0.4642
 3563SOL    HW222152   3.139   4.164   1.346 -0.2102  0.5141 -0.4952
 3564SOL     OW22153   2.427   3.595  11.436 -0.3307  0.5093  0.0135
 3564SOL    HW122154   2.357   3.588  11.370 -0.1538 -3.8075  0.2666
 3564SOL    HW222155   2.394   3.534  11.502 -0.3179 -0.1368 -0.5661
 3565SOL     OW22156   4.653   1.762   2.052  0.5198  0.3607  0.0145
 3565SOL    HW122157   4.625   1.674   2.027 -2.8225  1.8433 -1.6082
 3565SOL    HW222158   4.724   1.755   2.115  2.6271 -0.1004 -2.4204
 3566SOL     OW22159   4.557   1.569   4.911 -0.5922 -0.6499  0.1746
 3566SOL    HW122160   4.466   1.599   4.921 -0.8868 -2.0030  1.5705
 3566SOL    HW222161   4.582   1.625   4.838 -0.3309 -1.0140 -0.0141
 3567SOL     OW22162   2.321   1.029   4.253 -0.0545 -0.1004 -0.3979
 3567SOL    HW122163   2.319   0.958   4.318 -2.2056 -0.0612 -0.4440
 3567SOL    HW222164   2.380   0.996   4.185  0.6964  1.2327 -0.3847
 3568SOL     OW22165   0.829   0.482   5.498  0.3140 -0.1770 -0.5334
 3568SOL    HW122166   0.907   0.527   5.465 -0.5547 -0.1326 -2.5386
 3568SOL    HW222167   0.868   0.431   5.570  0.6624 -1.0735 -1.3573
 3569SOL     OW22168   2.304   0.059   1.963 -0.2935 -0.0820 -0.2288
 3569SOL    HW122169   2.315   4.691   1.957 -1.1445 -0.1424 -0.7189
 3569SOL    HW222170   2.351   0.086   1.884 -0.8971  0.2912 -0.4566
 3570SOL     OW22171   2.125   4.201  11.400  0.1743  0.1822 -0.2713
 3570SOL    HW122172   2.172   4.249  11.469  1.8378 -1.4761 -0.2442
 3570SOL    HW222173   2.124   4.115  11.442 -0.6390 -0.2571 -1.2090
 3571SOL     OW22174   3.977   3.120  11.821  0.1683 -0.3474 -0.0483
 3571SOL    HW122175   3.900   3.144  11.872  0.1625  0.6871 -0.5307
 3571SOL    HW222176   3.932   3.065  11.757  0.0461  1.9856 -1.9951
 3572SOL     OW22177   3.448   4.455   3.697  0.0484 -0.3043  0.2747
 3572SOL    HW122178   3.379   4.511   3.661 -0.8191  0.7749  3.6138
 3572SOL    HW222179   3.475   4.491   3.781  0.9942 -1.8995  0.6615
 3573SOL     OW22180   2.305   2.432   3.171 -0.1300 -0.8284 -0.1618
 3573SOL    HW122181   2.272   2.342   3.165  0.8188 -1.2304  0.6261
 3573SOL    HW222182   2.286   2.449   3.263 -1.2383 -0.1252 -0.5254
 3574SOL     OW22183   1.415   0.293   8.130  0.4930  0.2227  0.0754
 3574SOL    HW122184   1.419   0.359   8.060 -0.0759  0.3153  0.1292
 3574SOL    HW222185   1.321   0.281   8.142 -0.3244  4.2573 -2.4688
 3575SOL     OW22186   0.454   2.688   3.971 -0.1365  0.0378  0.3969
 3575SOL    HW122187   0.390   2.759   3.964  0.4202  0.4408 -0.5382
 3575SOL    HW222188   0.464   2.672   4.065 -1.3013 -1.9347  0.1688
 3576SOL     OW22189   4.031   1.630   3.339 -0.1166 -0.3580  0.3446
 3576SOL    HW122190   3.944   1.627   3.378  0.2154 -1.7123  0.9809
 3576SOL    HW222191   4.030   1.538   3.310  0.1537 -1.0072  2.3967
 3577SOL     OW22192   3.972   2.895   0.376  0.4105 -0.2137 -0.5751
 3577SOL    HW122193   4.042   2.890   0.440  1.5284 -2.5982 -1.9525
 3577SOL    HW222194   4.009   2.861   0.294  0.2040 -0.0594 -0.7320
 3578SOL     OW22195   2.467   4.549   7.757 -0.0295 -0.0522 -0.1654
 3578SOL    HW122196   2.403   4.553   7.687 -1.2234  1.6510  1.0109
 3578SOL    HW222197   2.412   4.529   7.833 -1.0270 -2.3103 -1.4620
 3579SOL     OW22198   2.363   0.124   6.215  0.0042 -0.2469  0.0337
 3579SOL    HW122199   2.428   0.056   6.199  1.3669  0.8243  0.9764
 3579SOL    HW222200   2.418   0.187   6.263  0.9996 -0.9068 -0.2554
 3580SOL     OW22201   2.748   0.043  10.248 -0.1808 -0.1359 -0.0477
 3580SOL    HW122202   2.781   0.095  10.321 -1.1655  0.5703 -0.0979
 3580SOL    HW222203   2.829   0.020  10.203  0.7917  2.6271  0.3109
 3581SOL     OW22204   3.945   2.092   7.915  0.3535  0.2643  0.8135
 3581SOL    HW122205   4.025   2.066   7.960  0.8629 -2.9989 -1.9663
 3581SOL    HW222206   3.903   2.144   7.983  0.3471  1.9604 -0.4567
 3582SOL     OW22207   3.529   2.993   3.961  0.3293 -0.1247 -0.2780
 3582SOL    HW122208   3.461   2.930   3.986  0.2425  1.1476  2.7393
 3582SOL    HW222209   3.557   2.941   3.886 -1.0687 -0.3772 -0.6257
 3583SOL     OW22210   4.657   2.207  14.826 -0.0644  0.5905  0.0515
 3583SOL    HW122211   0.020   2.190  14.855 -0.5016 -0.4809  0.7569
 3583SOL    HW222212   4.617   2.122  14.842 -0.3858  0.6388 -0.4888
 3584SOL     OW22213   1.938   4.598   4.952 -0.3199  0.1187  0.7428
 3584SOL    HW122214   1.958   4.642   4.869 -1.1770  0.3588  0.6608
 3584SOL    HW222215   1.863   4.546   4.923  1.4415 -0.9141 -1.9970
 3585SOL     OW22216   1.983   0.301   2.834  0.3869  0.0024 -0.0204
 3585SOL    HW122217   1.950   0.214   2.816  0.1981  0.1172 -0.2319
 3585SOL    HW222218   1.983   0.288   2.929  1.1808 -1.2895 -0.1957
 3586SOL     OW22219   3.052   1.964   4.165 -0.1707  0.5366  0.5726
 3586SOL    HW122220   2.958   1.961   4.181 -0.4451 -1.2505 -1.4309
 3586SOL    HW222221   3.061   2.038   4.105 -0.2918 -0.2532 -0.4231
 3587SOL     OW22222   2.534   3.446   8.394  0.0890 -0.4082 -0.1149
 3587SOL    HW122223   2.607   3.411   8.343  0.4319  0.7295 -0.4174
 3587SOL    HW222224   2.584   3.459   8.474 -1.1214 -3.0536  1.0714
 3588SOL     OW22225   1.842   4.408  13.894  0.6998 -0.3797 -0.2893
 3588SOL    HW122226   1.841   4.503  13.879  0.1094 -0.3805 -0.2242
 3588SOL    HW222227   1.930   4.391  13.927  0.5699 -0.0299  0.2406
 3589SOL     OW22228   3.495   1.517   5.593  0.1105 -0.3657 -0.0048
 3589SOL    HW122229   3.585   1.529   5.622 -0.3038 -0.3693  1.3172
 3589SOL    HW222230   3.473   1.429   5.623 -1.4318  0.5817  1.6919
 3590SOL     OW22231   4.608   3.259   0.968 -0.2638  0.3274  0.4086
 3590SOL    HW122232   4.539   3.209   1.011  0.0339 -0.0046  0.5001
 3590SOL    HW222233   4.612   3.210   0.886  0.1454  2.9104 -1.1289
 3591SOL     OW22234   3.440   1.406  17.544  0.2542 -0.0006  0.2120
 3591SOL    HW122235   3.473   1.495  17.534 -1.2390  0.5777  0.4107
 3591SOL    HW222236   3.526   1.367  17.560  0.0888 -0.8964 -1.0583
 3592SOL     OW22237   2.575   2.727  13.433 -0.4560 -0.6752 -0.5434
 3592SOL    HW122238   2.620   2.674  13.368  1.3651 -0.9769  0.9777
 3592SOL    HW222239   2.487   2.690  13.425 -0.5274 -0.0128 -2.9011
 3593SOL     OW22240   2.135   1.389   7.237  0.1439  0.3499 -0.5775
 3593SOL    HW122241   2.219   1.391   7.282 -0.9311 -1.0031  1.4561
 3593SOL    HW222242   2.090   1.450   7.295  0.6330  1.7264 -1.6239
 3594SOL     OW22243   1.246   4.579   2.410 -0.1140  0.2922  0.3251
 3594SOL    HW122244   1.228   4.654   2.467 -0.9357  0.7201 -0.4903
 3594SOL    HW222245   1.181   4.604   2.345 -2.1613 -2.0445  1.4655
 3595SOL     OW22246   1.558   1.383  14.896 -0.4260 -0.1834  0.1159
 3595SOL    HW122247   1.640   1.403  14.851  0.5682 -2.4740  0.9508
 3595SOL    HW222248   1.490   1.415  14.836 -0.1462  0.0423 -0.0806
 3596SOL     OW22249   3.451   1.951   7.700  0.1492  0.1423 -0.1488
 3596SOL    HW122250   3.481   1.882   7.640 -0.4281 -1.0534  0.9461
 3596SOL    HW222251   3.528   1.968   7.753 -0.1630  1.6439 -0.1678
 3597SOL     OW22252   4.680   4.144  12.422  0.2944 -0.0900  0.0848
 3597SOL    HW122253   4.643   4.093  12.351  2.0295  0.5995 -1.2981
 3597SOL    HW222254   0.029   4.101  12.462  1.0401 -0.0416 -1.3021
 3598SOL     OW22255   4.700   1.368   4.989 -0.1366  0.3228  0.2687
 3598SOL    HW122256   4.656   1.451   4.971 -0.7612 -0.3951 -1.4221
 3598SOL    HW222257   4.692   1.332   4.901 -1.2375  0.9402  0.1143
 3599SOL     OW22258   0.919   2.608   8.665  0.4564  0.5345  0.1173
 3599SOL    HW122259   0.907   2.599   8.760  0.2200 -0.8491 -0.0483
 3599SOL    HW222260   0.862   2.544   8.621  2.5103 -0.6613 -0.7999
 3600SOL     OW22261   1.473   4.642   3.860 -0.0874 -0.2894 -0.3423
 3600SOL    HW122262   1.501   4.619   3.772 -0.6734  1.3837 -0.9729
 3600SOL    HW222263   1.384   4.664   3.830  0.2944  2.4057  0.5218
 3601SOL     OW22264   1.882   0.094  10.822  0.0724 -0.0313  0.3641
 3601SOL    HW122265   1.910   0.043  10.898 -1.3718 -3.0453 -1.1217
 3601SOL    HW222266   1.812   0.039  10.786  0.8456 -1.8509  1.6210
 3602SOL     OW22267   4.531   0.197   9.821 -0.2690 -0.5481  0.1404
 3602SOL    HW122268   4.539   0.292   9.821  0.0503 -0.5765  0.1124
 3602SOL    HW222269   4.467   0.182   9.891  0.5528  0.5090  1.1252
 3603SOL     OW22270   1.401   4.292   9.819 -0.1279 -0.0947  0.0099
 3603SOL    HW122271   1.468   4.257   9.761  0.4858  0.6272  0.2943
 3603SOL    HW222272   1.411   4.385   9.801 -1.2662 -0.4605 -2.4877
 3604SOL     OW22273   1.534   4.378   5.754  0.0820 -0.0649 -0.0986
 3604SOL    HW122274   1.442   4.393   5.774 -0.3777 -2.1315 -0.6630
 3604SOL    HW222275   1.574   4.453   5.799  4.2603 -2.4767  0.2740
 3605SOL     OW22276   0.717   4.496   0.948 -0.2466  0.0263  0.7187
 3605SOL    HW122277   0.748   4.407   0.965  1.2509  0.1448 -1.3399
 3605SOL    HW222278   0.745   4.514   0.858  0.1755 -2.2898  0.3827
 3606SOL     OW22279   0.423   1.068   0.578 -0.1224 -0.1743  0.6141
 3606SOL    HW122280   0.398   1.159   0.597 -1.4501 -0.7587  1.6534
 3606SOL    HW222281   0.457   1.045   0.665  0.6405  1.7782  0.8370
 3607SOL     OW22282   3.160   2.419   8.600  0.2030 -0.3015 -0.0297
 3607SOL    HW122283   3.238   2.379   8.564  1.3062 -0.3755  2.4586
 3607SOL    HW222284   3.174   2.403   8.693 -0.9180 -0.0220  0.1890
 3608SOL     OW22285   4.431   2.006   3.885 -0.3372 -1.1172  0.1953
 3608SOL    HW122286   4.394   2.060   3.816 -1.9307  2.3563  3.7895
 3608SOL    HW222287   4.516   1.981   3.848 -0.4810  0.1862 -0.9834
 3609SOL     OW22288   2.435   4.087  11.467  0.0612 -0.2717 -0.3472
 3609SOL    HW122289   2.448   4.063  11.375 -2.6395 -1.7613 -0.3341
 3609SOL    HW222290   2.503   4.034  11.509 -0.3419 -1.2059 -0.8760
 3610SOL     OW22291   0.296   4.554   7.421 -0.5035 -0.4675  0.1092
 3610SOL    HW122292   0.222   4.582   7.475 -0.0177  0.7849  0.1421
 3610SOL    HW222293   0.260   4.586   7.338 -1.7463  0.7449  1.1198
 3611SOL     OW22294   4.080   2.640  12.731 -0.6407  0.1910 -0.1740
 3611SOL    HW122295   4.012   2.684  12.781 -2.3951  1.6068 -3.8217
 3611SOL    HW222296   4.037   2.564  12.692  2.1531  0.6254 -4.2020
 3612SOL     OW22297   1.371   4.067   5.248  0.7776  0.3168  0.4767
 3612SOL    HW122298   1.409   4.044   5.333 -0.7807 -1.9180  0.5401
 3612SOL    HW222299   1.312   4.141   5.260  0.5785  0.1928  0.2431
 3613SOL     OW22300   3.194   3.607   2.487  0.6783  0.2807 -0.1641
 3613SOL    HW122301   3.277   3.653   2.474  0.5712  0.1671 -1.2545
 3613SOL    HW222302   3.182   3.562   2.403  0.0737  1.1915 -0.5689
 3614SOL     OW22303   0.927   3.203   5.958 -0.0687 -0.3648  0.5931
 3614SOL    HW122304   1.008   3.153   5.963 -1.5594 -2.7311  1.0877
 3614SOL    HW222305   0.934   3.244   6.044  0.4537 -2.7106  1.6565
 3615SOL     OW22306   0.489   2.070   7.207 -0.6678  0.7569  0.3276
 3615SOL    HW122307   0.532   2.119   7.136 -0.2013 -0.0160  0.0739
 3615SOL    HW222308   0.431   2.011   7.159  0.7069  0.1824 -0.6226
 3616SOL     OW22309   1.223   3.513   9.861  0.1747  0.4014 -0.3338
 3616SOL    HW122310   1.259   3.443   9.807  0.2937 -0.8801  1.4097
 3616SOL    HW222311   1.142   3.532   9.814 -0.2695  0.2565  0.3751
 3617SOL     OW22312   2.703   2.485   2.651 -0.2263  0.3540 -0.4301
 3617SOL    HW122313   2.727   2.520   2.565  0.7365 -0.4074 -0.4676
 3617SOL    HW222314   2.610   2.469   2.632 -0.7153  0.2304  2.1158
 3618SOL     OW22315   3.223   3.074   5.966  0.0588  0.4006  0.1734
 3618SOL    HW122316   3.207   3.006   5.901  0.8008  0.6710 -0.2948
 3618SOL    HW222317   3.159   3.137   5.932 -3.0219 -2.0950  1.4021
 3619SOL     OW22318   1.874   4.635   3.850  0.8154 -0.0500  0.2256
 3619SOL    HW122319   1.916   4.575   3.788 -0.2129 -1.5786  0.9962
 3619SOL    HW222320   1.783   4.612   3.833  1.2887  0.1139 -2.5155
 3620SOL     OW22321   1.606   2.135   4.501 -0.0893 -0.4035 -0.1222
 3620SOL    HW122322   1.566   2.222   4.505  0.3846 -0.2266  0.9392
 3620SOL    HW222323   1.644   2.142   4.414 -1.0790  2.1034 -0.3707
 3621SOL     OW22324   0.231   4.662   9.131 -0.3275 -0.3516  0.0175
 3621SOL    HW122325   0.287   4.588   9.153 -0.2109 -1.1234 -2.8314
 3621SOL    HW222326   0.275   0.016   9.158 -1.1272 -0.1764  0.7865
 3622SOL     OW22327   0.583   3.651   2.093  0.0797 -0.7183  0.0880
 3622SOL    HW122328   0.516   3.718   2.084  0.2424 -0.6463 -0.5794
 3622SOL    HW222329   0.657   3.707   2.115 -1.7253  1.6901 -0.0634
 3623SOL     OW22330   2.857   1.082   6.012 -0.1872  0.3495 -0.1493
 3623SOL    HW122331   2.943   1.072   5.971  0.1269 -1.1520  0.8589
 3623SOL    HW222332   2.812   1.142   5.953  3.1100  1.2107 -1.8052
 3624SOL     OW22333   2.586   1.492   2.351 -1.0933 -0.1632  0.2202
 3624SOL    HW122334   2.597   1.420   2.288 -0.7831 -0.8593  1.0693
 3624SOL    HW222335   2.493   1.507   2.366 -1.1636 -0.8309  0.4547
 3625SOL     OW22336   4.676   1.843   3.218  0.5278  0.3181  0.3415
 3625SOL    HW122337   0.005   1.773   3.253 -0.8669 -0.3806  1.1615
 3625SOL    HW222338   4.674   1.809   3.129 -1.8170 -0.1149  0.5406
 3626SOL     OW22339   2.334   3.703   3.318  0.2646 -0.0414 -0.1959
 3626SOL    HW122340   2.306   3.612   3.313  2.0319 -0.5966  0.3227
 3626SOL    HW222341   2.393   3.697   3.243 -0.7320 -1.5395 -0.8617
 3627SOL     OW22342   4.597   0.316   3.553 -0.2017  1.0161 -0.4029
 3627SOL    HW122343   4.541   0.286   3.481 -1.5526  0.9183  0.6976
 3627SOL    HW222344   4.551   0.399   3.568 -1.7825 -0.0550  0.5817
 3628SOL     OW22345   3.502   4.081   8.439 -0.5192 -0.1327  0.1077
 3628SOL    HW122346   3.476   4.126   8.358 -0.3515 -0.4363 -0.1185
 3628SOL    HW222347   3.546   4.001   8.408  0.4971 -0.3059  1.9998
 3629SOL     OW22348   1.095   3.319  16.950 -0.2480 -0.3358 -0.0878
 3629SOL    HW122349   1.027   3.296  16.886  0.6724  1.0169 -1.5361
 3629SOL    HW222350   1.053   3.390  16.999  0.5400  0.2742 -0.2937
 3630SOL     OW22351   4.509   3.616   4.386 -0.2370 -0.1956  0.0602
 3630SOL    HW122352   4.455   3.614   4.307 -0.5939  1.1539  0.2666
 3630SOL    HW222353   4.487   3.531   4.423 -2.0595 -0.6095 -1.9715
 3631SOL     OW22354   0.905   3.213   8.860  0.1685  0.1557 -0.4826
 3631SOL    HW122355   0.990   3.255   8.845  0.2635  0.6902  1.5432
 3631SOL    HW222356   0.860   3.283   8.907  0.9369  0.2969  0.0513
 3632SOL     OW22357   2.269   3.998   1.238 -0.5073 -0.1426 -0.2500
 3632SOL    HW122358   2.195   3.939   1.252  0.2497 -0.7848  1.0034
 3632SOL    HW222359   2.239   4.089   1.241  1.9703  0.5683  2.1011
 3633SOL     OW22360   1.160   2.817   4.024 -0.2488 -0.0227  0.0640
 3633SOL    HW122361   1.066   2.799   4.022 -0.2944  0.2794 -0.9435
 3633SOL    HW222362   1.169   2.858   3.938  0.0545  1.7683  0.9466
 3634SOL     OW22363   1.232   1.298   8.313  0.5476 -0.5686 -0.1420
 3634SOL    HW122364   1.311   1.351   8.303 -0.7609  1.7254  1.8412
 3634SOL    HW222365   1.221   1.277   8.221  0.0578  2.6965 -0.8121
 3635SOL     OW22366   3.553   4.566  10.148 -0.1098 -0.0486 -0.1566
 3635SOL    HW122367   3.457   4.562  10.147 -0.0014 -1.9764 -2.6906
 3635SOL    HW222368   3.570   4.552  10.242  1.2831  1.7770 -0.1530
 3636SOL     OW22369   0.105   4.203   2.830  0.4408 -0.7591  0.5687
 3636SOL    HW122370   0.170   4.272   2.815 -1.0628  0.6536  0.5617
 3636SOL    HW222371   0.129   4.151   2.753 -2.0427 -0.0199 -0.7292
 3637SOL     OW22372   3.846   0.356   7.213  0.3623 -0.2251 -0.1592
 3637SOL    HW122373   3.888   0.442   7.205 -1.8316  0.7717 -1.3495
 3637SOL    HW222374   3.885   0.324   7.294  2.3925 -0.4363 -1.2261
 3638SOL     OW22375   2.245   4.109   6.357 -0.4281  0.0038  0.0832
 3638SOL    HW122376   2.211   4.162   6.285 -1.5814 -1.8568 -0.7313
 3638SOL    HW222377   2.197   4.029   6.338 -1.0915  0.1871  0.9577
 3639SOL     OW22378   4.005   2.569   3.359 -0.3469  0.3644 -0.0262
 3639SOL    HW122379   3.948   2.635   3.320  0.1078  0.8064  0.0536
 3639SOL    HW222380   4.028   2.598   3.447  1.7973 -1.3105 -0.0225
 3640SOL     OW22381   3.970   4.401  14.139 -0.5812 -0.3901  0.8775
 3640SOL    HW122382   3.956   4.453  14.219 -2.3031 -0.0328  0.3215
 3640SOL    HW222383   3.966   4.465  14.068 -0.5619  0.1843  1.3814
 3641SOL     OW22384   1.207   0.729  12.190  0.3395 -0.8320  0.3688
 3641SOL    HW122385   1.210   0.697  12.280  3.1844 -1.6404 -0.0022
 3641SOL    HW222386   1.295   0.705  12.161  1.1029  0.4152  1.6803
 3642SOL     OW22387   2.832   0.968   9.626 -0.7851 -0.1605 -0.1599
 3642SOL    HW122388   2.850   1.055   9.590 -0.1792 -0.4972 -0.6614
 3642SOL    HW222389   2.846   0.983   9.720 -1.0411  0.6562 -0.2535
 3643SOL     OW22390   3.319   3.136  17.574  0.3282 -0.2762  0.1196
 3643SOL    HW122391   3.310   3.210  17.634  2.4962 -0.7867  1.0944
 3643SOL    HW222392   3.364   3.173  17.498 -0.9474  0.1794 -0.3986
 3644SOL     OW22393   1.661   4.480   7.043 -0.4093 -0.1005  0.3244
 3644SOL    HW122394   1.733   4.537   7.072 -1.8229  1.6272  0.4108
 3644SOL    HW222395   1.619   4.448   7.123  0.5768 -2.1789  0.0095
 3645SOL     OW22396   0.699   2.562   0.377  0.1368  0.3806  0.3638
 3645SOL    HW122397   0.726   2.470   0.370 -2.7918 -0.1976 -3.4957
 3645SOL    HW222398   0.764   2.601   0.320  0.7886 -0.8797  0.2375
 3646SOL     OW22399   1.708   2.392   4.220 -0.4337 -0.0110 -0.0274
 3646SOL    HW122400   1.653   2.421   4.148  0.8479 -1.0576 -1.4228
 3646SOL    HW222401   1.688   2.466   4.277  1.1257  0.4603 -0.0813
 3647SOL     OW22402   1.051   2.423   8.277  0.5197 -0.0495  0.1967
 3647SOL    HW122403   1.026   2.477   8.352 -0.9113 -1.5409  0.7733
 3647SOL    HW222404   0.962   2.407   8.245  0.4268 -0.1542  0.5128
 3648SOL     OW22405   3.919   0.293   7.465  0.4236  0.1853  0.3346
 3648SOL    HW122406   3.949   0.209   7.500  0.1283 -0.1380 -0.1839
 3648SOL    HW222407   3.854   0.324   7.528 -0.0184  0.7505 -0.4072
 3649SOL     OW22408   4.674   1.695   3.734 -0.2710 -0.3291 -0.7699
 3649SOL    HW122409   4.608   1.736   3.679  2.3303  0.9215 -2.9531
 3649SOL    HW222410   4.673   1.601   3.712  3.1266 -1.1966  2.6623
 3650SOL     OW22411   0.509   1.763   3.148 -0.0187  0.1515 -0.8204
 3650SOL    HW122412   0.425   1.774   3.193  0.0273 -2.4758 -0.0900
 3650SOL    HW222413   0.510   1.837   3.087 -1.9026  1.5906  0.8972
 3651SOL     OW22414   1.323   2.391  11.357 -0.5066  0.8175  0.1473
 3651SOL    HW122415   1.379   2.362  11.428 -0.4439 -0.9111 -0.6158
 3651SOL    HW222416   1.378   2.436  11.293  0.3210  0.9009  0.9305
 3652SOL     OW22417   2.543   2.153   9.659  0.1323 -0.0653  0.7809
 3652SOL    HW122418   2.533   2.240   9.697 -0.9532 -0.0402  0.4579
 3652SOL    HW222419   2.462   2.108   9.687  1.3327 -3.0163 -0.4851
 3653SOL     OW22420   4.092   4.582   2.483 -0.0921  0.6159 -0.2166
 3653SOL    HW122421   4.137   4.663   2.459  1.6150 -0.0387  0.7591
 3653SOL    HW222422   4.041   4.609   2.560 -1.5125  0.1833 -1.0172
 3654SOL     OW22423   0.941   4.667   7.428 -0.0112 -0.2841  0.2284
 3654SOL    HW122424   0.919   4.695   7.339 -0.1578 -0.6054  0.1674
 3654SOL    HW222425   0.854   4.675   7.466 -0.8876 -3.5288 -1.1319
 3655SOL     OW22426   1.612   0.347   9.779  0.1685 -0.0875 -0.9308
 3655SOL    HW122427   1.557   0.278   9.742 -0.1319  0.0151 -0.6804
 3655SOL    HW222428   1.552   0.420   9.770 -0.5579 -0.6686 -0.8481
 3656SOL     OW22429   4.202   3.551  17.392 -0.6783 -0.4762 -0.2660
 3656SOL    HW122430   4.165   3.474  17.435  1.2319 -1.1195  0.2223
 3656SOL    HW222431   4.168   3.629  17.436 -0.8721 -0.9460  0.4135
 3657SOL     OW22432   0.521   1.136   3.974  0.0721 -0.1064  0.0351
 3657SOL    HW122433   0.511   1.189   3.895  0.2080  0.5572  0.4672
 3657SOL    HW222434   0.603   1.090   3.951  0.4461  0.0429  1.0907
 3658SOL     OW22435   3.387   4.433   4.875 -0.2624  0.4277  0.5897
 3658SOL    HW122436   3.360   4.488   4.801 -1.7102 -0.9839  0.0707
 3658SOL    HW222437   3.471   4.473   4.898  1.4818 -2.8704 -0.0847
 3659SOL     OW22438   2.932   2.106   1.214 -0.1189 -0.2368 -0.0764
 3659SOL    HW122439   2.963   2.196   1.223 -3.3372  0.6166  2.4179
 3659SOL    HW222440   2.849   2.120   1.170 -0.2673  0.3464  0.3839
 3660SOL     OW22441   1.816   2.375   6.817  0.5025 -0.4619  0.6848
 3660SOL    HW122442   1.845   2.382   6.726 -2.8351  3.3774 -0.1146
 3660SOL    HW222443   1.880   2.309   6.845  2.5001  0.3018 -2.0945
 3661SOL     OW22444   1.349   3.743   9.395  0.0227 -0.0605  0.2993
 3661SOL    HW122445   1.278   3.806   9.382 -0.2125 -0.3380  0.2464
 3661SOL    HW222446   1.386   3.772   9.478 -1.5616 -0.2723  1.0825
 3662SOL     OW22447   2.634   3.690   3.808 -0.2530 -0.3885 -0.6132
 3662SOL    HW122448   2.595   3.727   3.729  1.1855 -0.7940 -1.5275
 3662SOL    HW222449   2.685   3.766   3.839  0.8449 -2.0679  1.7405
 3663SOL     OW22450   0.006   1.607   5.617  0.1093  0.4315 -0.0675
 3663SOL    HW122451   4.725   1.578   5.526  0.0478 -0.0425  0.0882
 3663SOL    HW222452   0.063   1.536   5.646  0.6418  0.6783 -0.5074
 3664SOL     OW22453   2.621   3.827  10.753 -0.2689  0.2256  0.0481
 3664SOL    HW122454   2.533   3.852  10.724  0.2672 -0.6290 -2.4010
 3664SOL    HW222455   2.606   3.821  10.847 -0.7734 -1.7029 -0.1633
 3665SOL     OW22456   3.993   4.488   5.780  0.1927 -0.1368  0.1332
 3665SOL    HW122457   3.956   4.514   5.864  2.4156  1.7515  0.5439
 3665SOL    HW222458   3.935   4.529   5.715 -1.6512 -0.7460  1.4099
 3666SOL     OW22459   3.073   0.922   2.826  0.2361  0.0079 -0.0525
 3666SOL    HW122460   3.017   0.875   2.763  0.8038  2.2336 -2.2394
 3666SOL    HW222461   3.082   1.002   2.774  0.6383  1.7141  2.6743
 3667SOL     OW22462   4.619   4.037   3.771  0.6918 -0.0126 -1.0034
 3667SOL    HW122463   4.619   4.033   3.867  0.8600  1.4378 -0.9421
 3667SOL    HW222464   4.656   3.951   3.753  1.0845  0.2759 -1.5732
 3668SOL     OW22465   1.414   0.705  14.700  0.6085 -0.9163  0.1579
 3668SOL    HW122466   1.344   0.683  14.638 -0.2096  1.0778  0.3790
 3668SOL    HW222467   1.369   0.701  14.784  1.1288  0.4942  0.5013
 3669SOL     OW22468   4.440   2.454  11.638  0.3151  0.0063 -0.6150
 3669SOL    HW122469   4.367   2.494  11.591  0.2253 -1.5804 -1.8097
 3669SOL    HW222470   4.510   2.519  11.635 -2.0704  2.5559 -0.8481
 3670SOL     OW22471   0.502   1.979   0.767 -0.8915  0.2644 -0.5108
 3670SOL    HW122472   0.490   1.892   0.729  0.4337 -0.1610  0.0239
 3670SOL    HW222473   0.528   2.038   0.697 -1.3508  3.5264  2.0410
 3671SOL     OW22474   0.209   1.103   0.236 -0.1614 -0.3065 -0.0382
 3671SOL    HW122475   0.219   1.063   0.149  0.3009 -2.3612  0.9511
 3671SOL    HW222476   0.237   1.026   0.286 -0.7869 -0.4781  0.0406
 3672SOL     OW22477   2.578   3.412   6.595  0.0222 -0.1484 -0.5550
 3672SOL    HW122478   2.555   3.461   6.674 -2.8169 -2.4253  0.0461
 3672SOL    HW222479   2.557   3.478   6.529  1.3925 -0.4549 -1.2989
 3673SOL     OW22480   3.279   3.442  10.103 -0.5328 -0.5175 -0.0445
 3673SOL    HW122481   3.197   3.401  10.075 -1.2520 -0.1695  1.5577
 3673SOL    HW222482   3.314   3.477  10.020  0.7081 -0.4802  0.4943
 3674SOL     OW22483   1.662   4.357  11.342 -0.4283 -0.0115  0.1328
 3674SOL    HW122484   1.723   4.311  11.399  0.6944 -1.4569 -2.2273
 3674SOL    HW222485   1.582   4.308  11.363 -0.4331  0.4816  1.2664
 3675SOL     OW22486   0.043   0.090   3.608  0.1639  0.0954  0.3110
 3675SOL    HW122487   0.113   0.111   3.670 -1.0512  2.2030  0.9825
 3675SOL    HW222488   0.020   0.172   3.564  2.4289  0.7196  0.3220
 3676SOL     OW22489   0.088   3.653   1.605 -0.8084 -0.1240  0.4168
 3676SOL    HW122490   0.152   3.647   1.676  0.4923 -2.0063 -0.8874
 3676SOL    HW222491   0.089   3.748   1.593 -2.0178 -0.4255 -2.1939
 3677SOL     OW22492   0.800   1.030   5.892 -0.4859 -0.3741 -0.4014
 3677SOL    HW122493   0.735   1.050   5.826  0.7832 -4.2210 -2.8099
 3677SOL    HW222494   0.846   1.114   5.900 -0.4149 -0.5561  1.1119
 3678SOL     OW22495   0.685   0.065   2.565  0.6896  0.3787 -0.2654
 3678SOL    HW122496   0.619   4.723   2.568 -1.0189  2.0038 -0.7043
 3678SOL    HW222497   0.680   0.115   2.646  2.0407 -0.4815  0.3550
 3679SOL     OW22498   0.090   2.951   0.390  0.0392 -0.4945 -0.2038
 3679SOL    HW122499   0.013   2.919   0.343  0.1404  0.2120 -0.8684
 3679SOL    HW222500   0.062   3.032   0.432 -0.1074  0.6973 -2.5541
 3680SOL     OW22501   0.555   3.994   5.918  0.4309  0.2682 -0.1364
 3680SOL    HW122502   0.580   3.919   5.973 -0.3110  0.4276  0.4258
 3680SOL    HW222503   0.645   4.013   5.895  1.4027 -3.5568  0.4893
 3681SOL     OW22504   1.072   1.945   4.141  0.1511 -0.1237 -0.2442
 3681SOL    HW122505   1.065   1.851   4.128  1.8732 -0.2341 -0.4135
 3681SOL    HW222506   1.159   1.942   4.181 -0.3485 -1.0349  0.7677
 3682SOL     OW22507   2.507   0.983   4.753 -0.0156  0.2878 -0.0808
 3682SOL    HW122508   2.514   1.039   4.675 -2.1338  2.1954  1.1070
 3682SOL    HW222509   2.440   1.036   4.795 -1.7625 -1.1932 -1.0113
 3683SOL     OW22510   2.048   3.437   5.033 -0.0436  0.2703 -0.6416
 3683SOL    HW122511   2.091   3.395   4.959 -2.2329 -1.3197 -0.9920
 3683SOL    HW222512   1.976   3.482   4.989 -0.8081 -1.8943 -1.5915
 3684SOL     OW22513   0.056   0.599   8.425  0.3569 -0.0797 -0.6613
 3684SOL    HW122514   0.122   0.640   8.368  1.9174 -1.3402  0.2377
 3684SOL    HW222515   0.098   0.517   8.452  0.6089  0.3243  0.1767
 3685SOL     OW22516   2.994   2.053  15.308  0.7471 -0.5188 -0.4128
 3685SOL    HW122517   2.915   1.999  15.313 -0.3544  1.3694  2.1449
 3685SOL    HW222518   3.024   2.034  15.397  0.6350  0.4576 -0.1671
 3686SOL     OW22519   0.127   4.334   7.558  0.4434  0.4525  0.2505
 3686SOL    HW122520   0.141   4.335   7.653  0.8078  1.8598  0.1927
 3686SOL    HW222521   0.198   4.277   7.531  0.1414  1.4276 -2.6151
 3687SOL     OW22522   1.714   1.346  10.865  0.1500  0.0806 -0.0994
 3687SOL    HW122523   1.668   1.304  10.792  0.7493 -0.4399 -0.1690
 3687SOL    HW222524   1.636   1.370  10.916  0.0572  0.1720 -0.2815
 3688SOL     OW22525   3.948   1.021  15.514 -0.4113 -0.7332  0.3145
 3688SOL    HW122526   3.966   1.063  15.429 -2.5724 -0.5305 -0.0367
 3688SOL    HW222527   4.007   0.947  15.501  0.1148  0.0146 -1.7374
 3689SOL     OW22528   3.601   1.580   6.471 -0.4016 -0.2643  0.8674
 3689SOL    HW122529   3.578   1.528   6.394  0.4508  0.3259  0.2127
 3689SOL    HW222530   3.696   1.592   6.470 -0.1827 -2.0088 -0.6243
 3690SOL     OW22531   0.553   0.570  15.054  0.0453 -1.0043  0.2547
 3690SOL    HW122532   0.626   0.527  15.010 -0.3926 -1.0059 -0.4924
 3690SOL    HW222533   0.584   0.654  15.085  1.0027 -0.9690 -0.7988
 3691SOL     OW22534   3.233   4.005   8.157 -0.2516 -0.0425  0.1894
 3691SOL    HW122535   3.206   4.070   8.222  0.0668 -0.1297  0.4052
 3691SOL    HW222536   3.188   4.038   8.079  1.5034  0.9324 -0.4270
 3692SOL     OW22537   0.359   2.536   8.502  0.0152 -0.2444  0.0860
 3692SOL    HW122538   0.400   2.450   8.513 -0.3959 -0.5709 -0.9795
 3692SOL    HW222539   0.421   2.601   8.536  0.0181 -0.1962 -0.0120
 3693SOL     OW22540   1.032   4.483   2.751  0.3630 -0.2718 -0.2176
 3693SOL    HW122541   0.986   4.562   2.778 -0.3214 -0.1110 -1.8247
 3693SOL    HW222542   1.045   4.445   2.838  4.7137 -2.0007 -1.6137
 3694SOL     OW22543   1.580   2.670   9.467  0.1982 -0.0756 -0.2117
 3694SOL    HW122544   1.507   2.616   9.438  0.6055 -0.2259 -0.9438
 3694SOL    HW222545   1.646   2.602   9.452 -0.9571 -1.4285  0.8396
 3695SOL     OW22546   3.913   1.816   5.007 -0.0018  0.3385  0.1647
 3695SOL    HW122547   3.901   1.862   4.924  1.2845 -0.9269 -0.7160
 3695SOL    HW222548   3.981   1.756   4.976 -0.3638 -0.0862  0.1853
 3696SOL     OW22549   1.056   3.395   0.171 -0.2012 -0.2145  0.1395
 3696SOL    HW122550   1.004   3.414   0.250 -0.7542  1.3688 -0.6179
 3696SOL    HW222551   1.131   3.358   0.218  1.3658  1.0835 -1.3498
 3697SOL     OW22552   4.602   0.789   5.339 -0.1103 -0.1412  0.2111
 3697SOL    HW122553   4.596   0.699   5.371  0.7131 -0.1880  0.2196
 3697SOL    HW222554   4.550   0.826   5.411 -0.6623 -3.7557  1.6683
 3698SOL     OW22555   1.431   2.264   5.854 -0.2589 -0.4389  0.2711
 3698SOL    HW122556   1.373   2.196   5.888  0.2633 -0.9203  0.2084
 3698SOL    HW222557   1.370   2.280   5.782 -2.5765 -0.5542  2.2295
 3699SOL     OW22558   4.699   3.250   7.564  0.4601 -0.2353 -0.4264
 3699SOL    HW122559   4.635   3.202   7.617  1.1182 -0.9267 -0.2566
 3699SOL    HW222560   4.658   3.325   7.521  2.7327 -0.0436 -2.3046
 3700SOL     OW22561   3.259   1.745   3.783 -0.3062  0.4772  0.5672
 3700SOL    HW122562   3.170   1.768   3.759 -0.9242 -2.3662  0.1134
 3700SOL    HW222563   3.245   1.664   3.833  2.1167 -0.3519 -0.0480
 3701SOL     OW22564   3.826   4.350   3.489  0.4966 -0.1987  0.2038
 3701SOL    HW122565   3.816   4.438   3.526 -0.4708  0.5281 -1.8094
 3701SOL    HW222566   3.736   4.322   3.476  0.8992 -1.2636 -0.3028
 3702SOL     OW22567   1.506   3.855   8.069  0.1735 -0.2199  0.3022
 3702SOL    HW122568   1.585   3.880   8.020  1.3065 -0.9699  1.7476
 3702SOL    HW222569   1.463   3.940   8.082 -0.8971 -0.2256 -3.1399
 3703SOL     OW22570   2.989   4.541  16.318  0.3825  0.4003 -0.0956
 3703SOL    HW122571   2.918   4.482  16.345  1.9803 -1.3906  0.2593
 3703SOL    HW222572   3.034   4.499  16.245  0.7213  0.0770  0.2968
 3704SOL     OW22573   3.516   2.349   0.614  0.0799 -0.6666  0.9520
 3704SOL    HW122574   3.578   2.384   0.550  0.3936 -1.2629  0.9251
 3704SOL    HW222575   3.471   2.283   0.562 -1.4021  1.1375 -0.0288
 3705SOL     OW22576   0.142   0.675   1.924 -0.2592  0.2395 -0.0306
 3705SOL    HW122577   0.185   0.675   2.009  1.9975 -0.9095 -1.1576
 3705SOL    HW222578   0.222   0.658   1.873  0.8943 -1.2427  2.2296
 3706SOL     OW22579   3.147   0.516   6.750  0.1529  0.2847 -0.1715
 3706SOL    HW122580   3.195   0.435   6.732  0.1853  0.7830 -2.3917
 3706SOL    HW222581   3.169   0.522   6.843  1.3730 -0.7370 -0.3878
 3707SOL     OW22582   2.021   1.348   1.776  0.2126  0.1425  0.1707
 3707SOL    HW122583   2.010   1.350   1.871 -0.3377  2.4408  0.0620
 3707SOL    HW222584   2.081   1.422   1.764  1.5212 -0.9969 -0.3061
 3708SOL     OW22585   0.916   3.769   6.657  0.1880  0.1269  0.5533
 3708SOL    HW122586   0.886   3.772   6.566  0.1702 -0.6792  0.5354
 3708SOL    HW222587   0.914   3.864   6.670 -0.6839  0.4899 -2.1378
 3709SOL     OW22588   0.472   3.212  12.969  0.7471  0.7703 -0.2584
 3709SOL    HW122589   0.540   3.186  13.031 -1.7233  2.3782  3.0910
 3709SOL    HW222590   0.402   3.157  13.004  1.5002  1.4052  2.2148
 3710SOL     OW22591   3.674   1.717   3.335 -0.6562 -0.2724 -0.0249
 3710SOL    HW122592   3.615   1.721   3.410 -2.3387  2.1145 -1.4728
 3710SOL    HW222593   3.731   1.646   3.365  0.5349 -0.2285 -2.2162
 3711SOL     OW22594   1.597   1.679   1.170 -0.5831  0.0761  0.1339
 3711SOL    HW122595   1.609   1.774   1.165  1.6301 -0.3797 -2.7136
 3711SOL    HW222596   1.576   1.674   1.264  0.6845  0.9970  0.4718
 3712SOL     OW22597   3.653   2.446   2.049 -0.9252  0.5099 -0.2621
 3712SOL    HW122598   3.564   2.450   2.083 -1.4625 -1.8966 -1.4331
 3712SOL    HW222599   3.697   2.384   2.107  1.8590  1.8417 -0.9305
 3713SOL     OW22600   0.960   2.210   3.020  0.0060 -0.8107 -0.5877
 3713SOL    HW122601   1.010   2.224   2.939 -1.5713  2.1287 -1.0555
 3713SOL    HW222602   1.023   2.159   3.071  0.9394  1.5794  0.6446
 3714SOL     OW22603   1.652   4.604   0.647  0.0187 -0.0188  0.0093
 3714SOL    HW122604   1.581   4.548   0.615  0.6076 -0.5059 -0.4412
 3714SOL    HW222605   1.629   4.612   0.740  0.8661  1.5435  0.0929
 3715SOL     OW22606   2.859   3.287   7.669  0.1541  0.1491 -0.0015
 3715SOL    HW122607   2.776   3.259   7.705  0.0422 -0.9978 -1.1165
 3715SOL    HW222608   2.828   3.353   7.607 -0.1121  0.1622  0.1495
 3716SOL     OW22609   2.351   3.470   5.955  0.2552 -0.2208 -0.1718
 3716SOL    HW122610   2.332   3.387   5.997 -0.5234 -0.3471 -0.7846
 3716SOL    HW222611   2.438   3.491   5.990  0.2717 -0.4124 -0.0983
 3717SOL     OW22612   0.681   3.214   3.827 -0.2735 -0.1666  0.4692
 3717SOL    HW122613   0.699   3.293   3.776 -0.8971  1.6534  3.1191
 3717SOL    HW222614   0.737   3.209   3.904  0.3108  0.2663  0.0747
 3718SOL     OW22615   0.293   0.690   5.921  0.6041 -0.1134  0.1890
 3718SOL    HW122616   0.246   0.706   6.002 -1.1716  0.7820 -1.0187
 3718SOL    HW222617   0.302   0.595   5.933  1.5779  0.1841  1.7136
 3719SOL     OW22618   1.326   0.313   9.410  0.2693  0.2915 -0.0419
 3719SOL    HW122619   1.289   0.260   9.481  1.2460  2.1791  1.8519
 3719SOL    HW222620   1.397   0.359   9.453  1.3012 -0.8538 -0.5207
 3720SOL     OW22621   3.862   1.627  11.187  0.6486  0.3544  0.5117
 3720SOL    HW122622   3.921   1.622  11.111  0.8468  0.9633  0.6244
 3720SOL    HW222623   3.856   1.533  11.203 -0.8819  0.3417 -0.2042
 3721SOL     OW22624   1.073   1.459   7.916  0.0463 -0.2964  0.1201
 3721SOL    HW122625   1.026   1.459   7.832  1.1568 -0.5336 -0.5033
 3721SOL    HW222626   1.032   1.538   7.951 -1.0409 -0.6243 -0.4156
 3722SOL     OW22627   1.922   3.736  17.533 -0.4965  0.3169  0.5702
 3722SOL    HW122628   1.947   3.712  17.622 -3.2391 -1.0666  0.9825
 3722SOL    HW222629   1.887   3.650  17.509 -0.6166  0.0060  1.8462
 3723SOL     OW22630   0.259   3.357  13.195 -0.2767  0.0576 -0.5371
 3723SOL    HW122631   0.303   3.281  13.232 -0.6231  0.6169  1.0201
 3723SOL    HW222632   0.181   3.365  13.250  0.9028  1.2202  0.9687
 3724SOL     OW22633   1.381   3.378   3.553 -0.2727  0.2349 -0.1377
 3724SOL    HW122634   1.433   3.361   3.631  0.1918 -0.0374 -0.5088
 3724SOL    HW222635   1.373   3.291   3.514  0.8694 -0.4816  1.2509
 3725SOL     OW22636   4.430   2.729   5.672 -0.3560  0.0364  0.1224
 3725SOL    HW122637   4.355   2.686   5.630 -1.3684  2.1303 -0.2085
 3725SOL    HW222638   4.475   2.647   5.692 -1.8990 -0.4211  1.7292
 3726SOL     OW22639   4.169   0.549   2.748 -0.0150  0.0598  0.0561
 3726SOL    HW122640   4.196   0.619   2.688 -0.6403  2.8012  3.0191
 3726SOL    HW222641   4.238   0.485   2.729  0.9916  1.0473  0.4726
 3727SOL     OW22642   4.566   3.298   3.961 -0.2857  0.4524  0.0996
 3727SOL    HW122643   4.488   3.316   3.908 -0.6647 -3.2629 -0.5902
 3727SOL    HW222644   4.604   3.385   3.947 -0.2700  0.2455 -1.1885
 3728SOL     OW22645   2.370   2.119   2.885 -0.7506  0.0834  0.5550
 3728SOL    HW122646   2.394   2.026   2.883  1.3444  0.6320 -0.2545
 3728SOL    HW222647   2.457   2.157   2.872 -1.5914  1.7936 -0.1148
 3729SOL     OW22648   4.265   1.172  11.665 -0.0004  0.1375 -0.5084
 3729SOL    HW122649   4.169   1.172  11.663 -0.0134  0.4871  0.0161
 3729SOL    HW222650   4.273   1.081  11.692  0.1614  0.1349 -0.5672
 3730SOL     OW22651   2.722   3.824   4.112  0.1406 -0.5650 -0.6411
 3730SOL    HW122652   2.673   3.903   4.133 -0.0366 -0.6462 -0.7435
 3730SOL    HW222653   2.767   3.857   4.034  0.2426  1.2675  0.1951
 3731SOL     OW22654   4.091   3.788   1.574 -0.3636  0.0723  0.5052
 3731SOL    HW122655   4.106   3.723   1.643  0.4611 -0.6497 -0.3542
 3731SOL    HW222656   4.128   3.745   1.498 -2.4896 -0.7443 -0.0687
 3732SOL     OW22657   3.370   3.193   3.078 -0.1356 -0.2906  0.8519
 3732SOL    HW122658   3.330   3.276   3.053  1.6632  0.3000 -0.0786
 3732SOL    HW222659   3.434   3.180   3.007  0.5945  0.2209  1.4191
 3733SOL     OW22660   1.942   2.849   2.114  0.2735 -0.1391 -0.3115
 3733SOL    HW122661   1.919   2.904   2.189  1.4602 -1.4109  1.0107
 3733SOL    HW222662   1.884   2.879   2.044  0.3441 -0.0752 -0.3431
 3734SOL     OW22663   2.505   4.126   3.808 -0.4881  0.6207 -0.9097
 3734SOL    HW122664   2.467   4.214   3.816 -0.9992  0.1965  1.3384
 3734SOL    HW222665   2.516   4.099   3.899  3.2163 -0.4502 -1.6954
 3735SOL     OW22666   2.329   1.241   4.934 -0.2713 -0.6330 -0.3997
 3735SOL    HW122667   2.251   1.242   4.879  0.5713  1.6055 -1.5862
 3735SOL    HW222668   2.305   1.172   4.995 -1.7746  0.6208  0.4243
 3736SOL     OW22669   0.657   1.502   5.438 -0.2772 -0.1790  0.1775
 3736SOL    HW122670   0.667   1.577   5.497 -0.7245  1.5420 -1.9089
 3736SOL    HW222671   0.567   1.528   5.419 -0.0927  0.5960  0.3459
 3737SOL     OW22672   3.654   3.474   1.424  0.1057 -0.0118 -0.4567
 3737SOL    HW122673   3.644   3.467   1.329  1.5332  1.2401 -0.7025
 3737SOL    HW222674   3.621   3.388   1.451  0.8958 -0.9329 -2.4515
 3738SOL     OW22675   2.633   1.013   5.150  0.0144  0.3164  0.3039
 3738SOL    HW122676   2.675   1.091   5.186  2.1746 -1.3082  1.3051
 3738SOL    HW222677   2.684   1.007   5.069 -0.4655  0.8029 -0.0328
 3739SOL     OW22678   3.361   2.123  12.618 -0.0848  0.1805 -0.3836
 3739SOL    HW122679   3.421   2.082  12.681 -1.1860 -0.4582  0.2426
 3739SOL    HW222680   3.422   2.127  12.545  1.3722 -1.5666  0.7231
 3740SOL     OW22681   1.680   2.241  16.084  0.0842  0.1365 -0.2460
 3740SOL    HW122682   1.730   2.284  16.016  0.2934 -3.0230 -2.0943
 3740SOL    HW222683   1.613   2.309  16.095  1.0736  1.3580 -1.8476
 3741SOL     OW22684   4.246   2.450   6.753 -0.2122 -0.2065  0.3941
 3741SOL    HW122685   4.271   2.397   6.829 -1.8508 -2.0885 -0.3780
 3741SOL    HW222686   4.231   2.534   6.796 -0.1404 -0.6286  1.2388
 3742SOL     OW22687   3.039   1.131   4.763 -0.1777 -0.6610 -0.0489
 3742SOL    HW122688   3.042   1.189   4.839  0.4685  0.1243 -0.6735
 3742SOL    HW222689   3.077   1.179   4.689 -1.6690  0.0240 -0.3680
 3743SOL     OW22690   0.254   2.814  11.938 -0.2199 -0.1246  0.3920
 3743SOL    HW122691   0.340   2.856  11.943 -0.6672  0.8122  0.2519
 3743SOL    HW222692   0.273   2.721  11.929 -3.2229 -0.9053  1.9535
 3744SOL     OW22693   0.784   3.781   4.240  0.5928  0.1071 -0.6233
 3744SOL    HW122694   0.717   3.817   4.182  1.0547 -0.9349 -1.8217
 3744SOL    HW222695   0.806   3.853   4.298 -1.6845 -0.0689  0.4756
 3745SOL     OW22696   1.072   3.561   3.180  0.0992 -0.2308  0.1297
 3745SOL    HW122697   1.040   3.525   3.097  0.5996  1.8858 -0.9791
 3745SOL    HW222698   1.000   3.611   3.220 -0.2531  0.3696 -1.2630
 3746SOL     OW22699   0.431   3.367   7.360 -0.1182  0.5900  0.1517
 3746SOL    HW122700   0.418   3.282   7.318 -0.7025  1.3097 -1.1032
 3746SOL    HW222701   0.450   3.422   7.284  1.5720  2.4504  1.9263
 3747SOL     OW22702   0.468   1.384   4.398  0.9328  0.3564  0.1086
 3747SOL    HW122703   0.547   1.412   4.444  0.4867  0.6447  0.7088
 3747SOL    HW222704   0.497   1.304   4.354  1.0502  0.0460  0.7489
 3748SOL     OW22705   1.106   2.213   5.672 -0.6824  0.2438  0.3585
 3748SOL    HW122706   1.118   2.291   5.618  3.7778  0.4411  1.5826
 3748SOL    HW222707   1.091   2.255   5.756 -1.1394  0.6898  0.0536
 3749SOL     OW22708   3.464   0.946  12.252 -0.0178 -0.2290  0.1500
 3749SOL    HW122709   3.381   0.913  12.216  0.5395 -0.0588 -1.2928
 3749SOL    HW222710   3.510   0.862  12.260 -0.5141 -0.5767 -0.5823
 3750SOL     OW22711   4.038   0.726   7.542 -0.2060  0.1214  0.1164
 3750SOL    HW122712   3.958   0.680   7.565  0.2844 -2.1194 -2.6040
 3750SOL    HW222713   4.046   0.802   7.599  0.9417 -0.7453  1.1034
 3751SOL     OW22714   2.865   2.206   4.817  0.4071  0.8720 -0.0649
 3751SOL    HW122715   2.941   2.259   4.842  0.4447 -0.4002  2.4695
 3751SOL    HW222716   2.794   2.267   4.837  0.8317  0.3789  2.9303
 3752SOL     OW22717   1.689   0.147   7.148 -0.4356 -0.2040 -0.2856
 3752SOL    HW122718   1.753   0.140   7.077 -1.9905  1.3358 -1.8469
 3752SOL    HW222719   1.679   0.241   7.157 -0.7538 -0.3731  1.1116
 3753SOL     OW22720   3.731   4.269  13.961  0.0478  0.0690  0.6850
 3753SOL    HW122721   3.733   4.335  13.891 -1.5225 -0.9265 -0.2942
 3753SOL    HW222722   3.693   4.327  14.027 -1.0983  0.9386 -0.7226
 3754SOL     OW22723   1.147   3.641  13.607  0.1729  0.1905  0.1236
 3754SOL    HW122724   1.221   3.586  13.583 -1.8006 -1.8396 -1.3575
 3754SOL    HW222725   1.112   3.685  13.529  1.1287  2.0377  0.7333
 3755SOL     OW22726   4.157   2.752   6.340  0.3304 -0.1223 -0.3184
 3755SOL    HW122727   4.218   2.818   6.309  0.4029 -0.7254 -1.4460
 3755SOL    HW222728   4.203   2.718   6.416  2.1695  2.1301 -0.4190
 3756SOL     OW22729   2.294   2.941   6.908  0.2935  0.7794  0.6409
 3756SOL    HW122730   2.317   2.935   6.815 -2.0470 -2.1222  0.2856
 3756SOL    HW222731   2.200   2.928   6.906  0.4975 -0.8991  2.9462
 3757SOL     OW22732   0.215   3.256  17.537 -0.7104  0.5974  0.1508
 3757SOL    HW122733   0.220   3.350  17.552 -0.1120  0.8882 -1.8916
 3757SOL    HW222734   0.127   3.223  17.554 -0.0546  0.1234  2.6878
 3758SOL     OW22735   3.467   1.118   1.719  0.3767 -0.0906  0.2673
 3758SOL    HW122736   3.562   1.131   1.715  0.4608 -0.3977  1.1286
 3758SOL    HW222737   3.435   1.198   1.761 -0.0805 -0.6855  1.0552
 3759SOL     OW22738   1.731   0.585   7.679 -0.2016 -0.4901  0.5321
 3759SOL    HW122739   1.811   0.555   7.723 -0.2033 -1.6247 -0.2443
 3759SOL    HW222740   1.683   0.624   7.752  0.0369 -0.8795  0.9035
 3760SOL     OW22741   1.492   1.575  12.924 -0.2797 -0.5773  0.2230
 3760SOL    HW122742   1.417   1.520  12.902  0.0467 -0.8698 -0.1586
 3760SOL    HW222743   1.442   1.648  12.961 -0.8819 -1.7710  1.7158
 3761SOL     OW22744   1.802   3.987   2.368  0.1696  0.8206  0.0108
 3761SOL    HW122745   1.773   3.981   2.278  0.9415  1.8715 -0.3078
 3761SOL    HW222746   1.853   4.068   2.360 -0.5202  1.1521 -0.9244
 3762SOL     OW22747   4.084   1.484  10.399  0.2451 -0.3336  0.3111
 3762SOL    HW122748   4.056   1.394  10.386  2.3107 -0.8390 -0.5969
 3762SOL    HW222749   4.051   1.530  10.321 -0.3613  0.4474  1.0271
 3763SOL     OW22750   4.548   4.436   4.642 -0.4713 -0.0015 -0.6242
 3763SOL    HW122751   4.613   4.405   4.705 -0.2269  2.1989  0.2009
 3763SOL    HW222752   4.466   4.438   4.691 -1.3387  1.7721 -2.1456
 3764SOL     OW22753   1.717   0.341   1.672  0.3121  0.0159 -0.2488
 3764SOL    HW122754   1.662   0.307   1.602  2.4397  0.3143 -2.0647
 3764SOL    HW222755   1.796   0.372   1.627 -0.3374  2.0462 -0.0194
 3765SOL     OW22756   2.918   0.348   6.743 -0.0555  0.2199 -0.0340
 3765SOL    HW122757   2.991   0.410   6.735 -0.2767  0.7203  1.9075
 3765SOL    HW222758   2.961   0.268   6.771 -1.0865 -0.1444  0.5222
 3766SOL     OW22759   4.189   1.841   3.412 -0.3397 -0.1979  0.2600
 3766SOL    HW122760   4.260   1.805   3.359  0.1971 -0.4502  1.1328
 3766SOL    HW222761   4.143   1.757   3.414  0.5104 -0.6497  1.3321
 3767SOL     OW22762   1.127   3.349   8.838 -0.3542  0.2415 -0.2742
 3767SOL    HW122763   1.208   3.318   8.797  0.0057 -0.7176  1.1566
 3767SOL    HW222764   1.169   3.394   8.912 -1.8228 -0.4510  0.9613
 3768SOL     OW22765   1.325   4.526   5.116 -0.1006  0.3926 -0.2382
 3768SOL    HW122766   1.414   4.552   5.137 -0.4883  2.7920 -1.4963
 3768SOL    HW222767   1.292   4.605   5.072  0.9413  1.4070  0.8388
 3769SOL     OW22768   2.802   1.195  10.184  0.0617 -0.0052  0.1922
 3769SOL    HW122769   2.774   1.258  10.251 -0.4688 -1.3109  1.2100
 3769SOL    HW222770   2.870   1.248  10.142  0.0794  0.0562  0.2957
 3770SOL     OW22771   2.545   3.270   7.104  0.0464 -0.4716 -0.2356
 3770SOL    HW122772   2.500   3.284   7.021 -0.5989 -1.4984 -0.0540
 3770SOL    HW222773   2.531   3.183   7.139 -0.1531  0.3087  1.6356
 3771SOL     OW22774   0.251   2.336  16.256  0.5472  0.6280 -0.2883
 3771SOL    HW122775   0.286   2.343  16.345 -0.1686  1.0839 -0.0400
 3771SOL    HW222776   0.254   2.426  16.224 -0.7315  0.7433 -0.0950
 3772SOL     OW22777   2.882   1.820   9.106  0.5613  0.8035 -0.1610
 3772SOL    HW122778   2.848   1.907   9.083  1.7704  1.2249 -0.3445
 3772SOL    HW222779   2.869   1.810   9.200 -1.9468  0.0672 -0.5952
 3773SOL     OW22780   2.786   2.523  12.718  0.1712  0.9617  0.5807
 3773SOL    HW122781   2.875   2.491  12.700 -0.3250 -0.3092  0.3627
 3773SOL    HW222782   2.762   2.465  12.790 -0.6721  0.6725  0.0747
 3774SOL     OW22783   4.340   4.547   8.242  0.0036  0.5170 -0.1324
 3774SOL    HW122784   4.327   4.524   8.150 -1.7315 -0.7275  0.4168
 3774SOL    HW222785   4.388   4.629   8.227  0.1019  0.7519  1.4054
 3775SOL     OW22786   4.508   0.127   4.341 -0.1865  0.2323  0.3423
 3775SOL    HW122787   4.462   0.064   4.396 -0.5238 -0.4381 -0.7064
 3775SOL    HW222788   4.601   0.105   4.345  0.0243  1.2735  1.1321
 3776SOL     OW22789   4.552   4.348   1.013  0.5483 -0.1565  0.0942
 3776SOL    HW122790   4.472   4.325   0.966  1.1955 -1.3563 -0.4168
 3776SOL    HW222791   4.517   4.414   1.074  0.2098 -0.0187 -0.2518
 3777SOL     OW22792   1.139   1.067  14.599 -0.3369  0.3742 -0.1866
 3777SOL    HW122793   1.228   1.062  14.632 -0.5154 -2.1756 -0.0850
 3777SOL    HW222794   1.093   1.001  14.652  2.7564 -0.0444  1.9995
 3778SOL     OW22795   4.079   1.083   3.936 -0.7373  0.1566 -0.2660
 3778SOL    HW122796   4.090   1.010   3.876 -3.5373  0.5583 -1.2236
 3778SOL    HW222797   4.157   1.069   3.990 -0.3264  1.6317 -0.4766
 3779SOL     OW22798   4.309   4.436   4.828  0.2652  0.5099  0.0423
 3779SOL    HW122799   4.218   4.426   4.854  1.0056  2.8631  3.5403
 3779SOL    HW222800   4.334   4.492   4.902  0.4100  1.0934 -0.4468
 3780SOL     OW22801   2.096   2.826   8.186  0.1021 -0.1289  0.4684
 3780SOL    HW122802   2.156   2.820   8.111 -0.3002 -1.4144  0.2430
 3780SOL    HW222803   2.026   2.764   8.166 -0.9508  0.3183  2.8027
 3781SOL     OW22804   0.532   4.675   6.095  0.0915  0.5201 -0.1104
 3781SOL    HW122805   0.477   4.596   6.103  2.5999 -1.3351 -1.1022
 3781SOL    HW222806   0.466   0.016   6.079 -0.8200 -0.0293  1.2994
 3782SOL     OW22807   1.122   0.075  13.614  0.1449 -0.0279  0.0277
 3782SOL    HW122808   1.081   0.117  13.689  1.0684  1.2051 -0.1586
 3782SOL    HW222809   1.067   4.725  13.600  0.8855 -0.2934 -1.4329
 3783SOL     OW22810   3.920   3.971   6.850  0.2378  0.2495  0.2493
 3783SOL    HW122811   4.012   3.948   6.839  0.8171  2.0001  1.5436
 3783SOL    HW222812   3.917   3.960   6.945  0.2171 -2.4502 -0.0674
 3784SOL     OW22813   1.130   4.132  12.780  0.3608  0.4583 -0.2299
 3784SOL    HW122814   1.055   4.191  12.785  0.7926  1.1357 -1.6908
 3784SOL    HW222815   1.089   4.046  12.780  0.0522  0.6132  1.5837
 3785SOL     OW22816   0.021   1.284  10.845  0.1656 -0.0902  0.0779
 3785SOL    HW122817   4.695   1.241  10.777 -1.5450 -0.6814  1.7750
 3785SOL    HW222818   0.012   1.226  10.920 -2.6275  0.5734  0.2557
 3786SOL     OW22819   4.097   3.006   3.590  0.0711 -0.7641  0.0706
 3786SOL    HW122820   4.170   2.950   3.617 -0.6274 -2.0340 -0.6657
 3786SOL    HW222821   4.108   3.077   3.653  1.4735 -0.3257 -0.6702
 3787SOL     OW22822   3.243   1.056   8.148  0.0874  0.0857  0.1607
 3787SOL    HW122823   3.259   0.995   8.219 -0.9384 -0.2306  0.1265
 3787SOL    HW222824   3.248   1.136   8.200 -0.7951  1.0843 -1.2744
 3788SOL     OW22825   1.322   3.242   9.301 -0.0439  0.0771  0.6166
 3788SOL    HW122826   1.386   3.307   9.330  0.4457 -0.4391  0.6900
 3788SOL    HW222827   1.251   3.263   9.361  0.1408  2.0053  0.1687
 3789SOL     OW22828   1.169   4.026   9.063 -0.6421  0.4172  0.8266
 3789SOL    HW122829   1.100   4.079   9.103 -0.7381  1.1504 -0.3380
 3789SOL    HW222830   1.247   4.033   9.119  1.7235 -1.4838 -2.2445
 3790SOL     OW22831   3.652   1.473  15.686 -0.0631 -0.1754 -0.2111
 3790SOL    HW122832   3.579   1.455  15.627  1.3554  0.0541 -2.0092
 3790SOL    HW222833   3.711   1.406  15.654  0.2426 -0.9688  1.9893
 3791SOL     OW22834   1.317   0.217  13.455  0.1502  0.0224 -0.1849
 3791SOL    HW122835   1.252   0.173  13.510 -0.9018  1.5853 -0.1786
 3791SOL    HW222836   1.266   0.234  13.376 -3.2998  1.1804  2.3165
 3792SOL     OW22837   2.281   1.986   3.534  0.1234 -0.4354  0.0104
 3792SOL    HW122838   2.218   1.956   3.600 -0.5446 -3.4374 -1.9764
 3792SOL    HW222839   2.370   1.969   3.565 -0.0870 -1.5172  0.0423
 3793SOL     OW22840   1.204   3.688   3.849 -0.0289  0.3466  0.4669
 3793SOL    HW122841   1.298   3.678   3.837 -0.2811 -2.1633  0.5189
 3793SOL    HW222842   1.182   3.597   3.867  1.1214 -0.2701 -1.2554
 3794SOL     OW22843   1.527   1.239   6.915 -0.0962  0.1953  0.1843
 3794SOL    HW122844   1.432   1.232   6.917 -0.3208  2.8166 -0.3063
 3794SOL    HW222845   1.543   1.194   6.998  0.5367  2.1151  1.1305
 3795SOL     OW22846   1.872   1.735   9.201 -0.2163 -0.1879  0.5885
 3795SOL    HW122847   1.882   1.750   9.294 -1.5541 -1.3529  0.9245
 3795SOL    HW222848   1.964   1.721   9.179 -0.9817 -0.0844 -2.7595
 3796SOL     OW22849   3.874   1.491   8.371  0.1944 -0.2392 -0.6331
 3796SOL    HW122850   3.907   1.531   8.452  0.2188  0.6698 -1.0852
 3796SOL    HW222851   3.950   1.442   8.340  1.2714 -1.0662  3.3782
 3797SOL     OW22852   1.386   1.726   8.756  0.0309  0.0718  0.7395
 3797SOL    HW122853   1.370   1.638   8.790 -0.8740 -0.5647 -1.3555
 3797SOL    HW222854   1.316   1.731   8.690  1.0332  1.6516 -0.2129
 3798SOL     OW22855   0.554   1.124  13.728 -0.5431 -0.2156 -0.1590
 3798SOL    HW122856   0.557   1.029  13.716 -1.2801 -0.1994 -0.4556
 3798SOL    HW222857   0.470   1.155  13.695 -1.9317 -3.2291  0.6365
 3799SOL     OW22858   2.463   3.838  13.928 -0.0159  0.4941  0.5519
 3799SOL    HW122859   2.501   3.894  13.995  1.2132 -1.5069  1.5322
 3799SOL    HW222860   2.379   3.825  13.973  0.3687 -1.0275  0.8327
 3800SOL     OW22861   1.734   2.010  13.962 -0.1342  0.1073 -0.2140
 3800SOL    HW122862   1.821   2.021  13.999 -0.0833  1.0878 -0.6083
 3800SOL    HW222863   1.689   1.996  14.045  1.4062 -0.7391  0.4606
 3801SOL     OW22864   2.628   0.061   8.712 -0.4057  0.2644  0.1864
 3801SOL    HW122865   2.641   0.066   8.806 -1.0612  2.8085  0.1452
 3801SOL    HW222866   2.572   0.136   8.690 -1.9943 -0.9765  0.0506
 3802SOL     OW22867   1.120   3.535  10.854  0.1672 -0.8810  0.3330
 3802SOL    HW122868   1.064   3.495  10.920 -0.6076 -2.4164 -1.2603
 3802SOL    HW222869   1.206   3.523  10.894  1.2045  3.6905 -0.5053
 3803SOL     OW22870   0.740   0.576   5.989  0.2965  0.8516  0.3139
 3803SOL    HW122871   0.759   0.654   5.937  4.0727  0.6370  1.3527
 3803SOL    HW222872   0.806   0.517   5.954 -2.9591 -0.9542 -2.8148
 3804SOL     OW22873   3.988   1.621   8.581 -0.1997  0.0243 -0.3804
 3804SOL    HW122874   4.076   1.656   8.597 -0.6107  0.7353  0.3154
 3804SOL    HW222875   3.946   1.707   8.581  0.7628  0.5040  1.7092
 3805SOL     OW22876   0.302   2.453   4.826 -0.6612 -0.2030 -0.4880
 3805SOL    HW122877   0.270   2.531   4.871  0.4504 -0.5045  0.8565
 3805SOL    HW222878   0.242   2.391   4.869  0.4145 -0.6069  0.4390
 3806SOL     OW22879   3.079   2.328   5.368  0.1063  0.0992  0.1175
 3806SOL    HW122880   3.056   2.266   5.298 -0.7848  2.5104 -1.7365
 3806SOL    HW222881   3.065   2.274   5.446  0.4167  1.6431  1.2305
 3807SOL     OW22882   2.494   0.744   2.430  0.0183 -0.4345  0.1714
 3807SOL    HW122883   2.508   0.836   2.455 -1.6299  0.3589 -1.8893
 3807SOL    HW222884   2.459   0.757   2.342  3.3462  0.5842 -1.0116
 3808SOL     OW22885   0.519   1.678   1.293 -0.5234  0.7680 -0.3048
 3808SOL    HW122886   0.528   1.772   1.279 -0.8119  0.4857 -2.5189
 3808SOL    HW222887   0.457   1.663   1.221  0.2109 -1.9500 -0.3906
 3809SOL     OW22888   1.754   3.911   3.121  0.1783  0.0308  0.2372
 3809SOL    HW122889   1.689   3.974   3.091  0.0296 -0.0861  0.3093
 3809SOL    HW222890   1.692   3.847   3.157 -0.0411 -0.1251 -0.4272
 3810SOL     OW22891   4.582   2.690   5.099 -0.6060  0.4526  0.2550
 3810SOL    HW122892   4.659   2.658   5.053 -0.3661  1.4070  0.0028
 3810SOL    HW222893   4.629   2.701   5.182  0.3434  1.8060 -0.4672
 3811SOL     OW22894   1.065   4.142  10.973  0.3536 -0.6938  0.1462
 3811SOL    HW122895   1.126   4.211  10.947 -1.2137  0.4896 -0.4503
 3811SOL    HW222896   1.123   4.074  11.006 -0.0128 -1.4399 -0.7557
 3812SOL     OW22897   0.646   3.488  12.607  0.0594 -0.4505 -0.6347
 3812SOL    HW122898   0.597   3.551  12.554  0.6193  0.0741 -0.5374
 3812SOL    HW222899   0.633   3.410  12.553 -2.0988  0.3494 -1.2647
 3813SOL     OW22900   0.111   4.197   4.074  0.2504  0.5479  0.2387
 3813SOL    HW122901   0.087   4.215   3.983  0.5083 -3.9905 -0.7491
 3813SOL    HW222902   0.025   4.183   4.112 -0.2940 -1.6110 -1.8111
 3814SOL     OW22903   1.372   2.445   5.499 -0.2425 -0.2567 -0.0156
 3814SOL    HW122904   1.349   2.352   5.490  1.1692 -0.6480  0.3914
 3814SOL    HW222905   1.413   2.450   5.412  1.4438  0.0310  0.7981
 3815SOL     OW22906   3.790   0.693  17.395 -0.3177 -0.2269 -0.2574
 3815SOL    HW122907   3.819   0.669  17.483  2.3069  0.5558 -0.9169
 3815SOL    HW222908   3.850   0.649  17.335  0.6526  0.5202  0.1642
 3816SOL     OW22909   1.753   1.956  16.017 -0.1677  0.0954  1.0699
 3816SOL    HW122910   1.690   1.892  15.984  1.8565 -0.8956 -0.8283
 3816SOL    HW222911   1.700   2.034  16.035 -1.4399 -0.5570  0.1869
 3817SOL     OW22912   0.278   3.982   3.449 -0.4350  0.0248  0.3111
 3817SOL    HW122913   0.327   3.984   3.367  0.0229 -0.2059  0.5815
 3817SOL    HW222914   0.244   3.893   3.441  0.1371 -0.2526  0.9483
 3818SOL     OW22915   0.864   2.667   4.469  0.1068 -0.3045  0.1612
 3818SOL    HW122916   0.896   2.693   4.555 -0.9337 -0.0949  0.4757
 3818SOL    HW222917   0.785   2.618   4.489 -0.9013  1.0114 -0.6375
 3819SOL     OW22918   2.726   2.835   8.711  0.2478 -0.5655  0.6075
 3819SOL    HW122919   2.748   2.924   8.739 -0.4112 -0.1399 -0.2310
 3819SOL    HW222920   2.817   2.813   8.693  0.3756  2.3087 -2.2134
 3820SOL     OW22921   2.192   4.428   7.359  0.1959  0.2482 -0.2955
 3820SOL    HW122922   2.193   4.342   7.317 -1.9969  0.2836 -0.4376
 3820SOL    HW222923   2.104   4.461   7.339  0.0816  0.9297  1.3686
 3821SOL     OW22924   1.821   3.792  15.741 -0.2245 -0.5179 -0.1084
 3821SOL    HW122925   1.816   3.887  15.735 -0.9311 -0.4545  1.6155
 3821SOL    HW222926   1.841   3.783  15.834 -0.5662 -0.2989 -0.0162
 3822SOL     OW22927   2.833   2.877   2.479 -0.0065  0.3606  0.0006
 3822SOL    HW122928   2.848   2.906   2.389  0.7131  2.2513  0.7264
 3822SOL    HW222929   2.840   2.782   2.475 -0.9922  0.3229 -0.8857
 3823SOL     OW22930   0.224   1.970   7.058 -0.3259  0.0013  0.3340
 3823SOL    HW122931   0.150   1.981   7.117  1.5625  2.6501  2.2576
 3823SOL    HW222932   0.194   1.997   6.971 -0.6513  1.8491  1.0135
 3824SOL     OW22933   0.396   0.368  13.687  0.4838  0.0842 -0.2126
 3824SOL    HW122934   0.306   0.345  13.710  0.2477 -1.5962 -2.9631
 3824SOL    HW222935   0.391   0.400  13.597 -0.2690 -0.8443 -0.4993
 3825SOL     OW22936   1.386   3.252   8.727 -0.0701  0.0902  0.0557
 3825SOL    HW122937   1.468   3.207   8.743  1.0428  1.6817 -1.1757
 3825SOL    HW222938   1.343   3.198   8.660  1.8247 -0.5389 -0.6583
 3826SOL     OW22939   1.447   3.133   6.930 -0.0763 -0.3109 -0.3679
 3826SOL    HW122940   1.521   3.100   6.880 -0.4377  0.3316 -1.3382
 3826SOL    HW222941   1.488   3.185   6.998 -1.8307  0.1001  0.3879
 3827SOL     OW22942   3.702   3.361   2.617  0.9349 -0.5801 -0.3184
 3827SOL    HW122943   3.631   3.357   2.553 -0.4163 -2.0964  1.2757
 3827SOL    HW222944   3.769   3.321   2.562  2.0326 -1.3859  1.5933
 3828SOL     OW22945   4.620   3.849   4.475 -0.4026  0.3825 -0.0372
 3828SOL    HW122946   4.582   3.772   4.433  1.3741 -0.3247 -0.3371
 3828SOL    HW222947   4.551   3.887   4.530 -1.4306  1.5854 -2.1543
 3829SOL     OW22948   3.209   2.512  14.633 -0.6311 -0.2023  0.5922
 3829SOL    HW122949   3.137   2.451  14.650 -1.2013 -0.2560 -2.1122
 3829SOL    HW222950   3.211   2.509  14.538 -0.1507 -0.1940  0.6011
 3830SOL     OW22951   3.247   4.224   2.795  0.3627  0.3580  0.0746
 3830SOL    HW122952   3.337   4.203   2.767 -0.1211 -0.1993 -1.0931
 3830SOL    HW222953   3.239   4.179   2.878  4.1845  0.5156  0.5554
 3831SOL     OW22954   2.549   2.780   3.312  0.3996  0.0290  0.0145
 3831SOL    HW122955   2.525   2.733   3.392  0.6670 -1.3173 -0.6932
 3831SOL    HW222956   2.636   2.755   3.282  0.3200  0.6331 -0.7197
 3832SOL     OW22957   0.422   4.323   6.556 -0.5992  0.1663 -0.5872
 3832SOL    HW122958   0.422   4.392   6.623 -1.7996  0.8316 -1.2876
 3832SOL    HW222959   0.384   4.249   6.604  0.6302 -0.9917 -1.3850
 3833SOL     OW22960   4.653   3.479   5.918 -0.3798 -0.1048  0.1739
 3833SOL    HW122961   4.599   3.557   5.929 -0.7905 -0.1007 -1.8253
 3833SOL    HW222962   4.616   3.454   5.833 -1.4248  2.2425 -0.0582
 3834SOL     OW22963   4.409   1.620   5.970  0.0038 -0.4764 -0.3454
 3834SOL    HW122964   4.474   1.685   5.997 -0.4198 -0.8800  1.6052
 3834SOL    HW222965   4.437   1.611   5.879  1.4778 -0.8135  0.1454
 3835SOL     OW22966   0.228   1.909   6.638  0.3690 -0.1402  0.3629
 3835SOL    HW122967   0.175   1.830   6.627  1.6601 -1.1406  1.2145
 3835SOL    HW222968   0.158   1.974   6.632  1.6260  1.1948  0.1389
 3836SOL     OW22969   2.594   3.503   0.832 -0.7101  0.8630  0.0327
 3836SOL    HW122970   2.675   3.518   0.881 -0.8290  0.7207  0.2742
 3836SOL    HW222971   2.633   3.473   0.750 -0.1553  1.7207 -0.0165
 3837SOL     OW22972   1.821   3.091   0.454  0.0964 -0.8001  0.2578
 3837SOL    HW122973   1.750   3.048   0.406 -0.6643  1.6816 -0.8125
 3837SOL    HW222974   1.866   3.133   0.380 -0.5626 -1.7067 -0.6620
 3838SOL     OW22975   2.358   2.439  16.159  0.3731 -0.2283  0.5551
 3838SOL    HW122976   2.318   2.454  16.074  2.0308 -0.3819 -0.2615
 3838SOL    HW222977   2.278   2.433  16.212 -0.7709 -1.1985 -1.3202
 3839SOL     OW22978   1.827   2.182   2.491  0.8719 -0.0746  0.9826
 3839SOL    HW122979   1.849   2.098   2.450 -1.3445 -0.6589  0.9773
 3839SOL    HW222980   1.914   2.221   2.494  0.9340 -0.0461 -1.1031
 3840SOL     OW22981   0.614   3.834  16.772 -0.1575 -0.4503 -0.5827
 3840SOL    HW122982   0.553   3.780  16.823  0.2802 -1.1392 -0.7796
 3840SOL    HW222983   0.568   3.839  16.688 -1.4731  1.8413  0.2813
 3841SOL     OW22984   2.955   0.738   4.217 -0.2293 -0.2884  0.4142
 3841SOL    HW122985   3.014   0.710   4.147  0.1924  0.4449  0.4704
 3841SOL    HW222986   2.962   0.834   4.220  0.9045 -0.4069  1.5896
 3842SOL     OW22987   2.526   0.138   6.640 -0.0776 -0.0895 -0.1905
 3842SOL    HW122988   2.563   0.210   6.689 -2.0786  0.0428  1.1034
 3842SOL    HW222989   2.529   0.171   6.550 -0.6731  0.3127 -0.0630
 3843SOL     OW22990   0.087   4.723   7.573 -0.0020  0.0896 -0.2924
 3843SOL    HW122991   4.724   0.028   7.558  0.5318  1.4750 -0.5777
 3843SOL    HW222992   0.059   4.652   7.631  1.1589  0.2772  0.4990
 3844SOL     OW22993   0.181   0.984   7.589  0.6576 -0.0712  0.3283
 3844SOL    HW122994   0.209   1.004   7.499 -1.0541 -0.9834 -0.4097
 3844SOL    HW222995   0.106   0.925   7.578  0.4831  0.0486  0.8681
 3845SOL     OW22996   2.760   1.517   5.558  0.0156  0.1525 -0.8403
 3845SOL    HW122997   2.705   1.472   5.494 -2.6182  0.3204  1.2929
 3845SOL    HW222998   2.691   1.579   5.582  1.3202  0.4641  2.1728
 3846SOL     OW22999   2.826   3.914   3.832  0.3227 -0.1703  0.0683
 3846SOL    HW123000   2.803   4.006   3.816 -0.5218 -0.0654  1.8759
 3846SOL    HW223001   2.911   3.904   3.790  0.5399 -0.0534  0.4796
 3847SOL     OW23002   1.559   1.699   9.099 -0.2004  0.1273  0.1256
 3847SOL    HW123003   1.549   1.604   9.095 -1.1305  0.2612 -0.6650
 3847SOL    HW223004   1.540   1.715   9.191  2.3536 -0.2839  0.7444
 3848SOL     OW23005   3.354   2.873   7.187  0.5371 -0.3638  0.1185
 3848SOL    HW123006   3.428   2.813   7.199  1.9936  1.4365  0.1975
 3848SOL    HW223007   3.341   2.912   7.274 -1.7371 -0.5997 -0.1093
 3849SOL     OW23008   3.350   2.222   3.682 -0.1709 -0.2686 -0.1731
 3849SOL    HW123009   3.389   2.183   3.603  0.1754 -0.8550  0.2928
 3849SOL    HW223010   3.390   2.177   3.756 -1.7559 -1.1699  0.1193
 3850SOL     OW23011   0.651   2.167   7.780 -0.3465 -0.1700  0.4004
 3850SOL    HW123012   0.624   2.093   7.834 -1.4238  0.6227  0.9557
 3850SOL    HW223013   0.685   2.223   7.851  1.7117 -0.9667  0.0347
 3851SOL     OW23014   2.043   3.879   8.124  0.1522 -0.0862  0.4262
 3851SOL    HW123015   2.048   3.873   8.219  0.8201 -0.2051  0.3813
 3851SOL    HW223016   1.965   3.826   8.107 -0.4916  0.5113  1.4977
 3852SOL     OW23017   1.827   3.672   9.242  0.0067  0.0212 -0.1349
 3852SOL    HW123018   1.739   3.705   9.226 -0.4414 -1.3686 -0.5455
 3852SOL    HW223019   1.878   3.729   9.184  1.2617 -2.3217 -1.3490
 3853SOL     OW23020   1.942   0.471   8.857  0.2942  0.4005  0.5655
 3853SOL    HW123021   2.005   0.400   8.851  1.0606  1.2342 -1.2720
 3853SOL    HW223022   1.997   0.548   8.867  0.9692 -0.0972  0.7063
 3854SOL     OW23023   0.260   3.916   2.211  0.4829  0.0784 -0.6027
 3854SOL    HW123024   0.281   4.009   2.209 -0.1590  0.2767  1.7562
 3854SOL    HW223025   0.296   3.886   2.128  1.7399 -0.6358  0.2034
 3855SOL     OW23026   2.588   0.445   7.439 -0.1304 -0.3592 -0.1116
 3855SOL    HW123027   2.629   0.482   7.361  0.9307 -1.7703 -0.2129
 3855SOL    HW223028   2.525   0.513   7.465  0.8336  0.8052 -0.8516
 3856SOL     OW23029   0.614   3.250  13.238 -0.8001 -0.0712  0.0299
 3856SOL    HW123030   0.663   3.327  13.209  0.6504 -1.0648 -0.1428
 3856SOL    HW223031   0.632   3.190  13.166  2.4123  1.3412 -0.3189
 3857SOL     OW23032   0.727   3.553   5.079  0.3668 -0.2094 -0.2892
 3857SOL    HW123033   0.690   3.626   5.030 -2.0810 -1.6704 -0.6279
 3857SOL    HW223034   0.654   3.538   5.140 -0.3417 -2.0306 -1.5805
 3858SOL     OW23035   2.690   0.162   2.413 -0.4758 -0.1013  0.2065
 3858SOL    HW123036   2.663   0.116   2.333 -1.5500 -1.4762  1.3634
 3858SOL    HW223037   2.754   0.229   2.388  0.2662 -0.5198  1.0075
 3859SOL     OW23038   2.659   1.933   4.789 -0.1852  0.3194 -0.0383
 3859SOL    HW123039   2.752   1.955   4.786 -0.2201  0.3164 -1.1282
 3859SOL    HW223040   2.672   1.849   4.834  1.1352  0.8435  0.5785
 3860SOL     OW23041   0.996   3.966  10.699  0.0707 -0.5747 -0.1741
 3860SOL    HW123042   0.953   4.047  10.725  1.2955  0.1518 -0.4439
 3860SOL    HW223043   0.952   3.930  10.622 -0.3196 -1.3350  0.3962
 3861SOL     OW23044   4.574   3.123  17.339 -0.0600  0.0665  0.4563
 3861SOL    HW123045   4.541   3.034  17.352 -0.2409 -0.1224 -1.2012
 3861SOL    HW223046   4.489   3.161  17.360  0.9970  2.2828  0.6586
 3862SOL     OW23047   0.635   3.952  13.666  0.6531  0.3152 -0.4070
 3862SOL    HW123048   0.671   4.038  13.686  1.3488  0.4336 -2.2460
 3862SOL    HW223049   0.688   3.933  13.589  0.8086  0.2583 -0.2845
 3863SOL     OW23050   3.301   1.613  11.162  0.3220 -0.0116 -0.0850
 3863SOL    HW123051   3.263   1.656  11.086 -1.3021 -0.6733  0.3412
 3863SOL    HW223052   3.393   1.630  11.145  0.5937 -1.2720  0.1045
 3864SOL     OW23053   0.126   4.447   3.312 -0.4326  0.0632 -0.3775
 3864SOL    HW123054   0.186   4.422   3.241  0.7518 -0.6089  0.8500
 3864SOL    HW223055   0.109   4.537   3.282 -0.8824  0.1612  0.1957
 3865SOL     OW23056   4.661   3.606   3.519  0.1722  0.2966 -0.0481
 3865SOL    HW123057   4.709   3.565   3.446 -1.1018  0.6110 -1.0681
 3865SOL    HW223058   4.574   3.568   3.507 -0.1721  0.7210  1.1896
 3866SOL     OW23059   1.721   1.825   3.507 -0.5476 -0.4727  0.2080
 3866SOL    HW123060   1.669   1.850   3.431  0.6377  0.0280 -0.4505
 3866SOL    HW223061   1.675   1.749   3.541 -2.7086  1.0862  0.7586
 3867SOL     OW23062   3.784   4.598  11.839  0.5723  0.0233  0.8192
 3867SOL    HW123063   3.812   4.507  11.827 -3.5384 -1.4337  2.3169
 3867SOL    HW223064   3.694   4.597  11.807  0.8753  0.3780 -0.0539
 3868SOL     OW23065   0.669   3.654   2.898 -0.2993  0.0624 -0.3930
 3868SOL    HW123066   0.732   3.663   2.969  0.1402  0.7399 -0.8685
 3868SOL    HW223067   0.594   3.701   2.935 -0.6876  0.1569 -1.2814
 3869SOL     OW23068   3.438   2.275  15.867 -0.4995  0.1921 -0.2951
 3869SOL    HW123069   3.524   2.233  15.879 -1.0434 -0.6619  0.6453
 3869SOL    HW223070   3.449   2.369  15.883 -4.7808  0.8700 -1.4605
 3870SOL     OW23071   1.175   0.573   6.129  0.0812 -0.2205  0.8871
 3870SOL    HW123072   1.233   0.502   6.156  1.2854  0.9414  1.3029
 3870SOL    HW223073   1.203   0.647   6.183  0.7803  0.6554 -0.6898
 3871SOL     OW23074   3.229   4.075   7.301  0.9173  0.0992 -0.2075
 3871SOL    HW123075   3.277   4.151   7.270  0.0888  0.6905 -0.0429
 3871SOL    HW223076   3.139   4.105   7.289  0.5378 -1.8303 -2.1163
 3872SOL     OW23077   0.470   3.488  14.066  0.0012 -0.3827 -0.0481
 3872SOL    HW123078   0.406   3.420  14.048 -1.6158  0.7429  1.4199
 3872SOL    HW223079   0.456   3.548  13.993  2.0444  1.2321  0.8799
 3873SOL     OW23080   3.077   1.907   8.951  0.5359 -0.2067  0.3210
 3873SOL    HW123081   3.159   1.884   8.994  0.4227  2.2934  1.8427
 3873SOL    HW223082   3.013   1.873   9.013 -1.5550 -1.2689 -2.3875
 3874SOL     OW23083   2.724   2.439   1.372 -0.1389 -0.1673  0.0608
 3874SOL    HW123084   2.817   2.419   1.363 -0.4952 -1.3969 -0.8538
 3874SOL    HW223085   2.706   2.454   1.279  1.6257  0.3423 -0.1923
 3875SOL     OW23086   0.677   1.715   7.518 -0.0142  0.5201 -0.2062
 3875SOL    HW123087   0.657   1.760   7.436 -0.9348  1.9624  0.8146
 3875SOL    HW223088   0.624   1.638   7.498  0.6647 -0.2549  0.9655
 3876SOL     OW23089   3.891   2.330   8.536  0.0902 -0.0012 -0.0506
 3876SOL    HW123090   3.935   2.359   8.616 -1.5312  1.0048  0.4735
 3876SOL    HW223091   3.943   2.389   8.481 -2.0319 -0.3938 -2.4714
 3877SOL     OW23092   2.385   4.425   7.990 -0.5185  0.2155  0.0380
 3877SOL    HW123093   2.426   4.445   8.074 -1.2961  0.0732  0.4563
 3877SOL    HW223094   2.417   4.335   7.984  1.6481  1.1306 -1.7591
 3878SOL     OW23095   2.748   4.295  10.625 -0.1252  0.4720  0.4595
 3878SOL    HW123096   2.781   4.257  10.706  1.7698  1.4609  0.1449
 3878SOL    HW223097   2.756   4.385  10.655  2.0876  0.1547  0.8370
 3879SOL     OW23098   0.772   3.824   2.196  0.6852  0.5795  0.4563
 3879SOL    HW123099   0.852   3.873   2.214  1.3291 -0.4115  0.2674
 3879SOL    HW223100   0.722   3.839   2.277 -0.0584  0.3205  0.0445
 3880SOL     OW23101   1.971   3.039  11.962 -0.1511 -0.2406  0.4350
 3880SOL    HW123102   2.018   3.004  11.886  2.3126  3.0900  0.4385
 3880SOL    HW223103   1.885   3.011  11.929 -0.2921 -0.0858  0.6754
 3881SOL     OW23104   2.454   4.387   9.232  0.3625  0.0253  0.1040
 3881SOL    HW123105   2.398   4.422   9.301  0.9250  0.9637  0.0830
 3881SOL    HW223106   2.510   4.458   9.200 -0.0060 -0.2244 -1.1206
 3882SOL     OW23107   2.054   1.163   4.308 -0.0361  0.1234  0.2291
 3882SOL    HW123108   2.140   1.128   4.284 -0.6485 -0.7299 -0.7394
 3882SOL    HW223109   2.022   1.187   4.220  1.8897 -0.9252 -0.7543
 3883SOL     OW23110   2.802   0.597   5.171 -0.3822 -0.7100  0.9718
 3883SOL    HW123111   2.732   0.531   5.163 -0.8917 -0.2000  1.2723
 3883SOL    HW223112   2.866   0.553   5.115  0.7894  0.2256  1.5902
 3884SOL     OW23113   4.420   4.308   7.359  0.1618  0.1896 -0.6808
 3884SOL    HW123114   4.381   4.227   7.327  0.2264  0.3967 -1.2929
 3884SOL    HW223115   4.433   4.290   7.452 -1.1029 -0.6761 -0.6814
 3885SOL     OW23116   2.486   1.007   7.884 -0.0064  0.0113  0.1751
 3885SOL    HW123117   2.491   1.093   7.927  0.7146  0.8820 -1.6139
 3885SOL    HW223118   2.577   0.979   7.885 -1.1914 -3.7472  0.3330
 3886SOL     OW23119   3.950   4.056  11.638 -0.0773 -0.2101 -0.6098
 3886SOL    HW123120   4.038   4.054  11.601 -0.2944 -1.9076 -1.0428
 3886SOL    HW223121   3.925   4.142  11.602 -1.6161 -0.3648  0.0811
 3887SOL     OW23122   1.633   4.690   9.026  0.3019 -0.0267  0.9991
 3887SOL    HW123123   1.596   4.676   9.113 -0.0031  1.5436  1.1240
 3887SOL    HW223124   1.561   0.003   8.977  1.6253  0.6469 -0.4101
 3888SOL     OW23125   1.197   2.508   2.947  0.2017 -0.1546 -0.1271
 3888SOL    HW123126   1.279   2.529   2.991  0.0109  0.7863 -0.2163
 3888SOL    HW223127   1.225   2.425   2.908 -1.1787 -0.1546 -1.1215
 3889SOL     OW23128   2.044   3.911   4.184  0.5171  0.1339 -0.4823
 3889SOL    HW123129   2.075   3.822   4.167 -1.0262 -0.2259 -1.3632
 3889SOL    HW223130   2.056   3.914   4.279 -1.2080  0.8045 -0.2861
 3890SOL     OW23131   3.161   0.714   4.835  0.3004  0.0822 -0.0342
 3890SOL    HW123132   3.241   0.761   4.812 -0.1007 -0.0519 -1.7480
 3890SOL    HW223133   3.106   0.787   4.864  0.1308 -0.9760  2.3042
 3891SOL     OW23134   4.149   4.589   4.159 -0.1357  0.2985  0.1102
 3891SOL    HW123135   4.167   4.620   4.071  2.1573  1.7582  1.0835
 3891SOL    HW223136   4.108   4.503   4.144  1.5354 -0.5700  0.5154
 3892SOL     OW23137   2.394   3.117   1.846 -0.4743  0.0685 -0.6420
 3892SOL    HW123138   2.427   3.029   1.826 -0.3058 -0.5138  2.1876
 3892SOL    HW223139   2.325   3.142   1.784  1.0112  1.0980 -1.8927
 3893SOL     OW23140   1.264   0.943   7.050  0.1783  0.3688  0.0669
 3893SOL    HW123141   1.200   0.976   7.112 -2.2569 -2.6911 -0.8272
 3893SOL    HW223142   1.306   0.885   7.114  2.1992  1.8194  0.0740
 3894SOL     OW23143   2.126   3.902   9.418  0.1936  0.3799  0.4545
 3894SOL    HW123144   2.050   3.956   9.397 -0.4287 -0.4966  0.4783
 3894SOL    HW223145   2.081   3.826   9.453 -0.2365 -0.4546 -1.9526
 3895SOL     OW23146   4.044   4.224   5.780  0.1339  0.3420  0.2825
 3895SOL    HW123147   4.016   4.197   5.868  1.1651  0.1323  0.5470
 3895SOL    HW223148   4.038   4.320   5.786  2.1017  0.5223 -0.5318
 3896SOL     OW23149   1.546   2.207   0.834  0.0949  0.7036  0.2847
 3896SOL    HW123150   1.595   2.138   0.790 -0.9031  0.3742 -0.3244
 3896SOL    HW223151   1.593   2.285   0.805  1.0920 -0.0868 -0.1874
 3897SOL     OW23152   2.021   4.618  10.982 -0.1780  0.7564 -0.2714
 3897SOL    HW123153   2.075   4.563  10.924 -1.0312 -1.3801  0.9775
 3897SOL    HW223154   1.969   4.554  11.030  0.0821  0.3239 -0.5618
 3898SOL     OW23155   1.837   2.912  11.335 -0.4032 -0.0147  0.5125
 3898SOL    HW123156   1.747   2.943  11.328 -0.4260 -0.5435 -1.7076
 3898SOL    HW223157   1.862   2.958  11.415  0.2004  0.3666  0.1007
 3899SOL     OW23158   0.749   0.579   8.145  0.2787  0.2915  0.0773
 3899SOL    HW123159   0.669   0.547   8.188 -0.1643  0.1311 -0.8655
 3899SOL    HW223160   0.750   0.673   8.161 -1.6033 -0.1723  2.9912
 3900SOL     OW23161   4.398   3.177   5.098 -0.1967 -0.3669  0.1457
 3900SOL    HW123162   4.466   3.242   5.115 -0.0348 -0.6609  0.6098
 3900SOL    HW223163   4.412   3.157   5.006  0.3316 -1.4257  0.4622
 3901SOL     OW23164   3.232   4.568   1.280 -0.0608  0.3797 -0.5681
 3901SOL    HW123165   3.204   4.552   1.370  0.2703 -2.7414 -1.0343
 3901SOL    HW223166   3.181   4.507   1.227 -0.3151 -0.0969  0.2367
 3902SOL     OW23167   1.667   4.196  13.928  0.1730  0.9143 -0.1828
 3902SOL    HW123168   1.728   4.265  13.902  0.9270 -0.0659 -1.0380
 3902SOL    HW223169   1.590   4.248  13.951 -0.0185  0.1412  0.9537
 3903SOL     OW23170   0.048   0.978   6.871 -0.9292  0.0052  0.3533
 3903SOL    HW123171   4.694   0.952   6.915 -0.2331  0.4455  1.8762
 3903SOL    HW223172   0.106   0.993   6.945 -2.5272 -0.9494  1.8084
 3904SOL     OW23173   2.239   0.632   6.697 -0.5946  0.1283 -0.7813
 3904SOL    HW123174   2.250   0.704   6.634  3.5874 -0.1135 -0.2697
 3904SOL    HW223175   2.270   0.554   6.651 -0.2793  0.9047 -1.8921
 3905SOL     OW23176   2.698   1.578   4.436 -0.0247  0.6725 -0.2949
 3905SOL    HW123177   2.793   1.566   4.435 -0.3730 -2.2403  0.9180
 3905SOL    HW223178   2.662   1.512   4.377 -1.1287  0.9350  0.0842
 3906SOL     OW23179   0.422   3.146   3.990  0.3950  0.0670  0.2121
 3906SOL    HW123180   0.390   3.236   3.984  0.1291 -0.0606 -0.2949
 3906SOL    HW223181   0.513   3.170   3.971  0.5852 -0.4220  0.5254
 3907SOL     OW23182   1.998   3.346   2.453 -0.0278 -0.0101  0.6901
 3907SOL    HW123183   2.045   3.281   2.402  0.2115 -0.5800  1.6460
 3907SOL    HW223184   2.057   3.367   2.526 -0.8659  1.7544  0.8675
 3908SOL     OW23185   2.524   0.569   2.023  0.2235  0.8517 -0.6520
 3908SOL    HW123186   2.617   0.554   2.037 -0.0878  0.1594  0.6719
 3908SOL    HW223187   2.511   0.631   1.951 -1.2552 -0.2830 -1.3535
 3909SOL     OW23188   2.161   1.323   7.658  0.2259 -0.4856 -0.1616
 3909SOL    HW123189   2.253   1.342   7.676  0.0018 -0.4739  0.9800
 3909SOL    HW223190   2.125   1.412   7.658  2.7456  0.5158 -0.4620
 3910SOL     OW23191   2.203   3.099   6.632 -0.5070 -0.5221  0.3845
 3910SOL    HW123192   2.296   3.112   6.615 -0.1294 -0.2505  2.7234
 3910SOL    HW223193   2.205   3.009   6.663 -2.5361 -0.7532 -0.1009
 3911SOL     OW23194   3.742   4.500   7.262 -0.0071 -0.3589  0.1764
 3911SOL    HW123195   3.808   4.436   7.289 -1.4824 -1.7990  0.3720
 3911SOL    HW223196   3.761   4.580   7.311  1.2314 -0.3811 -0.2639
 3912SOL     OW23197   0.185   2.277   5.032 -0.4455  0.0542 -0.3194
 3912SOL    HW123198   0.133   2.282   5.112  0.4685  0.4306  0.2458
 3912SOL    HW223199   0.120   2.242   4.970 -0.5930  0.6831 -0.5285
 3913SOL     OW23200   2.805   1.733   1.276  0.2381  0.2349  0.5622
 3913SOL    HW123201   2.775   1.773   1.195 -1.6578 -0.2190  1.0196
 3913SOL    HW223202   2.899   1.745   1.272  0.2449 -0.0021  0.0944
 3914SOL     OW23203   0.098   1.382   4.490  0.2284 -0.0317  0.1238
 3914SOL    HW123204   0.131   1.447   4.428 -0.4614  0.8841  0.7186
 3914SOL    HW223205   0.047   1.324   4.434 -0.9127  2.3922 -1.3701
 3915SOL     OW23206   1.686   1.521   3.530  0.1171 -0.3960  0.2549
 3915SOL    HW123207   1.690   1.426   3.540 -4.1849 -0.6158  0.0265
 3915SOL    HW223208   1.604   1.548   3.489 -1.1547 -1.9932  1.7030
 3916SOL     OW23209   2.730   1.801   9.657  0.7448 -0.0904 -0.1871
 3916SOL    HW123210   2.711   1.718   9.701 -1.2147  0.7586  0.5780
 3916SOL    HW223211   2.685   1.864   9.714 -0.3860  1.3565 -2.6898
 3917SOL     OW23212   4.382   1.427  11.619 -0.0561  0.4528 -0.0952
 3917SOL    HW123213   4.325   1.352  11.633 -0.4400  0.6075 -0.8250
 3917SOL    HW223214   4.404   1.424  11.526  2.0213  1.5550  0.3516
 3918SOL     OW23215   4.141   1.658   7.167  0.4199  0.1072 -0.1698
 3918SOL    HW123216   4.074   1.701   7.220 -0.4280 -1.1099 -0.2670
 3918SOL    HW223217   4.085   1.594   7.123 -1.2273  0.6770  1.0810
 3919SOL     OW23218   0.403   0.745  10.493  0.4644 -0.3717 -0.6256
 3919SOL    HW123219   0.381   0.653  10.479 -1.8688  0.0444  0.3490
 3919SOL    HW223220   0.314   0.771  10.470 -0.1128  0.2109  2.2890
 3920SOL     OW23221   0.169   2.556  12.546 -0.0297  0.3559  0.2704
 3920SOL    HW123222   0.081   2.576  12.578 -0.7707 -0.3862 -1.2947
 3920SOL    HW223223   0.150   2.546  12.453  0.2448 -0.1604  0.2696
 3921SOL     OW23224   4.536   0.765   6.798 -0.4225  0.0675 -0.0497
 3921SOL    HW123225   4.549   0.787   6.890 -0.0763  1.8161 -0.5178
 3921SOL    HW223226   4.627   0.747   6.773 -0.4024 -1.5567  1.1885
 3922SOL     OW23227   2.153   2.396   7.904 -0.0190 -0.0389  0.5071
 3922SOL    HW123228   2.231   2.415   7.955 -0.0533 -0.3948  0.6962
 3922SOL    HW223229   2.188   2.331   7.843  3.2715  1.7922  0.4682
 3923SOL     OW23230   4.165   3.203   2.544  0.2878  0.1791 -0.5424
 3923SOL    HW123231   4.213   3.131   2.503 -0.6502 -1.1280  0.6465
 3923SOL    HW223232   4.130   3.164   2.624  0.5535 -0.9894 -0.9920
 3924SOL     OW23233   3.525   3.727   2.679  0.3394  0.0734  0.2274
 3924SOL    HW123234   3.502   3.772   2.598 -3.4021 -0.6917  0.8237
 3924SOL    HW223235   3.589   3.659   2.658  2.1232  1.4923  1.0855
 3925SOL     OW23236   1.184   1.907  11.226  0.2647  0.2616  0.5242
 3925SOL    HW123237   1.094   1.874  11.220  0.2875  0.7030 -2.3103
 3925SOL    HW223238   1.237   1.829  11.241  0.4712  0.3783  0.3965
 3926SOL     OW23239   0.347   3.463  17.313 -0.1478  0.0345 -0.0965
 3926SOL    HW123240   0.330   3.398  17.245 -0.3937  1.9350 -1.8553
 3926SOL    HW223241   0.422   3.427  17.360 -0.9043 -0.5371  0.6549
 3927SOL     OW23242   1.004   3.489   2.662  0.0959  0.2128  0.2865
 3927SOL    HW123243   1.051   3.407   2.679 -1.1435 -0.5726 -0.0320
 3927SOL    HW223244   0.951   3.460   2.587 -0.1174 -0.1000  0.5548
 3928SOL     OW23245   0.291   0.822   3.616 -0.6079  0.4344 -0.3053
 3928SOL    HW123246   0.352   0.876   3.565  0.6493  1.3318  2.1330
 3928SOL    HW223247   0.308   0.866   3.699  2.3026 -2.5069  0.6015
 3929SOL     OW23248   1.326   4.716   3.250 -0.1533  0.0962 -0.4546
 3929SOL    HW123249   1.268   4.725   3.325  0.5139 -0.2674  0.1157
 3929SOL    HW223250   1.274   4.686   3.176 -0.9481  2.9342 -1.0261
 3930SOL     OW23251   2.170   3.251   4.882  0.2751 -1.0925 -0.0166
 3930SOL    HW123252   2.150   3.167   4.923  0.4281 -0.7171  0.8181
 3930SOL    HW223253   2.263   3.239   4.864  0.2865 -0.3173 -0.4618
 3931SOL     OW23254   4.132   4.708   4.929 -0.5843  0.2833 -0.1195
 3931SOL    HW123255   4.149   0.019   4.842 -1.5397  0.1948 -0.3485
 3931SOL    HW223256   4.199   0.036   4.968 -0.1083  0.4149 -1.1185
 3932SOL     OW23257   1.091   0.068  16.038  0.0184  0.7359  0.1710
 3932SOL    HW123258   1.014   0.067  15.981  0.5647 -0.9369 -0.5446
 3932SOL    HW223259   1.077   0.139  16.100  0.5000  1.1495 -0.2004
 3933SOL     OW23260   1.985   1.625   8.937  0.0179  0.3452 -0.3973
 3933SOL    HW123261   2.078   1.621   8.956  0.2458  1.3267 -1.2454
 3933SOL    HW223262   1.962   1.533   8.945 -1.2318  0.5406 -1.5335
 3934SOL     OW23263   2.442   4.384   5.242  0.3822  0.0025  0.4574
 3934SOL    HW123264   2.438   4.289   5.251 -0.1752 -0.1274 -1.3257
 3934SOL    HW223265   2.528   4.391   5.202 -0.2845 -1.5709 -1.2346
 3935SOL     OW23266   3.530   3.116   5.077  0.1652  0.3550  0.2229
 3935SOL    HW123267   3.511   3.032   5.120  3.5062 -1.1044 -1.1261
 3935SOL    HW223268   3.571   3.169   5.145 -3.0201 -0.0403  2.4412
 3936SOL     OW23269   2.584   1.826   4.414 -0.4163  0.1133 -0.3304
 3936SOL    HW123270   2.518   1.798   4.350 -1.7152 -0.9280  1.4557
 3936SOL    HW223271   2.626   1.743   4.435  0.3407  0.5715 -0.0297
 3937SOL     OW23272   2.982   0.512   4.795  0.0621  0.4450  0.2719
 3937SOL    HW123273   3.038   0.590   4.793  0.1363  0.3200 -2.2738
 3937SOL    HW223274   2.994   0.481   4.885 -0.9381 -2.6512 -0.6660
 3938SOL     OW23275   1.854   0.582   7.030 -0.0806 -0.0796  0.7160
 3938SOL    HW123276   1.947   0.604   7.036 -0.0468 -0.8404  2.9528
 3938SOL    HW223277   1.850   0.578   6.934  0.4351  1.4931  0.6339
 3939SOL     OW23278   3.112   0.640   8.070 -0.1044  0.3444  0.1614
 3939SOL    HW123279   3.085   0.689   8.148 -0.7812  0.2345 -0.0039
 3939SOL    HW223280   3.041   0.575   8.070  1.5919 -1.5407  0.8121
 3940SOL     OW23281   1.853   2.854   6.157  0.2441  0.7283 -0.0701
 3940SOL    HW123282   1.813   2.819   6.078 -1.8233 -4.2333  3.1692
 3940SOL    HW223283   1.939   2.814   6.147  0.2235  1.1691 -1.8744
 3941SOL     OW23284   2.674   4.714  11.371 -0.5530 -0.0641  0.1745
 3941SOL    HW123285   2.627   4.681  11.295  1.2645  1.5197 -1.6387
 3941SOL    HW223286   2.706   4.634  11.413 -0.7274 -0.2208  0.0061
 3942SOL     OW23287   4.170   0.045  14.445 -0.4877 -0.1469  0.0721
 3942SOL    HW123288   4.202   0.040  14.355  1.4437 -0.9866  0.8093
 3942SOL    HW223289   4.253   0.026  14.489  0.0416 -1.0793 -1.3274
 3943SOL     OW23290   1.880   1.236   7.673  0.1055  0.1579  0.2486
 3943SOL    HW123291   1.920   1.151   7.654  0.9615  0.6052  0.0601
 3943SOL    HW223292   1.956   1.290   7.654  0.9441 -0.3263  2.2122
 3944SOL     OW23293   4.483   2.018   6.990  0.3539 -0.3494  0.3308
 3944SOL    HW123294   4.437   2.040   7.072  0.5829 -2.0766  0.9233
 3944SOL    HW223295   4.535   2.096   6.973  0.3951 -0.0490  1.8068
 3945SOL     OW23296   2.192   2.473   5.339 -0.2540  0.1010  0.1538
 3945SOL    HW123297   2.146   2.444   5.418 -1.8903 -0.1189 -0.8712
 3945SOL    HW223298   2.273   2.513   5.369  1.4772 -1.1975 -2.7920
 3946SOL     OW23299   3.924   4.623  10.025 -0.2372 -0.1984  0.2021
 3946SOL    HW123300   3.881   4.539  10.011 -0.0182  0.0680 -2.1377
 3946SOL    HW223301   3.895   4.654  10.110  0.4203 -1.9623  1.0703
 3947SOL     OW23302   3.878   4.306  10.305  0.6111  0.1138  0.3259
 3947SOL    HW123303   3.901   4.215  10.321 -1.4595 -0.6424 -0.9612
 3947SOL    HW223304   3.917   4.348  10.381  1.6257  1.7759 -1.0919
 3948SOL     OW23305   3.816   0.423   4.132 -0.2058  0.4506  0.5106
 3948SOL    HW123306   3.809   0.328   4.140 -1.1265  0.4994  0.3199
 3948SOL    HW223307   3.860   0.435   4.216  0.4398 -0.3517  0.2856
 3949SOL     OW23308   3.282   0.385   5.968  0.4347  0.3209 -0.4470
 3949SOL    HW123309   3.301   0.478   5.957 -0.3230  0.5909  0.5835
 3949SOL    HW223310   3.192   0.396   5.998  0.1018  0.8779 -1.6466
 3950SOL     OW23311   2.308   3.889  10.785  0.3833 -0.5997  0.6785
 3950SOL    HW123312   2.274   3.833  10.854  1.4355 -1.4120  0.5282
 3950SOL    HW223313   2.284   3.849  10.701  0.3131  1.5597 -0.3597
 3951SOL     OW23314   0.127   1.928   8.293  0.1373  0.4186 -0.6325
 3951SOL    HW123315   0.043   1.963   8.322  1.6436  1.1835  2.9131
 3951SOL    HW223316   0.186   1.951   8.365 -0.1094  0.5155 -0.4587
 3952SOL     OW23317   3.742   2.339   2.665  0.1719  0.4875  0.2433
 3952SOL    HW123318   3.741   2.344   2.761  0.8029 -1.3789  0.3517
 3952SOL    HW223319   3.677   2.402   2.635 -1.1965 -1.7670 -1.4867
 3953SOL     OW23320   4.539   3.136   7.809  0.0987 -0.4405 -0.3403
 3953SOL    HW123321   4.480   3.179   7.747  1.5476  0.2594 -1.2189
 3953SOL    HW223322   4.471   3.092   7.861  0.0001  1.3315  1.0286
 3954SOL     OW23323   0.977   4.401   7.683  0.1765 -0.1481  0.6341
 3954SOL    HW123324   1.017   4.318   7.708 -1.5920 -0.9939  0.6550
 3954SOL    HW223325   0.961   4.381   7.591 -0.9811 -2.4672  1.3114
 3955SOL     OW23326   0.799   3.880   9.230 -0.1418 -0.0163 -0.2150
 3955SOL    HW123327   0.888   3.895   9.261 -0.0315 -0.1241 -0.4730
 3955SOL    HW223328   0.776   3.966   9.195 -1.6837 -0.6501 -0.7575
 3956SOL     OW23329   0.290   4.090   4.243  0.3101  0.1492 -0.2054
 3956SOL    HW123330   0.234   4.142   4.184 -1.1398 -0.4447  0.6407
 3956SOL    HW223331   0.358   4.157   4.242 -0.0060  0.4883  0.7760
 3957SOL     OW23332   2.063   0.837  11.144 -0.6338 -0.0711  0.1413
 3957SOL    HW123333   2.055   0.874  11.055  0.4713  0.3734  0.2218
 3957SOL    HW223334   2.010   0.758  11.145 -1.7268  0.7277  2.6273
 3958SOL     OW23335   1.694   2.708  14.534  0.0706  0.4763 -0.6194
 3958SOL    HW123336   1.688   2.657  14.614  0.0138  2.9132  0.9459
 3958SOL    HW223337   1.789   2.710  14.521  0.1813  0.2423  0.2101
 3959SOL     OW23338   2.798   1.893  15.384  0.0505  0.2636  0.0532
 3959SOL    HW123339   2.708   1.874  15.354 -0.0558 -2.2810  1.9669
 3959SOL    HW223340   2.794   1.849  15.469  0.9210  0.5426  0.2357
 3960SOL     OW23341   2.300   0.201   7.552 -0.2996 -0.0620 -0.0466
 3960SOL    HW123342   2.298   0.216   7.646  1.8117  0.7350 -0.1161
 3960SOL    HW223343   2.229   0.138   7.542 -1.1048  0.7402  0.7067
 3961SOL     OW23344   1.072   1.964  13.346  0.3237  0.0524 -0.0672
 3961SOL    HW123345   1.029   2.013  13.416 -0.8126  1.7853 -1.9829
 3961SOL    HW223346   1.009   1.973  13.274  1.3132 -0.8082 -1.0402
 3962SOL     OW23347   1.331   0.876  12.495  0.7608  0.4437 -0.0789
 3962SOL    HW123348   1.295   0.788  12.489 -1.7859  1.5278 -0.7992
 3962SOL    HW223349   1.413   0.864  12.543  0.5758  0.9454  0.3605
 3963SOL     OW23350   1.412   3.928   5.505  0.0171  0.5661  0.0257
 3963SOL    HW123351   1.418   3.995   5.573  0.6495  1.0336 -0.4975
 3963SOL    HW223352   1.343   3.877   5.549 -1.4714  0.6645 -2.1453
 3964SOL     OW23353   1.346   1.215  17.005  0.0459  0.3710 -0.2077
 3964SOL    HW123354   1.439   1.235  16.989  0.6111 -2.2048 -0.1037
 3964SOL    HW223355   1.368   1.153  17.075  1.5748  1.8819  0.6689
 3965SOL     OW23356   2.778   4.324   6.030 -0.2058 -0.2606  0.0366
 3965SOL    HW123357   2.749   4.319   5.939 -0.2027 -0.4559  0.0466
 3965SOL    HW223358   2.869   4.351   6.021 -0.6249  0.9729 -0.4232
 3966SOL     OW23359   0.682   0.578  13.178  0.0907  0.3082 -0.2077
 3966SOL    HW123360   0.679   0.673  13.173 -1.3146  0.1572 -2.2603
 3966SOL    HW223361   0.747   0.563  13.247  0.0911 -1.2624 -0.5470
 3967SOL     OW23362   4.104   1.999   4.011 -0.2111  0.5310  0.0509
 3967SOL    HW123363   4.061   2.029   4.090 -2.6917 -1.0803 -0.6744
 3967SOL    HW223364   4.109   2.086   3.973 -2.2099 -1.3768 -4.7111
 3968SOL     OW23365   4.181   4.318   4.361 -0.6180 -0.1965  0.3331
 3968SOL    HW123366   4.253   4.319   4.297 -0.5571  0.3421  0.4107
 3968SOL    HW223367   4.095   4.309   4.320  1.2117  0.6455 -3.7307
 3969SOL     OW23368   2.681   1.421   7.713  0.0390  0.7659  0.3197
 3969SOL    HW123369   2.728   1.484   7.657  0.2788  1.2935  1.1085
 3969SOL    HW223370   2.677   1.469   7.796 -1.3438  1.1337  0.0390
 3970SOL     OW23371   4.059   3.987   2.672 -0.1477  0.9410 -0.2205
 3970SOL    HW123372   4.001   3.931   2.620 -1.0903  1.4831  0.2500
 3970SOL    HW223373   4.085   3.926   2.741 -1.9928 -0.3610 -0.6666
 3971SOL     OW23374   0.665   1.953  12.711  0.2390  0.5574  0.1479
 3971SOL    HW123375   0.697   1.965  12.621  0.5887 -0.8464  0.0925
 3971SOL    HW223376   0.625   1.866  12.710 -0.2444  0.7868 -0.8310
 3972SOL     OW23377   3.859   2.437  15.821  0.8503  0.2638  0.1184
 3972SOL    HW123378   3.807   2.489  15.760 -1.3678 -1.2115  0.7387
 3972SOL    HW223379   3.820   2.460  15.906 -0.4377  1.2639 -0.7520
 3973SOL     OW23380   1.299   0.720   0.136 -0.5429 -0.1622 -0.2864
 3973SOL    HW123381   1.395   0.724   0.134 -0.6276  1.7812 -0.6035
 3973SOL    HW223382   1.285   0.744   0.227  0.6416  0.0207 -0.1512
 3974SOL     OW23383   2.505   2.568   0.487 -0.1466  0.0174 -0.1953
 3974SOL    HW123384   2.531   2.478   0.471  1.1358  0.3879 -0.1689
 3974SOL    HW223385   2.587   2.618   0.481  0.0481 -0.3368 -0.4612
 3975SOL     OW23386   0.531   3.661   0.056 -0.2702  0.0153 -0.1864
 3975SOL    HW123387   0.625   3.663   0.039 -0.1676 -0.4258  0.3239
 3975SOL    HW223388   0.527   3.623   0.144 -2.2010 -1.9077 -1.1050
 3976SOL     OW23389   1.489   1.926   3.625  0.1314 -0.3142  0.5461
 3976SOL    HW123390   1.482   1.997   3.689  1.0034  0.6029 -0.3719
 3976SOL    HW223391   1.505   1.979   3.547 -0.4875 -2.4579 -1.0469
 3977SOL     OW23392   2.908   1.747   2.655  0.0121  0.5959 -0.3450
 3977SOL    HW123393   2.888   1.675   2.595 -0.9420 -0.3170  1.0623
 3977SOL    HW223394   3.001   1.728   2.648  0.1131  0.9436  0.0759
 3978SOL     OW23395   1.926   4.478   7.521 -0.2713 -0.2660  0.0338
 3978SOL    HW123396   1.873   4.400   7.541  1.2013 -1.3273 -0.2218
 3978SOL    HW223397   1.861   4.547   7.513 -1.6117 -1.5316 -0.0841
 3979SOL     OW23398   1.031   4.614   6.073  0.4738  0.2186 -0.4536
 3979SOL    HW123399   0.943   4.596   6.106  0.7984  0.8095  0.7509
 3979SOL    HW223400   1.010   4.638   5.983 -1.0243  0.9950  0.1068
 3980SOL     OW23401   2.802   0.946   2.629  0.6247  0.0798 -0.7242
 3980SOL    HW123402   2.763   0.907   2.707 -0.0612  1.3885 -0.4245
 3980SOL    HW223403   2.729   0.999   2.599  1.3483  1.5292  0.0955
 3981SOL     OW23404   1.210   1.282   6.535  0.8327 -0.9075 -0.0544
 3981SOL    HW123405   1.195   1.361   6.587  0.0137 -0.5346 -0.8656
 3981SOL    HW223406   1.282   1.316   6.481  0.6972  2.8931  2.1316
 3982SOL     OW23407   3.168   4.481  16.530 -0.0972 -0.0479  0.4191
 3982SOL    HW123408   3.089   4.485  16.585 -2.4748  2.2785 -3.1733
 3982SOL    HW223409   3.121   4.517  16.455 -0.8306 -0.9595  0.4371
 3983SOL     OW23410   4.446   3.449   1.363 -0.1722  0.1694  0.0075
 3983SOL    HW123411   4.460   3.395   1.285  0.0229 -1.6839  1.3111
 3983SOL    HW223412   4.516   3.515   1.361  0.2033 -0.2273 -0.0301
 3984SOL     OW23413   3.980   3.755  15.502  0.1159  0.5634  0.3670
 3984SOL    HW123414   3.983   3.805  15.583 -0.3633 -1.9243  1.9056
 3984SOL    HW223415   3.922   3.805  15.444 -1.3566 -1.2552  0.2620
 3985SOL     OW23416   3.494   2.775   5.167 -0.0199 -0.3481  0.6576
 3985SOL    HW123417   3.524   2.816   5.248  1.9451 -2.1492  0.8572
 3985SOL    HW223418   3.578   2.736   5.144 -0.1544  0.4168 -1.1429
 3986SOL     OW23419   2.492   4.583  11.121  0.3463  0.1355 -0.0711
 3986SOL    HW123420   2.414   4.527  11.112 -0.5676  1.3712  0.1946
 3986SOL    HW223421   2.457   4.661  11.078 -1.4851 -1.7602 -2.0124
 3987SOL     OW23422   1.652   0.851  12.923  0.3744 -0.4675 -0.3543
 3987SOL    HW123423   1.697   0.821  12.844 -0.8433 -1.9873 -0.4628
 3987SOL    HW223424   1.710   0.915  12.964 -0.2963 -0.0285 -0.0931
 3988SOL     OW23425   3.493   0.472  15.333  0.2661 -0.3150 -0.3604
 3988SOL    HW123426   3.399   0.473  15.351  0.3132 -3.4366  0.0223
 3988SOL    HW223427   3.497   0.508  15.244  0.1904  1.1801  0.2421
 3989SOL     OW23428   3.127   3.236  13.600  0.2610  0.0087  0.3350
 3989SOL    HW123429   3.091   3.265  13.684  0.9777  0.4150  0.5075
 3989SOL    HW223430   3.162   3.150  13.624  3.1255  0.9825 -0.3484
 3990SOL     OW23431   2.396   3.779  17.168 -0.0552 -0.3465 -0.2427
 3990SOL    HW123432   2.472   3.758  17.115  1.0390  0.8468  0.8412
 3990SOL    HW223433   2.347   3.831  17.104 -0.5748 -2.3205 -1.4474
 3991SOL     OW23434   0.611   0.876  10.418 -0.4507 -0.6499  0.1596
 3991SOL    HW123435   0.533   0.840  10.461  0.3021 -0.9848  1.2522
 3991SOL    HW223436   0.594   0.852  10.327 -1.4290  1.7656 -0.2683
 3992SOL     OW23437   0.116   0.811  15.636  0.1187  0.0662 -0.3002
 3992SOL    HW123438   0.188   0.789  15.694 -1.2471 -3.1141  0.1882
 3992SOL    HW223439   0.067   0.729  15.638 -0.0142  0.2033  2.8507
 3993SOL     OW23440   1.693   1.635  10.761 -0.2255  0.1893 -0.1383
 3993SOL    HW123441   1.755   1.673  10.823 -0.9826 -0.2849  0.8962
 3993SOL    HW223442   1.609   1.673  10.788 -0.6753 -0.6936 -0.2691
 3994SOL     OW23443   1.990   2.686  11.684  0.5762 -0.3811 -0.5190
 3994SOL    HW123444   1.948   2.695  11.598 -0.3423 -0.7305 -0.1124
 3994SOL    HW223445   1.999   2.592  11.669 -0.0774 -0.5857  0.3591
 3995SOL     OW23446   3.189   0.499   7.735 -0.3393  0.3543  0.2309
 3995SOL    HW123447   3.142   0.418   7.752  3.2815 -1.6448  0.7819
 3995SOL    HW223448   3.163   0.549   7.813  1.2932  0.1995  0.8870
 3996SOL     OW23449   2.463   2.645   1.934 -0.2147 -0.0528 -0.0542
 3996SOL    HW123450   2.481   2.717   1.873  1.1967  1.8252  2.5701
 3996SOL    HW223451   2.504   2.569   1.892 -0.4741 -0.3145  0.1698
 3997SOL     OW23452   2.929   2.908   1.454  0.2880 -0.3142 -0.1121
 3997SOL    HW123453   2.940   2.826   1.501 -1.0175 -0.2117  0.3522
 3997SOL    HW223454   2.959   2.977   1.514 -1.6349  0.2522  0.1910
 3998SOL     OW23455   0.715   1.597   6.152  0.3114 -0.3090 -0.5062
 3998SOL    HW123456   0.811   1.595   6.149  0.2635 -0.8918 -1.7293
 3998SOL    HW223457   0.713   1.656   6.227 -0.5732 -1.0667  0.0671
 3999SOL     OW23458   3.057   1.852   6.378  0.3324 -0.2318 -0.4966
 3999SOL    HW123459   3.067   1.758   6.387  0.2807 -0.2440 -0.5692
 3999SOL    HW223460   3.015   1.878   6.460  2.4733 -0.9073  0.7984
 4000SOL     OW23461   2.064   3.713   1.450  0.3908 -0.5288 -0.1125
 4000SOL    HW123462   1.982   3.671   1.422 -1.1650 -0.1723  3.9869
 4000SOL    HW223463   2.100   3.743   1.366  0.6551  0.7704  0.4618
 4001SOL     OW23464   1.438   3.225   2.500 -0.0159  0.2131  0.0624
 4001SOL    HW123465   1.507   3.173   2.459 -1.3066 -0.7197 -0.9224
 4001SOL    HW223466   1.494   3.292   2.539  3.4375 -1.4073 -2.0921
 4002SOL     OW23467   0.898   0.238   8.324  0.4822  0.7735 -0.3844
 4002SOL    HW123468   0.913   0.243   8.418  0.6888 -0.8163 -0.3336
 4002SOL    HW223469   0.911   0.328   8.293  0.3949  0.7066 -0.6204
 4003SOL     OW23470   2.410   2.261   2.113  0.2982  0.3788 -0.4724
 4003SOL    HW123471   2.341   2.314   2.152 -0.2135 -0.3859 -0.3435
 4003SOL    HW223472   2.380   2.262   2.022  0.1300 -2.1207 -0.4346
 4004SOL     OW23473   1.399   2.258   4.151 -0.7955 -0.2098  0.2991
 4004SOL    HW123474   1.369   2.241   4.241  0.8026 -0.1631  0.8486
 4004SOL    HW223475   1.368   2.348   4.153  0.5415  0.2476  0.2944
 4005SOL     OW23476   3.195   4.685  16.180 -0.3310  0.2671 -0.3064
 4005SOL    HW123477   3.177   4.702  16.087 -4.0670  1.8088  0.6637
 4005SOL    HW223478   3.115   4.644  16.213  0.6888 -1.2951  0.2241
 4006SOL     OW23479   4.075   0.010   1.422  0.4911 -0.4380 -0.7930
 4006SOL    HW123480   4.050   4.668   1.483  0.8593  0.0533 -0.0803
 4006SOL    HW223481   3.996   0.047   1.382  1.2422 -1.3408 -3.1035
 4007SOL     OW23482   2.817   1.377   9.894 -0.0978 -0.3253  0.4524
 4007SOL    HW123483   2.889   1.379   9.956 -0.5140 -1.3588  0.9712
 4007SOL    HW223484   2.808   1.464   9.855  0.2431 -0.8533 -0.7876
 4008SOL     OW23485   4.513   2.774   1.806  0.1412  0.4635  0.5620
 4008SOL    HW123486   4.494   2.779   1.712 -1.7682 -0.3844  0.8965
 4008SOL    HW223487   4.509   2.680   1.821  0.3784  0.5939  1.4629
 4009SOL     OW23488   2.553   2.834   6.272 -0.6416  0.1767  0.0337
 4009SOL    HW123489   2.617   2.879   6.327 -0.6540  2.1119 -1.5202
 4009SOL    HW223490   2.575   2.866   6.185  1.3214  2.5177  1.4025
 4010SOL     OW23491   3.223   2.626  16.095 -0.4770 -0.2499  0.0548
 4010SOL    HW123492   3.155   2.559  16.093 -0.2439 -0.4937  0.2745
 4010SOL    HW223493   3.215   2.645  16.188  0.6250 -1.1100  0.3245
 4011SOL     OW23494   1.838   2.270   1.017  0.1470 -0.6861 -0.2215
 4011SOL    HW123495   1.821   2.296   0.926 -0.4693  0.6037  0.2727
 4011SOL    HW223496   1.877   2.183   1.005 -0.8408 -0.8120 -2.6824
 4012SOL     OW23497   0.364   0.940   5.336  0.5880  0.3016  0.1838
 4012SOL    HW123498   0.269   0.956   5.331  0.7163 -0.3035 -3.8808
 4012SOL    HW223499   0.392   0.930   5.245 -1.9074  1.1157 -0.6761
 4013SOL     OW23500   0.444   1.707   0.690  0.4027  0.1175 -0.4213
 4013SOL    HW123501   0.357   1.710   0.650  0.8207 -0.4783 -1.3852
 4013SOL    HW223502   0.473   1.624   0.652 -3.2670 -0.8079 -1.2092
 4014SOL     OW23503   2.979   2.755   8.056  0.4061 -0.0596  0.1637
 4014SOL    HW123504   3.019   2.705   7.985  1.3555  1.3493 -0.2899
 4014SOL    HW223505   2.937   2.686   8.107  1.0193 -0.1189  0.5830
 4015SOL     OW23506   2.493   4.127   9.286  0.6048 -0.7357 -0.3655
 4015SOL    HW123507   2.464   4.215   9.263  0.5897 -0.3298  1.2068
 4015SOL    HW223508   2.431   4.071   9.240 -0.4867  1.0663 -1.1129
 4016SOL     OW23509   2.236   4.238   1.732 -0.3634  0.0958 -0.1790
 4016SOL    HW123510   2.299   4.199   1.672 -1.3912 -1.5410 -0.1947
 4016SOL    HW223511   2.266   4.328   1.742 -1.0351  0.4007 -0.9302
 4017SOL     OW23512   2.378   3.612   2.605  0.4135  0.0837  0.1368
 4017SOL    HW123513   2.302   3.565   2.639  2.3177 -1.8475  1.7095
 4017SOL    HW223514   2.393   3.570   2.520  0.2670  0.4525 -0.0708
 4018SOL     OW23515   3.527   1.143   4.562 -0.3127  0.2800 -0.4431
 4018SOL    HW123516   3.590   1.072   4.576  1.6025  1.9250 -0.6422
 4018SOL    HW223517   3.549   1.192   4.642  0.7917 -1.0652  0.0677
 4019SOL     OW23518   1.791   4.546   3.074  0.0370 -0.2322 -0.3795
 4019SOL    HW123519   1.739   4.626   3.079 -0.3870 -0.6731  2.2716
 4019SOL    HW223520   1.881   4.577   3.089  0.1228 -0.2569 -0.8302
 4020SOL     OW23521   1.352   3.085  16.186  0.0288  0.1621 -0.0313
 4020SOL    HW123522   1.325   3.120  16.271  1.2903  0.5012  0.2399
 4020SOL    HW223523   1.337   3.166  16.136 -0.8884  0.2375  0.3669
 4021SOL     OW23524   4.444   2.904   4.548 -0.2184  0.6763 -0.1768
 4021SOL    HW123525   4.464   2.889   4.640 -0.8058 -1.0279 -0.3210
 4021SOL    HW223526   4.404   2.820   4.524 -1.5438  1.2540 -0.0134
 4022SOL     OW23527   1.956   4.132   7.975 -0.0970  0.2401  0.4282
 4022SOL    HW123528   2.011   4.085   8.038  1.4000  1.3799 -0.0369
 4022SOL    HW223529   2.023   4.187   7.934 -0.4163  0.6601  0.4714
 4023SOL     OW23530   2.468   2.363   9.379 -0.2346  0.3273  0.1499
 4023SOL    HW123531   2.529   2.395   9.445  2.5774 -1.8626 -1.3980
 4023SOL    HW223532   2.390   2.346   9.432  0.6717  1.2344  1.7704
 4024SOL     OW23533   4.695   1.657  16.834  0.1628  0.5085  0.4114
 4024SOL    HW123534   0.032   1.674  16.903  0.8208  2.3651 -0.6630
 4024SOL    HW223535   4.633   1.728  16.850  2.2169  2.3447  0.1554
 4025SOL     OW23536   1.444   0.289   0.267 -0.7149  0.3366 -0.4424
 4025SOL    HW123537   1.384   0.342   0.214  0.0423 -0.0666 -1.7201
 4025SOL    HW223538   1.378   0.252   0.325 -0.6612 -3.5999 -2.8816
 4026SOL     OW23539   1.932   3.347   4.703  0.6111  0.2511  0.1046
 4026SOL    HW123540   1.987   3.308   4.772  0.1694 -1.5234 -0.5413
 4026SOL    HW223541   1.861   3.378   4.759  0.8847  2.3912 -0.7647
 4027SOL     OW23542   0.267   2.061   1.758 -0.0820  0.3524  0.0804
 4027SOL    HW123543   0.232   2.092   1.841 -1.4778 -1.2452  0.0844
 4027SOL    HW223544   0.257   1.966   1.769  4.5228 -0.3518 -1.3204
 4028SOL     OW23545   2.278   2.906  16.861  0.2608  0.7237  0.1709
 4028SOL    HW123546   2.344   2.934  16.797 -0.5398  0.2219 -0.8663
 4028SOL    HW223547   2.260   2.981  16.918  2.1916  0.4438  1.1507
 4029SOL     OW23548   1.293   3.602  12.011 -0.1723  0.2338 -0.1622
 4029SOL    HW123549   1.231   3.582  11.941 -0.0153  1.2717 -0.5932
 4029SOL    HW223550   1.357   3.660  11.970  0.4314  0.1961  0.7184
 4030SOL     OW23551   0.312   2.909   4.129 -1.1125  0.0166  0.1411
 4030SOL    HW123552   0.352   2.989   4.096  2.3199 -1.5036  0.5979
 4030SOL    HW223553   0.350   2.912   4.217 -0.9193 -1.7816  0.1198
 4031SOL     OW23554   0.861   3.942   4.472  0.0630  0.1365 -0.4889
 4031SOL    HW123555   0.819   3.953   4.557 -2.0881  1.4167 -1.7302
 4031SOL    HW223556   0.934   3.882   4.491 -0.2143  0.0171  0.2010
 4032SOL     OW23557   0.129   1.691   6.303 -0.8366 -0.2640 -0.2070
 4032SOL    HW123558   0.089   1.608   6.280 -0.7857 -0.4785  0.4807
 4032SOL    HW223559   0.212   1.682   6.256 -1.1139  0.5598 -0.8610
 4033SOL     OW23560   1.215   1.456  16.982 -0.0046  0.2479 -0.2282
 4033SOL    HW123561   1.252   1.367  16.982 -1.1095 -0.2024 -0.0891
 4033SOL    HW223562   1.285   1.496  16.930 -0.2756  0.2918 -0.5519
 4034SOL     OW23563   4.066   3.280   7.225 -0.2995 -0.0605 -0.2201
 4034SOL    HW123564   4.019   3.363   7.233  0.9386  0.5722  0.5158
 4034SOL    HW223565   4.092   3.258   7.315 -2.5751  1.8698  0.8996
 4035SOL     OW23566   4.093   3.538  15.244  0.0646  0.4157 -0.4748
 4035SOL    HW123567   4.106   3.600  15.172 -0.8990  0.2501 -0.7970
 4035SOL    HW223568   4.107   3.458  15.193 -1.8434  0.6729 -1.3908
 4036SOL     OW23569   2.728   4.003  16.942  0.2728 -0.0256  0.0671
 4036SOL    HW123570   2.698   4.050  17.020  0.2805 -2.4078  1.5051
 4036SOL    HW223571   2.718   4.074  16.880 -1.1205  1.3645  1.8569
 4037SOL     OW23572   1.595   1.806  16.616  0.6638 -0.1550 -0.3969
 4037SOL    HW123573   1.584   1.864  16.540  2.2732  1.3507  0.5285
 4037SOL    HW223574   1.508   1.766  16.616  0.9230 -0.7218 -0.9629
 4038SOL     OW23575   4.700   1.546  10.835  0.3590 -0.1144  0.2856
 4038SOL    HW123576   0.061   1.582  10.849 -0.3010  2.2053 -1.3987
 4038SOL    HW223577   4.723   1.453  10.828 -0.0602 -0.1247 -0.9054
 4039SOL     OW23578   0.743   3.805   7.647  0.2498 -0.2247 -0.4114
 4039SOL    HW123579   0.733   3.725   7.595 -1.3047 -0.0799 -0.3133
 4039SOL    HW223580   0.809   3.848   7.592 -0.8712  1.9314 -0.0528
 4040SOL     OW23581   2.184   0.614   8.427  0.6961  0.0641  0.0178
 4040SOL    HW123582   2.144   0.679   8.484 -1.1145 -1.1624  0.1171
 4040SOL    HW223583   2.143   0.626   8.342 -1.4682 -1.2859  0.8701
 4041SOL     OW23584   1.297   3.154   8.089  0.3291 -0.6646 -0.6258
 4041SOL    HW123585   1.349   3.194   8.159 -0.6155 -1.5845  0.5948
 4041SOL    HW223586   1.208   3.163   8.125  1.3886  0.3694  1.7707
 4042SOL     OW23587   3.137   4.425   4.528  0.8242  0.4175  0.7590
 4042SOL    HW123588   3.081   4.479   4.583  0.6800  0.4715  0.5559
 4042SOL    HW223589   3.222   4.457   4.559  0.0954  2.0508  1.0399
 4043SOL     OW23590   2.473   4.569   4.882 -0.9192  0.1218 -0.8493
 4043SOL    HW123591   2.422   4.640   4.844 -3.4461  0.0792  2.5036
 4043SOL    HW223592   2.442   4.570   4.973  0.8199 -0.7236 -0.2359
 4044SOL     OW23593   1.079   2.667   8.426  0.4509 -0.6277  0.2521
 4044SOL    HW123594   1.081   2.761   8.413  1.0342 -0.6967 -0.1076
 4044SOL    HW223595   1.052   2.675   8.518 -0.3651  1.7131 -0.2064
 4045SOL     OW23596   1.439   1.141   6.348 -0.4432  0.2276  0.3804
 4045SOL    HW123597   1.490   1.106   6.422 -0.3132 -1.9783 -0.7564
 4045SOL    HW223598   1.418   1.226   6.388  0.5124  0.8054 -0.3479
 4046SOL     OW23599   4.240   1.438   8.025  0.4581 -0.2746  0.0336
 4046SOL    HW123600   4.264   1.496   7.952 -1.3375 -1.4394 -1.4716
 4046SOL    HW223601   4.147   1.461   8.036  0.6779  0.0836  1.2235
 4047SOL     OW23602   2.454   1.544  13.915 -1.2744  0.0393 -0.4407
 4047SOL    HW123603   2.451   1.449  13.922  2.4654 -0.1047 -0.8938
 4047SOL    HW223604   2.428   1.549  13.823  1.1564 -0.0298 -1.1206
 4048SOL     OW23605   3.183   4.166   3.403 -0.3956 -0.0288 -0.2474
 4048SOL    HW123606   3.249   4.100   3.425  0.4760  0.9155  0.0084
 4048SOL    HW223607   3.100   4.121   3.417 -1.2890  1.8852  0.5209
 4049SOL     OW23608   3.967   4.116   4.618 -0.1192 -0.1855  0.2149
 4049SOL    HW123609   4.051   4.085   4.651 -1.2118 -1.2432  2.0553
 4049SOL    HW223610   3.982   4.210   4.623 -1.0440  0.0104 -0.6985
 4050SOL     OW23611   4.347   0.065   6.061  0.1776  0.3325 -0.4834
 4050SOL    HW123612   4.410   0.084   6.131  0.5239  0.0045 -0.7089
 4050SOL    HW223613   4.273   0.018   6.100 -0.0729  0.0629 -1.2840
 4051SOL     OW23614   1.133   0.901   5.924 -0.2411 -0.0647  0.5212
 4051SOL    HW123615   1.191   0.827   5.943  0.3856  0.2630 -0.0935
 4051SOL    HW223616   1.095   0.887   5.837  0.0187  0.7169  0.2818
 4052SOL     OW23617   3.999   2.725   7.700  0.0340 -0.1742 -0.0773
 4052SOL    HW123618   3.972   2.801   7.751 -0.9501 -1.3780  1.2075
 4052SOL    HW223619   4.088   2.700   7.723  0.1554  0.7007  0.3961
 4053SOL     OW23620   3.521   3.521   3.836 -0.1061 -0.6120  0.1100
 4053SOL    HW123621   3.529   3.441   3.889 -1.4306 -2.3956 -2.4204
 4053SOL    HW223622   3.470   3.494   3.760 -0.3425 -0.1165  0.0951
 4054SOL     OW23623   0.820   4.212   3.016 -0.2107 -0.1289  0.1371
 4054SOL    HW123624   0.870   4.277   3.065  1.1830 -0.2912 -1.0514
 4054SOL    HW223625   0.891   4.161   2.976 -0.5716 -0.4788 -0.0474
 4055SOL     OW23626   4.404   0.333  14.806  0.1705 -0.0292  0.1189
 4055SOL    HW123627   4.309   0.341  14.800 -0.0025 -0.2083  2.4039
 4055SOL    HW223628   4.427   0.351  14.715  0.5428  1.5162  0.5258
 4056SOL     OW23629   3.981   2.032  17.376  0.2866 -0.7287  0.0762
 4056SOL    HW123630   3.931   2.102  17.333 -0.9058  0.1855  2.9669
 4056SOL    HW223631   4.052   2.039  17.312  1.4264 -1.9906  1.2122
 4057SOL     OW23632   3.994   4.339   4.151 -0.3715 -0.0934  0.2108
 4057SOL    HW123633   3.913   4.342   4.100  0.4109 -0.5993 -1.0576
 4057SOL    HW223634   4.014   4.246   4.153  1.2741  0.2862  0.7754
 4058SOL     OW23635   0.372   3.555   7.165 -0.6755  0.0955  0.3697
 4058SOL    HW123636   0.326   3.635   7.190 -2.2410 -0.5276 -0.5189
 4058SOL    HW223637   0.415   3.572   7.082  0.5925 -2.1267  0.5655
 4059SOL     OW23638   0.620   0.417   5.372  0.0582 -0.1300 -0.3023
 4059SOL    HW123639   0.566   0.494   5.356 -2.2260 -1.6878 -0.0250
 4059SOL    HW223640   0.703   0.454   5.402  0.1912  1.0337 -2.0981
 4060SOL     OW23641   1.656   1.292   2.350 -0.6236 -0.0354 -0.2428
 4060SOL    HW123642   1.657   1.325   2.440  0.4759  0.0236 -0.2839
 4060SOL    HW223643   1.577   1.237   2.345 -0.8459  0.3347 -0.8217
 4061SOL     OW23644   0.723   0.875   7.843 -0.3807  0.0860 -0.5622
 4061SOL    HW123645   0.809   0.833   7.846  0.0985  0.9291 -2.2224
 4061SOL    HW223646   0.676   0.827   7.776 -0.2769 -0.4872 -0.2199
 4062SOL     OW23647   2.219   1.250   2.581  0.3095  0.7453 -0.4903
 4062SOL    HW123648   2.158   1.183   2.609 -0.4159  1.2908 -0.7718
 4062SOL    HW223649   2.168   1.293   2.512  1.0664  0.8497 -1.0001
 4063SOL     OW23650   0.786   2.016   7.587 -0.3772 -0.1169 -0.4084
 4063SOL    HW123651   0.734   2.013   7.507 -2.5874  1.1132  0.9841
 4063SOL    HW223652   0.738   2.083   7.635 -2.4005  0.2120 -2.8922
 4064SOL     OW23653   3.361   1.854   1.203 -0.3485  0.0082 -0.1076
 4064SOL    HW123654   3.320   1.849   1.117 -0.6787 -0.1678  0.0597
 4064SOL    HW223655   3.449   1.885   1.182 -0.7604  2.4849  1.7717
 4065SOL     OW23656   2.504   4.719   1.778  0.3596  0.4307 -0.5340
 4065SOL    HW123657   2.591   0.021   1.749  0.9287  0.4243  1.1358
 4065SOL    HW223658   2.450   0.064   1.746 -1.1184 -0.7721 -0.7287
 4066SOL     OW23659   1.365   2.036   4.011  0.2585  0.1601 -0.1627
 4066SOL    HW123660   1.379   2.122   4.051 -0.8958 -0.1604  0.9368
 4066SOL    HW223661   1.358   1.985   4.092  2.4653 -0.6808 -0.5037
 4067SOL     OW23662   3.445   4.256  13.036 -0.2003 -0.5052  1.0630
 4067SOL    HW123663   3.356   4.270  13.066 -0.5202 -0.5986  0.1741
 4067SOL    HW223664   3.447   4.164  13.011 -2.3247  0.0727 -1.2288
 4068SOL     OW23665   1.934   2.341   3.361  0.1970  0.4129  0.0753
 4068SOL    HW123666   1.983   2.280   3.416 -0.9151 -1.6936 -1.2531
 4068SOL    HW223667   1.945   2.309   3.272 -1.5382 -1.6746  0.5984
 4069SOL     OW23668   0.421   4.681   7.637 -0.2115  0.2318  0.3763
 4069SOL    HW123669   0.509   4.714   7.621 -0.2610 -1.1348 -2.6461
 4069SOL    HW223670   0.408   4.626   7.560  0.1214 -1.9054  1.8733
 4070SOL     OW23671   0.969   0.516   6.389  0.1407  0.0558 -0.2035
 4070SOL    HW123672   0.904   0.470   6.337  1.0087 -1.1742 -0.2030
 4070SOL    HW223673   0.974   0.604   6.354  0.3693  0.5244  0.9935
 4071SOL     OW23674   1.587   4.058   2.985  0.1298  0.4532 -0.1076
 4071SOL    HW123675   1.512   4.078   2.928 -0.2646 -3.0768 -0.7848
 4071SOL    HW223676   1.634   4.140   2.968  0.4869 -0.0307 -1.4999
 4072SOL     OW23677   2.848   1.812  12.756 -0.2206 -0.1925  0.1531
 4072SOL    HW123678   2.815   1.819  12.667  1.2997 -0.0609 -0.4033
 4072SOL    HW223679   2.928   1.862  12.739  0.2546 -0.3162  2.0314
 4073SOL     OW23680   3.410   4.109   0.457 -0.6051 -0.1902 -0.1924
 4073SOL    HW123681   3.355   4.074   0.386 -0.5613  0.7511 -0.6856
 4073SOL    HW223682   3.446   4.029   0.497  1.4308  1.2167  0.7394
 4074SOL     OW23683   4.194   0.650   4.786 -0.1009 -0.4433 -0.1777
 4074SOL    HW123684   4.216   0.653   4.693  1.5762  1.2467  0.2839
 4074SOL    HW223685   4.279   0.647   4.830 -0.0143 -0.8636 -0.3682
 4075SOL     OW23686   2.283   2.649  10.681 -0.4379  0.8683 -0.8248
 4075SOL    HW123687   2.273   2.565  10.636  1.9498  0.3590 -0.3884
 4075SOL    HW223688   2.211   2.697  10.640 -0.5263  1.4113 -0.0284
 4076SOL     OW23689   3.916   2.911   8.750 -0.0943 -0.2796 -0.4503
 4076SOL    HW123690   3.998   2.924   8.797 -1.2802  1.7609  1.0282
 4076SOL    HW223691   3.891   2.822   8.773  0.6572  0.0807  1.7167
 4077SOL     OW23692   3.971   0.717   7.822 -0.1422  0.4992  0.7022
 4077SOL    HW123693   3.927   0.792   7.782  0.5277  1.2235  1.3585
 4077SOL    HW223694   4.060   0.752   7.827 -0.0652  0.5958 -1.3632
 4078SOL     OW23695   3.170   0.463   7.026  0.1858  0.1534  0.3332
 4078SOL    HW123696   3.087   0.415   7.031  1.8390 -2.5412  1.7326
 4078SOL    HW223697   3.219   0.405   7.084  2.0175  1.0363 -0.3483
 4079SOL     OW23698   2.448   1.298   3.485  0.7753 -0.3154 -0.1162
 4079SOL    HW123699   2.401   1.365   3.435  2.0632  1.1285  0.5875
 4079SOL    HW223700   2.497   1.260   3.412  1.3052  1.2797 -0.6182
 4080SOL     OW23701   1.975   0.690   6.450 -0.2875  0.1824 -0.6059
 4080SOL    HW123702   2.054   0.738   6.476  0.3175 -0.5021 -1.1662
 4080SOL    HW223703   1.934   0.757   6.395 -1.0728 -0.0874 -0.3357
 4081SOL     OW23704   0.564   2.862  10.336 -0.2604 -0.2258 -0.0804
 4081SOL    HW123705   0.526   2.774  10.332 -2.0261  0.4774  1.1618
 4081SOL    HW223706   0.646   2.851  10.385 -0.5116 -1.1314  0.1369
 4082SOL     OW23707   3.332   1.496   7.131 -0.3021 -0.3450 -0.1186
 4082SOL    HW123708   3.280   1.509   7.051 -0.4114 -3.1224 -0.4951
 4082SOL    HW223709   3.395   1.567   7.122 -2.4376  1.4862 -0.4450
 4083SOL     OW23710   1.854   1.993   2.297  0.4023  0.2585 -0.0238
 4083SOL    HW123711   1.887   2.067   2.246  0.2684 -1.8472 -3.1846
 4083SOL    HW223712   1.921   1.931   2.267  0.8126  0.7720 -0.1565
 4084SOL     OW23713   2.125   2.424  15.731  0.3402  0.0699  0.3071
 4084SOL    HW123714   2.118   2.329  15.731 -1.7242  0.2167 -0.6505
 4084SOL    HW223715   2.144   2.442  15.823  1.1006  0.5597  0.0569
 4085SOL     OW23716   2.145   2.866   7.351  0.9355 -0.1538  0.4950
 4085SOL    HW123717   2.123   2.817   7.272  3.3480  1.0927 -0.9584
 4085SOL    HW223718   2.146   2.803   7.423 -2.4766  1.5250  2.0030
 4086SOL     OW23719   1.573   2.202  12.865 -0.0002  0.3092 -0.3109
 4086SOL    HW123720   1.607   2.262  12.931 -0.0311  0.6146 -0.5747
 4086SOL    HW223721   1.600   2.242  12.782  0.3484  1.5460  0.4005
 4087SOL     OW23722   2.464   2.117   2.343  0.0381 -0.3937 -0.2424
 4087SOL    HW123723   2.525   2.070   2.287 -0.5563  1.1948 -2.2189
 4087SOL    HW223724   2.418   2.166   2.274  2.5050 -0.2190 -1.7800
 4088SOL     OW23725   3.147   3.754  11.962  0.2153 -0.4539 -0.3484
 4088SOL    HW123726   3.075   3.816  11.949  0.5756 -0.0075 -0.2209
 4088SOL    HW223727   3.217   3.812  11.994 -0.3422 -0.0790  0.2072
 4089SOL     OW23728   4.358   1.588   6.657  0.4753  0.2479 -0.3093
 4089SOL    HW123729   4.447   1.587   6.690  0.0722 -0.6125  0.7419
 4089SOL    HW223730   4.325   1.663   6.707  1.3922  0.7799 -0.5143
 4090SOL     OW23731   3.021   3.514  17.286 -0.3033  0.2379 -0.2378
 4090SOL    HW123732   3.066   3.554  17.211 -0.5764 -0.5397 -0.8140
 4090SOL    HW223733   3.016   3.586  17.348 -0.5486  0.5021 -0.5627
 4091SOL     OW23734   1.530   2.556   8.940 -0.0728  1.0160 -0.3835
 4091SOL    HW123735   1.442   2.531   8.915  0.4807 -3.2954  1.9194
 4091SOL    HW223736   1.589   2.519   8.874  0.5900  0.7246  0.3676
 4092SOL     OW23737   1.519   0.596  15.975  0.2347 -0.6876  0.6214
 4092SOL    HW123738   1.431   0.581  16.011 -0.9250  1.0647 -1.5251
 4092SOL    HW223739   1.504   0.571  15.884  0.4534  1.6731 -0.0487
 4093SOL     OW23740   0.446   0.294   0.958  0.4131 -0.8327  0.5205
 4093SOL    HW123741   0.374   0.357   0.954  0.2858 -0.9423  1.0482
 4093SOL    HW223742   0.523   0.349   0.971 -1.5302  1.9990  0.1193
 4094SOL     OW23743   4.484   3.705   5.989 -0.1915 -0.0434  0.4299
 4094SOL    HW123744   4.479   3.797   5.963 -1.9593 -0.4967 -0.8648
 4094SOL    HW223745   4.407   3.683   5.937 -0.5967 -0.1421  1.0652
 4095SOL     OW23746   1.282   0.710   1.411  0.5394 -0.3325 -0.0387
 4095SOL    HW123747   1.358   0.657   1.434  0.7332  0.3978  1.0247
 4095SOL    HW223748   1.226   0.683   1.484  1.8717 -2.1095  0.3016
 4096SOL     OW23749   4.584   3.098  11.003 -0.2343 -0.2549  0.3491
 4096SOL    HW123750   4.517   3.038  11.037 -0.0967 -0.7678 -0.2963
 4096SOL    HW223751   4.560   3.114  10.912  1.9823  2.1680  0.2120
 4097SOL     OW23752   3.041   0.918   7.916 -0.3735 -0.0820  0.1857
 4097SOL    HW123753   3.120   0.963   7.948 -1.1413  0.0707  1.8713
 4097SOL    HW223754   3.051   0.913   7.821 -0.4714 -0.6550  0.2042
 4098SOL     OW23755   0.802   4.306  10.352 -0.1962 -0.0764  0.5106
 4098SOL    HW123756   0.846   4.374  10.404 -1.7450  1.5390 -0.3178
 4098SOL    HW223757   0.873   4.283  10.292 -0.4751 -0.5871  0.3749
 4099SOL     OW23758   2.270   0.755   2.844 -0.0288 -0.0074 -0.8015
 4099SOL    HW123759   2.269   0.683   2.782 -2.0739 -0.3543 -0.3407
 4099SOL    HW223760   2.266   0.715   2.931  1.3303  3.2390  0.7720
 4100SOL     OW23761   4.325   0.397   3.457  0.0206  0.4135 -0.5872
 4100SOL    HW123762   4.284   0.440   3.382  2.2008 -1.5909 -2.8950
 4100SOL    HW223763   4.320   0.467   3.523  2.3326  0.4510 -0.4602
 4101SOL     OW23764   0.824   4.566  16.720  0.6584  0.2749  0.3656
 4101SOL    HW123765   0.805   4.630  16.788  0.4648 -0.5880  1.1282
 4101SOL    HW223766   0.804   4.481  16.760  0.7245 -1.1251 -2.5383
 4102SOL     OW23767   1.830   1.446   4.520  0.4286  0.0287 -0.0601
 4102SOL    HW123768   1.830   1.501   4.599  3.4197 -1.9857  1.3555
 4102SOL    HW223769   1.814   1.506   4.447  1.0377  0.9358  0.5496
 4103SOL     OW23770   3.065   2.177   3.682  0.6520 -0.6599  0.0629
 4103SOL    HW123771   3.062   2.258   3.630 -0.2497 -0.0001  1.1141
 4103SOL    HW223772   3.150   2.187   3.726 -0.2809  2.9377  1.1139
 4104SOL     OW23773   1.522   4.212  16.036 -0.2012 -0.3607 -0.4957
 4104SOL    HW123774   1.468   4.253  15.969  1.6701  0.0469 -1.7708
 4104SOL    HW223775   1.601   4.224  15.983 -0.9876 -1.3228 -1.8910
 4105SOL     OW23776   4.047   3.418   0.549 -0.5644  0.2790  0.2250
 4105SOL    HW123777   3.966   3.435   0.501  0.1522 -0.3602 -1.1864
 4105SOL    HW223778   4.089   3.355   0.491 -0.4174 -1.6837  2.4720
 4106SOL     OW23779   2.160   4.096   3.693 -0.0164 -0.0925 -0.2244
 4106SOL    HW123780   2.080   4.147   3.690  0.2098  0.1798 -1.3558
 4106SOL    HW223781   2.133   4.033   3.760  1.3578 -0.0216  0.4158
 4107SOL     OW23782   3.755   3.239   5.844 -0.2846  0.0273  0.5240
 4107SOL    HW123783   3.732   3.318   5.794  0.2258  1.2002  2.1573
 4107SOL    HW223784   3.690   3.173   5.818 -0.9007  1.0560 -0.5597
 4108SOL     OW23785   0.265   1.518   8.378  0.5398  1.1725  0.0778
 4108SOL    HW123786   0.191   1.578   8.377  1.2215  2.0053 -0.6215
 4108SOL    HW223787   0.236   1.456   8.311 -0.4725  1.8913 -0.1541
 4109SOL     OW23788   0.084   4.528   8.464  0.2219 -0.2382 -0.8173
 4109SOL    HW123789   0.087   4.623   8.468 -0.5888 -0.2468 -0.1313
 4109SOL    HW223790   0.121   4.505   8.549 -0.3791  0.3688 -0.3930
 4110SOL     OW23791   1.648   2.620   0.123  0.4379  0.0802  0.4968
 4110SOL    HW123792   1.663   2.529   0.097  0.4204  0.8173 -2.0836
 4110SOL    HW223793   1.579   2.661   0.071 -0.1637  1.9397  2.7471
 4111SOL     OW23794   3.341   0.336  10.601 -0.1421 -0.0440  0.0823
 4111SOL    HW123795   3.247   0.328  10.613 -0.0075  0.8249  1.6718
 4111SOL    HW223796   3.360   0.414  10.653 -0.5159 -0.9006  1.4987
 4112SOL     OW23797   0.258   3.252   5.193 -0.4386 -0.1804 -0.3761
 4112SOL    HW123798   0.263   3.206   5.277 -0.1173 -0.9699 -0.8250
 4112SOL    HW223799   0.163   3.259   5.184 -0.8016  0.9973  4.5703
 4113SOL     OW23800   2.660   1.477   2.890  0.2343  0.2326 -0.0203
 4113SOL    HW123801   2.726   1.408   2.891  0.2785  0.2567 -1.2491
 4113SOL    HW223802   2.648   1.506   2.799 -1.9720  0.3441  0.2916
 4114SOL     OW23803   4.045   3.568   8.472 -0.0349  0.2033 -0.0712
 4114SOL    HW123804   3.982   3.499   8.448  0.9806 -0.1789 -1.6642
 4114SOL    HW223805   4.120   3.547   8.416  0.3101  2.0154 -0.2848
 4115SOL     OW23806   4.365   3.640  11.098  0.3560 -0.6249 -0.2213
 4115SOL    HW123807   4.301   3.600  11.156  0.6506 -0.4228  0.2485
 4115SOL    HW223808   4.334   3.591  11.022  2.6258 -3.6361  0.7797
 4116SOL     OW23809   0.039   3.863   0.993 -0.0706  0.0564  0.0254
 4116SOL    HW123810   0.094   3.808   1.048  1.0446 -0.5080 -1.6453
 4116SOL    HW223811   4.708   3.897   1.061 -0.1322  0.3613 -0.1794
 4117SOL     OW23812   1.923   3.214   9.538  0.2113 -0.8018 -0.3862
 4117SOL    HW123813   1.999   3.268   9.520 -0.1179  0.7210  2.7874
 4117SOL    HW223814   1.851   3.274   9.519  2.5017  2.0553 -0.0436
 4118SOL     OW23815   2.845   1.284   3.650 -0.3835  0.6873 -0.2883
 4118SOL    HW123816   2.930   1.274   3.693  0.3503  0.6612 -1.7199
 4118SOL    HW223817   2.814   1.193   3.654 -3.1785  1.6245 -0.5895
 4119SOL     OW23818   1.830   4.293  14.857  0.2163 -0.3848  0.4105
 4119SOL    HW123819   1.821   4.230  14.929 -1.0171 -3.1210 -2.1310
 4119SOL    HW223820   1.919   4.284  14.824  0.2887  1.0832  0.2086
 4120SOL     OW23821   1.470   3.139   1.837 -0.0831 -0.7341  0.1433
 4120SOL    HW123822   1.471   3.046   1.814 -0.0914 -0.3674 -1.3764
 4120SOL    HW223823   1.387   3.170   1.801  1.3083  0.6923 -1.8979
 4121SOL     OW23824   1.439   3.721   2.190  0.2943 -0.2857  0.4516
 4121SOL    HW123825   1.526   3.760   2.180 -0.5409  1.6316  0.6674
 4121SOL    HW223826   1.423   3.711   2.284  1.9294  3.8330  1.1531
 4122SOL     OW23827   3.786   4.117   2.650  0.2057 -0.0883 -0.2460
 4122SOL    HW123828   3.753   4.104   2.561 -1.1416  0.8653  0.1188
 4122SOL    HW223829   3.881   4.117   2.640  0.0462 -1.5037 -1.5649
 4123SOL     OW23830   1.176   2.093   2.124  0.1781 -0.2749  0.4172
 4123SOL    HW123831   1.215   2.064   2.207  2.2553  1.4182  0.0277
 4123SOL    HW223832   1.098   2.138   2.155 -0.1680 -0.6759  0.1328
 4124SOL     OW23833   2.996   3.057  12.202  0.7438 -0.3881  0.4950
 4124SOL    HW123834   3.075   3.003  12.195  2.1589  2.0020 -1.7293
 4124SOL    HW223835   2.920   3.002  12.185  1.5931 -1.8477  1.3378
 4125SOL     OW23836   1.724   2.520   9.148 -0.6679 -0.1524  0.4447
 4125SOL    HW123837   1.641   2.513   9.101  1.1191  1.0228 -2.8704
 4125SOL    HW223838   1.703   2.478   9.232 -0.2026 -0.8691  0.1996
 4126SOL     OW23839   1.546   0.396   6.418  0.4653 -0.1102 -0.1193
 4126SOL    HW123840   1.611   0.326   6.406 -2.6729 -3.0684  0.2030
 4126SOL    HW223841   1.509   0.379   6.504 -0.3235  0.4292 -0.3598
 4127SOL     OW23842   4.319   4.128   2.207 -0.7829  0.2219 -0.2336
 4127SOL    HW123843   4.375   4.141   2.283  0.1130 -0.4748 -0.7696
 4127SOL    HW223844   4.266   4.051   2.229 -1.2831  0.1601 -1.6549
 4128SOL     OW23845   0.498   3.459  12.901  0.0661  0.1472 -0.2135
 4128SOL    HW123846   0.470   3.376  12.939 -2.7031  2.0745  1.9712
 4128SOL    HW223847   0.497   3.433  12.809  0.0048  1.6225 -0.6265
 4129SOL     OW23848   2.032   1.964  10.473  0.1027  0.0126 -0.1695
 4129SOL    HW123849   2.019   1.905  10.547  1.7523  0.2609  0.3289
 4129SOL    HW223850   1.974   2.040  10.484  1.5589  1.1337 -0.2348
 4130SOL     OW23851   1.010   4.372   1.235 -0.0627  0.5171 -0.1642
 4130SOL    HW123852   0.990   4.465   1.230 -2.6806 -0.0290 -0.2235
 4130SOL    HW223853   1.087   4.367   1.179 -0.3629  2.8805 -0.7945
 4131SOL     OW23854   2.142   1.695   3.588 -0.0373 -0.0611 -0.0477
 4131SOL    HW123855   2.236   1.676   3.592  0.1851  0.5029 -2.4092
 4131SOL    HW223856   2.103   1.608   3.596 -1.1774  0.2673 -1.9538
 4132SOL     OW23857   1.286   3.513   2.407  0.1601  0.2535  0.1287
 4132SOL    HW123858   1.343   3.436   2.399  1.1421  1.1418 -1.3734
 4132SOL    HW223859   1.281   3.524   2.502 -1.8819  0.3842  0.0042
 4133SOL     OW23860   2.381   3.553  11.732 -0.1078  0.2409  0.5772
 4133SOL    HW123861   2.449   3.533  11.668 -0.4169  3.3237 -0.7444
 4133SOL    HW223862   2.414   3.526  11.817 -3.6577  0.7592  2.1441
 4134SOL     OW23863   3.978   3.633   0.732 -0.4217 -0.2853 -0.3243
 4134SOL    HW123864   3.989   3.539   0.713 -1.7103  0.1230 -3.0715
 4134SOL    HW223865   3.890   3.652   0.699 -1.3344 -2.7000  0.6800
 4135SOL     OW23866   1.259   1.826  12.928  0.2912  0.3068 -0.1177
 4135SOL    HW123867   1.322   1.817  12.999  1.2067 -1.6512 -1.1993
 4135SOL    HW223868   1.180   1.862  12.969 -0.4768 -1.8211  0.2222
 4136SOL     OW23869   4.701   1.971   7.471 -0.0888  0.6238 -0.9281
 4136SOL    HW123870   4.699   2.029   7.396 -0.9188  0.8354 -0.7507
 4136SOL    HW223871   4.610   1.940   7.462 -0.7517  1.7831  1.5447
 4137SOL     OW23872   4.404   4.432   2.246  0.2438  0.2772  0.5397
 4137SOL    HW123873   4.476   4.489   2.273  0.5500 -0.1626  0.6412
 4137SOL    HW223874   4.434   4.345   2.272  0.7431  0.6022  1.0683
 4138SOL     OW23875   2.624   1.403  10.286 -0.2662  0.0057  0.0305
 4138SOL    HW123876   2.555   1.464  10.311 -1.9149 -2.3589  1.2333
 4138SOL    HW223877   2.652   1.383  10.375  1.0826 -1.0895 -0.6531
 4139SOL     OW23878   3.825   3.080   4.630 -0.9299 -0.2574  0.3424
 4139SOL    HW123879   3.759   3.045   4.689 -1.3113 -0.1620 -0.0323
 4139SOL    HW223880   3.856   3.162   4.670  1.7811 -1.2690  0.3585
 4140SOL     OW23881   2.079   3.982   9.984  0.2853 -0.3657  0.0120
 4140SOL    HW123882   2.022   4.021  10.051 -0.6847  1.0361 -1.6251
 4140SOL    HW223883   2.078   4.051   9.918 -0.4120  1.9277  2.4016
 4141SOL     OW23884   0.971   0.054  16.337 -0.9177 -0.0641  0.2352
 4141SOL    HW123885   0.982   0.149  16.330  0.2787 -0.2988 -1.1112
 4141SOL    HW223886   0.983   0.019  16.249  0.0458 -0.6794  0.6151
 4142SOL     OW23887   2.344   2.086   8.626  0.3245 -0.4058 -0.4097
 4142SOL    HW123888   2.313   2.004   8.587 -0.6992 -1.7282  3.1851
 4142SOL    HW223889   2.439   2.077   8.618  0.3864  0.2545 -0.4110
 4143SOL     OW23890   3.451   3.765   3.417  0.3596  0.0216  0.3754
 4143SOL    HW123891   3.491   3.700   3.359 -1.0859  0.4661 -1.1305
 4143SOL    HW223892   3.516   3.768   3.486 -0.3559 -2.7694  1.1708
 4144SOL     OW23893   0.818   1.759   7.734 -0.3987  0.2843 -0.2396
 4144SOL    HW123894   0.767   1.741   7.654 -0.8303  0.5947 -0.0330
 4144SOL    HW223895   0.843   1.851   7.721  2.1103 -0.5268 -1.0853
 4145SOL     OW23896   0.806   3.900   8.908  0.2168 -0.2425 -0.5682
 4145SOL    HW123897   0.832   3.954   8.983 -0.5054  0.3444 -0.7352
 4145SOL    HW223898   0.725   3.865   8.946  0.5932  0.3317  0.7783
 4146SOL     OW23899   0.534   4.008   7.867  0.1520 -0.0577 -0.1316
 4146SOL    HW123900   0.578   3.944   7.922 -1.8536 -0.2063  1.3055
 4146SOL    HW223901   0.520   4.073   7.936  0.1837  1.1745 -1.2839
 4147SOL     OW23902   3.963   0.435   8.920  0.8053 -0.1177  0.2648
 4147SOL    HW123903   3.918   0.499   8.975 -2.9920 -1.5592 -1.2101
 4147SOL    HW223904   3.916   0.442   8.837 -1.7009  2.4654  1.9253
 4148SOL     OW23905   4.563   3.986   2.954 -0.5887  0.0039 -0.1076
 4148SOL    HW123906   4.468   3.973   2.955 -0.7646  1.3139  0.6032
 4148SOL    HW223907   4.593   3.895   2.953 -0.3090  0.0923  0.2311
 4149SOL     OW23908   3.326   0.407   8.074 -0.6879 -0.3420  0.2657
 4149SOL    HW123909   3.341   0.486   8.128  1.8671 -0.6978  0.0729
 4149SOL    HW223910   3.416   0.388   8.046 -0.9552  0.0673 -0.8642
 4150SOL     OW23911   1.149   4.420   2.983 -0.3279  0.0854  0.5483
 4150SOL    HW123912   1.177   4.328   2.984  1.3359  0.5711 -0.4311
 4150SOL    HW223913   1.112   4.429   3.070 -1.6495 -1.2060  0.1304
 4151SOL     OW23914   0.667   2.832   3.899  0.5243 -0.8309  0.1519
 4151SOL    HW123915   0.597   2.768   3.893 -1.1859  1.2026 -1.4349
 4151SOL    HW223916   0.640   2.893   3.830  1.8852  0.5231  0.8110
 4152SOL     OW23917   4.692   4.083   7.723 -0.2996  0.0125 -0.0523
 4152SOL    HW123918   0.035   4.018   7.715 -1.9262 -1.4748 -1.8887
 4152SOL    HW223919   4.701   4.106   7.815 -1.7964 -0.2195  0.1426
 4153SOL     OW23920   2.187   0.809   3.474  0.2646  0.1180  0.1797
 4153SOL    HW123921   2.203   0.855   3.391 -0.4832  0.9753  0.5110
 4153SOL    HW223922   2.202   0.867   3.548 -1.8187 -0.5429  1.1142
 4154SOL     OW23923   1.870   0.179   2.542 -0.2827 -0.0153 -0.6806
 4154SOL    HW123924   1.954   0.177   2.589 -2.0778 -0.8312  2.5105
 4154SOL    HW223925   1.895   0.240   2.472  1.1845 -0.0606 -0.1903
 4155SOL     OW23926   4.260   0.944   3.571  0.1219 -0.8718  0.4975
 4155SOL    HW123927   4.245   0.981   3.658 -0.4620  1.3110 -0.5356
 4155SOL    HW223928   4.338   0.990   3.540  0.8734 -0.4083  3.1129
 4156SOL     OW23929   2.677   1.737   3.468  0.1986 -0.2637 -0.1917
 4156SOL    HW123930   2.583   1.721   3.457 -0.2804  1.2936  1.6732
 4156SOL    HW223931   2.690   1.690   3.550 -1.7751  0.0499  0.3131
 4157SOL     OW23932   0.071   3.314   6.584  0.8116  0.6919 -0.1599
 4157SOL    HW123933   0.084   3.341   6.675 -0.1120 -0.2745  0.2593
 4157SOL    HW223934   4.717   3.264   6.588  1.8047 -0.8103  1.1672
 4158SOL     OW23935   1.751   3.295   1.509  0.2729  0.3384 -0.5714
 4158SOL    HW123936   1.685   3.356   1.543 -1.4466 -2.3698  1.0091
 4158SOL    HW223937   1.704   3.216   1.535  0.6702 -0.1832 -1.4390
 4159SOL     OW23938   4.473   3.764   8.778 -0.2306 -0.5615  0.4533
 4159SOL    HW123939   4.494   3.834   8.717 -2.2035  1.2627  1.8325
 4159SOL    HW223940   4.378   3.751   8.768 -0.0559 -2.0774  0.7944
 4160SOL     OW23941   4.206   0.139   5.833 -0.3146  0.5960  0.0165
 4160SOL    HW123942   4.195   0.072   5.765  3.4702 -1.1406  1.1335
 4160SOL    HW223943   4.268   0.102   5.896  0.2185  1.8640  0.2343
 4161SOL     OW23944   4.557   0.058   7.458  0.2951  0.2568 -0.0056
 4161SOL    HW123945   4.524   4.698   7.479 -0.8030  0.1616 -2.1226
 4161SOL    HW223946   4.546   0.060   7.363 -0.1678  1.8715  0.0874
 4162SOL     OW23947   1.640   2.065   7.649 -0.3500 -0.5217  0.5097
 4162SOL    HW123948   1.617   2.085   7.558  1.7211 -0.4930 -0.0043
 4162SOL    HW223949   1.640   1.970   7.657 -0.7399 -0.5761 -0.1781
 4163SOL     OW23950   4.036   2.248  14.717 -0.2888  0.4954 -0.1686
 4163SOL    HW123951   3.957   2.202  14.692  1.1394 -0.9552 -1.9523
 4163SOL    HW223952   4.004   2.339  14.716 -2.5365 -0.2942  0.4353
 4164SOL     OW23953   0.149   0.887   2.655  0.3986 -0.4813 -0.4265
 4164SOL    HW123954   0.236   0.851   2.671 -0.0233 -2.2477 -2.0819
 4164SOL    HW223955   0.149   0.860   2.563 -1.7783 -3.3718  0.4252
 4165SOL     OW23956   0.093   2.263   0.415 -0.0950 -0.1423  0.0505
 4165SOL    HW123957   0.058   2.285   0.502 -1.3242 -0.4181 -0.3711
 4165SOL    HW223958   0.162   2.328   0.401 -0.1647 -0.0188  0.2718
 4166SOL     OW23959   4.471   1.394  10.905 -0.1033  0.4248  0.5228
 4166SOL    HW123960   4.545   1.444  10.871  0.7298 -0.3672  1.1512
 4166SOL    HW223961   4.525   1.342  10.965 -0.4580  1.1043  1.4390
 4167SOL     OW23962   2.907   1.867  15.645  0.0882  0.1878 -0.1191
 4167SOL    HW123963   2.980   1.902  15.594 -0.5343  1.0545 -0.4305
 4167SOL    HW223964   2.919   1.923  15.722  3.5589 -1.0009  0.2040
 4168SOL     OW23965   3.709   2.856   6.912  0.0985 -0.1007 -0.8066
 4168SOL    HW123966   3.789   2.836   6.864  1.0792 -0.0341  0.8026
 4168SOL    HW223967   3.659   2.905   6.846  2.5149  1.1486 -1.7288
 4169SOL     OW23968   3.419   0.783  13.778  0.0037 -0.1446  0.2731
 4169SOL    HW123969   3.361   0.711  13.804  1.3648 -1.0938  0.6237
 4169SOL    HW223970   3.349   0.842  13.748 -0.9670 -0.0110  2.7588
 4170SOL     OW23971   3.951   2.490  14.714  0.4214 -0.5126 -0.2578
 4170SOL    HW123972   3.903   2.458  14.638 -0.5646  1.1504 -0.3491
 4170SOL    HW223973   3.910   2.576  14.727  0.5578 -0.6882  1.3470
 4171SOL     OW23974   2.614   0.829  10.318  0.4281  0.5209 -0.5192
 4171SOL    HW123975   2.585   0.750  10.273 -0.4007  0.3930  0.2412
 4171SOL    HW223976   2.537   0.884  10.308  0.2431  1.0974  4.0853
 4172SOL     OW23977   0.602   1.183   2.657 -0.1573 -0.0695  0.4885
 4172SOL    HW123978   0.530   1.159   2.598  1.4780 -0.0040 -1.5223
 4172SOL    HW223979   0.554   1.200   2.739  2.0185  2.1851  1.3047
 4173SOL     OW23980   4.577   0.800   9.476 -0.1227  0.2629 -0.2413
 4173SOL    HW123981   4.505   0.738   9.480 -0.9320  1.2863  1.2970
 4173SOL    HW223982   4.558   0.855   9.552 -0.5688 -0.6812  0.3355
 4174SOL     OW23983   0.702   0.570   2.690  0.0811  0.1193 -0.1516
 4174SOL    HW123984   0.679   0.535   2.775  3.7315 -3.1192 -0.5061
 4174SOL    HW223985   0.777   0.514   2.669 -0.4526 -0.9076  0.7001
 4175SOL     OW23986   2.342   0.167  13.216 -0.1638 -0.5882 -0.0647
 4175SOL    HW123987   2.302   0.228  13.155 -1.5460  0.1405  1.5705
 4175SOL    HW223988   2.410   0.125  13.163 -1.9390 -0.1858 -2.6139
 4176SOL     OW23989   1.258   4.168   6.001 -0.1265 -0.1538  0.0353
 4176SOL    HW123990   1.263   4.249   6.052 -2.0327  1.9079 -3.0535
 4176SOL    HW223991   1.169   4.142   6.025 -0.1229 -0.5191 -0.3581
 4177SOL     OW23992   1.397   0.748   8.175 -0.5210  0.2484  0.9462
 4177SOL    HW123993   1.448   0.698   8.239  0.2920 -2.1383 -1.5788
 4177SOL    HW223994   1.456   0.807   8.128 -2.0886  1.7114  0.8147
 4178SOL     OW23995   2.731   1.985  16.555  0.1413 -0.3398 -0.4766
 4178SOL    HW123996   2.719   1.949  16.467 -0.7193 -2.2236  0.4036
 4178SOL    HW223997   2.703   2.074  16.539  0.7795 -0.1369 -0.4815
 4179SOL     OW23998   3.733   4.579   9.438 -0.2889 -0.3504  0.0416
 4179SOL    HW123999   3.644   4.614   9.425  0.0591  0.9505  1.0736
 4179SOL    HW224000   3.785   4.644   9.391 -0.4369  0.2303  0.6807
 4180SOL     OW24001   3.985   0.880  13.349  0.1538  0.2535  0.5422
 4180SOL    HW124002   3.896   0.894  13.316  1.2689  0.6359 -2.3341
 4180SOL    HW224003   4.049   0.901  13.280  2.3113 -0.8111  2.2180
 4181SOL     OW24004   0.166   0.041   8.599 -0.4366  0.0081  0.2297
 4181SOL    HW124005   0.212   0.070   8.678 -0.5790 -1.4815  0.8564
 4181SOL    HW224006   0.221   0.069   8.525 -0.3259  0.5436  0.5144
 4182SOL     OW24007   3.366   0.959   8.605  0.1729  0.3351  0.4123
 4182SOL    HW124008   3.341   0.921   8.689 -0.8597  2.0602  0.8795
 4182SOL    HW224009   3.445   1.006   8.629 -0.8358  1.8699  0.7435
 4183SOL     OW24010   1.122   2.492   6.495 -0.2658  0.0033  0.1164
 4183SOL    HW124011   1.179   2.443   6.436 -1.2429 -0.0535 -0.7750
 4183SOL    HW224012   1.174   2.501   6.575 -2.5179  1.9264  1.3476
 4184SOL     OW24013   3.105   1.832   0.568  0.3271  0.5648  0.6148
 4184SOL    HW124014   3.175   1.774   0.539 -0.9980 -1.4099  1.3112
 4184SOL    HW224015   3.034   1.770   0.588 -0.6664  1.6492  0.4709
 4185SOL     OW24016   1.419   0.283   7.234  0.0611  0.2769  0.0266
 4185SOL    HW124017   1.494   0.330   7.197 -1.1442  1.0060 -1.5023
 4185SOL    HW224018   1.381   0.263   7.149  0.9761 -1.7404  0.0986
 4186SOL     OW24019   2.365   1.490   2.557 -0.2787 -0.1766 -1.2645
 4186SOL    HW124020   2.314   1.412   2.579  1.5038 -2.1340 -4.0905
 4186SOL    HW224021   2.300   1.558   2.537 -3.1564 -2.1282  1.4179
 4187SOL     OW24022   4.558   1.426   5.436 -0.5514 -0.6370  0.2754
 4187SOL    HW124023   4.511   1.509   5.432  0.4948 -0.0587  0.2418
 4187SOL    HW224024   4.508   1.370   5.376 -0.7361 -0.8481  0.6235
 4188SOL     OW24025   2.560   2.423   3.027  0.3927 -0.1821  0.4526
 4188SOL    HW124026   2.470   2.417   3.058  0.5504  1.4344  1.2287
 4188SOL    HW224027   2.580   2.329   3.024  1.7644  0.1354 -0.3564
 4189SOL     OW24028   4.265   1.493  12.715  0.7970  0.0454 -0.2286
 4189SOL    HW124029   4.231   1.461  12.632  1.6729 -0.3563 -0.4253
 4189SOL    HW224030   4.337   1.546  12.681 -0.7674  1.6390 -1.0838
 4190SOL     OW24031   4.561   1.278   8.399  0.1745 -0.0276  0.2606
 4190SOL    HW124032   4.617   1.342   8.355 -0.4388  1.2195  1.3043
 4190SOL    HW224033   4.480   1.289   8.350 -0.3562 -0.4527  1.0379
 4191SOL     OW24034   3.033   4.169   3.745  0.3970  0.1143  0.3145
 4191SOL    HW124035   2.963   4.234   3.741 -0.1987 -0.5253  0.4099
 4191SOL    HW224036   3.075   4.178   3.831 -0.1036 -1.3019  0.6933
 4192SOL     OW24037   4.222   2.496   2.656 -0.1771  0.0684  0.3878
 4192SOL    HW124038   4.311   2.529   2.641  0.5341 -1.5874  1.0205
 4192SOL    HW224039   4.245   2.404   2.668 -2.5009 -0.8162 -1.6830
 4193SOL     OW24040   1.260   4.560   5.846  0.3001 -0.4984 -0.1341
 4193SOL    HW124041   1.247   4.655   5.846  1.1894 -0.3814  2.3743
 4193SOL    HW224042   1.258   4.540   5.939  2.1672 -1.4762 -0.3158
 4194SOL     OW24043   0.222   3.449   1.506  0.0645 -0.0994 -0.3832
 4194SOL    HW124044   0.171   3.372   1.530  0.6265  0.3630  2.2085
 4194SOL    HW224045   0.170   3.523   1.537 -0.5719 -1.4702  1.7697
 4195SOL     OW24046   4.543   3.553   7.972  0.2103  0.0005 -0.2293
 4195SOL    HW124047   4.462   3.516   7.935  0.0554 -0.1451  0.2540
 4195SOL    HW224048   4.569   3.608   7.898  2.3702  1.8237  1.9018
 4196SOL     OW24049   3.372   0.456   6.542 -0.7529  0.2551  0.0970
 4196SOL    HW124050   3.413   0.531   6.587 -1.7715  1.5729 -1.1887
 4196SOL    HW224051   3.366   0.400   6.619 -0.1775  0.2832  0.1675
 4197SOL     OW24052   4.408   1.345  14.773 -0.5870  0.5650 -0.6025
 4197SOL    HW124053   4.334   1.398  14.744 -0.5181  1.2612  0.4902
 4197SOL    HW224054   4.436   1.291  14.699  3.0946  0.7153  0.6769
 4198SOL     OW24055   2.313   2.490   6.835 -0.5757  0.3502 -0.3916
 4198SOL    HW124056   2.351   2.446   6.759 -1.3091 -0.0014 -0.5555
 4198SOL    HW224057   2.401   2.505   6.870  0.5250 -2.7257 -1.7930
 4199SOL     OW24058   0.550   1.554  10.226  0.1082  0.4449  0.0531
 4199SOL    HW124059   0.598   1.476  10.197 -3.4512 -1.3260 -1.1765
 4199SOL    HW224060   0.484   1.509  10.278 -1.0425  0.2300 -1.5719
 4200SOL     OW24061   0.910   4.068   8.183 -0.7357 -0.5101 -0.1429
 4200SOL    HW124062   0.855   4.021   8.245  1.7330  1.9024  3.8252
 4200SOL    HW224063   0.842   4.079   8.116 -0.3814  1.2550 -0.2015
 4201SOL     OW24064   3.689   1.560   9.500  0.3934  0.2674  0.1239
 4201SOL    HW124065   3.659   1.573   9.590 -0.0929 -2.9919  0.4397
 4201SOL    HW224066   3.751   1.492   9.524  0.5271  0.6819  0.9403
 4202SOL     OW24067   3.949   2.613   4.607 -0.4191  0.2768  0.3901
 4202SOL    HW124068   3.994   2.582   4.686  0.8849  0.4476 -0.2830
 4202SOL    HW224069   3.973   2.705   4.613  0.6438  0.1582 -1.9241
 4203SOL     OW24070   1.917   0.904  12.214  0.2864 -0.2165 -0.5547
 4203SOL    HW124071   2.003   0.868  12.192  0.7351  0.7756 -0.3867
 4203SOL    HW224072   1.909   0.974  12.149  2.3460  2.3384  1.9248
 4204SOL     OW24073   3.793   1.768   9.375  0.2862  0.0385 -0.4587
 4204SOL    HW124074   3.746   1.695   9.416  2.7853  0.1965  2.7068
 4204SOL    HW224075   3.861   1.716   9.331  2.5390  0.2659  2.7264
 4205SOL     OW24076   4.716   0.655  17.537  0.0906  0.0599 -0.1382
 4205SOL    HW124077   0.075   0.614  17.530  0.3416  0.8227 -1.5732
 4205SOL    HW224078   4.702   0.683  17.447  1.3272  0.5853 -0.1640
 4206SOL     OW24079   0.537   3.326  14.299 -0.2434 -0.3256  0.1026
 4206SOL    HW124080   0.510   3.378  14.223  0.0991 -1.7748 -1.0002
 4206SOL    HW224081   0.527   3.389  14.371  2.3625  0.2538 -0.0407
 4207SOL     OW24082   3.704   2.617  13.948  0.2555 -0.0302 -0.2540
 4207SOL    HW124083   3.620   2.572  13.955 -0.8893  2.3260  1.1389
 4207SOL    HW224084   3.706   2.669  14.029  0.4935 -1.0311  0.3899
 4208SOL     OW24085   0.302   1.376   7.955  0.0211  0.0634 -0.3514
 4208SOL    HW124086   0.352   1.332   8.023 -1.5324  0.2787  0.9557
 4208SOL    HW224087   0.319   1.323   7.878  0.3833  2.1793 -1.7255
 4209SOL     OW24088   3.823   1.335   5.902 -0.7327  0.1110  0.3235
 4209SOL    HW124089   3.791   1.397   5.836  2.8707  0.9632 -0.6240
 4209SOL    HW224090   3.744   1.293   5.934 -0.5488 -1.3402 -1.1382
 4210SOL     OW24091   2.687   2.918   7.545  0.3489  0.4786 -0.1831
 4210SOL    HW124092   2.595   2.930   7.525  0.7023 -0.9560 -2.5646
 4210SOL    HW224093   2.699   3.002   7.588  2.5541  0.8988 -1.6352
 4211SOL     OW24094   0.041   4.345   6.941 -0.0665 -0.0682  0.1172
 4211SOL    HW124095   0.020   4.335   7.033 -4.9962  0.3234 -0.9523
 4211SOL    HW224096   4.678   4.330   6.911 -0.5390  1.3010  0.8629
 4212SOL     OW24097   1.118   3.899   4.762  0.0233 -0.0562 -0.6815
 4212SOL    HW124098   1.174   3.936   4.831 -1.0210  1.0478 -0.4365
 4212SOL    HW224099   1.139   3.806   4.778  1.7552 -0.3068 -4.3274
 4213SOL     OW24100   4.354   0.336   8.029  0.2040 -0.0654 -0.0357
 4213SOL    HW124101   4.307   0.380   7.958 -0.5159  0.8669  1.0050
 4213SOL    HW224102   4.347   0.393   8.106 -2.6735 -1.0966  0.4843
 4214SOL     OW24103   1.693   0.025   0.872  0.1526  0.3223 -0.0872
 4214SOL    HW124104   1.744   0.029   0.791 -0.3883  0.8483 -0.4035
 4214SOL    HW224105   1.655   0.113   0.877 -0.5799 -0.1914  3.7515
 4215SOL     OW24106   3.107   3.405  12.823  0.1517 -0.1325 -0.4978
 4215SOL    HW124107   3.054   3.404  12.743  0.7155  1.5216 -0.9058
 4215SOL    HW224108   3.160   3.326  12.810 -1.4164 -1.6314  2.4439
 4216SOL     OW24109   4.420   3.961  17.225 -0.1103  0.1667  0.2915
 4216SOL    HW124110   4.407   3.868  17.205 -0.4708  0.2323  0.2086
 4216SOL    HW224111   4.336   3.989  17.188 -1.4053 -0.3507  2.8776
 4217SOL     OW24112   1.692   2.956   2.746  0.3834 -0.0663 -0.0043
 4217SOL    HW124113   1.696   3.017   2.672 -0.0788 -2.2167 -1.7857
 4217SOL    HW224114   1.689   2.874   2.697 -0.1539 -0.6100  0.9452
 4218SOL     OW24115   1.024   4.570  12.921 -0.3113  0.5638 -0.5516
 4218SOL    HW124116   1.001   4.515  12.847 -0.1824 -1.8468  1.1837
 4218SOL    HW224117   1.002   4.660  12.897 -0.5753  0.9914  1.2391
 4219SOL     OW24118   0.200   3.976  12.442 -0.2452 -0.1877  0.1926
 4219SOL    HW124119   0.202   3.882  12.421  3.5854 -0.4699  1.7906
 4219SOL    HW224120   0.252   3.978  12.522  0.2924  0.7084 -0.1712
 4220SOL     OW24121   3.228   0.258   7.226 -0.5018 -0.5398  0.7186
 4220SOL    HW124122   3.272   0.178   7.255  1.3339 -1.0239 -3.4833
 4220SOL    HW224123   3.238   0.310   7.306  2.2951 -0.4536  0.3150
 4221SOL     OW24124   0.064   2.474  15.149 -0.4267 -0.3960 -0.7626
 4221SOL    HW124125   0.146   2.424  15.145 -0.5048 -0.5771  0.0366
 4221SOL    HW224126   0.096   2.548  15.098  0.0850  0.7314  1.2241
 4222SOL     OW24127   3.917   1.481  11.664  0.5959  0.2176 -0.5001
 4222SOL    HW124128   3.840   1.538  11.664  1.1364  0.9574 -0.7587
 4222SOL    HW224129   3.877   1.408  11.617 -3.4220  0.4674  2.5623
 4223SOL     OW24130   2.273   3.003   7.673 -0.1045  0.1266  0.1770
 4223SOL    HW124131   2.216   2.929   7.695  1.0127 -0.1977  1.9411
 4223SOL    HW224132   2.321   2.963   7.601 -2.0611  1.8679 -2.1059
 4224SOL     OW24133   0.471   2.541   3.723  0.8506  0.7503 -0.0294
 4224SOL    HW124134   0.465   2.612   3.787 -0.1220  0.0852  0.6120
 4224SOL    HW224135   0.385   2.543   3.680  0.7824 -0.5428  0.0552
 4225SOL     OW24136   1.050   0.005  17.591  0.3671 -0.4194  0.1516
 4225SOL    HW124137   1.063   0.066  17.663  1.3169 -2.0073  1.3059
 4225SOL    HW224138   1.132   0.010  17.541 -0.3114 -0.2423 -0.9617
 4226SOL     OW24139   3.603   4.592  14.873  0.4443  0.6185 -0.7471
 4226SOL    HW124140   3.553   4.577  14.954 -0.5782 -0.2218 -1.5409
 4226SOL    HW224141   3.633   4.507  14.841  0.1309  0.6432 -1.1001
 4227SOL     OW24142   0.431   2.477   3.056 -0.4418 -0.0189  0.1120
 4227SOL    HW124143   0.414   2.460   2.963  1.4885  1.2573 -0.4916
 4227SOL    HW224144   0.501   2.542   3.056  0.7743 -1.3217  2.9603
 4228SOL     OW24145   4.368   2.792  11.470  0.6972  0.0296 -0.5423
 4228SOL    HW124146   4.304   2.809  11.400  1.7185 -0.8682 -1.7113
 4228SOL    HW224147   4.328   2.710  11.499  0.2048 -0.6036 -2.9945
 4229SOL     OW24148   3.259   0.413   3.760 -0.5627  0.7154  0.5140
 4229SOL    HW124149   3.288   0.397   3.849  0.3031  0.3519  0.1651
 4229SOL    HW224150   3.311   0.492   3.750  1.1219 -0.4875 -0.2947
 4230SOL     OW24151   2.773   2.978   0.712  0.1592 -0.2831  0.2456
 4230SOL    HW124152   2.750   2.898   0.760 -0.0044 -0.2783  0.1753
 4230SOL    HW224153   2.854   2.954   0.669  0.8128  0.9763  0.7680
 4231SOL     OW24154   1.548   2.056   5.410  0.1526  0.1891  0.0989
 4231SOL    HW124155   1.501   1.974   5.392  1.3942 -0.8175  1.4890
 4231SOL    HW224156   1.472   2.114   5.418  0.2588  0.4821 -1.0133
 4232SOL     OW24157   2.353   3.036   5.385 -0.1383 -0.4279 -0.0588
 4232SOL    HW124158   2.384   2.954   5.348 -2.2290 -0.9363 -0.6937
 4232SOL    HW224159   2.425   3.068   5.439 -0.9138 -2.5931  2.2351
 4233SOL     OW24160   3.411   0.391   8.482  0.4306 -0.6747  0.0235
 4233SOL    HW124161   3.343   0.326   8.498 -0.7290  0.5575  0.0895
 4233SOL    HW224162   3.439   0.358   8.396  1.2626 -0.4078  0.1873
 4234SOL     OW24163   1.342   1.466   6.962 -0.0927  0.2429 -0.0855
 4234SOL    HW124164   1.358   1.460   7.056  0.5625 -1.0508 -0.2778
 4234SOL    HW224165   1.292   1.386   6.942 -0.0657 -0.0927  1.1912
 4235SOL     OW24166   1.502   2.824  17.155 -0.0109  0.0981 -0.5838
 4235SOL    HW124167   1.454   2.792  17.078 -0.2066 -0.7215 -0.1212
 4235SOL    HW224168   1.553   2.900  17.127  0.5746  0.7175  2.1988
 4236SOL     OW24169   2.430   4.209   7.073  0.2945 -0.4719 -0.2963
 4236SOL    HW124170   2.356   4.261   7.041  0.1422  0.5749  1.7567
 4236SOL    HW224171   2.496   4.278   7.073 -0.5155  0.3086 -0.4112
 4237SOL     OW24172   3.385   3.773   8.216  0.3565 -0.0393 -0.0099
 4237SOL    HW124173   3.319   3.707   8.238  0.3734 -0.3725 -0.9660
 4237SOL    HW224174   3.335   3.853   8.233  0.4331  0.4492 -2.1122
 4238SOL     OW24175   1.907   4.229   3.585  0.3811  0.3987  0.3879
 4238SOL    HW124176   1.863   4.158   3.538  0.8891  1.6123 -1.9323
 4238SOL    HW224177   1.938   4.272   3.505 -0.3613 -0.9448 -0.6402
 4239SOL     OW24178   1.785   4.690   8.016 -0.3746  0.1408  0.1232
 4239SOL    HW124179   1.708   4.706   7.963 -1.2978  0.9167  1.6988
 4239SOL    HW224180   1.866   4.722   7.976 -0.5449  0.3204 -0.0723
 4240SOL     OW24181   3.245   0.820   7.357  0.5385 -0.0523  0.3631
 4240SOL    HW124182   3.308   0.891   7.351 -1.4182  1.5282 -1.2398
 4240SOL    HW224183   3.172   0.852   7.304 -0.1267 -0.6391  0.9140
 4241SOL     OW24184   2.417   2.522   2.556  0.2393  0.1980  0.3016
 4241SOL    HW124185   2.392   2.569   2.635  1.7672  1.2445  0.1388
 4241SOL    HW224186   2.407   2.593   2.492  0.6752  0.6709  0.7678
 4242SOL     OW24187   0.679   0.147   9.184  0.3992 -0.6340 -0.1212
 4242SOL    HW124188   0.686   0.102   9.100  0.8972  3.0892 -2.1139
 4242SOL    HW224189   0.726   0.230   9.170 -1.3121  0.0949 -1.5577
 4243SOL     OW24190   0.581   2.293   5.622  0.2350  0.6163  0.4493
 4243SOL    HW124191   0.529   2.241   5.561  2.2876  0.3903 -1.0917
 4243SOL    HW224192   0.514   2.293   5.690 -2.6023  0.1725 -2.3444
 4244SOL     OW24193   0.129   4.169  15.105 -0.4811  0.0032 -0.1328
 4244SOL    HW124194   0.044   4.135  15.133 -0.7529  1.9714  1.5134
 4244SOL    HW224195   0.088   4.235  15.048  1.4932  0.8034 -0.6365
 4245SOL     OW24196   3.061   0.922   1.088  0.6272 -0.4094  0.1063
 4245SOL    HW124197   3.134   0.860   1.093 -1.1020 -2.4212  0.4205
 4245SOL    HW224198   2.985   0.885   1.044 -2.4267  2.2682  3.1478
 4246SOL     OW24199   1.960   3.676   2.736 -0.1228 -0.0355 -0.2741
 4246SOL    HW124200   1.935   3.751   2.788  0.5034 -0.4066  0.5529
 4246SOL    HW224201   2.046   3.650   2.770 -0.2859 -1.4080 -0.8830
 4247SOL     OW24202   3.249   1.363   0.070 -0.2332 -0.1959 -0.1860
 4247SOL    HW124203   3.323   1.403   0.025 -0.3345 -0.2428 -0.3979
 4247SOL    HW224204   3.247   1.284   0.015  2.5133 -0.5181  0.2159
 4248SOL     OW24205   2.084   1.934   8.050 -0.1626  0.1796 -0.3630
 4248SOL    HW124206   2.004   1.982   8.071 -0.3005 -0.7523  1.3009
 4248SOL    HW224207   2.093   1.957   7.958  0.0915  1.2800 -0.0637
 4249SOL     OW24208   1.117   4.597  16.471 -0.1782  0.2956  0.5008
 4249SOL    HW124209   1.133   4.510  16.435 -0.2459  0.1057  0.9220
 4249SOL    HW224210   1.199   4.639  16.445 -0.9503  0.6334 -1.3172
 4250SOL     OW24211   4.064   2.850   5.706  0.0408  0.5270  0.0972
 4250SOL    HW124212   3.992   2.914   5.700  0.2041  1.0038  3.3702
 4250SOL    HW224213   4.034   2.805   5.785 -1.2409  2.2115  0.5715
 4251SOL     OW24214   4.123   3.720   0.296 -0.3484  0.4674  0.9387
 4251SOL    HW124215   4.115   3.799   0.349 -0.1114  0.0209  1.6386
 4251SOL    HW224216   4.203   3.683   0.332 -1.6020 -2.2977  0.8973
 4252SOL     OW24217   2.482   1.835  11.788 -0.4342 -0.5807  0.1859
 4252SOL    HW124218   2.427   1.853  11.711  0.2105  1.8322  0.3029
 4252SOL    HW224219   2.552   1.784  11.746 -1.1015 -0.2901 -1.2796
 4253SOL     OW24220   2.297   2.359   4.647  0.2689  0.1279  0.0138
 4253SOL    HW124221   2.274   2.278   4.602  0.1114 -0.0835  0.4661
 4253SOL    HW224222   2.208   2.373   4.680 -0.6237  0.0945 -2.3863
 4254SOL     OW24223   1.930   0.159   6.968 -0.7830 -0.6500 -0.3359
 4254SOL    HW124224   1.976   0.104   6.905 -1.7451  0.2320 -1.8161
 4254SOL    HW224225   2.000   0.163   7.033 -1.1445 -0.7282  0.0617
 4255SOL     OW24226   1.138   3.491  11.828 -0.3006 -0.0004 -0.2139
 4255SOL    HW124227   1.191   3.438  11.768  1.4734  2.1117 -0.5104
 4255SOL    HW224228   1.079   3.420  11.855  1.3497 -1.2014  0.2582
 4256SOL     OW24229   3.352   1.438   4.404  0.1035  0.2025 -0.1219
 4256SOL    HW124230   3.321   1.511   4.458 -1.8470 -2.8049  2.8403
 4256SOL    HW224231   3.274   1.408   4.358  0.5483  1.4311 -1.6900
 4257SOL     OW24232   0.008   3.082   3.069 -0.5774  0.4057  0.1188
 4257SOL    HW124233   0.030   3.065   2.977 -0.7808 -0.0987  0.1614
 4257SOL    HW224234   0.088   3.060   3.115  0.6185 -1.0733 -2.6614
 4258SOL     OW24235   2.228   3.451   3.311  0.2253 -0.2638 -0.3010
 4258SOL    HW124236   2.169   3.415   3.377  0.2114  0.8394  0.3002
 4258SOL    HW224237   2.313   3.411   3.331 -0.5587 -1.4524  0.5987
 4259SOL     OW24238   1.355   1.771   1.626 -0.0313  0.2443 -0.2157
 4259SOL    HW124239   1.400   1.829   1.687  0.1819  0.0711 -0.2049
 4259SOL    HW224240   1.276   1.818   1.600 -1.3669 -1.6054  0.4806
 4260SOL     OW24241   0.954   2.667  12.881 -0.3131  0.2171 -0.3358
 4260SOL    HW124242   0.998   2.595  12.928 -0.0117  1.5599  1.4329
 4260SOL    HW224243   0.990   2.655  12.793  0.5946  0.9789 -0.0710
 4261SOL     OW24244   1.212   3.310   7.625  0.6894 -0.2413 -0.1092
 4261SOL    HW124245   1.251   3.335   7.542  0.8473 -1.1174 -0.3014
 4261SOL    HW224246   1.118   3.323   7.612  0.6394 -2.3212 -1.7168
 4262SOL     OW24247   3.883   0.224   8.630  0.1088 -0.3465  0.0356
 4262SOL    HW124248   3.794   0.259   8.624 -0.3932 -1.4309  1.1869
 4262SOL    HW224249   3.901   0.227   8.536  1.1215 -2.6508  0.1575
 4263SOL     OW24250   1.911   1.550  12.290  0.1648 -0.3895 -0.5972
 4263SOL    HW124251   1.844   1.529  12.225 -0.3700  2.6522 -0.9874
 4263SOL    HW224252   1.933   1.637  12.257 -0.1728  0.4312  1.3429
 4264SOL     OW24253   1.562   4.603   1.405 -0.2873 -0.4427 -0.0045
 4264SOL    HW124254   1.471   4.596   1.375 -0.7742 -1.8727  1.8146
 4264SOL    HW224255   1.613   4.563   1.334 -0.5166  0.0733 -0.4655
 4265SOL     OW24256   0.378   2.669  16.513  0.0192  0.1315 -0.2735
 4265SOL    HW124257   0.315   2.727  16.556 -0.0528  1.0602 -1.6365
 4265SOL    HW224258   0.401   2.614  16.587 -0.9693  0.1157  0.0190
 4266SOL     OW24259   0.937   1.951   7.188  0.1417 -0.8378 -0.0348
 4266SOL    HW124260   0.920   2.043   7.205  1.3261 -0.4490 -1.0026
 4266SOL    HW224261   0.915   1.926   7.098  2.0857  0.9392 -0.9938
 4267SOL     OW24262   0.081   3.674   5.256 -0.3772 -0.5218  0.2903
 4267SOL    HW124263   0.005   3.624   5.285 -1.2428  1.2250  1.0307
 4267SOL    HW224264   0.132   3.674   5.337  1.2051 -0.2725 -0.7111
 4268SOL     OW24265   2.584   2.533   4.533  0.4191  0.1230 -0.0948
 4268SOL    HW124266   2.665   2.487   4.556  0.3579 -0.4110 -0.9487
 4268SOL    HW224267   2.613   2.620   4.506 -0.6973  1.1370  1.9745
 4269SOL     OW24268   2.858   0.171   9.147 -0.0969 -0.5011  0.6582
 4269SOL    HW124269   2.809   0.112   9.090  0.6350 -0.9382  0.4976
 4269SOL    HW224270   2.821   0.259   9.139 -0.8434 -0.7891  0.8629
 4270SOL     OW24271   3.766   1.349  11.218  0.7265  0.4672  0.0406
 4270SOL    HW124272   3.763   1.358  11.123  0.8492  1.7014  0.1506
 4270SOL    HW224273   3.673   1.333  11.234  0.8655 -0.1982  0.1728
 4271SOL     OW24274   3.425   3.990  16.384  0.2909  0.2278  0.1495
 4271SOL    HW124275   3.516   3.964  16.371  0.1817 -0.0874  0.0155
 4271SOL    HW224276   3.432   4.082  16.358 -0.3990 -0.6374 -3.1922
 4272SOL     OW24277   1.708   4.091   5.388 -0.1286  0.0408  0.0752
 4272SOL    HW124278   1.778   4.112   5.450  0.6777 -0.8211 -0.5465
 4272SOL    HW224279   1.632   4.131   5.430 -0.8091 -0.7887 -0.3724
 4273SOL     OW24280   4.173   1.383   4.708  0.5063  0.0597 -0.0953
 4273SOL    HW124281   4.094   1.435   4.697 -0.4630 -1.2441  0.6993
 4273SOL    HW224282   4.145   1.328   4.781  0.3004  1.0830  0.5883
 4274SOL     OW24283   1.960   1.222   2.378 -0.1973 -0.2220  0.2466
 4274SOL    HW124284   1.871   1.252   2.361 -0.0276  1.8430  3.1598
 4274SOL    HW224285   2.004   1.306   2.393 -2.2480  0.9015 -0.0769
 4275SOL     OW24286   2.441   3.604  10.575 -0.4909 -0.2462 -0.1692
 4275SOL    HW124287   2.452   3.532  10.637 -2.4913 -0.1332  0.3056
 4275SOL    HW224288   2.525   3.606  10.529 -0.7681 -0.1238 -0.6744
 4276SOL     OW24289   1.654   4.600  13.338  0.1528 -0.0726 -0.6063
 4276SOL    HW124290   1.624   4.554  13.416 -2.9160 -2.0062 -2.9135
 4276SOL    HW224291   1.698   4.531  13.288  1.4895  0.1343  0.2859
 4277SOL     OW24292   3.571   0.769   4.021 -0.1965 -0.2208 -0.4144
 4277SOL    HW124293   3.660   0.801   4.009  0.5445 -2.4803 -0.9156
 4277SOL    HW224294   3.526   0.819   3.952 -1.3067  0.8165  1.0710
 4278SOL     OW24295   2.822   2.257  11.637 -0.2739 -0.1507  0.1502
 4278SOL    HW124296   2.914   2.234  11.651  0.2035  1.6037 -0.1268
 4278SOL    HW224297   2.831   2.346  11.603 -0.2730 -0.0345  0.4632
 4279SOL     OW24298   2.087   4.624   1.348 -1.0083 -0.4871  0.5941
 4279SOL    HW124299   2.077   4.706   1.299  0.5515 -0.8747 -0.3608
 4279SOL    HW224300   1.995   4.600   1.362 -1.4589  0.9192  0.0525
 4280SOL     OW24301   3.149   3.421   1.035 -0.2314  0.4001 -0.0699
 4280SOL    HW124302   3.068   3.370   1.040  1.7837 -2.6855  0.8715
 4280SOL    HW224303   3.131   3.504   1.078  3.3179  1.9353 -1.6076
 4281SOL     OW24304   1.976   3.461  13.711  0.3460  0.3998  0.2816
 4281SOL    HW124305   2.004   3.540  13.666  0.1866 -0.3299 -1.1227
 4281SOL    HW224306   2.032   3.397  13.666  2.3229  2.0987  0.3817
 4282SOL     OW24307   0.961   2.809  16.277  0.5166 -0.3700 -0.4227
 4282SOL    HW124308   0.945   2.889  16.227  0.1400  0.4449  0.9998
 4282SOL    HW224309   1.057   2.799  16.276  0.5228 -0.2801 -0.9168
 4283SOL     OW24310   1.474   0.012   9.461 -0.1813 -0.0599 -0.0759
 4283SOL    HW124311   1.438   0.024   9.373 -1.7386  1.2608  0.7397
 4283SOL    HW224312   1.555   4.698   9.431 -1.4619 -1.1488 -2.0448
 4284SOL     OW24313   2.172   0.257   4.186  0.7388  0.0596  0.1653
 4284SOL    HW124314   2.143   0.169   4.159 -1.3876  0.6043  0.7277
 4284SOL    HW224315   2.262   0.264   4.152  0.2924 -3.9022 -1.9134
 4285SOL     OW24316   1.255   0.218   4.632  0.0752  0.5957  0.0143
 4285SOL    HW124317   1.234   0.176   4.549  1.2596  0.9236 -0.4378
 4285SOL    HW224318   1.346   0.192   4.646  0.2213  1.5551  0.8493
 4286SOL     OW24319   1.235   3.841   8.774 -0.9311 -0.0837 -0.1715
 4286SOL    HW124320   1.180   3.902   8.725  0.9193  1.1788 -0.7121
 4286SOL    HW224321   1.300   3.809   8.711 -1.5305  0.2162 -0.9387
 4287SOL     OW24322   4.355   3.728   5.187  0.0248 -0.3365 -0.2715
 4287SOL    HW124323   4.265   3.724   5.219 -0.1113 -1.3776 -0.8094
 4287SOL    HW224324   4.407   3.780   5.249 -0.3262  0.2361 -0.4633
 4288SOL     OW24325   0.543   2.402   0.002  0.5622  0.3997  0.2958
 4288SOL    HW124326   0.474   2.421   0.065 -0.2550 -1.4660 -0.0453
 4288SOL    HW224327   0.619   2.404   0.061  1.0984  2.1012 -0.4466
 4289SOL     OW24328   0.537   3.758  12.897  0.1480 -0.4088  0.4884
 4289SOL    HW124329   0.468   3.732  12.836  0.4795 -1.6557  0.6432
 4289SOL    HW224330   0.576   3.838  12.864 -2.3676 -0.3613 -2.4662
 4290SOL     OW24331   0.921   4.395   2.472  0.4128  0.5024  0.2070
 4290SOL    HW124332   0.998   4.395   2.528  0.9493 -0.3712 -0.5363
 4290SOL    HW224333   0.893   4.487   2.469  0.1499  0.3943 -0.8970
 4291SOL     OW24334   0.690   1.771   3.340 -0.1072 -0.1809  0.0721
 4291SOL    HW124335   0.755   1.841   3.334  1.2013 -1.5561 -1.9388
 4291SOL    HW224336   0.627   1.783   3.269  1.1144  1.4464 -0.7500
 4292SOL     OW24337   1.027   1.321   1.334  0.0668  0.1519 -0.3542
 4292SOL    HW124338   0.957   1.322   1.400  0.3226  1.0907 -0.0904
 4292SOL    HW224339   1.028   1.227   1.316  1.1035  0.2959 -1.0366
 4293SOL     OW24340   2.505   3.605   6.795 -0.2041  0.1893  0.5380
 4293SOL    HW124341   2.429   3.567   6.839 -1.1525 -1.0207 -2.1457
 4293SOL    HW224342   2.467   3.685   6.761 -2.0620 -0.2883  1.4765
 4294SOL     OW24343   4.604   2.253   8.807 -0.1656 -0.1476 -0.1928
 4294SOL    HW124344   4.549   2.183   8.771  1.5060 -0.1865 -2.6504
 4294SOL    HW224345   4.551   2.324   8.769 -1.1958 -0.8266 -0.0203
 4295SOL     OW24346   3.286   2.798   5.678 -0.4360 -0.0529  0.1661
 4295SOL    HW124347   3.266   2.739   5.751 -0.7221 -0.3889 -0.1798
 4295SOL    HW224348   3.350   2.749   5.626 -0.6498 -1.6925  1.4498
 4296SOL     OW24349   3.171   3.038   5.666  0.2082 -0.1963 -0.2353
 4296SOL    HW124350   3.177   2.943   5.679  1.0667  0.0908  1.5235
 4296SOL    HW224351   3.244   3.059   5.609  0.1188 -1.2722 -0.7524
 4297SOL     OW24352   3.963   2.153  16.690 -0.0290 -0.4420  0.0205
 4297SOL    HW124353   3.974   2.060  16.672 -0.0047 -0.3842 -0.2631
 4297SOL    HW224354   3.958   2.180  16.598 -1.5046 -1.1959 -0.1307
 4298SOL     OW24355   1.787   2.659   5.009 -0.5124 -0.0395 -0.1803
 4298SOL    HW124356   1.749   2.587   5.059  0.9190 -1.0970 -0.6278
 4298SOL    HW224357   1.789   2.736   5.067 -1.0451  0.2519 -0.5579
 4299SOL     OW24358   3.989   3.509  13.931  0.0177  0.2609  0.2694
 4299SOL    HW124359   3.945   3.533  13.850  1.3441 -0.3427 -0.6253
 4299SOL    HW224360   3.949   3.572  13.991  1.5381  0.6341  0.8881
 4300SOL     OW24361   3.401   4.405   6.429  0.0668  0.0183 -0.3090
 4300SOL    HW124362   3.381   4.464   6.502 -0.4114 -0.4866 -0.0328
 4300SOL    HW224363   3.452   4.341   6.480  0.9796  0.8138 -0.2201
 4301SOL     OW24364   2.040   2.507  11.346 -0.6706  0.2947 -0.5328
 4301SOL    HW124365   1.980   2.434  11.329 -0.1124 -0.6875  1.7643
 4301SOL    HW224366   1.980   2.560  11.397 -0.6055  0.3005 -0.4625
 4302SOL     OW24367   3.430   0.814  14.856  0.1684 -0.2531  0.2755
 4302SOL    HW124368   3.402   0.787  14.769  0.2948 -1.2175  0.5383
 4302SOL    HW224369   3.365   0.884  14.863  0.5928  0.0113  1.7268
 4303SOL     OW24370   1.516   2.126   3.806  0.7469 -0.6935 -0.4118
 4303SOL    HW124371   1.490   2.090   3.891  1.6189  0.6204  0.4214
 4303SOL    HW224372   1.504   2.221   3.813 -1.3154 -0.9424 -0.2889
 4304SOL     OW24373   3.897   2.063   1.496  0.1212  0.7354 -0.0295
 4304SOL    HW124374   3.913   2.155   1.477  0.0898  0.7902  0.2091
 4304SOL    HW224375   3.910   2.019   1.412 -1.0724 -0.2181  0.2836
 4305SOL     OW24376   0.714   4.605  13.838  0.1639  0.3900 -0.5790
 4305SOL    HW124377   0.755   4.539  13.894  1.2170  2.4662  1.0952
 4305SOL    HW224378   0.661   4.642  13.909 -1.9918 -1.2983 -1.3347
 4306SOL     OW24379   0.891   2.158  16.218  0.5761 -0.2742  0.5982
 4306SOL    HW124380   0.835   2.099  16.267 -2.2219  1.6806 -0.2391
 4306SOL    HW224381   0.877   2.115  16.134  0.5402 -1.3029  1.1395
 4307SOL     OW24382   4.631   2.329   7.215  0.3202 -0.6167 -0.5488
 4307SOL    HW124383   4.705   2.385   7.241  0.5678 -1.2590  0.1285
 4307SOL    HW224384   4.564   2.397   7.212  2.5702  1.6179 -0.9812
 4308SOL     OW24385   2.845   4.363   2.759  0.6806 -0.5293  0.0475
 4308SOL    HW124386   2.799   4.313   2.691 -0.2505  0.6903 -0.2155
 4308SOL    HW224387   2.835   4.454   2.732 -1.2450 -0.8282 -0.2484
 4309SOL     OW24388   3.854   1.487   5.489  0.7561 -0.3485  0.0210
 4309SOL    HW124389   3.812   1.565   5.525  1.6423  0.1152  0.0668
 4309SOL    HW224390   3.915   1.541   5.439 -0.8067 -0.1439 -1.6131
 4310SOL     OW24391   1.063   4.684  13.273 -0.2906  0.0520  0.6443
 4310SOL    HW124392   1.038   0.026  13.210  0.9129 -0.6608 -0.6195
 4310SOL    HW224393   0.997   4.692  13.341 -0.8983  0.3318  0.0231
 4311SOL     OW24394   3.843   1.920   6.073 -0.4925  1.0285 -0.0612
 4311SOL    HW124395   3.791   1.960   6.142  0.3462 -0.0120  1.1842
 4311SOL    HW224396   3.932   1.940   6.102 -0.2371  1.8972 -1.4259
 4312SOL     OW24397   3.351   4.653   8.342 -0.5128  0.4076  0.0279
 4312SOL    HW124398   3.416   4.717   8.372  1.6112 -2.0414  0.6777
 4312SOL    HW224399   3.389   4.626   8.259  0.4376  2.3374 -0.1733
 4313SOL     OW24400   3.069   3.866  15.352 -0.0822  0.5270  0.5742
 4313SOL    HW124401   3.134   3.910  15.296 -0.6684 -0.1297 -0.6241
 4313SOL    HW224402   3.006   3.831  15.289  0.2687  1.6450 -0.4043
 4314SOL     OW24403   1.842   1.827   7.605 -0.2928 -1.0931 -0.7145
 4314SOL    HW124404   1.890   1.753   7.570  0.8832 -0.3885 -0.5808
 4314SOL    HW224405   1.817   1.866   7.522 -1.0389 -0.5545 -0.2425
 4315SOL     OW24406   1.995   3.346   1.175 -0.1987  0.2508 -0.4347
 4315SOL    HW124407   1.933   3.343   1.102 -1.6017 -3.2179  0.8537
 4315SOL    HW224408   2.075   3.382   1.136  0.7334 -2.4366 -1.0390
 4316SOL     OW24409   0.950   2.555   1.122  0.5379  0.2949  0.1771
 4316SOL    HW124410   1.013   2.535   1.052  2.5639  1.1240  1.7617
 4316SOL    HW224411   0.965   2.650   1.120 -1.4028  0.5982  0.0888
 4317SOL     OW24412   3.994   0.054  14.167 -0.0748  0.0213  0.2064
 4317SOL    HW124413   4.085   0.040  14.193  0.2839  2.8725  0.4767
 4317SOL    HW224414   4.002   0.082  14.076 -4.2669 -1.9786 -0.7849
 4318SOL     OW24415   0.141   2.666  15.416  0.0888 -0.5298 -0.2196
 4318SOL    HW124416   0.236   2.672  15.422 -0.1946  1.0968  2.3114
 4318SOL    HW224417   0.118   2.743  15.363 -2.0011  0.1156  1.6407
 4319SOL     OW24418   2.384   1.724   7.006  0.2039  0.2577  0.1096
 4319SOL    HW124419   2.443   1.722   7.082  0.1083 -0.7306  0.1589
 4319SOL    HW224420   2.318   1.789   7.028  3.3838  3.7778 -0.7232
 4320SOL     OW24421   2.096   3.011   9.719  0.0596  0.2801  0.0432
 4320SOL    HW124422   2.131   3.099   9.732 -1.7801  1.3053 -1.9300
 4320SOL    HW224423   2.171   2.954   9.735 -0.0533  0.1152 -0.0170
 4321SOL     OW24424   0.592   2.242   5.287 -0.3094 -0.0469  0.4835
 4321SOL    HW124425   0.599   2.168   5.347  0.6134  0.4804  1.0251
 4321SOL    HW224426   0.517   2.284   5.328 -0.2740  0.4076  0.0821
 4322SOL     OW24427   4.497   2.028   8.674 -0.2506  0.4228 -0.2727
 4322SOL    HW124428   4.410   2.009   8.708  0.4684  3.4498  3.1463
 4322SOL    HW224429   4.542   1.951   8.708  2.1816  2.5814  1.3324
 4323SOL     OW24430   2.403   0.127   2.913 -0.5150 -0.8110 -0.2127
 4323SOL    HW124431   2.312   0.111   2.887 -0.6883  1.8372 -1.2198
 4323SOL    HW224432   2.454   0.119   2.832  0.9544  2.7968  0.3513
 4324SOL     OW24433   0.586   1.052   0.802 -0.1149  0.7086 -0.1425
 4324SOL    HW124434   0.568   0.973   0.854  0.9566  1.0699  0.7734
 4324SOL    HW224435   0.559   1.125   0.858  1.2433  0.3436  0.9878
 4325SOL     OW24436   3.169   4.092   2.518 -0.1613 -0.4264 -0.5246
 4325SOL    HW124437   3.264   4.091   2.509 -0.2255 -2.9463 -0.9024
 4325SOL    HW224438   3.151   4.033   2.445 -0.7124  1.1094 -1.6341
 4326SOL     OW24439   2.595   4.649   2.017  0.1178  0.2078  0.1280
 4326SOL    HW124440   2.553   4.565   2.002  0.7222 -0.6267  3.1449
 4326SOL    HW224441   2.553   4.697   1.946 -0.5952  0.3801  0.6603
 4327SOL     OW24442   1.874   1.950  17.362 -0.7091  0.2468  0.1281
 4327SOL    HW124443   1.815   2.026  17.364  2.6118  2.8040  0.5416
 4327SOL    HW224444   1.813   1.897  17.310 -1.4606  2.0783 -0.8444
 4328SOL     OW24445   2.875   3.938  14.340  0.0489  0.0078  0.2191
 4328SOL    HW124446   2.872   3.861  14.397  1.3831  0.0102  0.2859
 4328SOL    HW224447   2.810   3.994  14.384  0.6278  0.7593  0.1208
 4329SOL     OW24448   4.315   2.916   7.692  0.4944  0.4454 -0.5053
 4329SOL    HW124449   4.293   2.827   7.721 -3.2042  1.6024  0.3287
 4329SOL    HW224450   4.373   2.892   7.620  0.9818 -1.2296  0.4395
 4330SOL     OW24451   0.111   2.184   2.502 -0.0516  0.0643 -0.2510
 4330SOL    HW124452   0.056   2.237   2.560 -1.4261 -1.1314 -0.4524
 4330SOL    HW224453   0.055   2.148   2.434 -3.5524  3.2910  0.9534
 4331SOL     OW24454   2.098   4.126   1.428 -0.0089 -0.2240 -0.7487
 4331SOL    HW124455   2.026   4.064   1.440 -0.4067  0.9490  2.9459
 4331SOL    HW224456   2.050   4.200   1.392  0.0944  0.4831  0.5599
 4332SOL     OW24457   4.577   3.854  15.975 -0.1576  0.2040  0.4746
 4332SOL    HW124458   4.653   3.910  15.991 -1.1048  1.6315 -0.0440
 4332SOL    HW224459   4.550   3.837  16.065  2.3335 -1.1029  0.9710
 4333SOL     OW24460   3.075   2.989  11.292 -0.1675 -0.1277 -0.4037
 4333SOL    HW124461   3.073   3.082  11.268 -0.8227  0.1899  0.8934
 4333SOL    HW224462   2.992   2.969  11.248  0.6542 -1.3590 -1.3778
 4334SOL     OW24463   4.253   3.353   0.884 -0.0543 -0.5784  0.1102
 4334SOL    HW124464   4.270   3.420   0.818  1.5119  1.4187  2.5608
 4334SOL    HW224465   4.247   3.407   0.963  0.2056  0.0245 -0.2827
 4335SOL     OW24466   1.176   1.859   2.319  0.2943 -0.1087 -0.1352
 4335SOL    HW124467   1.153   1.839   2.229 -0.5982  0.2642  0.0112
 4335SOL    HW224468   1.149   1.782   2.369  1.8115  1.3715  2.9567
 4336SOL     OW24469   2.194   4.141  14.365  0.6761 -0.4699  0.6686
 4336SOL    HW124470   2.276   4.180  14.398  0.9156 -0.0104 -0.4935
 4336SOL    HW224471   2.135   4.200  14.412 -0.6809 -1.7299  0.5478
 4337SOL     OW24472   1.725   2.834  15.959  0.0724 -0.2989  0.1888
 4337SOL    HW124473   1.653   2.898  15.959 -0.0213 -0.3953  1.0679
 4337SOL    HW224474   1.770   2.872  16.035  0.4137 -1.8694  0.7722
 4338SOL     OW24475   0.700   2.483   7.316  0.2796 -0.1220  0.3502
 4338SOL    HW124476   0.787   2.470   7.354  1.1978  0.3058 -1.6079
 4338SOL    HW224477   0.642   2.449   7.385  0.3674 -3.1184 -1.0355
 4339SOL     OW24478   2.382   0.461   1.799 -0.1940  0.1280 -0.7064
 4339SOL    HW124479   2.410   0.421   1.881  0.0586 -1.6347 -1.6678
 4339SOL    HW224480   2.416   0.550   1.807 -0.3849  0.0457  1.0316
 4340SOL     OW24481   4.078   2.423  11.644 -0.2171 -0.1570  0.2170
 4340SOL    HW124482   4.018   2.421  11.719 -0.0063 -0.6965  0.3684
 4340SOL    HW224483   4.123   2.339  11.651 -0.5497 -0.1253  2.8402
 4341SOL     OW24484   0.274   0.432   4.635  0.6966 -0.3644 -0.1434
 4341SOL    HW124485   0.331   0.356   4.641 -0.0977 -1.1703 -2.6946
 4341SOL    HW224486   0.254   0.457   4.725  2.0607  1.1346 -0.2560
 4342SOL     OW24487   2.978   2.773  10.787  0.0741 -0.0236 -0.6838
 4342SOL    HW124488   2.903   2.741  10.737 -0.6320 -0.7234  0.7953
 4342SOL    HW224489   3.053   2.735  10.742  0.2756 -0.4170 -0.0087
 4343SOL     OW24490   0.051   0.270   4.199 -0.3840  0.0533  0.2215
 4343SOL    HW124491   0.070   0.261   4.293  0.6468 -1.4369 -0.1271
 4343SOL    HW224492   4.685   0.249   4.192 -0.6375  0.9040  1.0563
 4344SOL     OW24493   2.240   3.876   2.446 -0.0152 -0.1478 -0.5016
 4344SOL    HW124494   2.158   3.826   2.436 -0.2627  0.3040 -0.6991
 4344SOL    HW224495   2.278   3.818   2.513  2.3616  2.1991  0.1731
 4345SOL     OW24496   4.333   0.101  16.171 -0.1181 -0.4364  0.1927
 4345SOL    HW124497   4.242   0.131  16.161  0.3823  0.8323 -0.5173
 4345SOL    HW224498   4.373   0.184  16.199 -0.9682 -0.5984  1.8792
 4346SOL     OW24499   2.351   2.790   7.963  0.2496 -0.2789 -0.6340
 4346SOL    HW124500   2.366   2.885   7.967  0.9718 -0.3889 -0.7042
 4346SOL    HW224501   2.442   2.762   7.960  0.6680  0.9709  0.0773
 4347SOL     OW24502   0.287   2.159   5.252  0.3182 -0.0633  0.1758
 4347SOL    HW124503   0.275   2.064   5.260 -0.0975  0.2756  3.8171
 4347SOL    HW224504   0.262   2.198   5.169 -3.7896  2.4417  2.6265
 4348SOL     OW24505   3.896   2.216  15.678  0.2952 -0.2104  0.1869
 4348SOL    HW124506   3.898   2.297  15.730  1.7276 -0.4412  0.4945
 4348SOL    HW224507   3.813   2.228  15.633  0.0390 -1.2660  0.3787
 4349SOL     OW24508   4.083   4.653   7.332  0.6405 -0.1676  0.1964
 4349SOL    HW124509   4.019   4.723   7.346  1.5122  1.0478 -1.8157
 4349SOL    HW224510   4.137   4.646   7.411  0.3190  1.0959  0.5254
 4350SOL     OW24511   4.617   4.265   5.199 -0.2385  1.0143 -0.6865
 4350SOL    HW124512   4.543   4.254   5.259  0.8520  2.3307  0.9320
 4350SOL    HW224513   4.631   4.175   5.171 -2.2199  0.7681 -0.8848
 4351SOL     OW24514   3.234   1.772   5.519  0.1553 -0.2049  0.7977
 4351SOL    HW124515   3.211   1.827   5.443  1.0078 -2.0750 -0.8213
 4351SOL    HW224516   3.145   1.750   5.543  0.5037 -1.9096  0.5555
 4352SOL     OW24517   4.456   2.560   2.137 -0.4582  0.4147 -0.0535
 4352SOL    HW124518   4.365   2.576   2.113 -0.0643  3.9528  0.9330
 4352SOL    HW224519   4.482   2.551   2.045  1.3887  0.0524  0.4941
 4353SOL     OW24520   2.048   3.398   3.519  0.3163  0.3196  0.3001
 4353SOL    HW124521   2.100   3.413   3.598  0.2302  0.0148  0.4128
 4353SOL    HW224522   2.008   3.485   3.521 -1.1922 -0.3654 -0.3279
 4354SOL     OW24523   0.117   0.302  13.543 -0.6673 -0.2416 -0.1596
 4354SOL    HW124524   0.045   0.359  13.569 -0.4515 -1.6924  3.6936
 4354SOL    HW224525   0.119   0.312  13.448 -0.2906 -1.4612 -0.2787
 4355SOL     OW24526   2.954   4.230   8.353 -1.0013  0.1654 -0.4227
 4355SOL    HW124527   2.880   4.200   8.300 -1.0016  0.3038 -0.5017
 4355SOL    HW224528   2.909   4.263   8.431  0.9559 -1.4320  1.3735
 4356SOL     OW24529   2.106   2.436   7.005 -0.7718 -0.5231  0.6705
 4356SOL    HW124530   2.135   2.503   7.067  1.2639 -0.1257 -0.7001
 4356SOL    HW224531   2.185   2.430   6.951 -1.6732 -1.4846 -0.5434
 4357SOL     OW24532   2.158   3.437   2.691 -0.1498  0.2452 -0.1325
 4357SOL    HW124533   2.113   3.366   2.737  1.8930 -1.1891 -0.3012
 4357SOL    HW224534   2.164   3.493   2.769  0.6324  1.3315 -0.9706
 4358SOL     OW24535   0.010   0.226   9.583  0.2921  0.0442  0.1150
 4358SOL    HW124536   4.718   0.272   9.501 -0.6998 -3.2366 -1.4763
 4358SOL    HW224537   0.025   0.298   9.645  0.9791  1.0309 -1.1911
 4359SOL     OW24538   4.237   0.675   9.164  0.7695  0.1927  0.1004
 4359SOL    HW124539   4.256   0.673   9.071 -0.3804  0.1469 -0.1281
 4359SOL    HW224540   4.167   0.740   9.158 -1.6468 -2.5025 -0.3723
 4360SOL     OW24541   0.373   3.962   8.731 -0.1325 -0.4622  0.0882
 4360SOL    HW124542   0.319   3.890   8.699 -0.6990 -0.1200  0.2857
 4360SOL    HW224543   0.456   3.923   8.702 -0.0566  0.0354 -0.3752
 4361SOL     OW24544   4.289   3.032   8.053 -0.1432  0.1486 -0.2647
 4361SOL    HW124545   4.275   3.126   8.042 -1.3752 -0.2053 -1.7573
 4361SOL    HW224546   4.206   3.003   8.090  0.2434 -0.0196  0.4714
 4362SOL     OW24547   2.428   2.449   8.854 -0.2749  0.1814  0.2949
 4362SOL    HW124548   2.339   2.421   8.829 -0.1164 -0.4675  0.4576
 4362SOL    HW224549   2.434   2.435   8.949  0.3305 -1.1929  0.0571
 4363SOL     OW24550   1.692   2.302   4.933  0.1203  0.1084  0.1399
 4363SOL    HW124551   1.613   2.249   4.939 -0.2835  0.6575 -0.3693
 4363SOL    HW224552   1.686   2.336   5.022  4.0990  0.4776  0.2829
 4364SOL     OW24553   2.273   3.619  17.545  0.2102  0.6235  0.1849
 4364SOL    HW124554   2.213   3.638  17.472  0.8430 -3.2966 -1.3458
 4364SOL    HW224555   2.294   3.527  17.529 -1.0287  0.1515  1.2200
 4365SOL     OW24556   2.537   1.044   7.372 -0.3407 -0.1532 -0.3694
 4365SOL    HW124557   2.576   1.114   7.320 -0.1279 -0.2527 -0.3478
 4365SOL    HW224558   2.606   1.052   7.439  0.0526  1.1102 -0.9218
 4366SOL     OW24559   2.898   1.733  10.610 -0.8144 -0.9010 -0.0067
 4366SOL    HW124560   2.851   1.724  10.693 -1.1950 -0.6527 -0.1939
 4366SOL    HW224561   2.941   1.648  10.602  0.5383 -0.2418  0.2740
 4367SOL     OW24562   3.044   3.633   1.506 -0.5924  0.5752  0.4879
 4367SOL    HW124563   2.970   3.578   1.481 -0.8795  1.0882  0.2040
 4367SOL    HW224564   3.000   3.691   1.569  0.1920  1.1327  0.5227
 4368SOL     OW24565   0.736   1.895   6.602  0.1396 -0.0604  0.6692
 4368SOL    HW124566   0.717   1.986   6.580  0.8480  0.0437  0.4871
 4368SOL    HW224567   0.650   1.859   6.625  0.6617 -1.1150  1.0011
 4369SOL     OW24568   2.458   1.574   0.128  0.1953 -0.0936  0.4333
 4369SOL    HW124569   2.483   1.515   0.199  1.8900 -1.3264 -1.1605
 4369SOL    HW224570   2.374   1.605   0.162 -0.9018 -1.1996 -1.1970
 4370SOL     OW24571   0.695   0.081  14.709  0.3692  0.3797 -0.1153
 4370SOL    HW124572   0.680   4.717  14.680 -1.7306  0.9088 -0.6793
 4370SOL    HW224573   0.623   0.123  14.662  1.1579 -0.4868 -2.1085
 4371SOL     OW24574   1.756   1.978  13.683 -0.1961  0.5270  0.4230
 4371SOL    HW124575   1.695   1.906  13.692  2.0899 -1.7540 -2.2618
 4371SOL    HW224576   1.758   2.006  13.774  0.6622  1.7766  0.0193
 4372SOL     OW24577   2.320   1.416  10.082 -0.3748  0.0915 -0.5931
 4372SOL    HW124578   2.356   1.476  10.148 -2.2320 -1.1779  1.5700
 4372SOL    HW224579   2.394   1.388  10.029  0.6707  0.2985  0.7669
 4373SOL     OW24580   3.951   0.960   8.044  0.0638 -0.5547  0.6427
 4373SOL    HW124581   3.872   0.907   8.044  1.1783 -2.2174  1.9695
 4373SOL    HW224582   4.015   0.890   8.056  1.7817  0.6204 -1.6901
 4374SOL     OW24583   3.623   0.351   3.779  0.3870 -0.2872  0.1782
 4374SOL    HW124584   3.610   0.409   3.854 -0.9784  2.0530 -1.8449
 4374SOL    HW224585   3.718   0.345   3.773  0.2761 -1.8871  0.1731
 4375SOL     OW24586   0.726   4.539   4.768 -0.0100 -0.6374 -0.3111
 4375SOL    HW124587   0.754   4.630   4.759 -1.1504 -0.3769 -1.2059
 4375SOL    HW224588   0.806   4.499   4.801  0.8497  0.9321 -0.4966
 4376SOL     OW24589   4.298   4.342   3.691 -0.0324  0.1230  0.0690
 4376SOL    HW124590   4.364   4.327   3.624  0.3942  1.5771  0.1563
 4376SOL    HW224591   4.222   4.329   3.634  0.0340  1.3318 -0.2982
 4377SOL     OW24592   0.937   3.222   7.419 -0.7623  0.0446  0.4646
 4377SOL    HW124593   0.970   3.135   7.400  0.7301  0.5455  0.7924
 4377SOL    HW224594   0.937   3.263   7.332  0.9048  0.4598  0.6586
 4378SOL     OW24595   3.438   1.010   5.072  0.5093  0.3066 -0.2359
 4378SOL    HW124596   3.416   0.963   4.992 -2.1332 -3.0429  2.4581
 4378SOL    HW224597   3.525   1.043   5.051 -0.1047  0.2895 -2.8156
 4379SOL     OW24598   3.095   4.247   5.410 -0.0891  0.3176 -0.4369
 4379SOL    HW124599   3.158   4.304   5.454 -2.1443 -0.0736  2.9960
 4379SOL    HW224600   3.153   4.194   5.354  2.2362  1.8514  0.5234
 4380SOL     OW24601   4.549   2.310  11.859 -0.2982  0.3597  0.3957
 4380SOL    HW124602   4.631   2.320  11.811 -0.3556 -2.5891 -0.3440
 4380SOL    HW224603   4.503   2.348  11.785  1.8945 -0.0234 -1.1759
 4381SOL     OW24604   0.235   3.259   2.571 -0.3773 -0.1625 -0.3476
 4381SOL    HW124605   0.155   3.209   2.554 -0.1871 -1.2472  1.9006
 4381SOL    HW224606   0.288   3.198   2.622 -0.3981 -1.8876 -2.3925
 4382SOL     OW24607   3.280   2.471   0.706  0.3181  0.3864  0.2367
 4382SOL    HW124608   3.361   2.430   0.677 -0.1926 -0.3793 -0.1033
 4382SOL    HW224609   3.257   2.534   0.638  0.5273  0.1477 -0.0557
 4383SOL     OW24610   2.836   0.149   5.758  0.7007  0.1546  0.0147
 4383SOL    HW124611   2.839   0.238   5.721  1.5381  0.7159  1.4309
 4383SOL    HW224612   2.747   0.145   5.791  0.6532 -0.8827 -0.2495
 4384SOL     OW24613   4.210   3.204  11.718 -0.0214 -0.0160 -0.4727
 4384SOL    HW124614   4.251   3.120  11.699  2.7571  0.4701  3.3617
 4384SOL    HW224615   4.122   3.176  11.742  0.2665  0.8807  1.6348
 4385SOL     OW24616   3.892   2.035   5.635  0.3189  0.1977  0.1013
 4385SOL    HW124617   3.882   2.127   5.660 -1.9320  0.3375 -1.3258
 4385SOL    HW224618   3.859   2.032   5.546  0.6389 -0.4261  0.0007
 4386SOL     OW24619   3.121   2.738  11.164  0.2904 -0.2650  0.3650
 4386SOL    HW124620   3.110   2.714  11.256  1.6769  0.3661  0.6859
 4386SOL    HW224621   3.098   2.830  11.170 -4.0352 -1.3296  0.0925
 4387SOL     OW24622   1.832   2.499   5.659 -0.0353  0.0903 -0.0358
 4387SOL    HW124623   1.823   2.580   5.609  1.2417  0.7488  0.8083
 4387SOL    HW224624   1.924   2.477   5.648  0.8133  1.4083  4.3091
 4388SOL     OW24625   2.189   1.302  14.737  0.1162 -0.2262 -0.0149
 4388SOL    HW124626   2.225   1.361  14.670  0.6383  0.8254  1.2058
 4388SOL    HW224627   2.100   1.338  14.735  0.3829  0.4343  0.1506
 4389SOL     OW24628   4.319   1.079  16.755 -0.4644 -0.1859  0.0015
 4389SOL    HW124629   4.270   1.147  16.802  2.3640  2.0652 -0.2743
 4389SOL    HW224630   4.387   1.140  16.727 -1.0528  0.8731  0.8920
 4390SOL     OW24631   3.333   2.320  12.958 -0.1312  0.2270 -0.7219
 4390SOL    HW124632   3.289   2.388  13.009 -1.8789 -1.5047  0.0726
 4390SOL    HW224633   3.353   2.365  12.876 -1.3986 -1.7016 -2.0935
 4391SOL     OW24634   3.920   2.882   4.928 -0.4152  0.2479  0.0013
 4391SOL    HW124635   3.837   2.834   4.938 -0.6205  0.2204 -1.8176
 4391SOL    HW224636   3.935   2.911   5.018  2.4885 -0.5662 -0.2435
 4392SOL     OW24637   2.005   0.530   4.246 -0.3737  0.7620  0.1432
 4392SOL    HW124638   2.008   0.624   4.263 -2.8992  0.2957  3.1410
 4392SOL    HW224639   2.094   0.518   4.212 -0.2291 -1.3250  1.2944
 4393SOL     OW24640   0.212   2.987   3.248 -0.0646 -0.1937 -0.2509
 4393SOL    HW124641   0.293   2.948   3.215 -0.0637  0.3914 -0.9293
 4393SOL    HW224642   0.214   2.962   3.340  0.6846 -0.6925 -0.4036
 4394SOL     OW24643   4.266   2.928   7.066  0.2900  0.1699 -0.9559
 4394SOL    HW124644   4.278   2.993   7.135  1.7738 -0.2060 -0.8733
 4394SOL    HW224645   4.196   2.978   7.024 -0.5093  0.2887  0.5131
 4395SOL     OW24646   3.976   1.245   2.918 -0.6325 -0.1078  0.3533
 4395SOL    HW124647   3.937   1.160   2.899  1.0606 -0.4986 -1.5012
 4395SOL    HW224648   4.055   1.241   2.863  0.4335 -1.1189  1.9516
 4396SOL     OW24649   3.801   4.431  13.769  0.7222 -0.1367 -0.3682
 4396SOL    HW124650   3.786   4.495  13.699  0.3812 -0.5229 -0.6467
 4396SOL    HW224651   3.829   4.358  13.714  1.4647 -0.3182  0.2430
 4397SOL     OW24652   4.111   2.888   8.966 -0.3560 -0.2724  0.1665
 4397SOL    HW124653   4.156   2.881   9.050 -0.1738  0.2253  0.1100
 4397SOL    HW224654   4.034   2.839   8.995  0.1746 -0.4324  1.3100
 4398SOL     OW24655   2.441   2.641  12.898  0.0167  1.2298  0.2005
 4398SOL    HW124656   2.356   2.666  12.937 -0.1945  0.3509  0.3137
 4398SOL    HW224657   2.500   2.634  12.973 -0.6137 -1.6099  0.4207
 4399SOL     OW24658   3.584   1.915  10.545  0.1507 -0.4836 -0.3457
 4399SOL    HW124659   3.649   1.868  10.597 -0.2026 -0.1311  0.4237
 4399SOL    HW224660   3.535   1.839  10.515 -0.7226  0.1144 -0.4471
 4400SOL     OW24661   2.834   0.712   3.215 -0.4319 -0.3135 -0.2577
 4400SOL    HW124662   2.846   0.803   3.241 -0.0072 -0.1585 -1.0047
 4400SOL    HW224663   2.899   0.708   3.145  0.9847  2.3838  0.9015
 4401SOL     OW24664   1.231   2.102  11.715 -0.3922  0.3038 -0.1179
 4401SOL    HW124665   1.206   2.164  11.783 -0.9348  1.2929 -1.2294
 4401SOL    HW224666   1.294   2.145  11.657 -1.0753  1.5858  0.1161
 4402SOL     OW24667   2.424   1.387   7.710 -0.3686 -0.9699  0.2232
 4402SOL    HW124668   2.438   1.359   7.801 -0.0592 -1.6976 -0.0456
 4402SOL    HW224669   2.514   1.415   7.694 -0.9531  0.4661 -0.5308
 4403SOL     OW24670   4.273   0.742   3.365  0.1341  0.1910  0.2299
 4403SOL    HW124671   4.369   0.736   3.362  0.0465 -0.9518 -0.1938
 4403SOL    HW224672   4.259   0.809   3.431  3.1497  2.0461 -0.9804
 4404SOL     OW24673   2.320   4.052   8.783 -0.3980 -0.4614 -0.5224
 4404SOL    HW124674   2.312   4.113   8.710 -1.0722  0.6672  0.5113
 4404SOL    HW224675   2.348   4.110   8.854 -2.6654 -0.0470  0.0187
 4405SOL     OW24676   3.367   4.603   6.615  0.0563 -0.1916 -0.3160
 4405SOL    HW124677   3.304   4.670   6.588 -2.5697 -2.0017  1.3279
 4405SOL    HW224678   3.427   4.666   6.655  0.0718 -0.7229  0.5152
 4406SOL     OW24679   3.368   1.117  14.846 -0.2526 -0.4226  0.0240
 4406SOL    HW124680   3.340   1.083  14.761 -2.0742  1.0071  0.0582
 4406SOL    HW224681   3.459   1.138  14.823 -0.8044 -0.4124 -2.1222
 4407SOL     OW24682   0.012   3.702   4.698 -0.8500  0.0233  0.3149
 4407SOL    HW124683   4.696   3.757   4.633  0.9219  0.8329 -0.1649
 4407SOL    HW224684   4.692   3.716   4.780 -3.1262  2.6970 -1.4401
 4408SOL     OW24685   1.628   4.104   4.686  0.0115  0.0592 -0.1641
 4408SOL    HW124686   1.593   4.189   4.711 -1.6795 -0.8635  0.5739
 4408SOL    HW224687   1.635   4.059   4.770 -0.8414  0.8566  0.3278
 4409SOL     OW24688   4.133   2.670   4.943 -0.0158  0.0924  0.0062
 4409SOL    HW124689   4.090   2.742   4.896 -0.7616  0.2154  0.8696
 4409SOL    HW224690   4.187   2.720   5.004  2.0390 -0.0137 -1.7222
 4410SOL     OW24691   2.132   2.904   8.690  0.6156  0.4103  0.3109
 4410SOL    HW124692   2.165   2.830   8.639  2.0108 -0.0626  1.8890
 4410SOL    HW224693   2.075   2.948   8.626  0.5150 -0.9599 -0.5349
 4411SOL     OW24694   0.237   2.453   3.564  0.1812  0.0504  0.2023
 4411SOL    HW124695   0.159   2.479   3.514  1.2888  1.9182 -0.5725
 4411SOL    HW224696   0.299   2.436   3.492  0.3880 -2.8667  1.0867
 4412SOL     OW24697   0.097   2.977   8.386 -0.4552 -0.2449 -0.0215
 4412SOL    HW124698   0.093   2.900   8.329 -2.7284 -0.6665  0.7426
 4412SOL    HW224699   0.028   3.033   8.349 -1.5592 -1.4876  0.1657
 4413SOL     OW24700   2.856   2.875  17.522 -0.5760 -0.1860  0.5810
 4413SOL    HW124701   2.937   2.871  17.471  0.4612  2.4817  2.0402
 4413SOL    HW224702   2.896   2.849  17.605  0.2868 -2.5558 -0.5831
 4414SOL     OW24703   4.119   4.275   6.129 -0.1047  0.3344 -0.0331
 4414SOL    HW124704   4.028   4.255   6.108  0.2105 -1.3009  0.2105
 4414SOL    HW224705   4.121   4.370   6.118  0.3786  0.4203  0.8324
 4415SOL     OW24706   3.836   3.436  16.516  0.3061 -0.4678 -0.2954
 4415SOL    HW124707   3.861   3.385  16.438  0.2176 -0.0103 -0.6197
 4415SOL    HW224708   3.747   3.454  16.487  1.2253  1.7859 -1.7325
 4416SOL     OW24709   2.726   3.620  11.984  0.1934 -0.0340  0.4477
 4416SOL    HW124710   2.749   3.573  11.904  0.7001 -2.0208  1.7609
 4416SOL    HW224711   2.805   3.607  12.037  0.1833  1.8051  0.9402
 4417SOL     OW24712   3.831   2.055   6.338 -0.0540 -0.2073  0.1584
 4417SOL    HW124713   3.773   2.126   6.365  0.4886  0.1633  0.3438
 4417SOL    HW224714   3.897   2.104   6.289 -1.0977 -1.6662 -2.7318
 4418SOL     OW24715   1.036   4.403   4.607  0.1120 -0.0480 -0.2633
 4418SOL    HW124716   1.090   4.480   4.590  1.9240 -1.7272 -2.1117
 4418SOL    HW224717   1.029   4.377   4.515 -0.8162  0.2453 -0.2777
 4419SOL     OW24718   3.844   3.346   3.994 -0.4055 -0.1154 -0.0604
 4419SOL    HW124719   3.932   3.317   4.018  0.2740  0.0744 -2.3385
 4419SOL    HW224720   3.845   3.437   4.022  3.8878  0.0012 -0.6249
 4420SOL     OW24721   1.294   3.258   5.950 -0.1912 -0.2217  0.3875
 4420SOL    HW124722   1.249   3.335   5.982 -0.5069  0.0878 -0.8077
 4420SOL    HW224723   1.247   3.184   5.990  0.6670 -0.4652  0.9489
 4421SOL     OW24724   2.779   0.867  10.882 -0.0729  0.1452  0.5662
 4421SOL    HW124725   2.691   0.874  10.845 -0.7129  0.6782  2.1791
 4421SOL    HW224726   2.740   0.874  10.969 -0.8865  1.4331  0.1117
 4422SOL     OW24727   0.820   0.501   4.407 -0.0857 -0.6464  0.1043
 4422SOL    HW124728   0.809   0.592   4.433 -1.7550 -1.4291  2.1223
 4422SOL    HW224729   0.860   0.518   4.322  1.4802  0.0443  0.9823
 4423SOL     OW24730   3.749   4.287   5.118  0.0033  0.0750  0.3332
 4423SOL    HW124731   3.760   4.205   5.166  3.6338  1.0444  1.1720
 4423SOL    HW224732   3.795   4.268   5.036 -1.0171  0.1132 -0.2532
 4424SOL     OW24733   3.654   3.946   7.143  0.0409  0.0763 -0.0645
 4424SOL    HW124734   3.732   3.892   7.133 -0.5624 -0.5186 -1.6238
 4424SOL    HW224735   3.692   4.033   7.134  0.8356  0.0897  3.4227
 4425SOL     OW24736   2.848   4.597   6.233  0.0712 -0.2141 -0.4333
 4425SOL    HW124737   2.764   4.622   6.194 -0.1690 -2.5988 -1.4202
 4425SOL    HW224738   2.915   4.639   6.177 -0.0131 -0.8977 -1.0450
 4426SOL     OW24739   3.600   1.680   0.445  0.0119 -0.7173 -0.0009
 4426SOL    HW124740   3.637   1.675   0.534  1.5526 -2.6553 -0.7490
 4426SOL    HW224741   3.613   1.591   0.411  1.6166 -0.8591  0.9784
 4427SOL     OW24742   1.096   0.236   9.077 -0.0731 -0.1269 -0.0466
 4427SOL    HW124743   1.162   0.302   9.096 -0.2244  0.0473 -0.1277
 4427SOL    HW224744   1.017   0.280   9.109  0.5701  0.8333  0.1880
 4428SOL     OW24745   1.634   2.962   2.078 -0.6646  0.6242 -0.3186
 4428SOL    HW124746   1.677   2.927   2.000 -1.5396  2.5913 -1.6912
 4428SOL    HW224747   1.584   2.886   2.107 -1.0568 -0.1197 -2.9570
 4429SOL     OW24748   3.365   0.555   5.281 -0.5078 -0.3851  0.1907
 4429SOL    HW124749   3.443   0.603   5.252 -0.0973 -0.6657  0.8445
 4429SOL    HW224750   3.356   0.503   5.201  0.1391  0.0953 -0.1963
 4430SOL     OW24751   3.434   4.165  16.663  0.7176  0.2655 -0.1259
 4430SOL    HW124752   3.499   4.232  16.645 -1.0824  2.3950  1.2978
 4430SOL    HW224753   3.489   4.110  16.718 -1.1223 -0.6855  0.7842
 4431SOL     OW24754   0.328   1.529   0.984  0.2843 -0.1797 -0.4070
 4431SOL    HW124755   0.259   1.585   0.948  0.6330 -0.2708 -1.2083
 4431SOL    HW224756   0.410   1.555   0.944  0.4034 -0.4238 -0.3218
 4432SOL     OW24757   3.402   4.248   3.947  0.0275  0.5042 -0.2425
 4432SOL    HW124758   3.307   4.234   3.949 -0.3099  2.7360 -0.7387
 4432SOL    HW224759   3.416   4.268   3.855  0.2293  0.6879 -0.1706
 4433SOL     OW24760   2.022   2.030   5.849 -0.1481  0.0133  0.0593
 4433SOL    HW124761   1.955   2.098   5.842 -0.2960 -0.3621 -2.2640
 4433SOL    HW224762   2.043   2.050   5.940  2.0725  0.2328 -0.4958
 4434SOL     OW24763   1.840   2.942   3.084  0.5432 -0.0591 -0.2080
 4434SOL    HW124764   1.829   2.902   3.171  1.1942  0.4978  0.1303
 4434SOL    HW224765   1.909   2.890   3.043  0.5302 -0.8914  0.8023
 4435SOL     OW24766   3.007   3.085   7.254 -0.4520  0.2781  0.0159
 4435SOL    HW124767   2.912   3.074   7.257 -0.6409  1.4838 -1.2009
 4435SOL    HW224768   3.030   3.086   7.346 -1.6382  0.7560  0.3103
 4436SOL     OW24769   2.407   2.835   4.343 -0.1057  0.3991 -0.0033
 4436SOL    HW124770   2.407   2.775   4.269  1.0190 -1.0973  1.2037
 4436SOL    HW224771   2.346   2.792   4.402  1.2417 -1.9419 -0.3283
 4437SOL     OW24772   3.062   1.098   3.473  0.6845  0.1780  0.4417
 4437SOL    HW124773   3.048   1.118   3.566  0.3838  1.1317  0.1930
 4437SOL    HW224774   3.137   1.039   3.480  1.3732  0.9588 -0.2336
 4438SOL     OW24775   1.296   4.580  12.907 -0.7443 -0.2680  0.1247
 4438SOL    HW124776   1.313   4.497  12.952  0.5509  0.9381  1.8473
 4438SOL    HW224777   1.207   4.591  12.939 -0.3298  2.0983  0.4251
 4439SOL     OW24778   3.163   2.207   1.549  0.4970 -0.4783 -0.0710
 4439SOL    HW124779   3.223   2.175   1.616 -0.4602 -0.3824  0.8384
 4439SOL    HW224780   3.212   2.169   1.476  1.0616 -2.3179  1.2667
 4440SOL     OW24781   0.402   1.403  10.405  0.4598  0.0178 -0.6946
 4440SOL    HW124782   0.331   1.426  10.464  0.2583  0.2788 -1.0386
 4440SOL    HW224783   0.386   1.309  10.391  2.7859 -0.3320 -1.0308
 4441SOL     OW24784   4.584   4.326   7.613  0.7936 -0.4384  0.0331
 4441SOL    HW124785   4.662   4.323   7.558  1.5210  1.0682  0.9631
 4441SOL    HW224786   4.608   4.252   7.668  1.5877 -0.0588  0.1932
 4442SOL     OW24787   3.599   3.625  10.495 -0.2072 -0.4188 -0.2334
 4442SOL    HW124788   3.583   3.714  10.465 -1.0952 -0.5732 -0.2277
 4442SOL    HW224789   3.595   3.576  10.413 -0.8025  0.7064 -0.8610
 4443SOL     OW24790   2.729   1.306   5.873  0.7289  0.0315 -0.3235
 4443SOL    HW124791   2.765   1.381   5.826  0.1914  1.0151  0.8356
 4443SOL    HW224792   2.708   1.338   5.961  0.3983 -2.2363  0.4495
 4444SOL     OW24793   4.380   1.942   5.739 -0.0696  0.2233  0.3852
 4444SOL    HW124794   4.345   1.882   5.805 -1.7928 -1.8501 -2.3941
 4444SOL    HW224795   4.299   1.989   5.723  0.4710  0.1010 -2.6955
 4445SOL     OW24796   1.544   3.396   4.020 -0.0538  0.7192  0.3610
 4445SOL    HW124797   1.592   3.356   4.092 -1.6150 -1.3421  0.2470
 4445SOL    HW224798   1.585   3.346   3.949 -0.8807  0.4107  0.1040
 4446SOL     OW24799   2.281   2.016   9.147 -0.1145 -0.4451  0.9157
 4446SOL    HW124800   2.256   1.986   9.060 -0.6662 -0.7100  1.1666
 4446SOL    HW224801   2.221   1.976   9.210 -0.3686 -2.0799 -0.3760
 4447SOL     OW24802   1.662   3.750   1.366  0.0516 -0.1874  0.4831
 4447SOL    HW124803   1.578   3.721   1.330  0.6245 -0.1843 -0.8858
 4447SOL    HW224804   1.722   3.677   1.347  0.4343  0.0293  0.8630
 4448SOL     OW24805   3.759   3.978  10.014 -0.0733 -0.3857 -0.6896
 4448SOL    HW124806   3.844   3.966  10.057  0.3894  0.6156 -1.3396
 4448SOL    HW224807   3.765   4.060   9.965  0.3339 -0.5353 -0.8911
 4449SOL     OW24808   2.011   1.462  12.049 -0.0512 -0.3904  0.4622
 4449SOL    HW124809   2.035   1.475  12.141 -0.9978  2.2770  0.3263
 4449SOL    HW224810   1.928   1.416  12.057  0.6682 -1.2777  3.0472
 4450SOL     OW24811   3.878   0.408   9.254  0.2539  0.5781 -0.2054
 4450SOL    HW124812   3.959   0.387   9.208  0.5481 -0.3184  0.7194
 4450SOL    HW224813   3.824   0.340   9.214 -1.4256  1.2672  0.8851
 4451SOL     OW24814   0.041   1.240   5.473  0.3077 -0.1694 -0.3215
 4451SOL    HW124815   0.059   1.200   5.387 -1.4697 -1.7459  0.0233
 4451SOL    HW224816   4.691   1.294   5.452  1.6371  1.4631 -0.8865
 4452SOL     OW24817   3.870   2.948   6.119 -0.2153  0.2204  0.0710
 4452SOL    HW124818   3.797   3.010   6.115 -0.5893 -0.0850  2.0893
 4452SOL    HW224819   3.851   2.911   6.206 -2.5544 -0.4461 -0.7211
 4453SOL     OW24820   3.293   3.097   6.796  0.2284 -0.0852 -0.6878
 4453SOL    HW124821   3.226   3.162   6.815  2.0874  2.4302 -2.9107
 4453SOL    HW224822   3.246   3.032   6.743  1.0320 -1.7569  0.6309
 4454SOL     OW24823   0.087   2.096   6.864  0.3146 -0.3401  0.0998
 4454SOL    HW124824   0.012   2.142   6.903  0.9668  0.3037  0.5840
 4454SOL    HW224825   0.054   2.091   6.774  1.0810  0.1159 -0.2026
 4455SOL     OW24826   3.266   2.957  12.126 -0.1609 -0.0156 -0.3811
 4455SOL    HW124827   3.287   2.909  12.206 -1.2093  0.7428  0.3447
 4455SOL    HW224828   3.335   3.024  12.133 -0.7530  0.7176 -1.6132
 4456SOL     OW24829   3.504   2.785   4.801 -0.0457 -0.1341 -0.5995
 4456SOL    HW124830   3.447   2.719   4.839  3.6601 -3.9714 -1.7163
 4456SOL    HW224831   3.553   2.734   4.737 -0.1879 -1.2020  0.1549
 4457SOL     OW24832   3.920   1.490   7.059  0.2804 -0.2720  0.7473
 4457SOL    HW124833   3.974   1.453   6.989  1.5675  0.5617  1.2966
 4457SOL    HW224834   3.938   1.438   7.138  1.3470 -0.0073  0.6866
 4458SOL     OW24835   4.201   3.403   5.955  0.0737  0.3877  0.4925
 4458SOL    HW124836   4.253   3.334   5.915  0.6441  0.5496  0.9392
 4458SOL    HW224837   4.114   3.367   5.968  0.1553 -0.2683 -0.8008
 4459SOL     OW24838   2.744   3.870   4.668  0.1128  0.6346 -0.0689
 4459SOL    HW124839   2.753   3.788   4.619 -0.0940  0.9182 -0.5844
 4459SOL    HW224840   2.813   3.920   4.625  0.3405 -0.3152 -0.8228
 4460SOL     OW24841   2.190   3.515   7.576  0.2897 -0.0289 -0.1037
 4460SOL    HW124842   2.230   3.517   7.663 -0.5316  0.9073  0.2498
 4460SOL    HW224843   2.244   3.572   7.522  1.3220 -0.5700  0.3563
 4461SOL     OW24844   0.689   3.486   7.026  0.3606  0.0915 -0.9280
 4461SOL    HW124845   0.661   3.496   6.935  1.5423 -0.9128 -1.3973
 4461SOL    HW224846   0.690   3.578   7.053  0.6608 -0.1732 -0.0189
 4462SOL     OW24847   3.922   0.676  16.804  0.4492  0.1800  0.2569
 4462SOL    HW124848   3.843   0.713  16.842 -0.0700  0.6614 -1.2920
 4462SOL    HW224849   3.907   0.587  16.836 -2.3209  0.9334  1.0422
 4463SOL     OW24850   4.547   1.092   3.490  0.3345  0.1821  0.0910
 4463SOL    HW124851   4.486   1.147   3.442  0.3630  0.7341  0.6842
 4463SOL    HW224852   4.619   1.094   3.427 -0.1479 -1.0908 -0.5116
 4464SOL     OW24853   0.232   2.735   3.697  0.1367 -0.4401 -0.0657
 4464SOL    HW124854   0.284   2.733   3.616  1.0621 -0.6678  0.5287
 4464SOL    HW224855   0.257   2.818   3.738 -0.4131 -0.3119  0.0097
 4465SOL     OW24856   4.187   3.852   6.853  0.0600  0.1072 -0.6021
 4465SOL    HW124857   4.157   3.798   6.926 -1.1093  0.5990 -0.7141
 4465SOL    HW224858   4.181   3.795   6.776  0.0473 -0.3518 -0.2617
 4466SOL     OW24859   3.173   1.573   8.837 -0.2736 -0.0004  0.3380
 4466SOL    HW124860   3.234   1.532   8.898 -0.6736 -3.3175 -1.5388
 4466SOL    HW224861   3.088   1.574   8.882 -0.3191 -0.9597  0.2714
 4467SOL     OW24862   2.220   0.157   3.255  0.2932  0.1965  0.4166
 4467SOL    HW124863   2.193   0.084   3.311 -2.0963  1.6109  1.0985
 4467SOL    HW224864   2.304   0.124   3.223  0.1500  1.2617 -1.0483
 4468SOL     OW24865   4.003   1.456   4.964 -0.2973  0.5794  0.3754
 4468SOL    HW124866   3.917   1.480   4.996 -0.5542 -2.3090  1.8944
 4468SOL    HW224867   3.992   1.368   4.926 -0.1354 -0.3978  2.6123
 4469SOL     OW24868   2.491   4.474   2.615 -0.1275  0.3191  0.3670
 4469SOL    HW124869   2.478   4.381   2.596 -0.2144  0.7956 -1.9198
 4469SOL    HW224870   2.447   4.502   2.534  0.6449  1.0662  0.2025
 4470SOL     OW24871   3.439   0.609   3.749  0.4346 -0.0028 -0.2815
 4470SOL    HW124872   3.497   0.666   3.699 -0.9309  2.2546  0.7132
 4470SOL    HW224873   3.498   0.547   3.794 -1.3303 -0.8568  0.8669
 4471SOL     OW24874   2.028   3.447   0.441 -0.3212 -0.1472  0.4591
 4471SOL    HW124875   2.117   3.437   0.407 -1.2821 -0.9338 -1.8217
 4471SOL    HW224876   2.034   3.387   0.516  0.0672  0.3493  0.8286
 4472SOL     OW24877   1.833   3.468   2.280  0.0762 -0.5366 -0.3975
 4472SOL    HW124878   1.760   3.503   2.332 -0.6366 -1.7690 -0.5745
 4472SOL    HW224879   1.897   3.444   2.348 -0.7229 -2.9401 -0.4819
 4473SOL     OW24880   2.282   3.082   2.213  0.7466 -0.0346 -0.2505
 4473SOL    HW124881   2.250   3.021   2.146 -1.4351  3.0799 -2.0582
 4473SOL    HW224882   2.243   3.166   2.187  0.0733 -0.4561 -0.6038
 4474SOL     OW24883   2.600   0.518   2.992  0.1451 -0.6565  0.5928
 4474SOL    HW124884   2.679   0.475   2.961 -0.7863  0.0336 -2.7224
 4474SOL    HW224885   2.544   0.505   2.915 -1.0058  0.6495  1.2144
 4475SOL     OW24886   3.179   2.913   7.920 -0.1437 -0.7581 -0.3853
 4475SOL    HW124887   3.118   2.883   7.987  0.1199 -1.6873 -0.5630
 4475SOL    HW224888   3.121   2.948   7.851 -0.6088 -0.4579  0.1577
 4476SOL     OW24889   2.409   3.589   6.419 -0.3535  0.1065 -0.4230
 4476SOL    HW124890   2.405   3.606   6.325  0.9929  1.7064 -0.1715
 4476SOL    HW224891   2.361   3.505   6.423  1.5797 -1.0017 -0.8154
 4477SOL     OW24892   3.150   1.704  12.248 -0.7066  0.0700  0.1629
 4477SOL    HW124893   3.238   1.713  12.213 -0.0624  0.9040  2.0289
 4477SOL    HW224894   3.172   1.624  12.296  1.3405  0.4718 -0.1385
 4478SOL     OW24895   2.451   0.540   7.711 -0.6010 -0.2206  0.0805
 4478SOL    HW124896   2.541   0.547   7.743 -0.8089 -1.0360  0.8265
 4478SOL    HW224897   2.447   0.445   7.699 -0.8739 -0.2380  0.3118
 4479SOL     OW24898   0.443   0.263   4.152  0.0221 -0.2145  0.0789
 4479SOL    HW124899   0.422   0.182   4.107  1.6084 -0.9050  0.5810
 4479SOL    HW224900   0.374   0.318   4.114  0.5340 -0.0134 -0.5599
 4480SOL     OW24901   2.005   1.426   3.550 -0.0540  0.0752  0.4812
 4480SOL    HW124902   1.999   1.331   3.534  2.1491  0.2236 -1.1786
 4480SOL    HW224903   2.025   1.455   3.461 -1.0544 -0.2796  0.1400
 4481SOL     OW24904   1.338   3.997   7.027 -0.4966 -0.0220 -0.7296
 4481SOL    HW124905   1.392   4.058   7.077 -1.2626  0.1640 -0.1397
 4481SOL    HW224906   1.403   3.938   6.987 -3.1207 -3.4341  0.0829
 4482SOL     OW24907   4.454   4.594   6.703 -0.4634 -0.2236  0.3849
 4482SOL    HW124908   4.501   4.511   6.707  0.1351  0.0105 -1.6982
 4482SOL    HW224909   4.396   4.556   6.637  0.1169  1.6487 -1.2017
 4483SOL     OW24910   0.461   3.485   1.896  0.1340 -0.6568 -0.8060
 4483SOL    HW124911   0.506   3.548   1.952 -0.5235 -0.5302 -0.4104
 4483SOL    HW224912   0.530   3.428   1.863  1.8140  1.6188 -1.1639
 4484SOL     OW24913   1.499   4.341   2.706 -0.5470 -0.0263 -0.3822
 4484SOL    HW124914   1.478   4.272   2.770  1.0604 -1.2225 -1.1532
 4484SOL    HW224915   1.425   4.401   2.694  0.0942  0.6898 -0.7640
 4485SOL     OW24916   2.216   4.543   6.066  0.0421  0.0794 -0.4983
 4485SOL    HW124917   2.180   4.628   6.039 -0.5442  0.1591  0.5442
 4485SOL    HW224918   2.212   4.541   6.162  2.7817  3.0141 -0.3130
 4486SOL     OW24919   3.914   0.896  11.874 -0.0857  0.2327 -0.7468
 4486SOL    HW124920   3.912   0.973  11.818 -1.8118  0.0204 -0.9652
 4486SOL    HW224921   3.912   0.831  11.804  2.7618  2.8972 -3.3044
 4487SOL     OW24922   4.178   0.733   8.128  0.1680 -0.0585  0.2513
 4487SOL    HW124923   4.132   0.768   8.205  1.2904  0.3502  0.7249
 4487SOL    HW224924   4.191   0.643   8.157 -4.6416 -0.7985  0.2166
 4488SOL     OW24925   3.617   1.303   7.305 -0.7057 -0.0693 -0.3801
 4488SOL    HW124926   3.579   1.295   7.218 -2.7373  2.9563  0.2105
 4488SOL    HW224927   3.530   1.307   7.344 -0.0192  1.0153  1.0444
 4489SOL     OW24928   1.207   2.448   4.566 -0.1257 -0.2237 -0.0462
 4489SOL    HW124929   1.301   2.439   4.579 -0.6981 -1.9656  2.7542
 4489SOL    HW224930   1.171   2.489   4.644  0.8156  0.4711  0.0208
 4490SOL     OW24931   0.536   4.037   4.974  0.0821  0.0959  0.0963
 4490SOL    HW124932   0.489   4.108   4.931 -0.9366  0.0524  1.1413
 4490SOL    HW224933   0.507   4.044   5.065 -2.0804  0.4780 -0.6261
 4491SOL     OW24934   0.462   2.537   6.831  0.0184  0.7734  0.0685
 4491SOL    HW124935   0.395   2.572   6.890 -0.5332 -1.0808  0.5342
 4491SOL    HW224936   0.481   2.618   6.784  2.4930  0.5446  0.7091
 4492SOL     OW24937   2.562   4.304   4.202  0.0691 -0.4156 -0.4148
 4492SOL    HW124938   2.539   4.390   4.168 -1.8460 -0.6430  0.3085
 4492SOL    HW224939   2.539   4.313   4.295  2.1624 -0.2904  0.0815
 4493SOL     OW24940   1.131   0.192   8.116  0.3656 -0.3203 -0.1280
 4493SOL    HW124941   1.061   0.252   8.142  0.9965  1.0301 -1.4990
 4493SOL    HW224942   1.079   0.150   8.048 -0.0764 -0.1634  0.1103
 4494SOL     OW24943   0.596   3.252   6.934  0.3823 -0.1487 -0.5174
 4494SOL    HW124944   0.639   3.328   6.972 -1.4890 -0.6210  2.5304
 4494SOL    HW224945   0.563   3.278   6.848 -0.1396  4.2255  0.9805
 4495SOL     OW24946   4.001   1.350  12.096 -0.7371  0.0232 -0.4956
 4495SOL    HW124947   4.054   1.275  12.070  0.7476  0.7441  0.4613
 4495SOL    HW224948   4.000   1.404  12.017 -0.5365  0.5758 -0.1196
 4496SOL     OW24949   2.614   0.762   5.294 -0.5325 -0.5032 -0.2576
 4496SOL    HW124950   2.609   0.847   5.250  1.5356 -0.0961  0.3322
 4496SOL    HW224951   2.683   0.727   5.238 -0.6498  0.1402 -0.8064
 4497SOL     OW24952   3.560   1.657   7.880  0.2206 -0.6621 -0.4031
 4497SOL    HW124953   3.489   1.671   7.942  2.0219  0.8371  1.3276
 4497SOL    HW224954   3.581   1.740   7.837  1.8423 -0.5257  0.6562
 4498SOL     OW24955   3.858   0.066  12.579  0.1525 -0.2306  0.5913
 4498SOL    HW124956   3.845   0.017  12.660 -0.9793 -1.3361 -0.2553
 4498SOL    HW224957   3.798   0.138  12.598  1.5119  1.0373  0.1296
 4499SOL     OW24958   2.678   3.129   4.220  0.7758 -0.4201 -0.4442
 4499SOL    HW124959   2.760   3.178   4.223  0.2240  0.3715  1.6374
 4499SOL    HW224960   2.643   3.147   4.307  0.3317 -0.4755 -0.6093
 4500SOL     OW24961   1.871   0.758   6.058 -0.1880 -0.3109  0.1395
 4500SOL    HW124962   1.954   0.742   6.013  0.0284 -0.8000  0.7213
 4500SOL    HW224963   1.854   0.842   6.015 -2.1588  0.5403  2.6118
 4501SOL     OW24964   0.517   0.909  11.952 -0.6180 -0.3112  0.2952
 4501SOL    HW124965   0.586   0.962  11.993  0.8107 -2.2102  0.3126
 4501SOL    HW224966   0.494   0.979  11.890  1.5219  0.3366  0.2268
 4502SOL     OW24967   2.113   2.751   0.572  0.1505 -0.2435 -0.3711
 4502SOL    HW124968   2.179   2.753   0.502 -0.9301  0.3386 -1.3711
 4502SOL    HW224969   2.131   2.668   0.617  0.3440 -0.7023 -1.2727
 4503SOL     OW24970   3.259   4.330   5.911 -0.7892  0.3280 -0.9089
 4503SOL    HW124971   3.278   4.421   5.936  0.1898 -0.7017  2.1872
 4503SOL    HW224972   3.287   4.268   5.979 -2.6135  0.9842  0.4320
 4504SOL     OW24973   0.338   1.273   8.493  0.1943 -0.0702  0.5850
 4504SOL    HW124974   0.307   1.347   8.442  1.5261  0.0988  0.0154
 4504SOL    HW224975   0.361   1.321   8.573  3.7288  1.2570 -1.2221
 4505SOL     OW24976   4.217   3.458   2.100 -0.2238  0.8437  0.2160
 4505SOL    HW124977   4.209   3.370   2.137 -1.4828  0.4935 -0.9009
 4505SOL    HW224978   4.210   3.434   2.007  0.8656  1.1721  0.0503
 4506SOL     OW24979   1.536   2.711   2.160  0.7033 -0.2941 -0.8903
 4506SOL    HW124980   1.609   2.658   2.130  0.7093 -0.3754 -0.7291
 4506SOL    HW224981   1.503   2.653   2.229  3.0825  0.0517  0.5249
 4507SOL     OW24982   0.861   1.509   8.656  0.6385 -0.1572 -0.1328
 4507SOL    HW124983   0.928   1.533   8.720 -0.0497  1.2109  0.0702
 4507SOL    HW224984   0.886   1.564   8.582  2.6737  1.6021  1.8502
 4508SOL     OW24985   2.591   1.842   1.793 -0.5590  0.1450 -0.4938
 4508SOL    HW124986   2.638   1.918   1.757 -0.3779 -0.8977 -2.4560
 4508SOL    HW224987   2.636   1.770   1.749 -0.4425 -0.5254  0.7213
 4509SOL     OW24988   1.541   1.237   4.146 -1.1371  0.2474  0.0766
 4509SOL    HW124989   1.490   1.310   4.109 -0.1343  1.1981  0.5684
 4509SOL    HW224990   1.547   1.172   4.076  0.2911 -1.5692  1.9108
 4510SOL     OW24991   2.709   1.429   9.498  0.3602 -0.1653  0.6182
 4510SOL    HW124992   2.627   1.393   9.532  0.4281 -0.9971 -0.1027
 4510SOL    HW224993   2.716   1.508   9.552  1.3404  0.7609 -0.8579
 4511SOL     OW24994   3.054   3.608  15.155 -0.4451  0.2049  0.6419
 4511SOL    HW124995   3.100   3.564  15.084  2.2762  1.4351  1.6405
 4511SOL    HW224996   3.023   3.689  15.113 -0.3922 -0.1012  0.0008
 4512SOL     OW24997   0.260   4.255  15.874  0.1411  0.1340 -0.4313
 4512SOL    HW124998   0.277   4.282  15.784 -3.0632 -0.3582 -1.1995
 4512SOL    HW224999   0.236   4.340  15.910  0.9102 -0.4167  1.3714
 4513SOL     OW25000   0.560   4.489  14.731  0.4392 -0.3188 -0.2180
 4513SOL    HW125001   0.584   4.399  14.712  1.0181 -0.1543 -0.2863
 4513SOL    HW225002   0.594   4.530  14.651  3.2686 -1.3460  0.4522
 4514SOL     OW25003   2.720   2.511  15.326  0.0045  0.0152  0.2512
 4514SOL    HW125004   2.790   2.468  15.277  0.3178 -1.2054  1.7561
 4514SOL    HW225005   2.778   2.567  15.378 -0.4098  0.4529  0.2375
 4515SOL     OW25006   4.431   1.487   4.635  0.2019 -0.0414  0.0358
 4515SOL    HW125007   4.341   1.509   4.659 -0.1145  1.6782 -2.7633
 4515SOL    HW225008   4.433   1.397   4.669  3.7202 -0.1848 -0.4768
 4516SOL     OW25009   2.807   4.311  16.991  0.0979 -0.9824 -0.2230
 4516SOL    HW125010   2.809   4.313  17.086  2.5869 -0.4355 -0.2799
 4516SOL    HW225011   2.721   4.350  16.978 -0.2450 -1.3938  0.8134
 4517SOL     OW25012   1.450   4.436   0.555 -0.2562  0.7743 -0.5492
 4517SOL    HW125013   1.439   4.384   0.475 -2.0012  0.0266  0.1776
 4517SOL    HW225014   1.459   4.362   0.615 -1.1451  0.6481 -0.5723
 4518SOL     OW25015   3.610   0.355   5.365  0.3700  0.1757  0.5633
 4518SOL    HW125016   3.662   0.375   5.287  1.0609 -0.7811  0.7751
 4518SOL    HW225017   3.653   0.410   5.431  1.9201  1.1002 -1.2029
 4519SOL     OW25018   1.033   4.407  12.683 -0.1554 -1.0525 -0.1460
 4519SOL    HW125019   0.996   4.475  12.626  1.5309 -1.3976 -1.6326
 4519SOL    HW225020   1.083   4.350  12.625 -1.1363  0.2937 -2.2929
 4520SOL     OW25021   3.040   1.567  15.759 -0.5027  0.0088 -0.0082
 4520SOL    HW125022   2.952   1.598  15.736 -1.1085 -1.2683  0.5671
 4520SOL    HW225023   3.043   1.480  15.719 -2.2668  0.5466 -1.3583
 4521SOL     OW25024   0.069   0.485   6.125 -0.6312  0.0593 -0.1945
 4521SOL    HW125025   0.028   0.568   6.149 -0.9497 -0.4248  0.9544
 4521SOL    HW225026   0.117   0.469   6.207  2.2059 -2.8875 -2.4579
 4522SOL     OW25027   3.909   1.322   7.262  0.2618 -0.7129 -0.6090
 4522SOL    HW125028   3.814   1.315   7.256  0.1290  0.0857  0.5216
 4522SOL    HW225029   3.917   1.359   7.350 -2.8035  0.1659 -0.7127
 4523SOL     OW25030   4.219   3.448  14.073 -0.0964  0.0404  0.4975
 4523SOL    HW125031   4.176   3.372  14.110 -0.7884 -1.7032 -3.8581
 4523SOL    HW225032   4.164   3.455  13.995  1.4379 -2.7702 -0.8270
 4524SOL     OW25033   0.299   2.496   7.126 -0.1708  0.6818 -0.1118
 4524SOL    HW125034   0.365   2.564   7.140  0.6953  0.1271 -1.4303
 4524SOL    HW225035   0.240   2.545   7.069 -1.5778 -1.8196 -0.8150
 4525SOL     OW25036   3.904   0.760   6.638  0.1117  0.3314  0.2092
 4525SOL    HW125037   3.890   0.853   6.657  1.5952  0.2079  1.9590
 4525SOL    HW225038   3.822   0.741   6.593  0.4007 -0.5257  0.0414
 4526SOL     OW25039   2.836   1.760   8.743  0.1110 -0.4994  0.3258
 4526SOL    HW125040   2.806   1.674   8.772 -2.2306 -0.2153 -1.2942
 4526SOL    HW225041   2.785   1.814   8.804 -0.4641  0.2962 -0.8717
 4527SOL     OW25042   2.008   4.038   8.634  0.1742 -1.0784 -0.4294
 4527SOL    HW125043   1.930   3.993   8.601 -0.9057  0.6866 -0.2796
 4527SOL    HW225044   2.057   4.025   8.553  0.0280 -2.9601 -0.2042
 4528SOL     OW25045   0.933   1.345   6.470 -0.3159  0.0725  0.5607
 4528SOL    HW125046   0.992   1.311   6.402 -1.2096 -0.7841  0.2109
 4528SOL    HW225047   0.983   1.324   6.549 -0.4303  0.2097  0.6695
 4529SOL     OW25048   4.450   3.190  15.989  0.0956 -0.1086  0.5921
 4529SOL    HW125049   4.431   3.185  16.082 -1.8299  0.6848  0.2398
 4529SOL    HW225050   4.374   3.231  15.947 -0.0711  2.6978  3.6763
 4530SOL     OW25051   3.130   4.303   3.978 -0.6749  0.1778 -0.2558
 4530SOL    HW125052   3.051   4.313   4.030 -0.3810  1.4321 -0.0336
 4530SOL    HW225053   3.153   4.396   3.966 -0.2455  0.1214  0.1206
 4531SOL     OW25054   0.195   3.367   3.040 -0.1738  0.0919  0.3846
 4531SOL    HW125055   0.189   3.387   2.947  0.5170 -0.7032  0.1732
 4531SOL    HW225056   0.108   3.397   3.069 -1.0141 -3.8247  1.9549
 4532SOL     OW25057   1.973   3.803   8.993  0.3844 -0.1860  0.0388
 4532SOL    HW125058   1.991   3.895   9.014 -3.2483  0.8560 -1.4069
 4532SOL    HW225059   1.961   3.813   8.899 -1.8265 -2.4877  0.0886
 4533SOL     OW25060   2.384   0.157   5.570  0.2774  0.1514 -0.0254
 4533SOL    HW125061   2.371   0.076   5.520 -2.2025 -0.2633  1.3071
 4533SOL    HW225062   2.381   0.128   5.662  0.4650  2.2061  0.6298
 4534SOL     OW25063   0.409   1.886   7.602 -0.0603  0.3060  0.0940
 4534SOL    HW125064   0.428   1.977   7.577 -0.0255  0.1121 -0.5682
 4534SOL    HW225065   0.492   1.840   7.595 -0.9419 -0.9682 -1.9513
 4535SOL     OW25066   3.620   1.142   2.668  0.4914 -0.1241  0.1569
 4535SOL    HW125067   3.622   1.046   2.668 -0.0526 -0.1390  1.5912
 4535SOL    HW225068   3.563   1.155   2.744  0.2205 -0.1553 -0.0422
 4536SOL     OW25069   0.680   2.603   3.046  0.1844 -0.2282  0.3094
 4536SOL    HW125070   0.724   2.566   2.970 -0.9175 -2.4675  0.7618
 4536SOL    HW225071   0.720   2.545   3.110 -0.3070 -3.4840 -2.3624
 4537SOL     OW25072   0.485   3.578  16.432 -0.5886  0.1425  0.1604
 4537SOL    HW125073   0.421   3.521  16.388 -0.6124 -1.5119  2.3631
 4537SOL    HW225074   0.434   3.597  16.510 -0.4748 -2.5751  0.9038
 4538SOL     OW25075   3.953   3.162   1.843 -0.4498  0.4525 -0.3437
 4538SOL    HW125076   4.048   3.154   1.849 -0.2262  3.1080 -0.5906
 4538SOL    HW225077   3.936   3.210   1.923 -0.9718 -2.2396  1.1700
 4539SOL     OW25078   1.554   0.697   3.372 -0.5516 -0.1658 -0.0920
 4539SOL    HW125079   1.503   0.774   3.399  1.2873  0.6619  1.0385
 4539SOL    HW225080   1.633   0.737   3.335  0.0525  0.5060  1.9186
 4540SOL     OW25081   3.515   4.244   2.735 -0.0515 -0.9076 -0.3049
 4540SOL    HW125082   3.514   4.306   2.663 -0.8598 -2.5157 -1.6868
 4540SOL    HW225083   3.588   4.187   2.708  0.3667  0.3918 -1.8893
 4541SOL     OW25084   2.908   1.008   4.094 -0.4325  0.8487 -0.3639
 4541SOL    HW125085   2.848   1.057   4.150  1.2318  2.3370  0.0994
 4541SOL    HW225086   2.868   1.015   4.007 -0.0360 -2.0595 -0.7759
 4542SOL     OW25087   0.897   2.703   4.728  0.1418  0.3672 -0.1524
 4542SOL    HW125088   0.857   2.675   4.810 -1.3715  0.9171 -0.7024
 4542SOL    HW225089   0.897   2.798   4.735  0.5248  0.2779  1.0391
 4543SOL     OW25090   0.022   2.519  14.759  0.1223 -0.0286 -0.0055
 4543SOL    HW125091   0.095   2.469  14.722  1.3154  1.2408  0.6463
 4543SOL    HW225092   0.069   2.570  14.826 -1.7749 -0.7295  1.8527
 4544SOL     OW25093   2.802   2.290   2.395  0.4243  0.4574 -0.5244
 4544SOL    HW125094   2.871   2.239   2.439 -0.5651  0.1317  0.6609
 4544SOL    HW225095   2.738   2.219   2.391  0.3029  0.6698 -2.0483
 4545SOL     OW25096   1.964   1.584  12.821  0.2517  0.0867  0.1139
 4545SOL    HW125097   1.981   1.678  12.826 -0.6532  0.2062  0.8890
 4545SOL    HW225098   1.880   1.602  12.780  0.1414  0.3527  0.4490
 4546SOL     OW25099   1.580   4.157  13.658 -0.4418  0.2623 -0.7326
 4546SOL    HW125100   1.634   4.086  13.623  0.0139  0.2984 -0.1035
 4546SOL    HW225101   1.602   4.169  13.750 -1.6919  0.3753 -0.4518
 4547SOL     OW25102   1.152   0.828   3.229  0.2787  0.6818  0.2565
 4547SOL    HW125103   1.120   0.888   3.297  2.3242  1.6439  0.3829
 4547SOL    HW225104   1.089   0.756   3.227  1.8774 -0.7289  0.5458
 4548SOL     OW25105   3.483   3.342   6.478  0.2783  0.5040  0.1030
 4548SOL    HW125106   3.407   3.293   6.510 -2.5115  4.0824 -1.0563
 4548SOL    HW225107   3.494   3.383   6.563 -1.2548 -0.1983  0.6510
 4549SOL     OW25108   4.357   3.843   2.522  0.6049 -0.2852  0.5319
 4549SOL    HW125109   4.330   3.760   2.559 -0.3791 -0.5365 -0.7507
 4549SOL    HW225110   4.293   3.853   2.452  1.4979  0.9157 -0.1202
 4550SOL     OW25111   1.583   3.168   9.588  0.2329 -0.1196  0.1181
 4550SOL    HW125112   1.529   3.096   9.555 -0.4524  0.6175 -0.3646
 4550SOL    HW225113   1.649   3.127   9.645 -3.0590 -2.3670  2.3304
 4551SOL     OW25114   3.761   1.694   9.047  0.2565  0.4694 -0.3683
 4551SOL    HW125115   3.849   1.698   9.010 -0.0934  0.2943 -1.2220
 4551SOL    HW225116   3.769   1.613   9.098  0.7992  2.0548  2.0459
 4552SOL     OW25117   0.742   2.463   5.260  0.2319  0.1435 -0.0857
 4552SOL    HW125118   0.689   2.384   5.257  1.6364 -0.7780 -0.7173
 4552SOL    HW225119   0.835   2.441   5.262 -0.0924 -1.3375 -1.6366
 4553SOL     OW25120   4.672   2.807   7.906 -0.5300  0.0738 -0.2473
 4553SOL    HW125121   4.707   2.890   7.939 -0.4769  0.4712 -1.2998
 4553SOL    HW225122   0.023   2.757   7.932 -1.8338 -1.3505  0.8778
 4554SOL     OW25123   3.368   2.214   7.689  0.3792 -0.4097 -0.3995
 4554SOL    HW125124   3.425   2.263   7.630  1.8322 -1.3719  0.1760
 4554SOL    HW225125   3.397   2.125   7.670  0.4105 -0.5596  0.3278
 4555SOL     OW25126   1.803   2.378  15.888  0.7193 -0.1272  0.2203
 4555SOL    HW125127   1.842   2.443  15.830 -0.3309  1.2753  1.1008
 4555SOL    HW225128   1.771   2.319  15.819 -0.5269  2.2747 -1.2526
 4556SOL     OW25129   3.407   2.682   3.568  0.1272  0.0255  0.5434
 4556SOL    HW125130   3.489   2.664   3.523  0.7231 -1.7492  2.3294
 4556SOL    HW225131   3.355   2.705   3.491  0.4398  0.5501  0.4905
 4557SOL     OW25132   3.384   0.203   2.279 -0.0968 -0.0135  0.3293
 4557SOL    HW125133   3.308   0.229   2.226 -1.1535 -2.8078  0.4628
 4557SOL    HW225134   3.363   0.255   2.356  0.8235  0.3504  0.3385
 4558SOL     OW25135   3.834   0.239  13.626 -0.1411  0.4705  0.8392
 4558SOL    HW125136   3.787   0.273  13.702  0.2843 -2.0749  2.2401
 4558SOL    HW225137   3.877   0.160  13.660 -0.0644 -0.6961 -1.9581
 4559SOL     OW25138   3.703   3.178   6.562 -0.6547  0.0941  0.2373
 4559SOL    HW125139   3.656   3.257   6.537 -1.1242 -0.3652 -0.3475
 4559SOL    HW225140   3.640   3.130   6.616 -0.8336 -0.4294 -0.4382
 4560SOL     OW25141   3.960   1.940   2.405 -0.3510 -0.2453  0.0835
 4560SOL    HW125142   3.964   1.853   2.445 -3.0792 -0.5008 -0.2189
 4560SOL    HW225143   3.884   1.973   2.454  1.0158  2.0001  0.7160
 4561SOL     OW25144   1.961   0.480   5.326  0.3475  0.0142  0.0238
 4561SOL    HW125145   2.012   0.405   5.357 -4.0721 -1.8704  2.7457
 4561SOL    HW225146   1.982   0.471   5.233 -0.5433 -0.3415 -0.1432
 4562SOL     OW25147   3.732   0.723   3.355  0.0579 -0.4607 -0.1983
 4562SOL    HW125148   3.811   0.755   3.399  1.6249  0.1897 -3.5220
 4562SOL    HW225149   3.780   0.642   3.339 -1.2078 -1.5043  1.3049
 4563SOL     OW25150   2.536   2.274  15.529  0.0142 -0.4604  0.4516
 4563SOL    HW125151   2.521   2.191  15.482 -0.7169 -0.2764  0.3565
 4563SOL    HW225152   2.570   2.334  15.463 -2.1504 -0.7298 -0.9245
 4564SOL     OW25153   4.448   1.809   7.663 -0.1067  0.8119 -0.2272
 4564SOL    HW125154   4.521   1.818   7.725  1.3459 -1.4148 -1.6209
 4564SOL    HW225155   4.497   1.802   7.581 -0.8708  0.8786 -0.6850
 4565SOL     OW25156   0.256   3.844   6.010  0.6954  0.3304  0.2841
 4565SOL    HW125157   0.203   3.776   6.053  0.9930  0.2557  0.5342
 4565SOL    HW225158   0.341   3.800   6.007  0.4084 -0.0693 -2.1911
 4566SOL     OW25159   2.064   3.669   7.811 -0.1294 -0.1647 -0.2912
 4566SOL    HW125160   2.048   3.636   7.899  0.7341  1.0156  0.3034
 4566SOL    HW225161   2.022   3.607   7.752 -0.2540 -0.1213 -0.2475
 4567SOL     OW25162   1.856   2.588   8.714  0.1179 -0.1565  0.2767
 4567SOL    HW125163   1.788   2.627   8.659  1.9917  0.6873 -1.4376
 4567SOL    HW225164   1.807   2.520   8.760  1.8791 -0.7751  1.2425
 4568SOL     OW25165   2.339   3.045   4.016 -0.3019  0.4394  0.2034
 4568SOL    HW125166   2.421   2.999   4.035 -1.0907 -0.8962  0.3484
 4568SOL    HW225167   2.326   3.030   3.923  1.0208 -0.6652  0.2078
 4569SOL     OW25168   2.814   1.853   2.884 -0.0309 -0.0036  0.0990
 4569SOL    HW125169   2.859   1.781   2.928  1.5490  1.0797  0.2654
 4569SOL    HW225170   2.840   1.826   2.796 -0.6226  0.4500 -0.2123
 4570SOL     OW25171   4.461   3.975   7.187  0.3070  0.0005  0.4638
 4570SOL    HW125172   4.376   4.005   7.156 -0.7719 -1.0085  2.4754
 4570SOL    HW225173   4.517   3.958   7.111  1.2462 -0.9829  1.3572
 4571SOL     OW25174   3.378   2.240   6.577 -0.0067 -0.1774 -0.8132
 4571SOL    HW125175   3.303   2.221   6.522 -1.4146 -0.7412  1.2947
 4571SOL    HW225176   3.345   2.310   6.634  3.3372 -1.3088  2.5583
 4572SOL     OW25177   4.582   0.904  11.705  0.0377  0.4284 -0.2645
 4572SOL    HW125178   4.489   0.912  11.684  0.5101  2.3577 -1.6067
 4572SOL    HW225179   4.623   0.933  11.624  0.0575 -0.2606 -0.4980
 4573SOL     OW25180   3.498   0.440   9.100  0.6979  0.0216 -0.5429
 4573SOL    HW125181   3.458   0.434   9.013 -2.7326 -1.7676  1.1639
 4573SOL    HW225182   3.464   0.362   9.145  1.4209 -1.2782 -2.2712
 4574SOL     OW25183   0.982   0.296   4.547 -0.1486 -0.5081  0.1337
 4574SOL    HW125184   0.935   0.355   4.489 -1.5270 -0.9136  0.8360
 4574SOL    HW225185   0.959   0.205   4.530 -0.1723 -0.0222 -2.3610
 4575SOL     OW25186   3.306   1.312   2.310  0.1582  0.5999 -0.1219
 4575SOL    HW125187   3.395   1.335   2.337  0.1364 -0.4235  0.8358
 4575SOL    HW225188   3.326   1.269   2.227 -1.8511  1.2447 -0.9412
 4576SOL     OW25189   4.470   0.158   2.761  0.1613 -0.5403 -0.0443
 4576SOL    HW125190   4.537   0.106   2.805 -0.1303  0.6571  1.8306
 4576SOL    HW225191   4.450   0.103   2.685  1.5068 -0.8876 -0.1416
 4577SOL     OW25192   2.575   2.787   9.813 -0.3229  0.0547  0.5935
 4577SOL    HW125193   2.591   2.836   9.894  0.4807  1.9482 -0.6931
 4577SOL    HW225194   2.660   2.800   9.769  0.3034  1.7681  2.3131
 4578SOL     OW25195   2.566   0.991   6.873 -0.5506  0.1465  0.1578
 4578SOL    HW125196   2.524   1.018   6.954 -0.0675  0.6045  0.2548
 4578SOL    HW225197   2.648   0.971   6.918 -0.0501 -0.1461 -0.8645
 4579SOL     OW25198   2.668   4.565   5.703  0.0388 -0.0495  0.6562
 4579SOL    HW125199   2.584   4.562   5.658 -0.6466  4.0183  1.7249
 4579SOL    HW225200   2.699   4.475   5.689 -0.0761  0.0854 -0.4146
 4580SOL     OW25201   3.419   1.270   2.836 -0.2942 -0.4765  0.0537
 4580SOL    HW125202   3.437   1.266   2.930 -0.6142  1.7795  0.1915
 4580SOL    HW225203   3.416   1.362   2.813  0.5834 -0.4828 -0.0859
 4581SOL     OW25204   4.561   2.568  15.535  0.2014  0.5097  0.4185
 4581SOL    HW125205   4.482   2.513  15.541  1.7783 -1.8051 -0.1441
 4581SOL    HW225206   4.525   2.652  15.565 -0.3999  0.7394 -0.9411
 4582SOL     OW25207   1.365   1.216   0.720 -0.0712  0.1006 -0.2663
 4582SOL    HW125208   1.320   1.285   0.672 -0.3476  1.2441  1.6383
 4582SOL    HW225209   1.324   1.229   0.805 -1.6948 -0.2742 -0.9948
 4583SOL     OW25210   0.116   0.856  12.823  0.1965  0.1641  0.1241
 4583SOL    HW125211   0.124   0.884  12.914  1.4590  1.6357 -0.4402
 4583SOL    HW225212   0.077   0.936  12.789 -1.7340 -0.5209  0.7534
 4584SOL     OW25213   3.599   1.905   1.893 -0.6542 -0.0483 -0.1117
 4584SOL    HW125214   3.587   1.987   1.941 -0.1227 -1.8063  3.0480
 4584SOL    HW225215   3.599   1.940   1.804 -0.1766  0.6656  0.1649
 4585SOL     OW25216   4.727   4.210   4.422 -0.3183  0.1033 -0.5179
 4585SOL    HW125217   4.648   4.259   4.397 -0.6200 -1.0101 -1.6998
 4585SOL    HW225218   4.687   4.124   4.435 -0.6309  0.6663  2.2430
 4586SOL     OW25219   3.313   2.427   5.072 -0.0641 -0.1403  0.0750
 4586SOL    HW125220   3.390   2.388   5.031  0.9542  1.6849  0.2881
 4586SOL    HW225221   3.358   2.508   5.094 -1.2895  0.3214  0.8748
 4587SOL     OW25222   4.191   1.745   8.082  0.1105 -0.5957 -0.5117
 4587SOL    HW125223   4.241   1.727   8.003  0.3020  0.3744 -0.6050
 4587SOL    HW225224   4.199   1.840   8.078 -0.1432 -0.7067 -3.8268
 4588SOL     OW25225   3.503   0.353   9.647  0.0564  0.2141  1.0518
 4588SOL    HW125226   3.554   0.337   9.567 -0.8641  2.4792  0.0226
 4588SOL    HW225227   3.466   0.266   9.660  0.2729 -0.1090 -0.4223
 4589SOL     OW25228   3.442   4.266   4.350 -0.0006  0.2310 -0.7143
 4589SOL    HW125229   3.433   4.180   4.392 -1.6651  0.2188 -1.1145
 4589SOL    HW225230   3.496   4.316   4.412  0.9471 -1.2646 -0.3276
 4590SOL     OW25231   3.819   3.246  16.313 -0.1835 -0.3446 -0.3196
 4590SOL    HW125232   3.812   3.154  16.338  1.0657 -1.4481 -3.9184
 4590SOL    HW225233   3.912   3.252  16.294 -0.2751 -1.4003 -1.1758
 4591SOL     OW25234   2.778   0.543  16.943 -0.0387  0.4575 -0.6687
 4591SOL    HW125235   2.863   0.566  16.980 -0.2296  0.7582 -0.4122
 4591SOL    HW225236   2.738   0.479  17.003  2.0638 -0.3178 -0.0900
 4592SOL     OW25237   1.854   4.615  14.634  0.0672  0.0372  0.0962
 4592SOL    HW125238   1.874   4.670  14.559 -4.1699  1.4951  0.0567
 4592SOL    HW225239   1.773   4.658  14.661  0.5924  0.6126  0.7583
 4593SOL     OW25240   3.015   2.058   8.424 -0.2673  0.1159 -0.0674
 4593SOL    HW125241   2.944   2.102   8.470  1.4979  2.6573  0.1667
 4593SOL    HW225242   3.053   2.005   8.495 -0.8334  0.0411  0.1829
 4594SOL     OW25243   0.937   4.331   7.436 -0.1120 -0.5028  0.2852
 4594SOL    HW125244   0.891   4.248   7.433 -0.8580 -0.1131  0.9033
 4594SOL    HW225245   1.016   4.302   7.391  0.6647  0.0101  1.3117
 4595SOL     OW25246   0.489   4.452  13.304 -0.1966 -0.4092  0.4658
 4595SOL    HW125247   0.457   4.470  13.393  3.0330 -2.6260  2.0717
 4595SOL    HW225248   0.408   4.449  13.253  1.7071  0.0162 -2.5963
 4596SOL     OW25249   1.970   2.194   7.624  0.4505  0.1823  0.3590
 4596SOL    HW125250   1.919   2.256   7.676  1.7200  0.6212  1.0840
 4596SOL    HW225251   1.902   2.179   7.558  2.7593 -1.5754 -1.6359
 4597SOL     OW25252   1.622   4.003   1.359 -0.3541 -0.2185  0.0690
 4597SOL    HW125253   1.645   3.911   1.369 -0.7624 -0.3082  0.1699
 4597SOL    HW225254   1.702   4.024   1.310 -1.5650 -0.4280 -2.0203
 4598SOL     OW25255   3.668   3.585  13.028 -0.2198 -0.1699 -0.4989
 4598SOL    HW125256   3.760   3.592  13.004 -0.5072  0.6496 -1.3741
 4598SOL    HW225257   3.633   3.626  12.949  0.7063  0.7999 -0.4042
 4599SOL     OW25258   2.925   3.444   4.964  0.3134  0.1707  0.2158
 4599SOL    HW125259   2.975   3.363   4.955  2.2688  1.1348  2.2952
 4599SOL    HW225260   2.874   3.418   5.041 -1.4763 -0.9222 -1.3568
 4600SOL     OW25261   2.930   1.933   4.839 -0.3567  0.0494 -0.2091
 4600SOL    HW125262   2.998   1.895   4.784  0.8744  0.0565  1.2983
 4600SOL    HW225263   2.932   2.027   4.822 -1.5632  0.1342  0.1419
 4601SOL     OW25264   0.837   0.750   5.807 -0.3051  0.6084 -0.3636
 4601SOL    HW125265   0.832   0.840   5.841 -3.0199  0.2089  0.2935
 4601SOL    HW225266   0.927   0.747   5.773 -0.2593 -0.6381 -0.1178
 4602SOL     OW25267   4.255   2.667   0.283 -0.3829 -0.1102  0.3568
 4602SOL    HW125268   4.265   2.757   0.315  0.3643 -0.2067  0.3776
 4602SOL    HW225269   4.168   2.669   0.242  0.0941 -1.0696 -0.6909
 4603SOL     OW25270   0.649   4.576   7.439  0.1184  0.3078  0.0796
 4603SOL    HW125271   0.626   4.656   7.392  1.9324  2.0446  2.1090
 4603SOL    HW225272   0.656   4.508   7.373 -1.9513  0.5769 -0.4200
 4604SOL     OW25273   2.944   1.671   3.047 -0.7956 -0.4228  0.3750
 4604SOL    HW125274   2.919   1.691   3.137  2.0300  1.1478  0.8348
 4604SOL    HW225275   3.025   1.721   3.034 -0.4749 -0.9355  0.3952
 4605SOL     OW25276   1.716   3.216   5.381 -0.2869 -0.0610 -0.7360
 4605SOL    HW125277   1.719   3.144   5.444 -1.7132 -0.3060 -0.9417
 4605SOL    HW225278   1.802   3.256   5.393  1.0776 -3.6315  1.4105
 4606SOL     OW25279   2.482   2.256  13.339  0.2719  0.0937 -0.0699
 4606SOL    HW125280   2.451   2.167  13.357  2.0989 -0.2864  1.2071
 4606SOL    HW225281   2.546   2.261  13.410  0.5871  1.3092 -0.4306
 4607SOL     OW25282   3.307   1.711   8.027  0.4233  0.2927 -0.7898
 4607SOL    HW125283   3.268   1.708   8.115 -0.5478  2.1926 -1.1424
 4607SOL    HW225284   3.263   1.633   7.994 -0.3263  0.5030 -0.3140
 4608SOL     OW25285   3.390   1.818  10.809 -0.0693 -0.2246 -0.5711
 4608SOL    HW125286   3.310   1.766  10.816 -0.2919  0.2137  0.1798
 4608SOL    HW225287   3.436   1.799  10.891  0.6567  1.6786 -0.5539
 4609SOL     OW25288   4.420   0.847   2.892 -0.7107 -0.1575 -0.2532
 4609SOL    HW125289   4.486   0.911   2.865 -0.2780  0.5478  2.4659
 4609SOL    HW225290   4.457   0.765   2.858  1.5399  0.5539  0.4843
 4610SOL     OW25291   0.020   3.185   0.504 -0.5844 -0.0105 -0.0286
 4610SOL    HW125292   0.082   3.235   0.451 -0.4147 -0.1585  0.0311
 4610SOL    HW225293   0.048   3.209   0.593  0.2274 -0.2143 -0.2344
 4611SOL     OW25294   2.838   3.605   4.561  0.2661  0.1879  0.2929
 4611SOL    HW125295   2.755   3.619   4.515  1.8341  0.2227 -2.5098
 4611SOL    HW225296   2.900   3.643   4.498  0.5456  0.1913  0.5728
 4612SOL     OW25297   2.246   3.727   9.059  0.4313 -0.2148 -0.2380
 4612SOL    HW125298   2.231   3.649   9.112 -1.4381 -0.1522 -0.6473
 4612SOL    HW225299   2.156   3.761   9.063  1.1222  1.5676  0.0997
 4613SOL     OW25300   3.046   2.112   0.856  0.4551  0.2393 -0.1623
 4613SOL    HW125301   2.961   2.119   0.814  0.6286  0.4931 -0.4676
 4613SOL    HW225302   3.071   2.204   0.863  1.8771 -0.0450 -1.4608
 4614SOL     OW25303   2.497   1.824   7.871  0.3835 -0.6944  0.2840
 4614SOL    HW125304   2.520   1.911   7.903  0.4283  0.4063 -2.7992
 4614SOL    HW225305   2.587   1.797   7.855  1.0342 -0.0358  2.8770
 4615SOL     OW25306   2.104   3.149   6.275  0.1630 -0.0697  0.0387
 4615SOL    HW125307   2.050   3.076   6.305 -2.4664  2.1685  0.7757
 4615SOL    HW225308   2.047   3.225   6.279 -0.7269 -0.7738  0.5731
 4616SOL     OW25309   1.057   4.123   2.950  0.6902 -0.1535 -0.1556
 4616SOL    HW125310   1.077   4.133   2.856  1.6920  1.9807  0.2755
 4616SOL    HW225311   1.079   4.031   2.964 -0.4056 -0.4264 -0.2869
 4617SOL     OW25312   4.540   0.643   7.468  0.6033  0.2675 -0.0420
 4617SOL    HW125313   4.478   0.670   7.400  3.5405  1.9294 -2.0638
 4617SOL    HW225314   4.495   0.562   7.492  0.4243 -0.0217 -1.3709
 4618SOL     OW25315   1.007   3.252   4.477 -0.2555 -0.3820 -0.3494
 4618SOL    HW125316   1.083   3.296   4.438 -1.6835 -0.2210 -2.9173
 4618SOL    HW225317   1.047   3.177   4.522  1.1929  0.7110  0.1902
 4619SOL     OW25318   3.477   2.602   8.395  0.0577 -0.5429 -0.0420
 4619SOL    HW125319   3.516   2.661   8.330  1.1707  0.8286  1.8597
 4619SOL    HW225320   3.400   2.655   8.418  1.1913  2.1844 -2.3793
 4620SOL     OW25321   3.495   4.533  15.118  0.1166 -0.3448 -0.4545
 4620SOL    HW125322   3.490   4.485  15.201 -0.8397 -2.2313 -1.6003
 4620SOL    HW225323   3.432   4.604  15.129 -0.1053 -0.5501 -0.3950
 4621SOL     OW25324   4.421   1.151   6.119  0.4396 -0.0168  0.3884
 4621SOL    HW125325   4.329   1.153   6.094  0.8394  0.0177 -1.0782
 4621SOL    HW225326   4.470   1.195   6.050  1.6117 -1.1143  0.5297
 4622SOL     OW25327   2.544   3.077   2.284  0.3899 -0.3201 -0.5760
 4622SOL    HW125328   2.459   3.085   2.242  0.4034  0.5695 -0.4278
 4622SOL    HW225329   2.547   3.158   2.335 -0.4962 -1.6911  1.6631
 4623SOL     OW25330   0.153   1.468   5.203 -0.5886 -0.1018  0.2527
 4623SOL    HW125331   0.093   1.465   5.129 -0.1035 -3.5502  0.0121
 4623SOL    HW225332   0.108   1.517   5.271  1.4899 -0.2933  1.7708
 4624SOL     OW25333   3.364   4.128  11.371 -0.3814  0.1277 -0.1007
 4624SOL    HW125334   3.407   4.214  11.370 -1.7761  0.8247  0.5886
 4624SOL    HW225335   3.417   4.083  11.306 -0.8604  0.9050 -1.0338
 4625SOL     OW25336   0.007   3.102  14.783  0.0435 -0.1427 -0.9627
 4625SOL    HW125337   0.018   3.044  14.859  1.3123  1.5388  0.1194
 4625SOL    HW225338   0.017   3.037  14.713  1.4853 -1.6910  0.6740
 4626SOL     OW25339   2.091   0.024   7.470  0.2348  0.4680  0.0762
 4626SOL    HW125340   1.997   0.005   7.477 -0.0001  0.3191 -3.4836
 4626SOL    HW225341   2.096   0.088   7.399 -2.3733  1.5415  0.8541
 4627SOL     OW25342   1.517   4.326   5.046 -0.6425  0.1550  0.3594
 4627SOL    HW125343   1.507   4.238   5.083 -0.6334 -0.3373 -0.8137
 4627SOL    HW225344   1.441   4.361   5.093  0.9438  1.2826  2.0333
 4628SOL     OW25345   0.051   4.613   8.955  1.0540  0.1228 -0.4423
 4628SOL    HW125346   0.003   4.695   8.945  0.7343 -0.1019 -0.7135
 4628SOL    HW225347   0.121   4.642   9.013  0.5054  0.5748 -0.0118
 4629SOL     OW25348   1.774   2.019   7.113  0.4360  0.3845 -0.6775
 4629SOL    HW125349   1.708   2.077   7.073 -0.5677 -0.6766 -0.5515
 4629SOL    HW225350   1.858   2.065   7.110  0.6547  0.1083  1.4453
 4630SOL     OW25351   2.301   0.836   6.015  0.5053 -0.1703  0.3178
 4630SOL    HW125352   2.356   0.872   5.945 -0.9621 -0.5504 -1.0445
 4630SOL    HW225353   2.304   0.904   6.082  0.6885  0.3452 -0.2060
 4631SOL     OW25354   3.137   4.216   7.682 -0.4047  0.3498  0.1954
 4631SOL    HW125355   3.185   4.270   7.745 -0.0038  0.4193 -0.1662
 4631SOL    HW225356   3.201   4.170   7.628 -2.2564 -1.5557 -0.3951
 4632SOL     OW25357   0.177   4.235  12.281  0.3665 -0.2896 -0.1844
 4632SOL    HW125358   0.103   4.192  12.324  0.7342 -1.3679 -0.6322
 4632SOL    HW225359   0.255   4.211  12.330  0.7858  0.1102 -0.6500
 4633SOL     OW25360   2.174   3.909  11.349  0.2482 -0.1720 -0.2208
 4633SOL    HW125361   2.126   3.928  11.430  0.5434  1.6817 -0.4835
 4633SOL    HW225362   2.260   3.949  11.351  0.1350  0.0820 -0.5602
 4634SOL     OW25363   1.496   4.157   8.521  0.3991 -0.3177 -0.5029
 4634SOL    HW125364   1.461   4.246   8.531 -0.4499 -0.7146  0.0307
 4634SOL    HW225365   1.446   4.114   8.590  0.0865 -2.5466 -2.1314
 4635SOL     OW25366   4.036   2.655  10.517 -0.1764  0.4509 -0.0725
 4635SOL    HW125367   4.109   2.700  10.475 -0.4220  2.3528  1.5029
 4635SOL    HW225368   4.073   2.629  10.602  2.6681 -0.6972 -1.6349
 4636SOL     OW25369   1.785   4.608   7.283  0.5555 -0.7168 -0.4145
 4636SOL    HW125370   1.772   4.701   7.264  0.0506 -0.3971  1.4698
 4636SOL    HW225371   1.868   4.597   7.237  0.4064  0.6497 -0.9839
 4637SOL     OW25372   1.089   3.953   3.514 -0.2265 -0.1613 -0.2816
 4637SOL    HW125373   1.126   3.868   3.537 -0.2183  0.4351  1.8582
 4637SOL    HW225374   1.075   3.934   3.421 -3.0541  0.1358  0.0829
 4638SOL     OW25375   3.661   1.524   6.918  0.0374 -0.0177  0.0368
 4638SOL    HW125376   3.754   1.544   6.907  0.0149 -1.1672 -2.1982
 4638SOL    HW225377   3.675   1.433   6.893  2.2591  0.3676 -0.0788
 4639SOL     OW25378   3.105   1.818  13.444 -0.1123 -0.7121 -0.5027
 4639SOL    HW125379   3.166   1.799  13.515 -0.3292 -2.2167 -0.7166
 4639SOL    HW225380   3.054   1.737  13.436  0.3884 -1.0093 -0.7247
 4640SOL     OW25381   3.117   1.870   6.104 -0.2509 -0.6595  0.1813
 4640SOL    HW125382   3.125   1.849   6.197  0.2641  1.2361  0.5513
 4640SOL    HW225383   3.043   1.817   6.076  0.7380 -1.7730 -0.3413
 4641SOL     OW25384   3.491   3.602   7.999  0.1710  0.4446 -0.1368
 4641SOL    HW125385   3.475   3.662   8.072 -1.3750 -0.2791  0.1128
 4641SOL    HW225386   3.403   3.580   7.968 -0.1522  0.7276  0.5823
 4642SOL     OW25387   4.595   0.468   6.606  0.2738 -0.1960  0.1001
 4642SOL    HW125388   4.670   0.480   6.665  1.0492 -0.7602 -0.7712
 4642SOL    HW225389   4.584   0.561   6.584  1.8647 -0.4698 -1.8285
 4643SOL     OW25390   3.254   0.815   5.273  0.5176 -0.7865 -0.4955
 4643SOL    HW125391   3.163   0.801   5.246 -0.2023  2.1773  0.4004
 4643SOL    HW225392   3.282   0.723   5.273  0.9179 -0.6503  1.0290
 4644SOL     OW25393   3.138   4.343   1.905 -0.3403  0.3730  0.3974
 4644SOL    HW125394   3.199   4.296   1.962  0.0331  2.9853  2.1740
 4644SOL    HW225395   3.055   4.334   1.952 -0.9746 -1.9291 -1.1528
 4645SOL     OW25396   1.999   3.773   2.454  0.3484  0.6444 -0.4518
 4645SOL    HW125397   1.961   3.726   2.528  1.6472 -1.8042 -1.3257
 4645SOL    HW225398   1.936   3.844   2.454 -0.1380  0.2155 -2.6486
 4646SOL     OW25399   0.364   0.203   8.725 -0.3292  0.2666  0.0672
 4646SOL    HW125400   0.458   0.185   8.721 -0.4874 -0.3348 -0.9167
 4646SOL    HW225401   0.355   0.279   8.782  1.0507  0.0170  0.6169
 4647SOL     OW25402   3.786   0.329   2.596  0.0920  0.7993  0.1543
 4647SOL    HW125403   3.876   0.342   2.565  0.3600  1.7948  1.3581
 4647SOL    HW225404   3.801   0.363   2.684 -0.1202 -1.1570  0.9462
 4648SOL     OW25405   2.426   3.063   9.039  0.1662 -0.7310  0.3319
 4648SOL    HW125406   2.391   2.985   9.081 -0.2169 -0.5980  0.2587
 4648SOL    HW225407   2.404   3.037   8.950  1.4675 -0.0823 -0.1863
 4649SOL     OW25408   0.957   2.758   3.248 -0.5881  0.2288  0.3859
 4649SOL    HW125409   0.926   2.822   3.184  0.9439  1.2449  0.6702
 4649SOL    HW225410   1.047   2.743   3.218  0.0152  0.2912  2.1539
 4650SOL     OW25411   0.740   2.695   7.147 -0.1396 -0.9176  0.1120
 4650SOL    HW125412   0.699   2.623   7.195 -2.3874 -0.1174 -0.6578
 4650SOL    HW225413   0.820   2.702   7.200  1.4176 -2.4206 -2.0025
 4651SOL     OW25414   1.468   4.173   4.009 -0.0138  0.6562 -0.3466
 4651SOL    HW125415   1.449   4.180   3.915 -0.2928 -1.3732 -0.4463
 4651SOL    HW225416   1.414   4.101   4.041  0.8902  0.2969  0.3841
 4652SOL     OW25417   2.671   1.694   4.939  0.5207 -0.2648  0.3969
 4652SOL    HW125418   2.652   1.693   5.033 -1.0812  1.3230  0.0934
 4652SOL    HW225419   2.704   1.609   4.911  1.1643 -0.0576  0.5317
 4653SOL     OW25420   2.116   1.282   0.967  0.3895  0.4223 -0.8355
 4653SOL    HW125421   2.035   1.329   0.987  0.2415  0.4228 -1.4141
 4653SOL    HW225422   2.141   1.254   1.054  1.0425  0.8751 -0.8736
 4654SOL     OW25423   4.542   0.617  16.487 -0.1963 -0.1935 -0.1709
 4654SOL    HW125424   4.593   0.561  16.429 -0.4290 -0.6709  0.0933
 4654SOL    HW225425   4.515   0.690  16.431  1.6623 -2.1584 -3.6657
 4655SOL     OW25426   0.657   1.802   7.225 -0.2137  0.0610 -0.5679
 4655SOL    HW125427   0.648   1.776   7.134 -2.4547 -0.2615 -0.2535
 4655SOL    HW225428   0.619   1.889   7.233  1.2489  0.5886  0.5557
 4656SOL     OW25429   2.621   2.571   4.793  0.7005 -0.1701  0.2627
 4656SOL    HW125430   2.574   2.488   4.799  0.0868  0.2113  0.7370
 4656SOL    HW225431   2.628   2.581   4.698 -0.5129 -0.6505  0.1241
 4657SOL     OW25432   1.292   0.559  13.803  0.3893  0.2744  0.6928
 4657SOL    HW125433   1.316   0.504  13.877 -2.6656  0.3601  1.7610
 4657SOL    HW225434   1.278   0.645  13.844 -1.2744 -0.8554  2.4713
 4658SOL     OW25435   3.035   2.353   8.358 -0.3552 -0.4132  0.1276
 4658SOL    HW125436   3.039   2.258   8.361  0.3767 -0.3263  1.6792
 4658SOL    HW225437   3.080   2.381   8.437 -2.8164  1.0619  1.0301
 4659SOL     OW25438   3.415   3.755  13.670  0.0864  0.0603  0.0130
 4659SOL    HW125439   3.486   3.814  13.645 -0.6027  0.4593 -0.9720
 4659SOL    HW225440   3.461   3.710  13.741 -0.1308 -1.5385 -0.8479
 4660SOL     OW25441   2.342   3.678   1.539  0.8582 -0.5637  0.6793
 4660SOL    HW125442   2.398   3.686   1.462 -2.2265  0.3731 -1.4862
 4660SOL    HW225443   2.252   3.682   1.505  0.6817  1.0304  1.3563
 4661SOL     OW25444   3.873   2.294  14.060 -0.6677  0.7379 -0.0711
 4661SOL    HW125445   3.880   2.365  14.123 -2.6314 -0.8228  1.8731
 4661SOL    HW225446   3.940   2.234  14.092 -0.2692  0.2834 -1.7277
 4662SOL     OW25447   3.616   4.496   3.010 -0.3851  0.0254  0.0142
 4662SOL    HW125448   3.634   4.521   3.101  3.1668 -1.9414 -0.1634
 4662SOL    HW225449   3.698   4.467   2.970 -0.9192 -1.1605 -0.2310
 4663SOL     OW25450   3.855   0.551   8.683 -0.3983 -0.9532  0.6047
 4663SOL    HW125451   3.789   0.481   8.685 -0.4375 -1.0839 -3.8852
 4663SOL    HW225452   3.837   0.581   8.593 -0.5664 -1.1365  0.5767
 4664SOL     OW25453   4.293   3.684  10.787  0.0324 -0.3693 -0.2593
 4664SOL    HW125454   4.275   3.769  10.747 -2.9875 -1.1603 -0.5266
 4664SOL    HW225455   4.384   3.682  10.758  0.4844 -0.7003  1.1821
 4665SOL     OW25456   0.038   0.451   3.783 -0.2375  0.4422  0.1244
 4665SOL    HW125457   4.704   0.407   3.724  2.9069 -0.3122 -2.5434
 4665SOL    HW225458   0.049   0.535   3.737 -2.8663  0.4584 -0.4911
 4666SOL     OW25459   2.161   4.275   7.811 -0.0159 -0.1775 -0.2736
 4666SOL    HW125460   2.198   4.224   7.739 -0.7522  1.9394 -2.1221
 4666SOL    HW225461   2.231   4.305   7.870  1.0136  1.1796 -2.2196
 4667SOL     OW25462   2.289   0.279   5.910  1.1501  0.4130 -0.8339
 4667SOL    HW125463   2.234   0.310   5.982  4.3548 -0.3594  1.9729
 4667SOL    HW225464   2.245   0.198   5.882 -1.2509  1.3409  0.2111
 4668SOL     OW25465   0.470   2.384  15.096  0.1221  0.0598  0.2214
 4668SOL    HW125466   0.464   2.424  15.009  0.1484 -1.9775 -0.7125
 4668SOL    HW225467   0.397   2.322  15.101  0.0720 -0.0228 -1.5539
 4669SOL     OW25468   2.268   1.112  14.157  0.0718 -0.3658 -0.5523
 4669SOL    HW125469   2.233   1.028  14.126 -0.2120  0.7209 -3.2048
 4669SOL    HW225470   2.271   1.100  14.252 -0.7677 -1.7998 -0.7153
 4670SOL     OW25471   2.307   1.292   0.786  0.0381 -0.0863  0.4505
 4670SOL    HW125472   2.239   1.311   0.851 -0.4049 -3.0241  0.8566
 4670SOL    HW225473   2.276   1.206   0.756  1.7849  0.1260 -1.9521
 4671SOL     OW25474   0.270   0.573  14.624  0.3509 -0.1370 -0.2595
 4671SOL    HW125475   0.322   0.653  14.613  0.6593 -0.3955 -0.7006
 4671SOL    HW225476   0.308   0.531  14.701 -2.5042 -3.3560 -0.6241
 4672SOL     OW25477   2.052   0.685  10.672 -0.1729 -0.0110  0.2965
 4672SOL    HW125478   2.036   0.736  10.593 -1.8268 -0.3212  0.4336
 4672SOL    HW225479   1.973   0.630  10.677 -0.2099 -0.0175 -0.3285
 4673SOL     OW25480   4.680   3.824  11.943  0.2061 -0.1190 -0.1225
 4673SOL    HW125481   4.619   3.751  11.938 -0.2099  0.2484 -0.4500
 4673SOL    HW225482   0.021   3.780  11.993 -0.4403  0.3268  1.1379
 4674SOL     OW25483   3.881   0.842   5.228 -0.0625 -0.2782  0.2131
 4674SOL    HW125484   3.902   0.874   5.316 -1.0911 -1.0541  0.7521
 4674SOL    HW225485   3.874   0.748   5.246 -1.2713  0.0447  1.3612
 4675SOL     OW25486   3.965   4.257   6.645 -0.1276  0.5155  0.2482
 4675SOL    HW125487   3.935   4.235   6.557  0.0867 -0.3025  0.3741
 4675SOL    HW225488   4.026   4.183   6.646 -0.1133  0.5237 -0.9945
 4676SOL     OW25489   0.063   0.496   4.496  0.1151 -0.0395 -0.0175
 4676SOL    HW125490   0.142   0.462   4.538 -0.8344  0.0443  1.8234
 4676SOL    HW225491   0.003   0.442   4.548 -0.7787 -1.0239 -2.0789
 4677SOL     OW25492   2.356   3.366  17.486  0.3091 -0.2322 -0.3399
 4677SOL    HW125493   2.330   3.299  17.422 -0.8133 -1.4438  1.3855
 4677SOL    HW225494   2.416   3.308  17.533 -0.5750 -1.0709 -0.2474
 4678SOL     OW25495   3.242   1.217   8.368 -0.1795 -0.3630 -0.0827
 4678SOL    HW125496   3.234   1.309   8.393 -0.6336  0.2366 -2.4347
 4678SOL    HW225497   3.317   1.190   8.421 -1.3560 -0.8105  1.3690
 4679SOL     OW25498   2.327   4.054   4.706  0.0144  0.0477  0.1492
 4679SOL    HW125499   2.411   4.009   4.708 -0.0342 -0.0153  0.7639
 4679SOL    HW225500   2.352   4.144   4.725 -1.6708  0.2046  1.6184
 4680SOL     OW25501   3.817   1.682  13.953 -0.0871 -0.4783 -0.3388
 4680SOL    HW125502   3.793   1.775  13.956 -0.8226 -0.6487 -1.2185
 4680SOL    HW225503   3.909   1.686  13.927 -0.4359  0.9034 -1.3476
 4681SOL     OW25504   2.151   2.838  17.234  0.0502 -0.4955  0.4209
 4681SOL    HW125505   2.073   2.786  17.251  0.1265 -0.8845 -0.4596
 4681SOL    HW225506   2.176   2.798  17.151  1.8552 -1.1018  1.2704
 4682SOL     OW25507   4.472   1.952   2.522 -0.0569  0.2169  0.3620
 4682SOL    HW125508   4.387   1.958   2.478  0.2399  0.2855 -0.2089
 4682SOL    HW225509   4.528   1.992   2.456 -0.2968  0.8699  0.5586
 4683SOL     OW25510   1.158   3.032   3.815 -0.1181 -0.0924 -0.1288
 4683SOL    HW125511   1.145   3.122   3.847 -1.2148 -0.3335  0.1022
 4683SOL    HW225512   1.070   3.002   3.838  0.6172 -1.9586  0.2161
 4684SOL     OW25513   3.148   2.911  11.866  0.2040  0.3031  0.1309
 4684SOL    HW125514   3.167   2.901  11.959  2.0028 -0.8226 -0.3675
 4684SOL    HW225515   3.178   3.001  11.852  0.4987 -0.0185 -1.3072
 4685SOL     OW25516   0.066   3.232   5.996  0.1844  0.2838 -0.0801
 4685SOL    HW125517   0.007   3.299   5.964  1.1121  0.6887 -0.9486
 4685SOL    HW225518   0.018   3.159   6.036  1.7953 -1.2078 -0.8289
 4686SOL     OW25519   4.133   0.686  16.632  0.2459  0.6091 -0.6250
 4686SOL    HW125520   4.206   0.725  16.680  0.2541 -0.8974  0.5718
 4686SOL    HW225521   4.058   0.688  16.691  0.0346  0.6546 -0.8965
 4687SOL     OW25522   3.825   4.394   2.379  0.5039  0.2129 -0.8155
 4687SOL    HW125523   3.811   4.463   2.444  1.2825  1.1688 -1.6632
 4687SOL    HW225524   3.919   4.384   2.394  0.2434  0.9041  1.2447
 4688SOL     OW25525   3.020   0.295   7.759  0.4764 -0.1074  0.0779
 4688SOL    HW125526   2.968   0.269   7.835  0.5811 -1.0007 -0.1480
 4688SOL    HW225527   3.015   0.209   7.717  1.8260  0.2223 -0.7510
 4689SOL     OW25528   2.710   3.594  17.414 -0.3075  0.0422 -0.7296
 4689SOL    HW125529   2.775   3.650  17.456  1.0185 -0.7405 -1.7694
 4689SOL    HW225530   2.718   3.512  17.462  1.4023  0.8509  0.3531
 4690SOL     OW25531   2.253   0.353   2.998  0.3355 -0.2483  0.4668
 4690SOL    HW125532   2.188   0.297   3.041 -2.5058  0.5492 -2.7451
 4690SOL    HW225533   2.227   0.344   2.906  1.0093 -2.5624  0.5115
 4691SOL     OW25534   1.752   1.254   6.181  0.0701  0.1745  0.0609
 4691SOL    HW125535   1.660   1.274   6.193  0.2658  2.0425 -1.6234
 4691SOL    HW225536   1.768   1.221   6.270 -1.6145 -1.5692 -0.2930
 4692SOL     OW25537   2.607   4.301   8.716 -0.2564 -0.0456 -0.5221
 4692SOL    HW125538   2.700   4.321   8.699 -0.4350  0.4323 -0.9328
 4692SOL    HW225539   2.588   4.247   8.639  2.1680 -2.7582  0.7589
 4693SOL     OW25540   1.463   3.563  13.963  0.5781  0.2679  0.1202
 4693SOL    HW125541   1.455   3.609  13.879  1.7532  1.2907  0.5794
 4693SOL    HW225542   1.557   3.570  13.980  0.3551 -0.2887  1.5453
 4694SOL     OW25543   2.572   2.431  13.534 -0.0939 -0.2609 -0.1434
 4694SOL    HW125544   2.544   2.412  13.623  3.2203  0.6015  1.0669
 4694SOL    HW225545   2.494   2.481  13.509 -2.1262 -2.7695  1.1239
 4695SOL     OW25546   4.661   0.352   5.353  0.1331 -0.0370  0.0185
 4695SOL    HW125547   0.024   0.344   5.386 -0.0543 -0.1029  0.5063
 4695SOL    HW225548   4.672   0.305   5.270 -1.6154  2.4340 -1.6035
 4696SOL     OW25549   2.276   1.776   7.437  0.0014  0.0199 -0.6416
 4696SOL    HW125550   2.202   1.813   7.389 -0.2653  0.1623 -0.1277
 4696SOL    HW225551   2.221   1.715   7.487  0.6314  2.1097  2.6575
 4697SOL     OW25552   4.425   0.097   4.068 -0.0288  0.3148  0.7034
 4697SOL    HW125553   4.430   0.083   4.162 -0.3944  1.0196  0.8353
 4697SOL    HW225554   4.440   0.010   4.032  0.1475  0.8983 -0.6618
 4698SOL     OW25555   3.068   3.088  10.108  0.0818 -0.1673  0.0796
 4698SOL    HW125556   3.142   3.036  10.142 -0.8179 -1.0789  0.6480
 4698SOL    HW225557   3.001   3.020  10.104 -0.0662  0.0170 -0.5569
 4699SOL     OW25558   0.161   2.301   7.511  0.7391  0.2502  1.0190
 4699SOL    HW125559   0.211   2.259   7.441  2.8041  1.9023  1.4845
 4699SOL    HW225560   0.229   2.343   7.565 -0.3596  0.2032  2.4249
 4700SOL     OW25561   3.825   1.672   0.012  0.2399 -0.4875 -0.4746
 4700SOL    HW125562   3.882   1.664   0.088  0.4237  0.4299 -0.5116
 4700SOL    HW225563   3.881   1.717  17.657 -1.3032  0.9118 -0.8526
 4701SOL     OW25564   1.640   1.367  15.274 -0.1594 -0.0596 -1.1200
 4701SOL    HW125565   1.549   1.395  15.266 -0.5200 -0.7257  0.6308
 4701SOL    HW225566   1.657   1.392  15.364  3.1317 -0.4352 -1.6407
 4702SOL     OW25567   3.520   3.384   0.032 -0.1318 -0.5707 -0.0083
 4702SOL    HW125568   3.426   3.370   0.033 -0.7355  3.3942 -0.6167
 4702SOL    HW225569   3.521   3.427   0.118  2.1172  1.8721 -1.2518
 4703SOL     OW25570   2.760   1.624  15.700 -0.4188 -0.5819 -0.3593
 4703SOL    HW125571   2.774   1.718  15.690 -0.2056 -0.7888 -2.0107
 4703SOL    HW225572   2.673   1.626  15.740  1.0408 -0.8819  2.8413
 4704SOL     OW25573   2.757   0.863   7.060  0.1184  0.4669 -1.1197
 4704SOL    HW125574   2.834   0.921   7.064 -0.5213  1.2357 -0.0351
 4704SOL    HW225575   2.772   0.808   6.983  3.1598  1.1756 -1.0498
 4705SOL     OW25576   4.547   1.910   9.453 -0.2548  0.4718 -0.1873
 4705SOL    HW125577   4.537   1.816   9.468  1.5538  0.1899 -0.8012
 4705SOL    HW225578   4.534   1.913   9.358  2.3526  1.3026 -0.5259
 4706SOL     OW25579   4.167   3.993  16.480 -0.6560  0.1149 -0.6148
 4706SOL    HW125580   4.198   3.987  16.571 -1.9988 -1.6038 -0.2819
 4706SOL    HW225581   4.105   4.066  16.488 -0.2525  0.3422  0.4863
 4707SOL     OW25582   3.889   3.494  15.413 -0.0877 -0.3566  0.2840
 4707SOL    HW125583   3.927   3.479  15.499 -1.4524 -0.3158  0.9005
 4707SOL    HW225584   3.962   3.515  15.355 -1.5668  1.2391 -0.9817
 4708SOL     OW25585   3.731   1.482   6.192 -0.1921 -0.2052  0.0948
 4708SOL    HW125586   3.801   1.490   6.126 -0.6239 -1.9922 -0.5834
 4708SOL    HW225587   3.759   1.547   6.256 -1.5871  0.1900  0.2953
 4709SOL     OW25588   0.702   0.022   6.777  0.5874  0.3232 -0.1263
 4709SOL    HW125589   0.730   0.010   6.868 -0.8993  1.5214  0.4905
 4709SOL    HW225590   0.618   0.067   6.788  0.5551  0.3697 -0.5613
 4710SOL     OW25591   2.010   4.100   5.939  0.0843  0.2211  0.1046
 4710SOL    HW125592   1.999   4.005   5.933 -0.1125  0.3915 -2.2300
 4710SOL    HW225593   1.920   4.131   5.923 -0.6912 -1.6703  0.8247
 4711SOL     OW25594   1.302   0.985   4.554  0.1019  0.1752  0.1447
 4711SOL    HW125595   1.367   1.048   4.586  0.2867  0.9319 -1.7219
 4711SOL    HW225596   1.343   0.901   4.575 -1.6366 -0.6644  0.1333
 4712SOL     OW25597   2.417   0.583   8.683 -0.5043 -0.0821  0.5133
 4712SOL    HW125598   2.484   0.516   8.672 -0.3851 -0.1160  1.4275
 4712SOL    HW225599   2.377   0.596   8.597  2.4758  2.0128 -0.5942
 4713SOL     OW25600   1.187   0.089   6.737 -0.1650 -0.3091  0.4310
 4713SOL    HW125601   1.151   0.155   6.797 -3.2358 -1.2629 -0.3604
 4713SOL    HW225602   1.109   0.035   6.724 -1.4515  1.4222  0.8959
 4714SOL     OW25603   3.383   2.184   8.569  0.2478  0.1981 -0.0778
 4714SOL    HW125604   3.407   2.135   8.647  0.1516  0.2556 -0.0114
 4714SOL    HW225605   3.415   2.273   8.586  1.0215 -0.0778 -0.1153
 4715SOL     OW25606   2.179   4.643   2.245  0.3250  0.0714 -0.4132
 4715SOL    HW125607   2.163   4.570   2.185 -2.4826  2.1608 -2.2234
 4715SOL    HW225608   2.228   4.703   2.188  1.6389 -0.5869  0.0319
 4716SOL     OW25609   4.548   0.499   3.102 -0.0123 -0.1573  0.0905
 4716SOL    HW125610   4.470   0.526   3.054 -2.0642 -1.6123  2.5862
 4716SOL    HW225611   4.505   0.419   3.132  2.3280 -1.5209 -0.1900
 4717SOL     OW25612   0.672   4.262   7.156  0.6288  0.1640  0.2142
 4717SOL    HW125613   0.602   4.304   7.206  0.9631  0.4389  0.4469
 4717SOL    HW225614   0.740   4.326   7.174  0.7637 -1.5850  5.9256
 4718SOL     OW25615   0.554   2.785   1.848  0.2361 -0.6270 -0.5941
 4718SOL    HW125616   0.461   2.773   1.866  0.7218 -2.3407  0.6790
 4718SOL    HW225617   0.587   2.703   1.885  1.3493  0.8136  1.5803
 4719SOL     OW25618   0.635   1.051   6.955 -0.0702 -0.6626 -0.2133
 4719SOL    HW125619   0.603   1.139   6.972 -0.3254 -0.9141  0.6081
 4719SOL    HW225620   0.664   1.022   7.042  0.6317 -2.2306 -0.9567
 4720SOL     OW25621   1.364   4.038   4.272 -0.0564  0.5074 -0.2900
 4720SOL    HW125622   1.295   4.103   4.256 -0.7722  0.1495  1.2489
 4720SOL    HW225623   1.316   3.955   4.274  2.1039 -0.7293 -0.1932
 4721SOL     OW25624   0.083   2.522   2.477  0.3447 -0.4798 -0.3726
 4721SOL    HW125625   0.018   2.462   2.515 -1.4427  2.0367  0.5541
 4721SOL    HW225626   0.084   2.579   2.553  0.8827 -1.2106  0.1638
 4722SOL     OW25627   1.735   4.060   1.869  0.4359 -0.1281 -0.2324
 4722SOL    HW125628   1.739   4.007   1.789  0.3790  1.5745 -1.3817
 4722SOL    HW225629   1.817   4.110   1.866  0.5632 -0.5502 -3.8559
 4723SOL     OW25630   0.046   1.229  15.053  0.0801  0.0247  0.7010
 4723SOL    HW125631   0.130   1.205  15.015 -0.4365 -0.6585 -0.0141
 4723SOL    HW225632   0.023   1.146  15.095 -0.4520 -0.4540 -0.5178
 4724SOL     OW25633   4.473   2.877  15.109  0.0739  0.0948 -0.4440
 4724SOL    HW125634   4.442   2.813  15.044 -0.9467  0.1455  0.0044
 4724SOL    HW225635   4.391   2.906  15.149  0.9957  2.5266 -0.2911
 4725SOL     OW25636   3.740   1.636   2.782 -0.1940  0.4298 -0.3272
 4725SOL    HW125637   3.803   1.610   2.849 -1.0606  0.0424  0.3408
 4725SOL    HW225638   3.721   1.548   2.749 -1.8406  0.3343  0.8542
 4726SOL     OW25639   2.223   3.633  11.254 -0.1562 -0.3642  0.1083
 4726SOL    HW125640   2.219   3.710  11.310 -0.6963  0.3093 -0.8583
 4726SOL    HW225641   2.135   3.639  11.216  0.2168  0.9570 -0.5267
 4727SOL     OW25642   2.679   1.963   2.260 -0.1360 -0.0810  0.2974
 4727SOL    HW125643   2.675   1.882   2.311 -0.0804 -0.9132 -1.0297
 4727SOL    HW225644   2.774   1.977   2.258 -0.0025 -1.3588 -1.4901
 4728SOL     OW25645   3.677   3.802   6.801  0.2681 -0.5767 -0.1344
 4728SOL    HW125646   3.610   3.870   6.792 -1.1319 -2.1553 -1.6152
 4728SOL    HW225647   3.758   3.850   6.818  1.3873 -1.7966 -1.9965
 4729SOL     OW25648   0.419   0.777   4.054  0.8569  0.4592 -0.1840
 4729SOL    HW125649   0.449   0.810   4.139  1.2154  0.5454 -0.3434
 4729SOL    HW225650   0.489   0.713   4.042  0.6171  0.0925  0.3916
 4730SOL     OW25651   2.203   0.858   7.514 -0.0154  0.3527  0.1248
 4730SOL    HW125652   2.157   0.831   7.435  0.7384  0.7491 -0.4445
 4730SOL    HW225653   2.239   0.942   7.487  3.5081 -1.5459 -1.0734
 4731SOL     OW25654   2.424   1.075  17.493 -0.0627  0.4830  0.0314
 4731SOL    HW125655   2.437   1.058  17.399  0.9012  1.2738  0.0181
 4731SOL    HW225656   2.339   1.118  17.495  0.4124  1.3196  2.2416
 4732SOL     OW25657   2.843   2.729   3.168  0.0342 -0.3283 -0.0829
 4732SOL    HW125658   2.880   2.807   3.126  0.1654  0.5857  1.7246
 4732SOL    HW225659   2.785   2.703   3.097 -0.2733 -2.0888  0.8309
 4733SOL     OW25660   0.852   2.363  10.831 -0.2545  0.5634  0.1194
 4733SOL    HW125661   0.881   2.431  10.770  1.0698 -1.4577 -1.5013
 4733SOL    HW225662   0.865   2.280  10.785 -0.6460  1.3939 -1.4761
 4734SOL     OW25663   1.968   0.698   2.210 -0.6357 -0.2676  0.1051
 4734SOL    HW125664   1.983   0.692   2.305  0.9604  0.2246 -0.1072
 4734SOL    HW225665   1.878   0.668   2.204 -0.0683 -1.6453 -1.5010
 4735SOL     OW25666   4.694   1.901   1.768  0.0570 -0.2196 -0.2529
 4735SOL    HW125667   0.049   1.880   1.813 -0.0692  0.5208  0.3128
 4735SOL    HW225668   4.682   1.812   1.735  0.2905 -0.2916 -0.1420
 4736SOL     OW25669   1.011   1.247   8.682  0.0742  0.6835  0.2334
 4736SOL    HW125670   0.934   1.195   8.659  0.3621  0.8411 -1.0791
 4736SOL    HW225671   0.980   1.338   8.686 -1.1485  0.2487  0.8932
 4737SOL     OW25672   1.834   1.153   3.890 -0.6140 -0.3622  0.6494
 4737SOL    HW125673   1.757   1.176   3.838  1.0653 -1.6664 -2.3754
 4737SOL    HW225674   1.875   1.083   3.840  3.1915  1.9544  0.5039
 4738SOL     OW25675   1.498   0.491   5.394  0.0307 -0.3325  0.4221
 4738SOL    HW125676   1.438   0.453   5.329  0.3439 -1.6073  0.8814
 4738SOL    HW225677   1.441   0.462   5.465  0.4176 -0.9699  0.4691
 4739SOL     OW25678   2.822   2.105   9.133 -0.4100  0.3886 -0.3529
 4739SOL    HW125679   2.786   2.113   9.222  0.3189 -0.8736  0.0429
 4739SOL    HW225680   2.738   2.104   9.087 -0.6327  0.6880  0.0490
 4740SOL     OW25681   4.348   4.294   3.131  0.2011 -0.1688 -0.2318
 4740SOL    HW125682   4.361   4.209   3.089 -1.0469 -0.0656 -0.8120
 4740SOL    HW225683   4.429   4.296   3.182  1.0016 -0.6062 -1.4862
 4741SOL     OW25684   2.950   3.867   1.594 -0.5618  0.3929  0.1558
 4741SOL    HW125685   2.857   3.874   1.617 -0.3775 -1.6822  1.5801
 4741SOL    HW225686   2.970   3.933   1.528  1.0691  1.2406  1.4770
 4742SOL     OW25687   1.283   1.590   4.718 -0.5498  0.3540 -0.3302
 4742SOL    HW125688   1.258   1.511   4.765 -0.0894  0.3974 -0.0119
 4742SOL    HW225689   1.353   1.566   4.657 -2.2732  1.9842 -2.9641
 4743SOL     OW25690   3.718   2.845   1.840 -0.0140  0.1294 -0.0315
 4743SOL    HW125691   3.622   2.850   1.838  0.0046  0.8137  1.2760
 4743SOL    HW225692   3.721   2.749   1.836 -1.6885 -0.0230  2.1873
 4744SOL     OW25693   4.343   1.672   9.579 -0.1078  0.2663 -0.3887
 4744SOL    HW125694   4.257   1.711   9.590  0.2919  0.4078  2.3106
 4744SOL    HW225695   4.386   1.687   9.664  1.4155  1.2224 -1.3154
 4745SOL     OW25696   0.260   3.565   7.965  0.0477  0.0771  0.6777
 4745SOL    HW125697   0.339   3.576   8.017  0.6989 -2.0437  0.1333
 4745SOL    HW225698   0.311   3.571   7.884  2.9901 -0.5369  2.5235
 4746SOL     OW25699   4.303   1.306   8.264  0.5019 -0.1529 -0.4829
 4746SOL    HW125700   4.263   1.373   8.319 -3.2239 -1.8150 -1.2225
 4746SOL    HW225701   4.301   1.351   8.180  2.2560  0.0370 -0.4385
 4747SOL     OW25702   1.850   2.206  13.005 -0.4808 -0.3066  0.0884
 4747SOL    HW125703   1.804   2.290  13.002  0.1452 -0.0606 -2.4731
 4747SOL    HW225704   1.877   2.203  13.097 -2.7292 -2.2038  0.6961
 4748SOL     OW25705   3.373   4.583   0.584  0.0114 -0.6627  0.4388
 4748SOL    HW125706   3.366   4.678   0.570  1.7579 -0.9467 -2.4905
 4748SOL    HW225707   3.466   4.568   0.601 -0.2659 -0.8075  1.7881
 4749SOL     OW25708   3.507   4.582   3.964 -0.5272  0.8462  0.6434
 4749SOL    HW125709   3.585   4.585   4.021 -0.2529 -1.0600  0.3752
 4749SOL    HW225710   3.476   4.672   3.962 -0.0707  0.9571 -0.8730
 4750SOL     OW25711   2.746   3.196   4.723 -0.5234  0.4354  0.0765
 4750SOL    HW125712   2.838   3.221   4.714  0.2025 -1.9875  0.6485
 4750SOL    HW225713   2.745   3.104   4.751  0.9961  0.4237  0.1238
 4751SOL     OW25714   2.492   4.663   7.362 -0.3715 -0.0924 -0.3284
 4751SOL    HW125715   2.522   0.019   7.400 -1.6928  0.8826 -1.4329
 4751SOL    HW225716   2.412   4.659   7.414 -0.5776 -2.3648 -0.8325
 4752SOL     OW25717   1.483   1.982   6.153  0.1398 -0.0408 -0.3032
 4752SOL    HW125718   1.521   1.946   6.233 -0.6790 -1.7250 -0.6635
 4752SOL    HW225719   1.493   2.074   6.178  0.9777  0.1598 -1.3497
 4753SOL     OW25720   2.226   0.566  15.895  0.8419  0.3688  0.1734
 4753SOL    HW125721   2.312   0.531  15.915  0.9678  0.0385 -0.9415
 4753SOL    HW225722   2.179   0.496  15.848  2.6429 -0.3060 -0.6126
 4754SOL     OW25723   2.194   2.930   3.314 -0.1949 -0.2012  0.1863
 4754SOL    HW125724   2.208   2.869   3.387  1.4790  0.6424  0.5773
 4754SOL    HW225725   2.170   3.008   3.363  0.6122 -1.6792  2.9782
 4755SOL     OW25726   0.553   3.136   7.510 -0.4959  0.4715 -0.4791
 4755SOL    HW125727   0.522   3.121   7.599  0.3133  1.8964  0.0431
 4755SOL    HW225728   0.529   3.224   7.479  1.9796  1.5092  0.5853
 4756SOL     OW25729   1.734   2.270  10.325  0.5815  0.1832  0.1540
 4756SOL    HW125730   1.650   2.314  10.311 -0.3223 -1.2500  1.0754
 4756SOL    HW225731   1.777   2.297  10.244  3.9472  2.4165  2.6952
 4757SOL     OW25732   3.103   4.514  12.223 -0.2469 -0.5532 -0.2883
 4757SOL    HW125733   3.138   4.585  12.170 -0.5792  0.0771  0.3350
 4757SOL    HW225734   3.176   4.455  12.239  0.7376 -0.7417 -5.4774
 4758SOL     OW25735   3.234   3.232   0.465 -0.4186  0.8607 -0.2990
 4758SOL    HW125736   3.239   3.161   0.529 -2.9366  1.4096  0.5193
 4758SOL    HW225737   3.286   3.297   0.513 -1.1388  1.5655 -0.4891
 4759SOL     OW25738   3.459   1.845  15.130  0.1242  0.0880 -0.1438
 4759SOL    HW125739   3.467   1.775  15.195 -0.1087  0.2140  0.0200
 4759SOL    HW225740   3.369   1.877  15.140  0.9754  2.4832 -0.3214
 4760SOL     OW25741   4.107   1.352   6.883  0.5343  0.6036 -0.4406
 4760SOL    HW125742   4.200   1.360   6.903  0.0661  0.2575  1.8477
 4760SOL    HW225743   4.113   1.337   6.788  1.5862  0.1567 -0.3072
 4761SOL     OW25744   0.316   0.171   7.784 -0.0490 -0.4483  0.5227
 4761SOL    HW125745   0.338   0.120   7.706 -3.2247  1.7299 -1.7907
 4761SOL    HW225746   0.251   0.115   7.828  0.0207 -0.5472  0.4997
 4762SOL     OW25747   2.001   1.290  16.578 -0.4003 -0.5697 -0.2976
 4762SOL    HW125748   1.954   1.211  16.605 -1.2198 -0.5461 -1.6819
 4762SOL    HW225749   2.000   1.268  16.485 -0.0313 -0.6199 -0.2904
 4763SOL     OW25750   0.357   3.854   7.161  0.2207  0.0110  0.3651
 4763SOL    HW125751   0.381   3.810   7.079  1.0189 -0.8775  1.0637
 4763SOL    HW225752   0.437   3.854   7.214  0.3090 -0.9876  0.2354
 4764SOL     OW25753   3.453   1.776   4.816 -0.1852 -0.8854 -0.6086
 4764SOL    HW125754   3.417   1.721   4.886 -2.0851  0.1674 -0.7725
 4764SOL    HW225755   3.477   1.707   4.754  0.7077 -0.3585 -0.8543
 4765SOL     OW25756   2.674   3.194   1.204 -0.1100 -0.1590  0.0187
 4765SOL    HW125757   2.698   3.102   1.210  1.3707  0.2152 -0.0247
 4765SOL    HW225758   2.587   3.197   1.243 -0.8047 -1.7034 -1.4405
 4766SOL     OW25759   4.693   4.573  11.092 -0.2954  0.0601  0.0652
 4766SOL    HW125760   0.052   4.613  11.079 -1.0249  1.6233  0.0664
 4766SOL    HW225761   4.716   4.481  11.105 -0.0119  0.2168  0.6513
 4767SOL     OW25762   0.689   3.372  12.221 -0.3973 -0.6911 -0.1195
 4767SOL    HW125763   0.623   3.431  12.184  2.0556  1.4003 -1.1687
 4767SOL    HW225764   0.638   3.333  12.293 -1.0282  1.9374  0.8655
 4768SOL     OW25765   2.265   2.623  17.353  0.0155 -0.3697 -0.2404
 4768SOL    HW125766   2.257   2.713  17.321 -1.7167 -1.1154 -1.9549
 4768SOL    HW225767   2.228   2.570  17.282  0.9406  0.5151 -1.3754
 4769SOL     OW25768   1.160   0.884  11.967  0.1349 -0.2474  0.4449
 4769SOL    HW125769   1.199   0.866  12.052  0.7657  1.5236  0.5520
 4769SOL    HW225770   1.088   0.822  11.962  0.2209 -0.1073 -2.5455
 4770SOL     OW25771   0.154   2.276  12.630  0.2802 -0.1761  0.7232
 4770SOL    HW125772   0.146   2.364  12.595  2.3622 -0.2211  0.1725
 4770SOL    HW225773   0.157   2.299  12.723 -2.4910 -0.7962  0.9945
 4771SOL     OW25774   2.950   2.990   3.899 -0.1713 -0.4752 -0.0636
 4771SOL    HW125775   2.948   3.086   3.902 -1.8260 -0.5028 -0.2619
 4771SOL    HW225776   3.036   2.956   3.924  0.1143 -0.5009 -1.0852
 4772SOL     OW25777   3.554   3.301  17.465  0.0856  0.0632  0.4706
 4772SOL    HW125778   3.637   3.344  17.444  1.2769 -2.7500 -0.5736
 4772SOL    HW225779   3.556   3.318  17.559 -0.5651  0.2423  0.4526
 4773SOL     OW25780   2.464   0.442  16.001  0.2188 -0.2058 -1.2509
 4773SOL    HW125781   2.442   0.405  16.086  0.0603 -2.1332 -2.1362
 4773SOL    HW225782   2.545   0.486  16.028  1.0385 -1.7681 -1.1298
 4774SOL     OW25783   2.609   2.971   4.029 -0.5389 -0.2825 -0.4958
 4774SOL    HW125784   2.647   3.026   3.960 -0.1660  1.0770  0.7839
 4774SOL    HW225785   2.627   3.029   4.103 -1.2286 -0.9292  0.1749
 4775SOL     OW25786   1.257   1.950   7.662  0.1914  0.2676 -0.1221
 4775SOL    HW125787   1.215   1.868   7.689  0.8818 -0.2139 -0.5083
 4775SOL    HW225788   1.302   1.972   7.743  1.3929 -0.2182 -0.6652
 4776SOL     OW25789   0.128   2.639  13.348  0.0147 -0.0903  0.0523
 4776SOL    HW125790   0.205   2.587  13.328 -0.3097  0.2332 -2.0103
 4776SOL    HW225791   0.152   2.676  13.434 -1.2814  0.3306  0.2438
 4777SOL     OW25792   0.947   0.651   3.184 -0.0800 -0.0360  0.2935
 4777SOL    HW125793   0.974   0.574   3.133  0.0028 -1.1230  1.9653
 4777SOL    HW225794   0.861   0.621   3.213 -1.3232  0.3364 -3.0106
 4778SOL     OW25795   3.351   3.432  10.887  0.0927  0.4917 -0.7541
 4778SOL    HW125796   3.302   3.499  10.934  0.3137  0.4735 -0.4986
 4778SOL    HW225797   3.403   3.480  10.823  1.4676  0.0792  0.0362
 4779SOL     OW25798   2.063   4.031   2.047 -0.3174  1.0235 -0.3218
 4779SOL    HW125799   2.036   4.103   2.104  2.0809  2.4082 -0.9027
 4779SOL    HW225800   2.024   4.065   1.967  0.0575  2.7674  0.2334
 4780SOL     OW25801   1.731   4.199   6.944  0.2824  0.3972 -0.2555
 4780SOL    HW125802   1.772   4.197   7.030  0.6711 -0.2175 -0.4604
 4780SOL    HW225803   1.688   4.285   6.945 -0.0858  0.2121 -0.3461
 4781SOL     OW25804   3.147   2.074   0.032  0.3702 -0.5473 -0.1091
 4781SOL    HW125805   3.156   1.980   0.047  1.8638 -0.0779  1.8503
 4781SOL    HW225806   3.125   2.083  17.647 -0.3057 -0.6158  0.0432
 4782SOL     OW25807   3.904   3.256   2.452 -0.4321  0.3334  0.0240
 4782SOL    HW125808   3.967   3.192   2.485 -3.1993 -1.4201  1.9361
 4782SOL    HW225809   3.864   3.201   2.384 -4.0255  1.3493  1.3338
 4783SOL     OW25810   2.563   4.436   7.042  0.3955 -0.5746 -0.6373
 4783SOL    HW125811   2.547   4.525   7.075 -0.1138 -0.5237 -1.0262
 4783SOL    HW225812   2.537   4.448   6.951  0.1441  1.1748 -0.3411
 4784SOL     OW25813   0.807   1.100   6.755 -0.1021 -0.3917 -0.2162
 4784SOL    HW125814   0.794   1.055   6.672  0.0871  0.1662 -0.5420
 4784SOL    HW225815   0.744   1.063   6.817  0.7232 -0.8029  0.3890
 4785SOL     OW25816   3.971   2.884   1.048  0.0392  0.2770 -0.0699
 4785SOL    HW125817   3.919   2.956   1.083  2.3362  1.5963  0.6286
 4785SOL    HW225818   3.986   2.918   0.960 -1.0079  2.1753  0.4673
 4786SOL     OW25819   2.288   1.086   3.302  0.2501  0.0550 -0.0709
 4786SOL    HW125820   2.378   1.066   3.277 -0.0108 -0.3582 -0.6598
 4786SOL    HW225821   2.250   1.101   3.216 -2.6975 -0.2441  1.1934
 4787SOL     OW25822   3.400   2.175   0.839 -0.3894  0.3359 -0.2084
 4787SOL    HW125823   3.413   2.139   0.751  0.2126  1.4962 -0.5895
 4787SOL    HW225824   3.477   2.232   0.843  0.8212 -1.3482  0.8254
 4788SOL     OW25825   4.601   0.462  10.198  0.0129  0.6218 -0.6488
 4788SOL    HW125826   4.518   0.463  10.151  0.2190  1.0003 -1.0084
 4788SOL    HW225827   4.640   0.429  10.117  0.6735  0.0827 -0.1100
 4789SOL     OW25828   3.742   4.084   7.856  0.5997 -0.2203  0.4293
 4789SOL    HW125829   3.735   4.016   7.790 -0.7738 -0.3517  0.7263
 4789SOL    HW225830   3.760   4.030   7.933  0.5111  0.6851  1.0960
 4790SOL     OW25831   1.577   4.702   4.924 -0.1729 -0.8254 -0.1817
 4790SOL    HW125832   1.506   0.035   4.947 -0.9180 -1.1808 -1.5258
 4790SOL    HW225833   1.582   4.648   5.002 -4.2833 -0.7424  0.1073
 4791SOL     OW25834   1.971   1.549   7.973  0.0456 -0.4107  0.2173
 4791SOL    HW125835   1.930   1.612   8.032  3.5945  2.0554  0.0828
 4791SOL    HW225836   1.899   1.490   7.954  1.3548 -2.3195  1.1409
 4792SOL     OW25837   2.736   3.566   0.399 -0.0873  0.0873  0.0936
 4792SOL    HW125838   2.831   3.576   0.405 -0.2464  1.8424 -0.3232
 4792SOL    HW225839   2.721   3.504   0.470 -1.9080  0.3902 -0.0223
 4793SOL     OW25840   4.499   2.691   6.871 -0.3419  0.0827  0.3179
 4793SOL    HW125841   4.557   2.647   6.809  0.5166 -1.9319  2.5029
 4793SOL    HW225842   4.500   2.783   6.848  2.4245 -0.1778 -0.5333
 4794SOL     OW25843   1.364   3.380  15.774 -0.5632  0.1713  0.3338
 4794SOL    HW125844   1.292   3.432  15.809 -1.0741  1.8337 -3.1214
 4794SOL    HW225845   1.365   3.317  15.846  1.1554 -1.2815 -0.9591
 4795SOL     OW25846   4.209   2.953   1.358 -0.7701 -0.0466 -0.6932
 4795SOL    HW125847   4.191   2.863   1.329  0.0315 -0.3732 -0.1979
 4795SOL    HW225848   4.194   3.003   1.278  0.2321 -1.1857 -1.5849
 4796SOL     OW25849   1.917   3.279   8.168  0.1377 -0.0958  0.0755
 4796SOL    HW125850   1.994   3.230   8.194  1.4105  1.5412 -0.6144
 4796SOL    HW225851   1.950   3.369   8.168  1.0088 -0.4213  0.4904
 4797SOL     OW25852   4.609   2.183  16.910  0.2168  0.1352 -0.0927
 4797SOL    HW125853   4.633   2.270  16.879  2.6199 -0.4034  0.1945
 4797SOL    HW225854   4.631   2.123  16.839  0.0469 -1.2808  1.0281
 4798SOL     OW25855   4.092   1.821   9.339  0.5644  0.6661 -0.6269
 4798SOL    HW125856   4.026   1.891   9.342 -0.2851 -0.2829  3.6030
 4798SOL    HW225857   4.097   1.809   9.434  1.5937  2.2431 -0.4859
 4799SOL     OW25858   1.144   0.985  11.315  0.6920  0.2794  0.1472
 4799SOL    HW125859   1.147   1.067  11.364 -0.7225  0.0159  0.6595
 4799SOL    HW225860   1.104   1.012  11.233  1.5294 -1.1337 -0.7378
 4800SOL     OW25861   3.687   2.432  14.587  0.0304 -0.1682  0.0259
 4800SOL    HW125862   3.705   2.340  14.605  0.6583  0.2146  1.4331
 4800SOL    HW225863   3.642   2.427  14.503  1.8786 -0.8611 -0.9265
 4801SOL     OW25864   1.151   2.148   7.459 -0.1024 -0.3823  0.0640
 4801SOL    HW125865   1.204   2.172   7.383  1.4834  0.8521  1.5469
 4801SOL    HW225866   1.195   2.075   7.503 -0.1703  0.0619  0.8727
 4802SOL     OW25867   0.965   2.761  13.587  0.5387  0.1162 -1.0038
 4802SOL    HW125868   1.012   2.770  13.669 -1.0863  2.5609 -0.3453
 4802SOL    HW225869   0.972   2.854  13.565 -0.2942  0.2839 -0.5869
 4803SOL     OW25870   3.833   4.160   4.376 -0.2398  0.3419  0.0202
 4803SOL    HW125871   3.920   4.128   4.401 -0.0357 -0.1107 -1.2506
 4803SOL    HW225872   3.821   4.110   4.296 -0.6232  0.7288 -0.1650
 4804SOL     OW25873   4.332   2.069   4.603 -0.2290 -0.6423 -0.0921
 4804SOL    HW125874   4.337   2.140   4.539  0.8454 -0.8458 -0.2336
 4804SOL    HW225875   4.420   2.034   4.587  0.8313  0.6692  2.8217
 4805SOL     OW25876   1.793   1.215   9.159  0.3521 -0.0229 -0.5954
 4805SOL    HW125877   1.720   1.186   9.214  1.4059  0.5847  1.1128
 4805SOL    HW225878   1.821   1.298   9.199 -2.8192 -0.3357  2.2747
 4806SOL     OW25879   0.902   1.963   7.912  0.4086  0.4130  0.3357
 4806SOL    HW125880   0.927   2.026   7.844  1.5996  0.5216  0.8668
 4806SOL    HW225881   0.863   2.010   7.986 -0.6879  1.2161 -0.7523
 4807SOL     OW25882   0.322   0.945   3.883  0.5695 -0.7446 -0.6229
 4807SOL    HW125883   0.370   1.026   3.896  1.0705 -0.9917 -0.9132
 4807SOL    HW225884   0.360   0.889   3.951 -0.2362 -1.1588 -0.5064
 4808SOL     OW25885   2.297   2.667   2.143  0.1412  0.9359 -0.2726
 4808SOL    HW125886   2.253   2.744   2.107 -0.1908 -0.2428 -2.3704
 4808SOL    HW225887   2.368   2.653   2.080 -0.0419 -1.4873  0.0641
 4809SOL     OW25888   0.724   1.080   0.558  0.2273 -0.5434  0.0108
 4809SOL    HW125889   0.689   1.162   0.526  3.5217  0.9583  0.2239
 4809SOL    HW225890   0.681   1.069   0.643 -0.9241 -1.2186 -0.6517
 4810SOL     OW25891   2.714   4.568   7.865  0.1073  0.3848  0.1207
 4810SOL    HW125892   2.708   4.656   7.827 -2.0750  0.4617  0.6702
 4810SOL    HW225893   2.629   4.526   7.856  1.0708 -1.4349 -0.5643
 4811SOL     OW25894   1.200   2.102   5.953 -0.6889  0.4615  0.1267
 4811SOL    HW125895   1.105   2.091   5.960 -0.3732 -0.8938  2.3205
 4811SOL    HW225896   1.215   2.098   6.047  0.8135  0.7278 -0.0998
 4812SOL     OW25897   4.594   1.531  14.756  0.0152  0.0755 -0.1562
 4812SOL    HW125898   4.554   1.580  14.684 -0.3677 -0.1235 -0.0849
 4812SOL    HW225899   4.526   1.463  14.764  1.0401 -0.9341  0.0046
 4813SOL     OW25900   1.659   3.978  12.207 -0.7392  0.4005  0.1946
 4813SOL    HW125901   1.666   4.073  12.200 -1.4776  0.4041 -0.4222
 4813SOL    HW225902   1.704   3.959  12.290  0.2070 -0.6177 -0.5365
 4814SOL     OW25903   3.774   1.046   8.434  0.1404  0.0522  0.1917
 4814SOL    HW125904   3.717   1.002   8.371 -0.2960  1.1409 -0.1790
 4814SOL    HW225905   3.777   1.132   8.392  0.0391 -0.7032 -1.3366
 4815SOL     OW25906   0.240   0.996   7.066 -0.3590  0.1797  0.0212
 4815SOL    HW125907   0.245   1.072   7.124  1.6841  0.5496 -0.6748
 4815SOL    HW225908   0.195   0.933   7.123  0.7169 -0.0279  0.6312
 4816SOL     OW25909   2.183   2.771   8.454 -0.2051  0.2254 -0.0944
 4816SOL    HW125910   2.275   2.744   8.446  0.1790  1.1370  1.2969
 4816SOL    HW225911   2.161   2.814   8.372  1.2215 -1.4375 -1.3628
 4817SOL     OW25912   0.682   1.828   5.013 -0.1490  0.9435 -0.4707
 4817SOL    HW125913   0.668   1.833   5.107  1.4260 -0.8289 -0.1478
 4817SOL    HW225914   0.770   1.863   5.006 -0.8812  2.5198 -1.8188
 4818SOL     OW25915   4.256   0.464   9.325  0.4165 -0.2594  0.8564
 4818SOL    HW125916   4.245   0.535   9.261 -0.2969 -1.7767 -0.7249
 4818SOL    HW225917   4.199   0.396   9.287  0.3221 -0.6141  1.6345
 4819SOL     OW25918   1.235   3.420   3.920 -0.0208  0.0218  0.1113
 4819SOL    HW125919   1.175   3.358   3.962  2.4962 -1.5421  1.4063
 4819SOL    HW225920   1.302   3.359   3.890  1.0996  1.6471 -0.6405
 4820SOL     OW25921   2.769   1.211   7.554  0.0503 -0.1550  0.2108
 4820SOL    HW125922   2.716   1.277   7.598  1.2019  0.1807  1.0846
 4820SOL    HW225923   2.850   1.259   7.541 -0.2105  0.6214  1.5087
 4821SOL     OW25924   0.538   2.504   4.706  0.0402  0.0034  0.1290
 4821SOL    HW125925   0.470   2.467   4.762 -1.9605 -0.3339 -2.5779
 4821SOL    HW225926   0.618   2.484   4.755 -0.5108  0.5741  1.2622
 4822SOL     OW25927   2.150   3.445   3.761 -0.3418  0.6682  0.5113
 4822SOL    HW125928   2.102   3.521   3.795 -1.0839  0.6869 -0.5402
 4822SOL    HW225929   2.236   3.460   3.800 -0.5613  2.4952  0.3181
 4823SOL     OW25930   4.157   2.787   8.168  0.3731  0.7374  0.1174
 4823SOL    HW125931   4.199   2.701   8.174  2.1945  1.7934  2.2409
 4823SOL    HW225932   4.171   2.809   8.260 -0.6889  0.3351  0.3789
 4824SOL     OW25933   4.313   4.095  14.639  0.0691  0.2270  0.3229
 4824SOL    HW125934   4.310   4.190  14.649 -0.3325  0.4319 -1.7660
 4824SOL    HW225935   4.317   4.080  14.734  0.7917  1.5279  0.4954
 4825SOL     OW25936   0.837   4.517   5.082 -0.4647  0.6366  0.2341
 4825SOL    HW125937   0.863   4.472   5.002 -1.9656  1.0654 -0.4962
 4825SOL    HW225938   0.863   4.457   5.152  1.9137  0.2343 -0.9775
 4826SOL     OW25939   1.543   2.271   6.290 -0.7211 -0.2030 -0.1245
 4826SOL    HW125940   1.616   2.322   6.253 -0.4012  0.3217  1.2365
 4826SOL    HW225941   1.556   2.290   6.383  0.5617 -0.6144 -0.2121
 4827SOL     OW25942   0.987   2.844   2.500 -0.0300  0.1257 -0.6176
 4827SOL    HW125943   1.004   2.750   2.492  1.2876  0.4933 -2.0745
 4827SOL    HW225944   0.982   2.867   2.407  0.0061  2.3245 -0.0845
 4828SOL     OW25945   4.602   2.934  16.093  0.0970 -0.4367  0.0896
 4828SOL    HW125946   4.658   2.950  16.018 -0.0750 -2.4001 -0.4655
 4828SOL    HW225947   4.636   2.987  16.165  0.1998  0.5209 -0.6599
 4829SOL     OW25948   2.862   0.688   7.685  0.0889  0.2439 -0.5258
 4829SOL    HW125949   2.835   0.764   7.633  0.0259  0.5195 -0.0864
 4829SOL    HW225950   2.957   0.697   7.689  0.0519 -0.3599  1.4232
 4830SOL     OW25951   0.617   4.458   2.603 -0.1407 -0.0633 -0.3935
 4830SOL    HW125952   0.608   4.423   2.692 -3.3076  1.6228 -0.0336
 4830SOL    HW225953   0.648   4.387   2.547  2.0437  1.5561 -1.2100
 4831SOL     OW25954   1.645   0.634   8.413  0.2644 -0.3954 -0.0522
 4831SOL    HW125955   1.638   0.559   8.472 -0.3018 -0.1086  0.2431
 4831SOL    HW225956   1.571   0.687   8.444 -0.1772 -2.0525  1.7299
 4832SOL     OW25957   2.775   3.931   2.378  0.0293  0.1563 -0.3057
 4832SOL    HW125958   2.722   3.925   2.298 -0.6328 -0.9743  0.2193
 4832SOL    HW225959   2.838   3.992   2.341 -0.1920 -0.0229 -0.9813
 4833SOL     OW25960   1.376   4.440   4.367  0.1977  0.2962 -0.1306
 4833SOL    HW125961   1.333   4.355   4.361  2.7881 -0.8118 -2.7138
 4833SOL    HW225962   1.453   4.442   4.311  0.2076  0.6478 -0.1097
 4834SOL     OW25963   1.475   0.146   4.017  0.2488  0.0785 -0.6186
 4834SOL    HW125964   1.513   0.074   3.967 -1.0722 -0.3875 -0.9483
 4834SOL    HW225965   1.406   0.093   4.057 -0.7283  2.5531  0.9579
 4835SOL     OW25966   1.439   3.732  11.794 -0.4657  0.6137 -0.4026
 4835SOL    HW125967   1.521   3.741  11.842 -0.3047 -3.0771  0.0612
 4835SOL    HW225968   1.474   3.751  11.707  1.2904 -1.0834 -0.0767
 4836SOL     OW25969   3.697   1.130   2.993 -0.0663  0.2936  0.1228
 4836SOL    HW125970   3.764   1.082   2.944 -0.1255 -0.0390  0.3700
 4836SOL    HW225971   3.655   1.050   3.024 -3.6894  1.3057 -2.1075
 4837SOL     OW25972   0.756   2.795   7.514 -0.4301  0.0623  0.5213
 4837SOL    HW125973   0.806   2.716   7.492 -0.2652  0.4385 -0.4467
 4837SOL    HW225974   0.825   2.855   7.487 -0.7053  0.5582  0.9267
 4838SOL     OW25975   1.602   2.222  11.572 -0.0046 -0.0193 -0.2022
 4838SOL    HW125976   1.575   2.149  11.516  1.8589 -0.4961 -0.4839
 4838SOL    HW225977   1.693   2.198  11.591  0.3498  0.5902 -1.1058
 4839SOL     OW25978   0.311   1.138   7.770 -0.2606  0.3842 -0.7106
 4839SOL    HW125979   0.271   1.102   7.691  0.1836 -0.4968 -0.5335
 4839SOL    HW225980   0.283   1.076   7.837  1.0454  0.6891  0.1235
 4840SOL     OW25981   3.885   1.163   4.108 -0.2623  0.0462 -0.4369
 4840SOL    HW125982   3.932   1.127   4.032  0.1677 -0.6493  0.1604
 4840SOL    HW225983   3.958   1.209   4.147 -2.0905  1.9438  0.7507
 4841SOL     OW25984   0.209   2.703  14.462  0.3818  0.7969  0.2062
 4841SOL    HW125985   0.212   2.608  14.458 -0.3145  0.7863 -0.0209
 4841SOL    HW225986   0.232   2.712  14.555  0.5689  1.2268  0.1194
 4842SOL     OW25987   1.358   1.092   1.925  0.5232 -0.1772  0.2052
 4842SOL    HW125988   1.326   1.181   1.941 -1.1493 -0.2735 -2.4664
 4842SOL    HW225989   1.290   1.076   1.859 -1.4828 -1.4764  2.5866
 4843SOL     OW25990   2.817   3.835  12.784 -0.4717 -0.2493 -0.3703
 4843SOL    HW125991   2.788   3.799  12.868  2.2638 -1.5044  0.0489
 4843SOL    HW225992   2.754   3.902  12.757  3.1436  1.9895 -3.2560
 4844SOL     OW25993   0.060   3.675   6.913 -0.3656  0.0517  0.7134
 4844SOL    HW125994   0.060   3.596   6.859  1.2174  0.8667 -0.4945
 4844SOL    HW225995   4.713   3.661   6.972 -0.1665  1.4141  1.3001
 4845SOL     OW25996   2.306   2.756  12.384  0.2269 -0.0526 -0.2478
 4845SOL    HW125997   2.326   2.850  12.388  1.3246 -0.4153  2.7003
 4845SOL    HW225998   2.307   2.728  12.476 -0.3811  0.2102 -0.1588
 4846SOL     OW25999   2.598   3.039   5.480  0.0896 -0.2022  0.1636
 4846SOL    HW126000   2.675   2.985   5.462  0.0574  0.1037 -0.8994
 4846SOL    HW226001   2.635   3.127   5.480  0.2027 -0.2503 -0.0865
 4847SOL     OW26002   4.034   0.235  11.090  0.8013 -0.9239  0.1775
 4847SOL    HW126003   4.091   0.186  11.031  2.1189  0.6183  0.1688
 4847SOL    HW226004   3.992   0.172  11.150 -0.6459 -0.7884 -0.6905
 4848SOL     OW26005   0.625   2.391   7.003 -0.3536  0.6002 -0.0619
 4848SOL    HW126006   0.672   2.451   7.061 -0.7744  0.0879  0.8123
 4848SOL    HW226007   0.564   2.449   6.958 -0.7418 -0.7689 -1.2814
 4849SOL     OW26008   0.220   2.416  13.727  0.1602 -0.1114 -1.0696
 4849SOL    HW126009   0.270   2.343  13.762 -0.3210  0.6789  1.2660
 4849SOL    HW226010   0.135   2.406  13.769  0.0042  3.2074 -0.5892
 4850SOL     OW26011   2.103   2.880   0.213 -0.2122 -0.2352 -0.4020
 4850SOL    HW126012   2.135   2.812   0.272  0.5117  1.0563  0.6805
 4850SOL    HW226013   2.012   2.852   0.210 -0.7629  1.8856 -3.5022
 4851SOL     OW26014   4.605   0.958  15.586 -0.0944  0.0262 -0.2868
 4851SOL    HW126015   4.641   1.046  15.596 -0.8810 -0.2403  4.9043
 4851SOL    HW226016   4.685   0.907  15.589  0.6090  1.2554  2.5150
 4852SOL     OW26017   1.106   2.719   5.788 -0.1056  0.3917  0.3699
 4852SOL    HW126018   1.120   2.624   5.792 -1.8471  0.0639 -1.8271
 4852SOL    HW226019   1.080   2.747   5.876 -0.1054  1.7444 -0.0640
 4853SOL     OW26020   2.510   3.123  15.710 -0.0204  0.0377  0.1967
 4853SOL    HW126021   2.466   3.054  15.660  0.2684 -0.5353  0.7376
 4853SOL    HW226022   2.591   3.125  15.658 -0.5640  0.3203 -0.6364
 4854SOL     OW26023   1.827   3.783  10.166  0.3887 -0.3714 -0.0791
 4854SOL    HW126024   1.825   3.872  10.129 -0.3455 -0.7579 -0.9851
 4854SOL    HW226025   1.827   3.794  10.261 -0.8758 -0.9830 -0.0068
 4855SOL     OW26026   1.093   3.031  10.875 -0.2013  0.5713  0.1090
 4855SOL    HW126027   1.109   2.949  10.920  1.0936  0.6223 -0.2436
 4855SOL    HW226028   1.181   3.065  10.856  0.8489 -1.6376  0.9780
 4856SOL     OW26029   2.450   3.551  14.061 -0.1123 -0.2955 -0.5176
 4856SOL    HW126030   2.527   3.494  14.060  0.3332  0.3065 -1.4175
 4856SOL    HW226031   2.455   3.589  14.148 -1.7912 -1.0351 -0.1093
 4857SOL     OW26032   3.076   2.932  12.461  0.7017  0.0096 -0.0444
 4857SOL    HW126033   3.124   2.855  12.430 -1.4830 -1.5108  0.3494
 4857SOL    HW226034   3.023   2.964  12.388  0.7709 -0.1093 -0.1467
 4858SOL     OW26035   1.732   1.658   1.860 -0.1656  0.2861 -0.3192
 4858SOL    HW126036   1.711   1.636   1.769 -0.4089  0.1155 -0.2203
 4858SOL    HW226037   1.668   1.726   1.883  0.7560  1.6145 -1.7090
 4859SOL     OW26038   1.323   2.288   7.295 -0.4458  0.3312 -0.3501
 4859SOL    HW126039   1.378   2.359   7.328 -0.3355 -0.8499  1.9763
 4859SOL    HW226040   1.362   2.263   7.211  2.0692  2.9971  0.0513
 4860SOL     OW26041   3.640   4.507   0.671 -0.4422  0.8539  0.0793
 4860SOL    HW126042   3.668   4.465   0.590  0.2819 -1.2822  1.4240
 4860SOL    HW226043   3.726   4.498   0.712  0.3012  0.1145 -1.6410
 4861SOL     OW26044   3.728   2.195   5.067 -0.4900  0.0473 -0.7678
 4861SOL    HW126045   3.763   2.160   4.985  1.0383  0.0799 -0.1297
 4861SOL    HW226046   3.689   2.113   5.098  0.4745 -0.1425 -0.0546
 4862SOL     OW26047   2.177   2.412   2.170 -0.2716 -0.4895 -0.3848
 4862SOL    HW126048   2.214   2.497   2.144  0.1308  0.2549  2.5405
 4862SOL    HW226049   2.091   2.447   2.193  0.2323 -0.9663  2.2208
 4863SOL     OW26050   1.024   2.837   5.333  0.3337 -0.6314  0.2347
 4863SOL    HW126051   1.047   2.760   5.385 -0.0810 -0.0936  1.2146
 4863SOL    HW226052   0.979   2.893   5.397 -1.6351  1.7342 -3.2400
 4864SOL     OW26053   0.170   1.279   8.225 -0.2701  0.3992  0.3552
 4864SOL    HW126054   0.131   1.200   8.262 -0.5660 -0.0914 -1.0018
 4864SOL    HW226055   0.236   1.234   8.173 -0.0853  1.2073 -0.1099
 4865SOL     OW26056   2.067   3.967   7.397 -0.1784 -0.1478 -0.4201
 4865SOL    HW126057   2.074   4.002   7.486  0.8135  0.5891 -0.7851
 4865SOL    HW226058   2.089   4.044   7.344  0.1275 -0.1775 -0.3368
 4866SOL     OW26059   3.295   1.822   5.117  0.0976 -0.0121  0.6754
 4866SOL    HW126060   3.336   1.897   5.073 -0.4743  0.6942  1.3412
 4866SOL    HW226061   3.374   1.781   5.151 -1.3874 -1.9206  1.8007
 4867SOL     OW26062   2.120   0.095   6.062 -0.1680 -0.0136  0.2128
 4867SOL    HW126063   2.186   0.117   6.128 -1.3158  0.8918  1.0363
 4867SOL    HW226064   2.045   0.145   6.093  0.3316  1.4564 -0.9524
 4868SOL     OW26065   3.729   2.753  12.574 -0.3695  0.5728  0.1140
 4868SOL    HW126066   3.683   2.694  12.514  0.1606 -0.5229  0.7772
 4868SOL    HW226067   3.794   2.793  12.516  1.3680 -1.3551  0.7273
 4869SOL     OW26068   3.719   4.322  11.600 -0.4659 -0.3621  0.3631
 4869SOL    HW126069   3.650   4.385  11.622 -0.7713  0.5927 -3.4131
 4869SOL    HW226070   3.786   4.380  11.564 -0.1793  0.0012  1.4853
 4870SOL     OW26071   2.535   3.797   5.931  0.1390 -0.4083  0.1337
 4870SOL    HW126072   2.549   3.802   5.837  0.4270 -0.0115  0.2015
 4870SOL    HW226073   2.610   3.843   5.969 -0.4677  2.2943 -1.9338
 4871SOL     OW26074   2.311   2.762   0.335  0.6169 -0.1642 -0.0692
 4871SOL    HW126075   2.399   2.784   0.365 -0.1028  1.4805  0.8285
 4871SOL    HW226076   2.329   2.700   0.265  1.7209  0.3371 -0.2274
 4872SOL     OW26077   0.342   0.522  14.884 -0.3828  0.2518  0.0032
 4872SOL    HW126078   0.350   0.429  14.906 -2.1594 -0.3695 -1.9320
 4872SOL    HW226079   0.414   0.557  14.936 -0.9908  0.5647  0.6342
 4873SOL     OW26080   4.472   3.008   2.101  0.2129  0.6996 -0.4719
 4873SOL    HW126081   4.390   2.960   2.110  2.3935 -3.2492 -1.3589
 4873SOL    HW226082   4.474   3.035   2.009 -0.0147 -1.5546 -1.1416
 4874SOL     OW26083   3.122   0.411   4.162 -0.2540  0.0580  0.0726
 4874SOL    HW126084   3.197   0.425   4.220  0.9029 -3.4696 -0.5710
 4874SOL    HW226085   3.129   0.484   4.100  2.4368  0.3523  0.7189
 4875SOL     OW26086   0.974   1.298  14.638 -0.1652 -0.0276  0.2458
 4875SOL    HW126087   0.900   1.253  14.680 -0.9636  0.2257 -0.9089
 4875SOL    HW226088   1.027   1.221  14.617 -0.7093 -0.3601  0.0979
 4876SOL     OW26089   3.439   3.420   0.674 -0.5018  0.3353 -0.1147
 4876SOL    HW126090   3.473   3.446   0.759 -0.2287 -0.3128 -0.0324
 4876SOL    HW226091   3.522   3.430   0.627 -1.3762 -0.7739 -1.9112
 4877SOL     OW26092   1.836   0.188   3.732  0.0832  0.6756 -0.8737
 4877SOL    HW126093   1.865   0.244   3.661 -0.8172  2.5018  0.1915
 4877SOL    HW226094   1.752   0.149   3.706  0.9876 -0.6921 -1.6735
 4878SOL     OW26095   4.368   3.357   2.933  0.0782  0.2493  0.3338
 4878SOL    HW126096   4.423   3.328   3.006  0.6454  1.3665  0.3377
 4878SOL    HW226097   4.285   3.362   2.980 -0.5214 -1.1199 -0.5350
 4879SOL     OW26098   4.160   0.294  10.499 -0.5129  0.4727 -0.2939
 4879SOL    HW126099   4.098   0.336  10.558 -3.4606 -0.2247 -2.9209
 4879SOL    HW226100   4.215   0.254  10.566 -1.7143 -1.2489 -0.3157
 4880SOL     OW26101   1.682   3.708   5.638 -0.7669  0.2340  0.2047
 4880SOL    HW126102   1.685   3.640   5.706 -0.2887  3.1423  3.0808
 4880SOL    HW226103   1.594   3.696   5.603  0.1339  0.8566 -2.2869
 4881SOL     OW26104   1.878   2.351   1.271  0.0740  0.3438  0.3098
 4881SOL    HW126105   1.892   2.444   1.257  2.0443 -0.2095 -1.3435
 4881SOL    HW226106   1.860   2.322   1.182 -1.4162  1.1667  0.3553
 4882SOL     OW26107   3.915   3.452  16.769 -0.2221  0.0674 -0.4712
 4882SOL    HW126108   3.911   3.363  16.802 -0.2416 -0.2331 -1.2911
 4882SOL    HW226109   3.887   3.439  16.679 -0.5706  0.6158 -0.4406
 4883SOL     OW26110   2.891   4.281   2.487 -0.2698 -0.5289  0.5117
 4883SOL    HW126111   2.925   4.234   2.410  0.3135 -1.0873  1.1069
 4883SOL    HW226112   2.840   4.347   2.440  0.8008  0.9697  1.4265
 4884SOL     OW26113   1.048   4.634   7.121 -0.3607 -0.7717 -0.2631
 4884SOL    HW126114   1.095   4.703   7.166  0.0224 -0.7385 -0.7097
 4884SOL    HW226115   1.128   4.595   7.086  0.2873 -2.2500  2.8721
 4885SOL     OW26116   2.268   4.237   8.567 -0.0735  0.3946  0.0159
 4885SOL    HW126117   2.221   4.306   8.614  1.1446  1.4476 -0.3053
 4885SOL    HW226118   2.205   4.235   8.494 -0.0863 -3.3705  0.1237
 4886SOL     OW26119   4.196   3.698  12.183 -0.1996  0.1778  0.2095
 4886SOL    HW126120   4.250   3.742  12.248 -0.9591 -1.4520  1.9249
 4886SOL    HW226121   4.193   3.611  12.223 -0.8460  0.2451  0.3038
 4887SOL     OW26122   1.649   0.598   3.604  0.1923  0.0969 -0.3539
 4887SOL    HW126123   1.583   0.614   3.671 -0.4139 -1.1221 -0.6467
 4887SOL    HW226124   1.601   0.611   3.522  0.4405  1.1239 -0.3278
 4888SOL     OW26125   3.649   2.642   0.288  0.0880  0.0746  0.7849
 4888SOL    HW126126   3.691   2.719   0.248  0.5611  0.1033  1.3382
 4888SOL    HW226127   3.561   2.676   0.273  0.6721  1.4311  0.3459
 4889SOL     OW26128   0.434   4.632   8.091 -0.1339 -0.5749  0.5222
 4889SOL    HW126129   0.457   4.722   8.069 -1.8586 -0.6481 -1.6572
 4889SOL    HW226130   0.468   4.587   8.013 -1.3739 -1.6671  0.6179
 4890SOL     OW26131   3.170   3.325   6.535 -0.4595 -0.4261  0.1777
 4890SOL    HW126132   3.119   3.255   6.575 -0.1550 -0.0521  1.2229
 4890SOL    HW226133   3.156   3.401   6.592 -0.1276  0.0685 -0.3907
 4891SOL     OW26134   3.239   3.616   1.317  0.6333 -0.1855 -0.6989
 4891SOL    HW126135   3.298   3.578   1.382 -1.2260 -2.3193 -0.2716
 4891SOL    HW226136   3.178   3.642   1.387 -0.1782 -0.7807 -1.1970
 4892SOL     OW26137   4.200   0.409   7.207  0.5499  0.1245  0.1559
 4892SOL    HW126138   4.186   0.389   7.114 -0.3574  4.8760 -0.7494
 4892SOL    HW226139   4.263   0.481   7.203 -0.3969  0.8181 -2.8846
 4893SOL     OW26140   4.522   0.063  14.785  0.4381  0.5631 -0.4637
 4893SOL    HW126141   4.473   0.021  14.856 -1.3798  1.5316 -1.1382
 4893SOL    HW226142   4.496   0.154  14.799 -1.2093 -0.3253  2.3210
 4894SOL     OW26143   1.505   2.582  11.158 -0.2739 -0.1060 -0.0097
 4894SOL    HW126144   1.584   2.621  11.121 -1.2474  1.2266 -0.6823
 4894SOL    HW226145   1.540   2.541  11.237 -0.0371  1.7668  0.8640
 4895SOL     OW26146   1.712   1.674   2.696  0.0869  0.2817 -0.2039
 4895SOL    HW126147   1.740   1.636   2.779 -2.1947  0.7922  0.7893
 4895SOL    HW226148   1.722   1.591   2.650  2.5463 -0.3479  1.4054
 4896SOL     OW26149   3.353   0.391   4.299 -0.1909 -0.2318  0.2415
 4896SOL    HW126150   3.412   0.463   4.279 -0.4011  0.2232  1.2575
 4896SOL    HW226151   3.365   0.372   4.392 -1.5993  0.4594  0.5707
 4897SOL     OW26152   0.306   3.298   5.885 -0.0701  0.6175 -0.0283
 4897SOL    HW126153   0.372   3.234   5.908  0.9467  1.9228  0.6833
 4897SOL    HW226154   0.223   3.277   5.928 -0.3016 -2.5417 -1.9865
 4898SOL     OW26155   0.638   3.812   2.429  0.2873  0.2824  0.3014
 4898SOL    HW126156   0.584   3.883   2.463 -0.1137  0.2722 -0.3287
 4898SOL    HW226157   0.683   3.782   2.508  0.7158 -0.4335 -0.2171
 4899SOL     OW26158   0.317   4.117  14.703 -0.6709  0.2842  0.5169
 4899SOL    HW126159   0.410   4.096  14.713 -0.9484 -1.3355 -0.2768
 4899SOL    HW226160   0.313   4.207  14.672 -1.6121 -0.5574 -1.7803
 4900SOL     OW26161   3.380   3.240  14.658  0.2233 -0.2102  0.0801
 4900SOL    HW126162   3.362   3.166  14.600 -0.0977  0.5517 -0.7920
 4900SOL    HW226163   3.317   3.306  14.629  1.3292  1.0385  0.5044
 4901SOL     OW26164   1.484   3.627   3.879 -0.4939 -0.6511  0.1022
 4901SOL    HW126165   1.566   3.676   3.882 -1.0329  0.0069  3.4437
 4901SOL    HW226166   1.482   3.554   3.941  1.3872  0.7920  1.8300
 4902SOL     OW26167   3.832   3.618   6.577 -0.2234 -0.0422  0.5005
 4902SOL    HW126168   3.748   3.660   6.555  0.2960  0.9346  0.3971
 4902SOL    HW226169   3.797   3.574   6.655  1.6433 -0.5972  1.0222
 4903SOL     OW26170   0.003   3.152   3.504  0.0163  0.1374  0.1475
 4903SOL    HW126171   0.016   3.191   3.591 -0.6843 -2.6063  1.4543
 4903SOL    HW226172   0.075   3.089   3.504  1.1708  1.4705 -3.0975
 4904SOL     OW26173   2.825   4.124  16.542 -0.0705  0.2042  0.3732
 4904SOL    HW126174   2.876   4.078  16.608  0.2101  0.1533  0.1213
 4904SOL    HW226175   2.754   4.150  16.600 -0.7112 -2.8836  0.9331
 4905SOL     OW26176   1.031   3.194   2.398 -0.0358 -0.1972 -0.2428
 4905SOL    HW126177   0.958   3.160   2.347  0.3172 -0.1133 -0.8081
 4905SOL    HW226178   1.015   3.288   2.387 -0.4156  0.0058  2.1293
 4906SOL     OW26179   4.167   3.623   1.377  0.3845  0.0236  0.4284
 4906SOL    HW126180   4.092   3.573   1.345  0.5339 -0.0525  0.2045
 4906SOL    HW226181   4.224   3.627   1.301 -0.9328  1.5876 -0.4868
 4907SOL     OW26182   3.951   4.369   7.760  0.0296 -0.2720 -0.2603
 4907SOL    HW126183   4.012   4.296   7.766 -1.6594 -1.6336  0.4300
 4907SOL    HW226184   3.893   4.332   7.693  1.8363 -0.3573 -1.7868
 4908SOL     OW26185   0.144   1.774   7.547 -0.1737  0.3371  0.4546
 4908SOL    HW126186   0.095   1.848   7.511  0.1563  0.4241  0.1847
 4908SOL    HW226187   0.225   1.822   7.565  0.5359  0.1975 -2.4553
 4909SOL     OW26188   4.128   2.006   3.617 -0.3787  0.1324 -0.1921
 4909SOL    HW126189   4.156   1.948   3.546 -0.9943 -0.7325  0.2899
 4909SOL    HW226190   4.035   2.006   3.595 -0.5097  1.9464  0.3230
 4910SOL     OW26191   1.358   1.729   0.971 -0.4890  0.2123  0.0453
 4910SOL    HW126192   1.359   1.635   0.984 -1.3840 -0.1593 -2.5700
 4910SOL    HW226193   1.336   1.760   1.059 -0.0392  0.8070 -0.0512
 4911SOL     OW26194   4.076   3.832   1.150  0.1528 -0.0119 -0.0807
 4911SOL    HW126195   4.152   3.862   1.100  0.7160 -2.8001 -0.8534
 4911SOL    HW226196   4.051   3.914   1.195  0.9712  1.1128 -1.6803
 4912SOL     OW26197   2.999   3.257   2.178 -0.6606  0.1244  0.3633
 4912SOL    HW126198   2.945   3.336   2.173 -0.8396  0.0366  0.9247
 4912SOL    HW226199   2.926   3.194   2.180 -0.3336 -0.2063  1.9484
 4913SOL     OW26200   1.265   3.799  13.115  0.4440 -0.2070  0.4077
 4913SOL    HW126201   1.253   3.872  13.054  0.1315  0.1469  0.8850
 4913SOL    HW226202   1.352   3.821  13.149  1.0374 -1.0487 -0.5842
 4914SOL     OW26203   4.680   3.283  12.589  0.0515 -0.2357 -0.2189
 4914SOL    HW126204   4.624   3.345  12.636  2.8840  1.6048  0.7481
 4914SOL    HW226205   0.026   3.271  12.650 -0.7071 -0.4903  0.6416
 4915SOL     OW26206   3.945   3.145   3.049  0.3166 -0.2345 -0.2542
 4915SOL    HW126207   3.899   3.224   3.022 -0.0001 -0.0222  0.9053
 4915SOL    HW226208   3.990   3.163   3.132  0.4514  2.3321 -0.8888
 4916SOL     OW26209   3.522   2.342  10.971  0.0958 -0.5533  0.4084
 4916SOL    HW126210   3.466   2.274  10.934  0.3794  0.0003 -1.0332
 4916SOL    HW226211   3.467   2.421  10.974 -0.0546 -0.5463 -3.2152
 4917SOL     OW26212   3.440   3.275   2.110  0.2938  0.7057  0.8563
 4917SOL    HW126213   3.503   3.207   2.084  0.4871  0.9740  0.6194
 4917SOL    HW226214   3.357   3.228   2.112  0.6746 -0.1296 -1.6219
 4918SOL     OW26215   3.578   1.994  13.652  0.1645  0.4750 -0.4115
 4918SOL    HW126216   3.525   1.961  13.725  0.5231 -1.2378 -0.9453
 4918SOL    HW226217   3.660   1.946  13.657 -0.0088  0.1658 -0.5797
 4919SOL     OW26218   0.578   2.739   6.712 -0.4174 -0.4060  0.7033
 4919SOL    HW126219   0.633   2.806   6.752 -1.6391 -0.8262  3.0373
 4919SOL    HW226220   0.623   2.733   6.628 -2.0416  0.3516 -0.2291
 4920SOL     OW26221   1.527   3.927   4.482  0.0922 -0.4053  0.8047
 4920SOL    HW126222   1.513   3.978   4.402 -0.6141 -0.1522  1.0859
 4920SOL    HW226223   1.531   3.996   4.548  0.9839  1.5389 -1.2846
 4921SOL     OW26224   4.314   4.595   9.713 -0.1316  0.6587  0.0306
 4921SOL    HW126225   4.369   4.645   9.653  0.2455 -0.0492 -0.2082
 4921SOL    HW226226   4.307   4.514   9.663 -0.5066  0.4561  0.4048
 4922SOL     OW26227   3.008   4.037   4.129 -0.0265 -0.2216 -0.0308
 4922SOL    HW126228   3.002   4.124   4.089 -0.6708 -0.4007 -0.3347
 4922SOL    HW226229   2.931   4.039   4.186 -1.3511  2.6683 -1.9135
 4923SOL     OW26230   3.655   2.784   8.570  0.0349  0.1486 -0.0757
 4923SOL    HW126231   3.606   2.759   8.648 -0.2937  0.3090 -0.2333
 4923SOL    HW226232   3.727   2.723   8.551 -0.9041 -0.3318 -2.1226
 4924SOL     OW26233   4.517   0.898   8.928  0.4958  0.3620  0.4821
 4924SOL    HW126234   4.507   0.937   9.015  0.1893  3.1987 -0.8204
 4924SOL    HW226235   4.564   0.968   8.882  1.1409 -0.8008 -0.5987
 4925SOL     OW26236   3.087   3.082   4.185  0.1985  0.2033 -0.0848
 4925SOL    HW126237   3.136   3.083   4.103  2.1706  0.2551  1.0769
 4925SOL    HW226238   3.046   3.168   4.192 -1.2773 -0.5793  0.8700
 4926SOL     OW26239   0.171   1.143  11.472 -0.5127  0.3195  0.1342
 4926SOL    HW126240   0.212   1.211  11.527 -1.5982  0.9716  0.1354
 4926SOL    HW226241   0.223   1.144  11.392  1.6107 -1.1771  1.5015
 4927SOL     OW26242   3.784   0.003  10.349 -0.7834  0.2190  0.0887
 4927SOL    HW126243   3.706   4.676  10.338 -0.0985 -0.5162 -1.1762
 4927SOL    HW226244   3.781   0.041  10.437  2.7888  0.3770  0.1486
 4928SOL     OW26245   2.515   2.103   3.824  0.5113 -0.0282 -0.4492
 4928SOL    HW126246   2.558   2.090   3.908  2.0556  1.7389 -0.9510
 4928SOL    HW226247   2.554   2.035   3.768  0.7283 -1.2904  1.2309
 4929SOL     OW26248   4.508   4.513   2.843 -0.2759 -0.3735 -0.5366
 4929SOL    HW126249   4.565   4.564   2.901 -1.8573 -0.4589  1.1067
 4929SOL    HW226250   4.503   4.428   2.887 -2.3406 -0.5807 -1.1793
 4930SOL     OW26251   3.035   0.761   0.692  0.1908 -0.0036  0.2457
 4930SOL    HW126252   3.061   0.723   0.608 -1.8085 -1.5488  0.3134
 4930SOL    HW226253   3.047   0.685   0.750  0.5607  1.4165  2.0420
 4931SOL     OW26254   3.922   3.385  15.663 -0.3288 -0.4304  0.1554
 4931SOL    HW126255   3.981   3.310  15.668  0.2921  0.0244 -0.2945
 4931SOL    HW226256   3.843   3.362  15.712  0.4133 -0.0369  1.5205
 4932SOL     OW26257   0.268   0.563   2.636 -0.5361  0.2789  0.5713
 4932SOL    HW126258   0.182   0.561   2.595 -1.0389 -2.2329  1.7626
 4932SOL    HW226259   0.327   0.535   2.566 -0.3048 -1.8980  1.6319
 4933SOL     OW26260   1.308   0.265  11.481  0.0097 -0.0138  0.3714
 4933SOL    HW126261   1.373   0.335  11.492  0.6897 -0.6002  0.0603
 4933SOL    HW226262   1.364   0.191  11.502 -0.1909 -0.8075 -1.8958
 4934SOL     OW26263   1.607   0.230   2.281 -0.2257  0.5694 -0.3817
 4934SOL    HW126264   1.554   0.152   2.266 -1.2089  1.4994 -1.7984
 4934SOL    HW226265   1.567   0.270   2.359  0.5085  0.6605 -0.0517
 4935SOL     OW26266   0.579   1.674   5.945 -0.6887 -0.4808 -0.1271
 4935SOL    HW126267   0.502   1.616   5.948 -0.1324 -1.1621  0.8135
 4935SOL    HW226268   0.625   1.647   6.024  0.5318 -1.4593 -1.1812
 4936SOL     OW26269   1.426   2.187   8.470 -0.0091  0.2023 -0.0352
 4936SOL    HW126270   1.443   2.247   8.542  0.6594  2.5641 -2.1546
 4936SOL    HW226271   1.380   2.252   8.416 -0.1076 -0.0207 -0.2230
 4937SOL     OW26272   0.760   0.080   8.137  0.0568 -0.2300  0.3683
 4937SOL    HW126273   0.699   0.102   8.067  0.2879 -0.2281  0.1657
 4937SOL    HW226274   0.761   0.155   8.196  1.5063  0.7610 -0.8909
 4938SOL     OW26275   3.279   1.226  13.679  0.0651  0.1134 -0.0079
 4938SOL    HW126276   3.257   1.262  13.765  0.5232  1.9431 -0.6601
 4938SOL    HW226277   3.263   1.132  13.684  1.1479 -0.1589 -1.4752
 4939SOL     OW26278   2.038   4.126  10.957 -0.8052  0.5141 -0.0526
 4939SOL    HW126279   2.115   4.070  10.963  0.6766  2.4893 -0.3498
 4939SOL    HW226280   1.970   4.068  10.991 -0.6397  0.7436  0.6758
 4940SOL     OW26281   1.567   0.026   7.875  0.5313 -0.7458 -0.2008
 4940SOL    HW126282   1.512   0.018   7.796 -0.4158  1.2553  0.2582
 4940SOL    HW226283   1.563   0.120   7.892  0.1333 -0.6277 -0.9282
 4941SOL     OW26284   3.766   1.362  17.073 -0.5013  0.1458  0.2591
 4941SOL    HW126285   3.728   1.407  16.998 -0.5304 -0.0946  0.1306
 4941SOL    HW226286   3.690   1.382  17.126 -0.3521 -0.4172  0.6830
 4942SOL     OW26287   3.485   3.183   5.921 -0.5304  0.5380  0.1740
 4942SOL    HW126288   3.397   3.147   5.925 -0.9466  1.5318 -0.1038
 4942SOL    HW226289   3.487   3.220   6.010 -0.5841  4.0111 -1.2835
 4943SOL     OW26290   2.468   3.133  14.509  0.1971  0.3076  0.5440
 4943SOL    HW126291   2.423   3.168  14.586  2.6003  2.7560  0.7930
 4943SOL    HW226292   2.500   3.222  14.495  0.5463  0.1480  0.3367
 4944SOL     OW26293   1.974   3.273   0.228 -0.3427  0.2618 -0.1228
 4944SOL    HW126294   1.999   3.344   0.288  0.5752 -2.3027  2.5241
 4944SOL    HW226295   1.896   3.311   0.188 -0.2873  1.9128  1.2996
 4945SOL     OW26296   4.317   0.006  15.721  0.0498  0.7247 -0.4048
 4945SOL    HW126297   4.363   0.056  15.652  1.1889  0.4664  0.1616
 4945SOL    HW226298   4.271   4.664  15.673 -2.9721  1.2647  1.7598
 4946SOL     OW26299   2.246   2.685   7.111  1.0737 -0.6905  0.0117
 4946SOL    HW126300   2.289   2.743   7.047  1.7708 -2.1077 -0.8169
 4946SOL    HW226301   2.316   2.674   7.176 -0.2436  0.9440  1.7097
 4947SOL     OW26302   1.259   0.973  13.031  0.3296  0.7222 -0.1023
 4947SOL    HW126303   1.292   0.972  12.942 -1.4864 -0.4149 -0.7739
 4947SOL    HW226304   1.325   0.913  13.066 -0.2553  0.1614  0.0373
 4948SOL     OW26305   4.430   2.022   6.141  0.2196 -0.0304 -0.2665
 4948SOL    HW126306   4.475   2.055   6.218 -0.4825 -0.4338  0.3182
 4948SOL    HW226307   4.453   1.930   6.151 -0.0925 -0.1913 -0.9889
 4949SOL     OW26308   4.059   4.496  10.514  0.2993 -0.4045  0.0432
 4949SOL    HW126309   4.140   4.451  10.536  0.3118  0.4175  1.7453
 4949SOL    HW226310   4.078   4.540  10.431  0.6698  0.2261  0.4584
 4950SOL     OW26311   1.343   0.671   9.056  0.2505 -0.3826  0.1392
 4950SOL    HW126312   1.316   0.722   8.980 -0.9129  0.8574  1.3949
 4950SOL    HW226313   1.405   0.737   9.087 -0.8658  0.7481 -0.0443
 4951SOL     OW26314   0.089   4.589   6.816 -0.0909  0.6849  0.8923
 4951SOL    HW126315   0.047   4.546   6.742 -2.0526  3.8397  0.1751
 4951SOL    HW226316   0.092   4.513   6.874 -1.5856  1.0317  1.4025
 4952SOL     OW26317   0.226   4.246   1.216 -0.3085  0.1559  0.6022
 4952SOL    HW126318   0.238   4.301   1.138 -0.0869  1.0459  1.2726
 4952SOL    HW226319   0.155   4.189   1.183 -0.6771 -0.3887  2.3339
 4953SOL     OW26320   2.332   4.457  12.100 -0.0319 -0.8847 -0.6467
 4953SOL    HW126321   2.347   4.551  12.089 -0.2903 -0.9578 -1.6257
 4953SOL    HW226322   2.296   4.440  12.012  1.1637  0.4870 -1.3936
 4954SOL     OW26323   1.217   1.331   4.802  0.0276  0.0114  0.2288
 4954SOL    HW126324   1.241   1.245   4.766  0.2843 -0.0085  0.4509
 4954SOL    HW226325   1.123   1.320   4.819 -0.2960 -0.0737 -1.5976
 4955SOL     OW26326   3.846   2.905   3.634  0.2210 -0.3357 -0.2712
 4955SOL    HW126327   3.932   2.940   3.609  0.2021 -0.3248 -0.3205
 4955SOL    HW226328   3.819   2.979   3.689  0.3612  1.8438 -3.1043
 4956SOL     OW26329   3.300   2.308   4.763  0.0955  0.0191 -0.2116
 4956SOL    HW126330   3.364   2.345   4.823  0.7211 -2.7216  0.8056
 4956SOL    HW226331   3.343   2.227   4.734 -1.1419 -1.2193  1.3888
 4957SOL     OW26332   2.997   3.504   6.382 -0.5053  0.2231 -0.2041
 4957SOL    HW126333   2.990   3.470   6.470 -0.6970  0.9918  0.0806
 4957SOL    HW226334   3.054   3.580   6.395 -0.1635  0.4955 -3.1478
 4958SOL     OW26335   1.483   0.237   6.013  0.4084 -0.0136  0.6307
 4958SOL    HW126336   1.540   0.271   5.945 -0.4090  0.0432 -0.0311
 4958SOL    HW226337   1.535   0.174   6.063  1.6469  0.5010 -0.0211
 4959SOL     OW26338   4.452   2.594   2.591  0.0021  0.2321  0.0607
 4959SOL    HW126339   4.489   2.601   2.503  1.2278 -1.9667  0.3894
 4959SOL    HW226340   4.434   2.686   2.605  0.8098  0.3182  0.5837
 4960SOL     OW26341   3.251   4.375   5.598 -1.0754  0.0728  0.1051
 4960SOL    HW126342   3.267   4.464   5.630  0.5104 -0.6810  1.4253
 4960SOL    HW226343   3.239   4.324   5.678 -0.4824 -0.1974  0.0278
 4961SOL     OW26344   3.014   2.578   2.897  0.4925 -0.1747 -0.1606
 4961SOL    HW126345   2.921   2.598   2.893  0.6515  1.4488  4.2478
 4961SOL    HW226346   3.054   2.636   2.832 -2.0865 -0.9643 -2.4581
 4962SOL     OW26347   3.629   0.692  17.156  0.2202  0.4750  0.6179
 4962SOL    HW126348   3.693   0.719  17.222  0.2584  2.7941 -0.3492
 4962SOL    HW226349   3.553   0.676  17.212  1.1103 -1.3780  1.2971
 4963SOL     OW26350   0.193   4.716   6.442  0.4291  0.3665 -0.2117
 4963SOL    HW126351   0.208   4.635   6.393 -3.1989 -0.8989  0.7172
 4963SOL    HW226352   0.280   4.720   6.482  0.5048 -1.1445 -0.2009
 4964SOL     OW26353   0.862   1.608   8.192  0.0845  0.3660 -0.0141
 4964SOL    HW126354   0.898   1.534   8.241 -1.2055  0.6921  1.4489
 4964SOL    HW226355   0.780   1.621   8.240 -0.9927 -0.6039 -1.5764
 4965SOL     OW26356   0.697   0.145  15.466  0.0758  0.1802  0.0628
 4965SOL    HW126357   0.692   0.210  15.396 -0.4296  0.5114  0.4043
 4965SOL    HW226358   0.761   0.089  15.422  0.0185  1.3784 -1.5412
 4966SOL     OW26359   1.156   2.477   9.554  0.1527  0.2416 -0.1766
 4966SOL    HW126360   1.176   2.395   9.598  1.6694  0.2283 -0.8922
 4966SOL    HW226361   1.163   2.542   9.624 -0.3449 -0.6763  0.7304
 4967SOL     OW26362   3.920   2.310   1.184 -0.5854  0.4857 -0.6275
 4967SOL    HW126363   3.988   2.361   1.140  0.3427  0.7549  1.1303
 4967SOL    HW226364   3.915   2.245   1.114 -1.7896  0.1926 -0.2613
 4968SOL     OW26365   3.500   0.407   4.739 -0.2616  0.0313  0.1795
 4968SOL    HW126366   3.517   0.385   4.647 -0.6053 -0.4540  0.2305
 4968SOL    HW226367   3.424   0.353   4.759 -0.8011  0.9274  0.5331
 4969SOL     OW26368   2.460   1.369   9.613 -0.4793 -0.0882  0.0835
 4969SOL    HW126369   2.453   1.276   9.596  1.1133 -0.4339  1.3190
 4969SOL    HW226370   2.375   1.393   9.650  0.0794  0.6208  0.9224
 4970SOL     OW26371   0.016   1.004   5.656  0.0875  0.1907 -0.0592
 4970SOL    HW126372   0.050   1.071   5.597  0.4604 -1.2886 -1.5214
 4970SOL    HW226373   0.086   0.945   5.684 -2.2904 -3.9222 -2.8303
 4971SOL     OW26374   0.540   3.634   8.052  0.1623 -0.1864  0.2173
 4971SOL    HW126375   0.597   3.677   7.989  2.3746 -2.1745  0.8556
 4971SOL    HW226376   0.577   3.673   8.131 -1.2429 -0.2792  0.9102
 4972SOL     OW26377   0.666   0.162   6.430  0.0012 -0.2968  0.0269
 4972SOL    HW126378   0.671   0.246   6.476 -3.0733 -0.6249  0.9617
 4972SOL    HW226379   0.617   0.189   6.352  0.3064  1.2907  0.3874
 4973SOL     OW26380   0.128   4.329   5.380  0.5012  0.0496  0.3098
 4973SOL    HW126381   0.213   4.342   5.339 -0.5624 -0.4453 -2.0439
 4973SOL    HW226382   0.088   4.416   5.381 -0.7017 -0.5010 -0.5108
 4974SOL     OW26383   2.650   3.126   7.873 -0.3028  0.7338  0.2388
 4974SOL    HW126384   2.691   3.203   7.911 -0.7962  0.7387  0.7569
 4974SOL    HW226385   2.690   3.052   7.919  0.8616 -0.3139 -2.4199
 4975SOL     OW26386   1.838   1.283   8.590 -0.3235  0.4159  0.2862
 4975SOL    HW126387   1.920   1.278   8.540 -0.4323  0.7156  0.0764
 4975SOL    HW226388   1.877   1.242   8.667  0.5772 -1.1249 -0.9830
 4976SOL     OW26389   4.646   1.643   9.409 -0.0368 -0.6479  0.0568
 4976SOL    HW126390   0.006   1.679   9.389 -0.7768  1.3969  0.5480
 4976SOL    HW226391   4.633   1.622   9.317  2.0666 -1.4817 -0.0466
 4977SOL     OW26392   0.898   0.672   3.739  0.4995  0.2961 -0.0465
 4977SOL    HW126393   0.876   0.733   3.669 -0.8625 -1.9891 -1.6336
 4977SOL    HW226394   0.930   0.598   3.686  1.5023  2.3338 -2.2879
 4978SOL     OW26395   3.910   3.551   6.151  0.0257 -0.1991 -0.1457
 4978SOL    HW126396   3.968   3.626   6.139 -0.1259 -0.1488 -0.5851
 4978SOL    HW226397   3.832   3.597   6.181  0.2178 -0.5519  0.9024
 4979SOL     OW26398   4.001   0.245  10.747  0.3197 -0.0909  0.2677
 4979SOL    HW126399   4.094   0.229  10.763  0.0154 -2.0250  0.1470
 4979SOL    HW226400   3.960   0.160  10.731  3.2375 -1.2110 -1.3530
 4980SOL     OW26401   4.152   0.956   6.068 -0.0584  0.5951 -0.4286
 4980SOL    HW126402   4.100   1.033   6.089  1.1405  0.9614  1.1544
 4980SOL    HW226403   4.145   0.911   6.152  3.1756 -0.9934 -1.0236
 4981SOL     OW26404   2.628   4.033   7.714  0.2713 -0.3828  0.4216
 4981SOL    HW126405   2.714   4.074   7.710  1.4372 -2.9024 -0.1078
 4981SOL    HW226406   2.568   4.102   7.682 -0.6191 -1.2771  0.1598
 4982SOL     OW26407   0.662   2.159   6.569  0.2127  0.3983 -0.0269
 4982SOL    HW126408   0.694   2.243   6.601 -0.4202  0.3303  0.7971
 4982SOL    HW226409   0.575   2.149   6.608  0.5081  0.6081  0.6838
 4983SOL     OW26410   2.595   1.944   8.806 -0.2351 -0.0565  0.0411
 4983SOL    HW126411   2.541   1.888   8.862 -1.4269  0.1372 -0.8892
 4983SOL    HW226412   2.589   2.024   8.859  0.0347  0.6161 -0.9568
 4984SOL     OW26413   1.081   0.249   0.061 -0.0284 -0.3025 -0.3052
 4984SOL    HW126414   1.011   0.312   0.077  0.9715  0.2377  2.0156
 4984SOL    HW226415   1.150   0.278   0.121  0.2770  2.2315 -1.9139
 4985SOL     OW26416   0.568   3.123   4.739  0.1271  0.3994 -0.1377
 4985SOL    HW126417   0.502   3.124   4.809 -2.2163  2.5311 -2.4307
 4985SOL    HW226418   0.649   3.161   4.775 -0.9225  1.9659  0.5363
 4986SOL     OW26419   1.600   1.710  11.132  0.3070 -0.3349  0.3851
 4986SOL    HW126420   1.543   1.715  11.055 -0.8168  0.7631  1.3065
 4986SOL    HW226421   1.557   1.640  11.181 -0.9809 -0.1458 -0.4673
 4987SOL     OW26422   1.710   2.204  14.557  0.0764 -0.1682 -0.4056
 4987SOL    HW126423   1.667   2.144  14.496 -1.3765  1.0867 -0.5932
 4987SOL    HW226424   1.635   2.259  14.578 -0.4863 -1.6341  1.4765
 4988SOL     OW26425   4.368   3.766  12.401 -0.3488  0.1278 -0.2851
 4988SOL    HW126426   4.399   3.739  12.487 -1.7111 -1.1988 -0.2027
 4988SOL    HW226427   4.429   3.723  12.341  1.6791 -0.9196  2.5602
 4989SOL     OW26428   1.609   0.001   5.419  0.3820  0.0157 -0.4048
 4989SOL    HW126429   1.645   0.089   5.415 -4.8853  2.1160 -1.1001
 4989SOL    HW226430   1.517   0.028   5.415  0.5394  1.2132  4.4875
 4990SOL     OW26431   4.579   1.196  10.650 -0.4031 -0.1585  0.0475
 4990SOL    HW126432   4.564   1.107  10.680  1.0741 -0.1661  0.7509
 4990SOL    HW226433   4.498   1.245  10.658 -0.5309 -0.3002 -0.3864
 4991SOL     OW26434   0.241   0.567   2.170  0.4566  0.5429 -0.0976
 4991SOL    HW126435   0.176   0.500   2.149  2.5639 -2.1854  2.1712
 4991SOL    HW226436   0.213   0.606   2.252 -1.4586  1.1530 -1.0554
 4992SOL     OW26437   4.104   1.510   9.874 -0.1610  0.8682 -0.0646
 4992SOL    HW126438   4.184   1.555   9.898  1.1833 -1.1564 -0.7020
 4992SOL    HW226439   4.092   1.446   9.944  0.2850  0.7402 -0.1073
 4993SOL     OW26440   0.436   2.593  16.262  0.1139  0.0157  0.0026
 4993SOL    HW126441   0.398   2.594  16.350 -2.0519 -3.3818 -0.8865
 4993SOL    HW226442   0.514   2.648  16.266  2.0441 -2.4207 -3.5943
 4994SOL     OW26443   1.108   4.700   2.205  0.1916 -0.2079  0.1588
 4994SOL    HW126444   1.018   4.666   2.208  0.0621  0.1460  0.1986
 4994SOL    HW226445   1.101   0.068   2.196 -2.0302 -0.2707  1.1777
 4995SOL     OW26446   0.213   1.533   7.676  0.4251 -0.2143  0.0816
 4995SOL    HW126447   0.190   1.621   7.647  2.0536  0.0719 -0.3463
 4995SOL    HW226448   0.245   1.555   7.763  0.7346  1.8683 -0.5596
 4996SOL     OW26449   2.800   1.831  16.039  0.4580  0.5750  0.0756
 4996SOL    HW126450   2.858   1.755  16.041  0.5617  0.6471 -0.2047
 4996SOL    HW226451   2.860   1.903  16.018 -1.3207  2.4600  1.3871
 4997SOL     OW26452   0.024   0.875   4.269 -0.6163 -0.1090  0.1697
 4997SOL    HW126453   0.099   0.935   4.276 -1.5537  1.0614  0.0750
 4997SOL    HW226454   0.055   0.827   4.192  2.7603  0.9672  0.8337
 4998SOL     OW26455   4.122   2.595   9.940 -0.0875  0.3071 -0.2119
 4998SOL    HW126456   4.069   2.647   9.879  0.0347  0.3451 -0.2857
 4998SOL    HW226457   4.087   2.513   9.904 -1.2450  1.1141 -0.9174
 4999SOL     OW26458   3.884   0.438  10.950  1.0737 -0.0198 -0.1201
 4999SOL    HW126459   3.875   0.505  10.883 -0.8286  0.7882  0.9320
 4999SOL    HW226460   3.918   0.365  10.899 -0.1479 -1.2902  0.8839
 5000SOL     OW26461   4.141   0.049   3.354  0.1575 -0.4342  0.2443
 5000SOL    HW126462   4.191   0.081   3.429  1.7521 -0.3073 -0.8714
 5000SOL    HW226463   4.155   4.683   3.373 -1.4462 -0.1485  2.7772
 5001SOL     OW26464   1.831   4.193  11.446 -0.4649 -0.8935  0.5151
 5001SOL    HW126465   1.918   4.198  11.407 -0.5552 -1.2450  0.2655
 5001SOL    HW226466   1.853   4.154  11.531 -0.3740 -0.3235  0.7488
 5002SOL     OW26467   2.222   3.749  15.275 -0.2191  0.2677 -0.0097
 5002SOL    HW126468   2.147   3.693  15.298 -1.4364  1.4942 -1.0079
 5002SOL    HW226469   2.266   3.770  15.357  0.0493  0.2676 -0.1531
 5003SOL     OW26470   1.819   1.520  13.566 -0.2425 -0.2299 -0.1261
 5003SOL    HW126471   1.800   1.561  13.651 -1.5462 -0.1321 -0.4675
 5003SOL    HW226472   1.733   1.507  13.526  0.2100 -1.3644 -0.7282
 5004SOL     OW26473   2.682   3.866   3.245 -0.0897  0.1405  0.5053
 5004SOL    HW126474   2.597   3.907   3.257  0.0291  1.4618 -2.9066
 5004SOL    HW226475   2.680   3.868   3.149 -0.4241 -0.0392  0.5101
 5005SOL     OW26476   0.226   0.658   3.081 -0.2330 -0.5254 -0.0685
 5005SOL    HW126477   0.162   0.728   3.098 -1.1715 -0.6599 -2.9621
 5005SOL    HW226478   0.264   0.685   2.997  0.5357 -0.1079  0.4156
 5006SOL     OW26479   0.756   1.691   4.559  0.1280  0.0105  0.6344
 5006SOL    HW126480   0.707   1.734   4.629  0.6570  2.0147 -0.2214
 5006SOL    HW226481   0.741   1.752   4.487 -0.0320  0.3344  0.9441
 5007SOL     OW26482   1.667   2.562   6.355  0.4021  0.1656 -0.0406
 5007SOL    HW126483   1.707   2.543   6.271  1.8565  0.9453  0.4783
 5007SOL    HW226484   1.609   2.635   6.333  0.5718  0.1820 -0.4290
 5008SOL     OW26485   3.182   1.899   4.700  0.7882 -0.5564  0.0131
 5008SOL    HW126486   3.267   1.924   4.737  1.0880  2.1384 -2.4751
 5008SOL    HW226487   3.159   1.965   4.635  3.8784 -0.2392 -0.7894
 5009SOL     OW26488   3.420   4.648  12.174 -0.7869  1.0211 -0.2806
 5009SOL    HW126489   3.451   4.721  12.228  1.0116 -0.4871  0.7311
 5009SOL    HW226490   3.394   4.585  12.242 -0.5423  0.7662 -0.4272
 5010SOL     OW26491   4.686   1.075   8.817  0.3455  1.0997 -0.1402
 5010SOL    HW126492   4.668   1.148   8.876 -0.5464  1.0354 -0.3403
 5010SOL    HW226493   4.721   1.115   8.738 -0.1751  1.3649 -0.2346
 5011SOL     OW26494   2.451   3.603   1.033  0.2629  0.7563 -0.2875
 5011SOL    HW126495   2.529   3.594   0.979 -0.0556 -0.0019 -0.6206
 5011SOL    HW226496   2.500   3.581   1.112 -1.8885  0.7026  1.0425
 5012SOL     OW26497   4.459   2.373   7.789  1.0938  0.3825  0.4696
 5012SOL    HW126498   4.530   2.322   7.750 -0.1864 -0.3228 -0.9360
 5012SOL    HW226499   4.491   2.458   7.759  0.1986 -0.1257 -1.9054
 5013SOL     OW26500   1.209   3.112   2.062 -0.2056 -0.1438 -0.2696
 5013SOL    HW126501   1.253   3.139   2.143  0.5589 -1.8752 -0.0929
 5013SOL    HW226502   1.262   3.034   2.046 -0.3617  0.4226 -3.5144
 5014SOL     OW26503   3.774   3.126   7.273  0.3850  0.1364 -0.1364
 5014SOL    HW126504   3.732   3.196   7.322 -0.5792 -1.6232  1.5783
 5014SOL    HW226505   3.772   3.154   7.182  0.0528  2.6808  0.6577
 5015SOL     OW26506   0.549   1.711  12.652  0.0524 -0.0240  0.4270
 5015SOL    HW126507   0.582   1.700  12.563 -1.9689 -1.1569 -0.1795
 5015SOL    HW226508   0.456   1.717  12.630  0.1216 -0.6752 -0.0509
 5016SOL     OW26509   4.158   2.364   5.134 -0.1446  0.7679  0.2012
 5016SOL    HW126510   4.212   2.287   5.115  1.0768  1.6438  0.1297
 5016SOL    HW226511   4.219   2.424   5.091 -1.5775  1.0043 -1.4791
 5017SOL     OW26512   1.103   3.149  12.288  0.3604  0.5699  0.1228
 5017SOL    HW126513   1.187   3.150  12.244  1.4128  1.6747  2.1495
 5017SOL    HW226514   1.055   3.202  12.225 -2.6245 -2.6423 -0.3630
 5018SOL     OW26515   3.612   1.380   3.064  0.1536 -0.6373 -0.2007
 5018SOL    HW126516   3.620   1.298   3.016 -2.8752 -1.5511  0.8975
 5018SOL    HW226517   3.639   1.349   3.150  1.8927 -0.3548 -0.6322
 5019SOL     OW26518   0.631   2.462   9.056 -0.7304  0.0833 -0.1726
 5019SOL    HW126519   0.590   2.501   8.979 -2.0403 -0.6344  0.1584
 5019SOL    HW226520   0.564   2.405   9.092 -0.7984 -0.0672 -0.5354
 5020SOL     OW26521   2.523   2.274  10.351  1.3376  0.5496  0.1044
 5020SOL    HW126522   2.459   2.202  10.352 -2.3374  3.7338 -2.4216
 5020SOL    HW226523   2.605   2.228  10.366  0.7284 -0.7654 -0.6371
 5021SOL     OW26524   0.087   1.378   3.942 -0.0622  0.0345 -0.4320
 5021SOL    HW126525   0.145   1.309   3.976  0.5854  1.0062  0.4293
 5021SOL    HW226526   0.126   1.452   3.988  3.3927 -2.4601  0.6943
 5022SOL     OW26527   3.319   2.089   7.047  0.2753  0.3626  1.0206
 5022SOL    HW126528   3.336   2.141   6.968 -0.7126 -0.2736  0.3977
 5022SOL    HW226529   3.236   2.122   7.082 -0.4471  0.1233 -0.4889
 5023SOL     OW26530   3.383   1.526  12.001  0.6270 -0.3969  0.5601
 5023SOL    HW126531   3.294   1.499  12.023  1.0578 -0.6107  2.0600
 5023SOL    HW226532   3.395   1.471  11.923  0.7383 -0.7019  0.7895
 5024SOL     OW26533   2.868   2.743   3.591 -0.1589  0.0957 -0.2008
 5024SOL    HW126534   2.883   2.746   3.686  2.6718 -0.5131 -0.6240
 5024SOL    HW226535   2.837   2.833   3.579 -0.0700  0.1215 -0.2322
 5025SOL     OW26536   2.200   0.532   7.527 -1.0534  0.0891  0.1676
 5025SOL    HW126537   2.226   0.440   7.521  1.3003  0.7631 -0.1224
 5025SOL    HW226538   2.127   0.545   7.467 -1.0381 -1.3219 -0.1672
 5026SOL     OW26539   2.697   4.157   6.844  0.0179 -0.1559 -0.3804
 5026SOL    HW126540   2.641   4.235   6.837  4.3270  3.0915  0.9336
 5026SOL    HW226541   2.678   4.109   6.764 -1.4546 -1.6244  0.8506
 5027SOL     OW26542   2.581   2.843   2.172 -0.9250  0.6564 -0.2500
 5027SOL    HW126543   2.518   2.854   2.100 -1.2376  1.0592  0.0868
 5027SOL    HW226544   2.584   2.934   2.200  0.0169  0.4462  0.3224
 5028SOL     OW26545   1.468   2.916   9.899  0.2993  0.1381 -0.5421
 5028SOL    HW126546   1.476   3.010   9.886 -0.1359  0.1246 -0.9097
 5028SOL    HW226547   1.479   2.888   9.808 -1.3468 -0.0797 -0.6812
 5029SOL     OW26548   2.324   0.370   3.564 -0.0346 -0.4477  0.2146
 5029SOL    HW126549   2.326   0.274   3.564 -3.1524 -0.5013  1.9891
 5029SOL    HW226550   2.317   0.397   3.473 -1.2273  1.0016  0.7351
 5030SOL     OW26551   4.570   3.200   6.644 -0.3535 -0.1641  0.2226
 5030SOL    HW126552   4.545   3.190   6.736 -0.8905  2.1387  0.3342
 5030SOL    HW226553   4.485   3.189   6.601 -0.7912 -0.8299  1.2846
 5031SOL     OW26554   4.571   1.883   5.260  0.1775  0.1910 -0.3370
 5031SOL    HW126555   4.483   1.915   5.280  0.3875 -0.2852  1.3274
 5031SOL    HW226556   4.586   1.922   5.174 -0.3697  0.0096 -0.5144
 5032SOL     OW26557   0.926   3.041  13.478 -0.4103  0.4336  0.0205
 5032SOL    HW126558   0.963   3.117  13.523 -0.4533 -0.4074  1.4887
 5032SOL    HW226559   0.973   3.052  13.395 -0.7481  3.0766  0.1776
 5033SOL     OW26560   3.386   2.677   4.395 -0.0620  0.4420 -0.6992
 5033SOL    HW126561   3.478   2.694   4.374 -0.6951  1.7076 -2.5051
 5033SOL    HW226562   3.402   2.646   4.484 -1.7323 -1.2225 -0.9780
 5034SOL     OW26563   0.286   4.388  11.187 -0.0399  0.5384  0.5091
 5034SOL    HW126564   0.290   4.373  11.093 -0.1764 -0.0122  0.5926
 5034SOL    HW226565   0.287   4.483  11.175  1.1241  0.4521 -0.1145
 5035SOL     OW26566   2.407   1.379   2.994  0.3078 -0.3943  0.1323
 5035SOL    HW126567   2.494   1.415   2.975  0.4243 -0.2161  0.9789
 5035SOL    HW226568   2.349   1.451   2.969 -2.1921 -2.3641  0.2532
 5036SOL     OW26569   0.210   2.967   2.423  0.5404  0.3963 -0.3717
 5036SOL    HW126570   0.143   2.902   2.443  2.4923 -1.3364  0.5850
 5036SOL    HW226571   0.154   3.042   2.403  0.7475  0.9928  1.3176
 5037SOL     OW26572   1.626   3.720   6.058  0.1466  0.1784 -0.3751
 5037SOL    HW126573   1.602   3.780   6.128 -1.0741 -1.1263  0.3168
 5037SOL    HW226574   1.719   3.701   6.071  0.4951  2.1408 -0.0915
 5038SOL     OW26575   0.393   3.970  12.658 -0.4001  0.5243 -0.1092
 5038SOL    HW126576   0.382   3.875  12.662  0.4878  0.4930  1.5723
 5038SOL    HW226577   0.487   3.983  12.669 -0.3393 -1.3006  1.5568
 5039SOL     OW26578   1.172   2.161   3.832 -0.1982 -0.4584  0.1942
 5039SOL    HW126579   1.240   2.109   3.874  0.5727  0.5706  0.2085
 5039SOL    HW226580   1.162   2.118   3.747 -0.8938 -0.2177  0.1534
 5040SOL     OW26581   4.023   0.300   4.725 -0.0079  0.3015  0.3397
 5040SOL    HW126582   3.969   0.221   4.717  0.1108  0.2246  0.3119
 5040SOL    HW226583   4.111   0.265   4.732  0.1367  0.7636  0.8677
 5041SOL     OW26584   0.321   3.403  16.270  0.1282  0.0071  0.3840
 5041SOL    HW126585   0.267   3.471  16.229  0.8838 -1.3837 -2.8622
 5041SOL    HW226586   0.254   3.337  16.254  2.7999 -3.0922  2.0388
 5042SOL     OW26587   2.918   1.821   5.251 -0.2100 -0.2596 -0.1582
 5042SOL    HW126588   2.894   1.894   5.193 -0.1571  1.3319  1.8480
 5042SOL    HW226589   2.880   1.749   5.200 -0.5456 -0.5584  0.5244
 5043SOL     OW26590   4.020   4.328   0.090  0.3016  0.1102  0.1523
 5043SOL    HW126591   3.967   4.396   0.048 -1.4123 -1.1861  0.2322
 5043SOL    HW226592   4.095   4.324   0.030 -0.3085  0.4742 -0.6427
 5044SOL     OW26593   4.093   0.062   2.704 -0.2360  0.1878  0.8776
 5044SOL    HW126594   4.163   0.002   2.730  0.7239  1.4077  1.1154
 5044SOL    HW226595   4.123   0.087   2.617 -1.3260 -1.1259  0.1225
 5045SOL     OW26596   1.428   2.075  16.710  0.0535  0.0232  0.4965
 5045SOL    HW126597   1.373   2.054  16.635  1.8072 -0.7497 -0.5717
 5045SOL    HW226598   1.424   1.989  16.752 -1.2244  0.4751  1.2951
 5046SOL     OW26599   4.697   4.439   6.625  0.4939 -0.0029 -0.2081
 5046SOL    HW126600   4.703   4.415   6.533 -0.1573 -2.0584  0.2958
 5046SOL    HW226601   4.657   4.359   6.660 -0.0336 -0.5646 -2.0998
 5047SOL     OW26602   3.709   3.262   4.230 -0.3259  0.6817  0.0320
 5047SOL    HW126603   3.713   3.295   4.140 -0.1933  0.1529 -0.1544
 5047SOL    HW226604   3.785   3.307   4.267  1.0451 -1.7803  0.1847
 5048SOL     OW26605   2.605   4.607   6.028 -0.0452 -0.0361 -0.3468
 5048SOL    HW126606   2.617   4.691   5.983  1.2946  0.1106  0.2700
 5048SOL    HW226607   2.631   4.550   5.955  0.4760 -1.4077  0.8924
 5049SOL     OW26608   3.476   0.957   3.824 -0.0316 -0.5810  0.1659
 5049SOL    HW126609   3.487   1.050   3.805  1.2887 -0.7182  0.2442
 5049SOL    HW226610   3.514   0.906   3.753 -2.1358 -3.0244  0.7829
 5050SOL     OW26611   1.575   0.785   1.569 -0.1128 -0.0991 -0.8199
 5050SOL    HW126612   1.503   0.839   1.539  1.3133  2.2551  0.0063
 5050SOL    HW226613   1.555   0.700   1.531 -0.9406 -0.3428  0.1648
 5051SOL     OW26614   0.482   3.859   1.478 -0.7119  0.3195  0.5516
 5051SOL    HW126615   0.517   3.785   1.428  2.0588  0.5206  2.1872
 5051SOL    HW226616   0.456   3.928   1.417  0.4751  0.7516  0.5181
 5052SOL     OW26617   1.888   2.644  15.804  0.4537  0.1927 -0.1709
 5052SOL    HW126618   1.837   2.704  15.858  0.7557  0.0209  0.3066
 5052SOL    HW226619   1.954   2.701  15.765  0.2201 -0.1920 -1.1193
 5053SOL     OW26620   2.267   1.116   1.730  0.9082 -0.0598  0.0490
 5053SOL    HW126621   2.237   1.110   1.639  0.5325  2.4932 -0.0067
 5053SOL    HW226622   2.217   1.043   1.766  0.8040 -1.0479 -2.1026
 5054SOL     OW26623   0.574   1.184   1.659 -0.4495  0.1148  0.2906
 5054SOL    HW126624   0.502   1.210   1.717  0.2465  2.7255 -0.0177
 5054SOL    HW226625   0.537   1.229   1.583  0.1080  2.0669  1.1596
 5055SOL     OW26626   2.214   2.154   3.111 -0.5367 -0.3734  0.5044
 5055SOL    HW126627   2.279   2.138   3.043 -1.4337  2.0143 -0.9052
 5055SOL    HW226628   2.234   2.073   3.158 -1.3514 -0.1035  1.3111
 5056SOL     OW26629   1.892   1.493  15.189 -0.6154  0.2793 -0.1629
 5056SOL    HW126630   1.937   1.444  15.258  1.0345  2.1631  0.1230
 5056SOL    HW226631   1.970   1.522  15.141 -0.4537  0.6716  0.3301
 5057SOL     OW26632   4.657   4.503   4.010  0.2581  0.0970 -0.0787
 5057SOL    HW126633   4.587   4.557   3.974  0.6999 -0.1503 -1.2941
 5057SOL    HW226634   4.669   4.436   3.942  2.7244 -0.4452  0.8833
 5058SOL     OW26635   3.868   4.211   6.043 -0.0478  0.4685 -0.2460
 5058SOL    HW126636   3.786   4.260   6.034  0.7564  1.4596 -2.3193
 5058SOL    HW226637   3.842   4.120   6.026  0.0487  0.6375 -1.3017
 5059SOL     OW26638   1.097   3.774  10.046  0.8488 -0.3273  0.2515
 5059SOL    HW126639   1.094   3.832   9.970 -0.7268 -1.5140 -0.5959
 5059SOL    HW226640   1.002   3.772  10.057  1.0552 -1.0610  1.9588
 5060SOL     OW26641   2.305   2.126  10.325  0.3375  0.3925  0.4022
 5060SOL    HW126642   2.256   2.113  10.244  2.5637  0.7868 -1.0045
 5060SOL    HW226643   2.247   2.142  10.399 -1.2249 -1.5563 -0.4285
 5061SOL     OW26644   3.177   3.469   4.100  0.0742 -0.0361  0.1318
 5061SOL    HW126645   3.208   3.534   4.163 -0.3850  1.7497 -1.4784
 5061SOL    HW226646   3.084   3.474   4.122 -0.4676  1.4946 -2.5468
 5062SOL     OW26647   2.383   3.305   5.475  0.2701 -0.0980  0.0121
 5062SOL    HW126648   2.397   3.312   5.381 -0.8218 -0.2531 -0.1627
 5062SOL    HW226649   2.294   3.274   5.488 -0.2298  1.7170  0.9557
 5063SOL     OW26650   3.353   1.307   7.919 -0.0854 -0.7350  0.1094
 5063SOL    HW126651   3.288   1.242   7.893 -1.4376  1.5601 -2.2360
 5063SOL    HW226652   3.294   1.381   7.931 -0.8022 -1.2369 -0.3556
 5064SOL     OW26653   3.335   2.241   1.083  0.1057 -0.1302 -0.2283
 5064SOL    HW126654   3.414   2.294   1.073  0.2479 -0.4813 -0.9458
 5064SOL    HW226655   3.318   2.202   0.997  0.3554 -0.8837  0.0725
 5065SOL     OW26656   4.179   4.239   7.110 -0.0603 -0.1801  0.0969
 5065SOL    HW126657   4.111   4.171   7.110  0.4848 -0.7243 -0.5484
 5065SOL    HW226658   4.239   4.191   7.054  0.2582 -0.1312  0.3968
 5066SOL     OW26659   3.060   1.273   5.450  0.1740 -0.4453  0.4830
 5066SOL    HW126660   2.974   1.241   5.477 -0.1205 -0.2238 -0.1956
 5066SOL    HW226661   3.095   1.287   5.538  0.0513  0.0302  0.4604
 5067SOL     OW26662   2.293   3.626  13.812  0.4043  0.5626 -0.3643
 5067SOL    HW126663   2.333   3.548  13.774  0.9592  0.4872  0.3871
 5067SOL    HW226664   2.353   3.664  13.876  0.2919 -0.3355  0.2698
 5068SOL     OW26665   1.815   2.893   7.871 -0.5925 -0.3507 -0.2826
 5068SOL    HW126666   1.901   2.914   7.835 -1.3995  0.7939 -1.5093
 5068SOL    HW226667   1.766   2.881   7.790  2.1867 -1.8492 -1.7433
 5069SOL     OW26668   2.742   3.427  15.081 -0.1639 -0.0732  0.1681
 5069SOL    HW126669   2.817   3.367  15.078 -0.0013  0.1254  0.2812
 5069SOL    HW226670   2.718   3.416  15.173 -1.1880 -0.6270 -0.1653
 5070SOL     OW26671   2.795   1.666  12.187  0.3660 -0.2554 -0.1159
 5070SOL    HW126672   2.829   1.616  12.262 -1.8263 -2.2917 -0.4696
 5070SOL    HW226673   2.726   1.715  12.230  0.7961  0.4902 -0.2784
 5071SOL     OW26674   2.083   2.135  13.793  0.8151  0.2057  0.2719
 5071SOL    HW126675   2.093   2.041  13.783 -0.2620 -0.0787  1.7377
 5071SOL    HW226676   2.175   2.158  13.801  0.5395  1.0297  1.1508
 5072SOL     OW26677   1.322   1.717   4.979 -0.1267  0.3690 -0.3190
 5072SOL    HW126678   1.250   1.670   5.020  0.1654  0.1746 -0.0296
 5072SOL    HW226679   1.305   1.710   4.885 -1.8068  0.3416 -0.0185
 5073SOL     OW26680   1.603   2.554   8.521  0.2748  0.5980 -0.1349
 5073SOL    HW126681   1.590   2.482   8.460  1.3292 -0.6142  1.0756
 5073SOL    HW226682   1.574   2.527   8.608  0.7549 -0.7279 -0.3981
 5074SOL     OW26683   4.603   0.615   7.964 -0.0078 -0.4103  0.1845
 5074SOL    HW126684   4.683   0.655   7.929 -1.5982  1.2866 -1.5267
 5074SOL    HW226685   4.541   0.648   7.898 -1.4542  1.6381  2.5729
 5075SOL     OW26686   2.054   3.685  13.545 -0.3970  0.0882 -0.4446
 5075SOL    HW126687   2.096   3.643  13.470 -0.0836  2.2439 -1.4621
 5075SOL    HW226688   2.024   3.762  13.498  0.2754  0.9585  0.5376
 5076SOL     OW26689   4.412   2.025  16.639 -0.5110 -0.1729  0.1321
 5076SOL    HW126690   4.439   2.111  16.606  2.1347 -0.2860  2.0032
 5076SOL    HW226691   4.320   2.031  16.616 -0.0548  1.1358 -1.3363
 5077SOL     OW26692   2.226   0.831   6.486 -0.0334 -0.2905  0.1159
 5077SOL    HW126693   2.308   0.835   6.437 -0.5586  0.5527 -0.6946
 5077SOL    HW226694   2.207   0.925   6.484  1.6021  0.0758  1.6920
 5078SOL     OW26695   1.900   2.682   1.777  0.2405  0.8098 -0.3852
 5078SOL    HW126696   1.985   2.645   1.755  0.0279  0.6362 -0.9236
 5078SOL    HW226697   1.842   2.647   1.708 -0.0902  0.6876 -0.0463
 5079SOL     OW26698   1.995   2.515  16.859  0.0202 -0.1539  0.1028
 5079SOL    HW126699   2.029   2.597  16.896  1.0914 -0.1578 -0.8932
 5079SOL    HW226700   1.985   2.452  16.931 -3.4475  0.4033  0.1212
 5080SOL     OW26701   2.715   4.053   5.984 -0.1464  0.1561  0.7970
 5080SOL    HW126702   2.804   4.027   5.961  0.2566  0.4058  2.0730
 5080SOL    HW226703   2.731   4.139   6.023 -0.1308 -0.1869  1.5256
 5081SOL     OW26704   1.313   2.325  12.674  0.2584  0.1233  0.5838
 5081SOL    HW126705   1.349   2.265  12.739  1.7256  0.9086  0.5075
 5081SOL    HW226706   1.336   2.275  12.595 -1.6187  1.6346 -0.9172
 5082SOL     OW26707   0.193   0.002  13.645 -0.1792  0.0695  0.2635
 5082SOL    HW126708   0.195   0.094  13.617 -1.3402  0.0407  0.0603
 5082SOL    HW226709   0.197   4.683  13.561 -1.5565  1.0744 -0.3722
 5083SOL     OW26710   1.772   3.123   5.752  0.0204 -0.3665 -0.3796
 5083SOL    HW126711   1.753   3.211   5.785 -0.9314 -0.6716 -0.0929
 5083SOL    HW226712   1.700   3.070   5.787 -0.6308 -0.1094 -1.3278
 5084SOL     OW26713   2.400   2.932   7.429  0.5152  0.0631  0.3279
 5084SOL    HW126714   2.312   2.900   7.409  0.0040  0.5764  1.7142
 5084SOL    HW226715   2.423   2.961   7.341  0.9862  0.0100  0.4325
 5085SOL     OW26716   0.972   0.468  16.480  0.3540  0.3043  0.3593
 5085SOL    HW126717   0.973   0.452  16.575 -2.0567  0.2718  0.3643
 5085SOL    HW226718   1.049   0.525  16.467 -0.2748  0.7892 -1.2217
 5086SOL     OW26719   3.503   1.992  12.089 -0.1877  0.5775  0.0751
 5086SOL    HW126720   3.509   2.074  12.040  2.0933  0.4437  0.1590
 5086SOL    HW226721   3.415   2.008  12.125 -1.2407 -1.6226 -1.5174
 5087SOL     OW26722   1.400   2.916  11.454 -0.5060 -0.6892  0.4520
 5087SOL    HW126723   1.314   2.892  11.421 -0.8973 -0.2282  1.1194
 5087SOL    HW226724   1.373   2.993  11.504  0.5253  0.6772 -1.1072
 5088SOL     OW26725   3.701   1.790   7.291  0.3192 -0.2384 -1.0514
 5088SOL    HW126726   3.751   1.770   7.212  0.3135  2.0474 -1.6128
 5088SOL    HW226727   3.621   1.747   7.264  0.2516 -2.0373  1.9426
 5089SOL     OW26728   1.354   4.417   7.593  0.4942  0.1214 -0.1653
 5089SOL    HW126729   1.325   4.458   7.511  0.3751 -0.7048 -0.5400
 5089SOL    HW226730   1.298   4.466   7.653 -0.7584 -0.3346 -0.9588
 5090SOL     OW26731   2.747   1.088   4.304  0.8855 -0.0651  0.0510
 5090SOL    HW126732   2.707   1.175   4.311  1.8033  0.2397  1.5384
 5090SOL    HW226733   2.794   1.084   4.387 -2.0078  0.9885  1.7218
 5091SOL     OW26734   3.783   1.950   2.623  0.0562 -0.1468  0.5413
 5091SOL    HW126735   3.762   2.043   2.634  2.1836  0.3500  0.4751
 5091SOL    HW226736   3.707   1.922   2.572  0.6875 -0.1801 -0.3743
 5092SOL     OW26737   0.668   1.546   8.416 -0.4875  0.4012 -0.5324
 5092SOL    HW126738   0.638   1.459   8.388  1.3380 -0.8115  1.2921
 5092SOL    HW226739   0.706   1.516   8.499 -0.8007  0.1879 -0.4633
 5093SOL     OW26740   0.034   1.824   0.276  0.3514  0.1623 -0.2419
 5093SOL    HW126741   0.009   1.758   0.212  2.2208 -0.8179  0.0342
 5093SOL    HW226742   4.676   1.835   0.319  0.1598 -2.1681 -0.0474
 5094SOL     OW26743   2.555   4.322   6.183 -0.1956  0.0017 -0.1371
 5094SOL    HW126744   2.621   4.374   6.137 -0.3066 -0.9025 -1.3138
 5094SOL    HW226745   2.496   4.295   6.113  0.3092  1.0654 -0.9932
 5095SOL     OW26746   3.535   1.643  13.545 -0.0276 -0.2904 -0.2246
 5095SOL    HW126747   3.628   1.619  13.538 -0.2528 -0.8721 -1.2182
 5095SOL    HW226748   3.540   1.705  13.473 -0.0870 -0.7370 -0.6120
 5096SOL     OW26749   2.186   0.721   7.821 -0.2540  0.0687 -0.1093
 5096SOL    HW126750   2.187   0.783   7.894 -0.3852 -0.1300  0.0625
 5096SOL    HW226751   2.190   0.642   7.876  1.9493  0.7214  0.6482
 5097SOL     OW26752   2.122   1.593   4.676 -0.3069  0.2243  0.1243
 5097SOL    HW126753   2.101   1.535   4.604 -1.3974 -0.6082  1.1013
 5097SOL    HW226754   2.032   1.612   4.704  0.3034  0.6492  1.8250
 5098SOL     OW26755   4.709   1.637   1.627  0.8335  0.2624  0.5332
 5098SOL    HW126756   0.026   1.552   1.623  0.1948 -0.1211  1.6666
 5098SOL    HW226757   4.721   1.659   1.535  0.1886 -1.7470 -0.0316
 5099SOL     OW26758   2.282   3.772   8.662 -0.3470  0.0365 -0.1929
 5099SOL    HW126759   2.269   3.857   8.704  2.5897  0.9596 -1.1471
 5099SOL    HW226760   2.377   3.773   8.677 -0.3047  0.9997 -0.5207
 5100SOL     OW26761   2.640   4.220   1.109 -0.7462  0.1753 -0.0149
 5100SOL    HW126762   2.651   4.203   1.203 -0.2769 -1.6498 -0.4160
 5100SOL    HW226763   2.544   4.219   1.115 -0.7240  0.2700  0.3850
 5101SOL     OW26764   2.626   2.174   2.956 -0.2842  0.3329 -0.4074
 5101SOL    HW126765   2.678   2.096   2.973 -1.7268 -0.0642  2.2458
 5101SOL    HW226766   2.677   2.214   2.886 -0.5235  2.6296  0.6975
 5102SOL     OW26767   0.068   4.039  14.738  0.1345 -0.7276 -0.0076
 5102SOL    HW126768   0.162   4.041  14.718 -0.1451 -0.7111 -1.3011
 5102SOL    HW226769   0.060   4.120  14.787  0.6881 -0.5093 -0.2730
 5103SOL     OW26770   2.362   4.306  11.614  0.2915 -0.7045 -0.4123
 5103SOL    HW126771   2.383   4.223  11.571  1.6331  0.2750 -1.6737
 5103SOL    HW226772   2.406   4.361  11.549  0.9387 -0.5805  0.1424
 5104SOL     OW26773   3.811   0.366  16.277 -0.8004  0.8451 -0.8214
 5104SOL    HW126774   3.770   0.452  16.271  0.3654  1.4115 -0.4024
 5104SOL    HW226775   3.783   0.322  16.196  0.4853  0.0555 -0.8247
 5105SOL     OW26776   3.793   3.523   9.801 -0.0081  0.1278  0.0599
 5105SOL    HW126777   3.825   3.446   9.754 -0.7088  0.4161 -0.8882
 5105SOL    HW226778   3.740   3.556   9.728  1.3138  0.4914 -0.7314
 5106SOL     OW26779   3.584   0.688   7.573  0.5838  0.0386  0.0434
 5106SOL    HW126780   3.504   0.658   7.530 -0.5043  2.5719  0.2978
 5106SOL    HW226781   3.538   0.746   7.632  1.2634 -0.4859  1.0896
 5107SOL     OW26782   1.576   4.606   5.170 -0.5070 -0.4081 -0.8991
 5107SOL    HW126783   1.577   4.652   5.254  2.6124 -2.6087  0.2638
 5107SOL    HW226784   1.647   4.546   5.193  0.0980  0.8958  0.6035
 5108SOL     OW26785   4.225   0.241   5.498  0.0812 -0.2721 -0.5998
 5108SOL    HW126786   4.158   0.175   5.517 -0.8872  1.1605  0.9852
 5108SOL    HW226787   4.202   0.306   5.564 -1.2299  2.5760 -3.8196
 5109SOL     OW26788   2.699   2.861   2.870  0.1410  0.2725  0.0423
 5109SOL    HW126789   2.645   2.869   2.792 -0.2751  0.9176  0.3936
 5109SOL    HW226790   2.680   2.771   2.896  1.0533 -0.5159 -2.0295
 5110SOL     OW26791   0.665   3.957   8.643  0.0091 -0.1286 -0.4501
 5110SOL    HW126792   0.713   3.906   8.707 -0.2783  1.0281  0.6763
 5110SOL    HW226793   0.648   4.039   8.689  2.7744  0.4871 -0.5242
 5111SOL     OW26794   2.906   3.090   5.426 -0.0719 -0.5269  0.5594
 5111SOL    HW126795   2.993   3.110   5.393 -0.5515  1.5260  0.5650
 5111SOL    HW226796   2.886   3.160   5.487  1.0963  0.2336  0.0616
 5112SOL     OW26797   0.462   2.283   8.481 -0.5479 -0.3225  0.2786
 5112SOL    HW126798   0.400   2.215   8.510 -1.1690 -0.0713 -0.4475
 5112SOL    HW226799   0.524   2.222   8.440  0.8893  1.1827  0.2364
 5113SOL     OW26800   4.562   0.488   8.704 -0.8341  0.8532 -0.2106
 5113SOL    HW126801   4.516   0.437   8.770 -0.2643 -0.0634 -0.5216
 5113SOL    HW226802   4.585   0.566   8.755  1.1771 -0.1537  0.4384
 5114SOL     OW26803   3.715   0.601   6.136 -0.1894 -0.3022  0.0488
 5114SOL    HW126804   3.627   0.579   6.166  0.3155  1.3926  2.7555
 5114SOL    HW226805   3.741   0.521   6.090 -1.6727 -0.0137 -1.2557
 5115SOL     OW26806   2.396   2.997   7.166  0.2524 -0.4882  0.2342
 5115SOL    HW126807   2.322   3.055   7.185  0.5877  0.5268 -1.6300
 5115SOL    HW226808   2.372   2.969   7.078 -3.3058 -0.4577  1.1695
 5116SOL     OW26809   4.586   3.107   8.538  0.4660  0.1868 -0.7222
 5116SOL    HW126810   4.573   3.189   8.587  0.4914  0.0944 -0.5585
 5116SOL    HW226811   4.680   3.097   8.553  0.2970 -0.4825 -0.0773
 5117SOL     OW26812   4.114   2.902   4.339 -0.5029  0.0911 -0.3732
 5117SOL    HW126813   4.203   2.871   4.320 -0.6892 -0.8823  0.3560
 5117SOL    HW226814   4.127   2.993   4.314 -0.9112  0.5815  1.2509
 5118SOL     OW26815   0.831   2.763   5.566 -0.2945  0.6633 -0.0921
 5118SOL    HW126816   0.841   2.781   5.659  1.3305  4.4727 -1.0386
 5118SOL    HW226817   0.831   2.667   5.566  1.1691  0.6703 -0.3903
 5119SOL     OW26818   1.419   0.958   8.688 -0.5080 -0.1711  0.1748
 5119SOL    HW126819   1.364   0.954   8.766  0.6352 -1.9534  0.9033
 5119SOL    HW226820   1.494   1.011   8.714 -0.0155 -0.6051 -0.3282
 5120SOL     OW26821   1.673   4.479   3.658 -0.2355 -0.4413  0.3033
 5120SOL    HW126822   1.614   4.527   3.600  1.5967 -0.2192 -1.3863
 5120SOL    HW226823   1.638   4.390   3.658 -0.7818 -0.2233 -1.0781
 5121SOL     OW26824   1.085   1.680   5.126 -0.3434  0.4165 -0.6882
 5121SOL    HW126825   1.016   1.614   5.132 -0.6146  0.8823  1.4709
 5121SOL    HW226826   1.115   1.678   5.217 -0.3400  1.5755 -0.6581
 5122SOL     OW26827   2.224   0.816  15.349  0.3385 -0.6832  0.4793
 5122SOL    HW126828   2.241   0.755  15.421  0.2976 -1.2672 -0.0046
 5122SOL    HW226829   2.288   0.887  15.356  0.9128 -1.2239  0.6885
 5123SOL     OW26830   4.478   0.363   6.001 -0.0467  0.1715  0.1724
 5123SOL    HW126831   4.489   0.314   6.082  1.2085  1.7397  0.9516
 5123SOL    HW226832   4.508   0.452   6.017  0.8365 -0.1847  0.5429
 5124SOL     OW26833   2.121   3.107   2.452  0.4107  0.2377 -0.8428
 5124SOL    HW126834   2.118   3.042   2.523 -2.1015  1.6854  0.3935
 5124SOL    HW226835   2.194   3.083   2.395 -0.3772 -1.0971 -1.2844
 5125SOL     OW26836   0.836   3.360   4.290 -0.4363  0.4013 -0.3721
 5125SOL    HW126837   0.810   3.442   4.332 -0.8060 -0.6500  1.4482
 5125SOL    HW226838   0.885   3.315   4.359 -0.7850  1.0970  0.3336
 5126SOL     OW26839   0.377   1.493   0.492  0.6588  0.2665 -0.2026
 5126SOL    HW126840   0.344   1.428   0.430 -0.8815  0.5780  0.2984
 5126SOL    HW226841   0.449   1.532   0.441  2.0143 -3.3240 -1.0264
 5127SOL     OW26842   3.002   2.684   9.840  0.5879  0.1876 -0.1250
 5127SOL    HW126843   3.000   2.592   9.865 -2.2208 -0.1076 -1.4844
 5127SOL    HW226844   3.096   2.702   9.836  0.4296  1.2086  0.6883
 5128SOL     OW26845   1.143   4.210   2.690  0.0099  0.0326  0.1321
 5128SOL    HW126846   1.139   4.182   2.599 -0.5922  0.7834 -0.0717
 5128SOL    HW226847   1.102   4.297   2.685  1.0893  0.4930 -0.6852
 5129SOL     OW26848   0.186   3.301  15.120 -0.6118 -0.3409 -0.2940
 5129SOL    HW126849   0.215   3.293  15.030  1.5339  0.5553  0.3285
 5129SOL    HW226850   0.172   3.211  15.151  3.3355 -0.9371 -0.2127
 5130SOL     OW26851   3.914   1.791   4.316  0.3581 -0.4261  0.0454
 5130SOL    HW126852   3.864   1.871   4.301  2.2143  1.1207  2.1350
 5130SOL    HW226853   3.941   1.763   4.228  0.6053 -0.2034  0.0501
 5131SOL     OW26854   2.064   4.690   3.036 -0.2129  0.3637  0.2569
 5131SOL    HW126855   2.111   4.718   2.957  1.3300  0.9745  1.3948
 5131SOL    HW226856   2.029   0.047   3.066 -1.9220 -0.8123  1.5100
 5132SOL     OW26857   2.425   2.123   5.190  0.5298 -0.0279 -0.2117
 5132SOL    HW126858   2.388   2.210   5.174 -0.4670 -0.8137 -2.1709
 5132SOL    HW226859   2.464   2.119   5.103  2.2296  1.3588  0.4919
 5133SOL     OW26860   1.305   0.692   5.201 -0.8291  0.4826 -0.1323
 5133SOL    HW126861   1.257   0.613   5.177  0.0078  0.3790 -1.4684
 5133SOL    HW226862   1.328   0.717   5.111 -0.8504 -0.4143 -0.3893
 5134SOL     OW26863   1.710   3.186  12.895 -0.1356 -0.1192 -0.2961
 5134SOL    HW126864   1.676   3.192  12.806  0.4959 -1.5304 -0.6350
 5134SOL    HW226865   1.646   3.236  12.945  1.1099  1.3132 -0.1239
 5135SOL     OW26866   3.074   2.576   2.557  0.0528  0.8155 -0.1154
 5135SOL    HW126867   3.132   2.651   2.558  0.2751  0.6415  0.0316
 5135SOL    HW226868   3.001   2.608   2.504 -0.3828  0.6880  0.4023
 5136SOL     OW26869   0.592   4.277   6.013  0.1704  0.2794  0.1099
 5136SOL    HW126870   0.649   4.334   5.961 -0.9046  0.2694 -1.0813
 5136SOL    HW226871   0.550   4.212   5.955 -1.0094  0.1014  1.1587
 5137SOL     OW26872   2.943   1.505   8.084  0.0858  0.3985 -0.0028
 5137SOL    HW126873   2.923   1.557   8.162  2.4462  0.5924  0.4695
 5137SOL    HW226874   2.881   1.432   8.090 -1.6805  1.8600 -0.1893
 5138SOL     OW26875   4.352   0.806  16.766  0.7930  0.1834 -0.6444
 5138SOL    HW126876   4.335   0.900  16.770 -0.8020 -0.2393  2.6997
 5138SOL    HW226877   4.447   0.808  16.757  0.9990  3.0945  2.1451
 5139SOL     OW26878   4.097   1.943   7.505  0.0281  0.0541 -0.1778
 5139SOL    HW126879   4.057   1.890   7.436  2.1074 -2.6680  0.6776
 5139SOL    HW226880   4.027   1.949   7.571  0.1873 -3.4491  0.3505
 5140SOL     OW26881   1.715   2.607   3.189 -0.1838 -0.2775 -0.5773
 5140SOL    HW126882   1.673   2.670   3.131 -1.6296 -0.8727 -0.1863
 5140SOL    HW226883   1.776   2.563   3.130  1.4038 -0.4622  1.2146
 5141SOL     OW26884   0.952   3.065  17.084 -0.2243  0.2738 -0.6408
 5141SOL    HW126885   0.892   3.127  17.041  0.6906  0.7594 -1.2044
 5141SOL    HW226886   1.003   3.124  17.141  1.0822  0.6808 -2.2540
 5142SOL     OW26887   3.991   1.712   8.917 -0.1684  0.6009  0.0622
 5142SOL    HW126888   4.054   1.655   8.961 -0.7356  0.0612  0.1672
 5142SOL    HW226889   4.043   1.793   8.910  0.6034  0.2770  1.9904
 5143SOL     OW26890   3.078   0.572   6.103  0.0754  0.1287 -0.3779
 5143SOL    HW126891   3.016   0.643   6.087 -2.1112 -2.1231 -1.8266
 5143SOL    HW226892   3.163   0.616   6.105 -0.2510  0.7067  0.7865
 5144SOL     OW26893   4.127   2.510   1.128 -0.4069 -0.3061  0.1631
 5144SOL    HW126894   4.128   2.581   1.192 -1.5815 -0.2957  0.1731
 5144SOL    HW226895   4.059   2.546   1.070 -1.5354 -1.9223  0.4770
 5145SOL     OW26896   3.169   0.237   2.101  0.0289 -0.1643 -0.4810
 5145SOL    HW126897   3.089   0.197   2.136  0.4069 -1.5285 -1.1991
 5145SOL    HW226898   3.171   0.200   2.013  3.3073  3.6227 -1.9885
 5146SOL     OW26899   4.281   0.517   6.660 -0.4247 -0.6602 -0.0196
 5146SOL    HW126900   4.370   0.508   6.625 -0.5372  1.4788 -0.9199
 5146SOL    HW226901   4.306   0.511   6.752 -2.3171 -0.0245  0.5337
 5147SOL     OW26902   1.261   3.499   9.049 -0.0462 -0.1056  0.0060
 5147SOL    HW126903   1.240   3.471   9.139 -1.9492 -1.3830 -0.8180
 5147SOL    HW226904   1.224   3.586   9.036  2.2286  0.5648 -1.8601
 5148SOL     OW26905   0.158   1.674   0.837  0.3964 -0.3135  0.1642
 5148SOL    HW126906   0.198   1.757   0.863  0.1212  0.7373 -2.7538
 5148SOL    HW226907   0.084   1.704   0.784  0.7264  1.4138  0.6504
 5149SOL     OW26908   1.322   2.077   6.435 -0.4726 -0.2253 -0.7558
 5149SOL    HW126909   1.400   2.130   6.453 -1.2527  0.1874  1.4559
 5149SOL    HW226910   1.283   2.071   6.522  0.0531 -1.0326 -0.5780
 5150SOL     OW26911   0.446   3.886   1.994  0.0267  0.1474 -0.0074
 5150SOL    HW126912   0.442   3.856   1.903 -0.4157 -0.7820  0.3191
 5150SOL    HW226913   0.526   3.938   1.984  0.0672 -0.1452 -1.2203
 5151SOL     OW26914   0.009   3.239  11.178  0.1213  0.2082  0.4324
 5151SOL    HW126915   4.663   3.245  11.240  1.7007 -1.6834  2.4786
 5151SOL    HW226916   4.694   3.204  11.099  0.6867 -0.3394  0.3716
 5152SOL     OW26917   0.159   2.644   6.902  0.2558 -0.6062 -0.0017
 5152SOL    HW126918   0.145   2.711   6.834 -1.7569  2.0794  3.0900
 5152SOL    HW226919   0.095   2.585   6.862 -1.6162  1.1669  0.3847
 5153SOL     OW26920   2.330   1.008   2.801  0.5782  0.0752  0.6637
 5153SOL    HW126921   2.319   0.918   2.831  2.2824 -1.0056 -1.8767
 5153SOL    HW226922   2.263   1.016   2.733  0.5486 -1.2264  0.5280
 5154SOL     OW26923   0.934   0.763  14.618 -0.5656  0.0774  0.7913
 5154SOL    HW126924   0.873   0.740  14.687 -2.7799  0.9133 -0.8906
 5154SOL    HW226925   1.005   0.793  14.676  0.0555  0.4965 -0.1849
 5155SOL     OW26926   3.586   2.576   2.595  0.3164 -0.4105  0.2703
 5155SOL    HW126927   3.619   2.619   2.516 -0.5946 -0.0177  0.1021
 5155SOL    HW226928   3.586   2.646   2.660 -1.4336  0.3517 -0.5370
 5156SOL     OW26929   4.236   2.905  14.811  0.3046  0.1441 -0.1595
 5156SOL    HW126930   4.304   2.851  14.851  0.0564 -1.2046 -1.5303
 5156SOL    HW226931   4.178   2.928  14.884  0.0864 -0.2483 -0.2062
 5157SOL     OW26932   1.004   3.415   8.582  0.1773 -0.1357  0.2844
 5157SOL    HW126933   0.924   3.364   8.594 -0.6328  1.4538  1.5954
 5157SOL    HW226934   0.994   3.469   8.660 -0.4110 -0.3773  0.3710
 5158SOL     OW26935   3.921   1.267  10.373  0.0662 -0.1445  0.4307
 5158SOL    HW126936   3.928   1.178  10.339  1.5128  0.6887 -1.4467
 5158SOL    HW226937   3.841   1.269  10.426 -0.8664  0.9376 -1.0430
 5159SOL     OW26938   2.119   0.516  15.452  0.9446 -0.5674 -0.1121
 5159SOL    HW126939   2.038   0.476  15.420  1.0985 -1.0607  0.1214
 5159SOL    HW226940   2.164   0.494  15.370  1.3917 -1.0764  0.2726
 5160SOL     OW26941   2.243   0.739   5.148 -0.0355  0.3471 -0.0569
 5160SOL    HW126942   2.206   0.712   5.064 -0.4588 -1.6692  0.7937
 5160SOL    HW226943   2.286   0.660   5.180  3.3479  2.1247 -0.1530
 5161SOL     OW26944   4.459   3.945   1.491  0.0051  0.4634 -0.3894
 5161SOL    HW126945   4.460   3.971   1.583 -1.7905  0.0522 -0.2535
 5161SOL    HW226946   4.423   3.857   1.500  1.0509 -0.0243 -1.0404
 5162SOL     OW26947   2.921   3.590   7.618 -0.0942 -0.6428  0.5037
 5162SOL    HW126948   2.992   3.598   7.554 -0.4320  0.4592  0.2748
 5162SOL    HW226949   2.844   3.609   7.565  0.4236 -1.1317 -0.4309
 5163SOL     OW26950   2.804   0.860   1.009  0.4689  0.6928 -0.3934
 5163SOL    HW126951   2.795   0.916   0.932 -1.3463 -2.0748 -2.2003
 5163SOL    HW226952   2.762   0.784   0.967 -0.2349  0.7655  0.1887
 5164SOL     OW26953   3.960   2.267   6.545  0.0645 -0.4188  0.0540
 5164SOL    HW126954   3.979   2.280   6.638  0.3063  1.3007 -0.2404
 5164SOL    HW226955   4.036   2.312   6.508  0.7013 -1.0055  0.6582
 5165SOL     OW26956   1.817   2.006   6.243  0.0301  0.0908 -0.2493
 5165SOL    HW126957   1.757   1.962   6.304 -1.4207 -1.0874 -2.5411
 5165SOL    HW226958   1.776   1.991   6.158  2.4332 -2.1771 -1.0236
 5166SOL     OW26959   1.592   3.741   5.065 -0.4118 -0.2606  0.1346
 5166SOL    HW126960   1.669   3.692   5.094 -0.8951 -1.9634 -1.4933
 5166SOL    HW226961   1.561   3.779   5.148 -1.0150  1.6526 -0.9673
 5167SOL     OW26962   3.408   4.358   2.322  0.1145  0.1067 -0.2743
 5167SOL    HW126963   3.491   4.363   2.275  2.1109 -0.0086  3.2001
 5167SOL    HW226964   3.424   4.405   2.404 -1.0802  1.3609 -0.7474
 5168SOL     OW26965   1.968   2.311  15.488  0.2161  0.1587 -0.0901
 5168SOL    HW126966   1.996   2.317  15.397  0.6228  3.1298  0.2303
 5168SOL    HW226967   2.021   2.377  15.532 -1.0262  0.8774  0.3268
 5169SOL     OW26968   3.965   2.687   7.083  0.2474 -0.9390  0.1696
 5169SOL    HW126969   4.029   2.636   7.133  1.2096 -0.3922 -0.4966
 5169SOL    HW226970   3.917   2.726   7.156 -1.1782 -1.4547 -0.4772
 5170SOL     OW26971   2.498   3.736   0.708  0.1865  0.0069 -0.0315
 5170SOL    HW126972   2.506   3.660   0.766 -1.6928 -1.4652 -1.7622
 5170SOL    HW226973   2.455   3.697   0.633  1.6134  0.2640 -0.9825
 5171SOL     OW26974   2.321   4.366  11.070  0.0604  0.0346 -0.1909
 5171SOL    HW126975   2.319   4.307  10.994  0.2189  0.7724 -0.7771
 5171SOL    HW226976   2.229   4.360  11.096  0.3633  0.5417  0.9856
 5172SOL     OW26977   1.369   2.949   8.903  0.1150 -0.3753  0.4673
 5172SOL    HW126978   1.315   2.935   8.980  0.4046 -2.3784  0.3165
 5172SOL    HW226979   1.350   3.041   8.883 -0.1307 -1.0980 -2.5838
 5173SOL     OW26980   3.755   4.373  10.074  0.0165  0.1290  1.3322
 5173SOL    HW126981   3.800   4.348  10.155  1.3132 -0.1005  0.5428
 5173SOL    HW226982   3.664   4.387  10.098 -0.3981  0.9523 -0.8024
 5174SOL     OW26983   1.237   3.552   6.949  0.4332  0.0491 -0.2377
 5174SOL    HW126984   1.250   3.467   6.990  4.9535  0.4672 -0.7880
 5174SOL    HW226985   1.177   3.598   7.007 -0.5660  0.5281 -1.6413
 5175SOL     OW26986   0.121   3.503  11.845 -0.4871 -0.6775  0.6767
 5175SOL    HW126987   0.027   3.519  11.840 -0.2406 -0.4091 -3.0510
 5175SOL    HW226988   0.136   3.472  11.756  0.8792 -1.9315  1.3443
 5176SOL     OW26989   0.720   3.894   3.381 -0.1169  0.1894 -0.1676
 5176SOL    HW126990   0.634   3.880   3.341  0.2352 -0.6344 -0.6387
 5176SOL    HW226991   0.694   3.870   3.470 -1.5449  1.5166 -0.2238
 5177SOL     OW26992   3.044   2.631   7.483 -0.5033 -0.3600  0.0540
 5177SOL    HW126993   3.137   2.625   7.500 -0.2741 -2.0763 -1.7692
 5177SOL    HW226994   3.014   2.540   7.484  0.6330 -0.7027  2.4106
 5178SOL     OW26995   3.904   1.374  15.432  0.2058  0.0958 -0.0911
 5178SOL    HW126996   3.969   1.367  15.501  0.6489  2.0734 -0.2936
 5178SOL    HW226997   3.946   1.328  15.359 -0.4807 -0.5217 -0.1042
 5179SOL     OW26998   4.008   0.821   3.401  0.0010 -0.0259 -0.2229
 5179SOL    HW126999   4.005   0.858   3.312 -1.3140  0.2566 -0.0600
 5179SOL    HW227000   4.096   0.785   3.389  0.4024  1.1696 -0.9641
 5180SOL     OW27001   4.290   0.070   3.101 -0.4734 -0.0104  0.6830
 5180SOL    HW127002   4.248   4.712   3.089  0.7484 -0.6834  1.1654
 5180SOL    HW227003   4.246   0.083   3.185 -1.4229  1.2410 -0.0066
 5181SOL     OW27004   4.231   4.117   2.925 -0.1820  0.5038 -0.1499
 5181SOL    HW127005   4.163   4.061   2.888  0.3678  0.3985 -1.0049
 5181SOL    HW227006   4.176   4.192   2.946  0.3529  0.5586  1.0588
 5182SOL     OW27007   2.604   3.763  17.010 -0.5312 -0.2732  0.1640
 5182SOL    HW127008   2.657   3.705  16.955 -1.7036 -0.2893 -0.9434
 5182SOL    HW227009   2.631   3.852  16.985  0.0733 -0.8299 -1.1791
 5183SOL     OW27010   3.661   2.740   1.537  0.3142 -0.4104  0.6485
 5183SOL    HW127011   3.648   2.697   1.621 -1.1674 -0.0598  0.6048
 5183SOL    HW227012   3.743   2.783   1.561  0.6709  0.1954 -1.6521
 5184SOL     OW27013   4.373   1.259   3.316 -0.3481 -0.0781 -0.2932
 5184SOL    HW127014   4.358   1.336   3.260 -1.1150 -0.4140 -0.5562
 5184SOL    HW227015   4.307   1.275   3.384 -0.2145  3.3513 -0.9279
 5185SOL     OW27016   0.377   3.670   6.906 -0.0416  0.4628 -0.3965
 5185SOL    HW127017   0.410   3.737   6.847 -1.1917 -0.4468 -2.0788
 5185SOL    HW227018   0.283   3.681   6.894 -0.0024  0.0420 -1.0701
 5186SOL     OW27019   1.741   2.731  10.772 -0.4076 -0.2449  0.1932
 5186SOL    HW127020   1.745   2.792  10.845  0.7251  0.1813 -0.2262
 5186SOL    HW227021   1.758   2.777  10.690  0.3239  0.0864  0.5331
 5187SOL     OW27022   2.861   0.206   6.359  0.7205 -0.0775 -0.2808
 5187SOL    HW127023   2.910   0.176   6.283  2.8518  0.3218  0.9211
 5187SOL    HW227024   2.897   0.293   6.379  0.9695 -0.7727  2.2882
 5188SOL     OW27025   3.179   3.695   6.448  0.6371 -0.3835  0.3261
 5188SOL    HW127026   3.134   3.777   6.464  0.8780 -0.0615 -0.6365
 5188SOL    HW227027   3.232   3.710   6.369 -0.8603  0.3648 -0.5289
 5189SOL     OW27028   2.714   4.139   7.371  0.4552  0.0427  0.4610
 5189SOL    HW127029   2.619   4.143   7.382  0.6119  0.7554  1.5931
 5189SOL    HW227030   2.720   4.139   7.276  1.5629  0.7135  0.5379
 5190SOL     OW27031   4.554   2.400  12.400 -0.0163 -0.2701  0.2984
 5190SOL    HW127032   4.645   2.419  12.377 -0.8010  0.9060 -1.8052
 5190SOL    HW227033   4.523   2.354  12.322 -0.1606  0.4895 -0.0943
 5191SOL     OW27034   3.241   4.677   3.362  0.0967  0.1163 -0.0458
 5191SOL    HW127035   3.153   4.690   3.326  0.9033 -0.8409 -2.3905
 5191SOL    HW227036   3.243   4.581   3.359 -0.3041  0.1361 -0.9263
 5192SOL     OW27037   4.619   0.825  11.139 -0.0611  0.5665 -0.6063
 5192SOL    HW127038   4.533   0.797  11.110 -0.8931  1.8835  0.5536
 5192SOL    HW227039   4.645   0.738  11.169  1.8512  0.3174 -3.0282
 5193SOL     OW27040   1.464   1.161   4.701  0.3163  0.6036 -0.2100
 5193SOL    HW127041   1.509   1.237   4.740  1.5198  0.2504 -0.9299
 5193SOL    HW227042   1.444   1.104   4.775 -1.2832  0.3575 -0.8331
 5194SOL     OW27043   1.789   1.153   5.743  0.3010  0.3844 -0.5417
 5194SOL    HW127044   1.726   1.121   5.679 -0.2051  0.9609 -0.3349
 5194SOL    HW227045   1.735   1.220   5.785  1.0673  0.9538 -0.4626
 5195SOL     OW27046   1.142   1.453   2.843 -0.2882  0.4383  0.2742
 5195SOL    HW127047   1.102   1.380   2.795 -1.8914  2.7211 -1.8594
 5195SOL    HW227048   1.133   1.525   2.780 -0.4227 -0.2399 -0.4873
 5196SOL     OW27049   3.849   3.403   3.048 -0.2909 -0.4907  0.0006
 5196SOL    HW127050   3.895   3.483   3.076 -0.2220 -0.9647  1.2664
 5196SOL    HW227051   3.797   3.386   3.127 -1.3416 -1.8402 -0.9818
 5197SOL     OW27052   0.132   0.408   2.430  0.4905  0.1324 -0.3516
 5197SOL    HW127053   0.157   0.336   2.488 -0.3194 -0.3273 -0.5812
 5197SOL    HW227054   0.207   0.415   2.371  0.7665 -0.5383 -0.0818
 5198SOL     OW27055   3.700   2.579   1.795 -0.1692  0.1039 -0.0882
 5198SOL    HW127056   3.713   2.504   1.737  0.6774 -0.1156  0.3739
 5198SOL    HW227057   3.663   2.534   1.872 -0.0529 -0.1206 -0.1621
 5199SOL     OW27058   2.789   3.337   7.975 -0.3277 -0.5721 -0.5890
 5199SOL    HW127059   2.856   3.275   8.005  0.0829  0.0838 -0.1554
 5199SOL    HW227060   2.796   3.410   8.036  0.3512  0.0329 -1.3914
 5200SOL     OW27061   3.569   2.871  14.310  0.2065 -0.1754  0.2206
 5200SOL    HW127062   3.577   2.781  14.279 -1.3977 -0.4078  0.5196
 5200SOL    HW227063   3.659   2.893  14.335  0.1597  2.3642 -1.8503
 5201SOL     OW27064   4.116   3.639  16.439  0.3402  0.3950 -0.2858
 5201SOL    HW127065   4.162   3.691  16.505  1.1876  2.2724 -2.3275
 5201SOL    HW227066   4.165   3.661  16.359  0.8872  3.2655  0.8343
 5202SOL     OW27067   1.426   4.540   2.971  0.0753  0.3929  0.0109
 5202SOL    HW127068   1.423   4.456   3.017  3.1065 -0.3538 -1.1826
 5202SOL    HW227069   1.351   4.541   2.912 -1.5469  1.1244  2.0688
 5203SOL     OW27070   3.390   1.750  12.146 -0.3503 -0.8897  0.4027
 5203SOL    HW127071   3.412   1.681  12.082 -0.2160  1.0333 -1.6308
 5203SOL    HW227072   3.452   1.821  12.131 -0.6050 -0.7331  0.0932
 5204SOL     OW27073   2.629   2.178   8.345  0.2707  0.1983 -0.5265
 5204SOL    HW127074   2.672   2.156   8.428  0.4239  1.4987 -0.2535
 5204SOL    HW227075   2.555   2.120   8.356 -0.9782  2.2474  1.8343
 5205SOL     OW27076   0.502   3.621  11.862  0.0344  0.1098 -0.1917
 5205SOL    HW127077   0.442   3.667  11.803 -0.0576 -0.5468 -0.6038
 5205SOL    HW227078   0.583   3.616  11.812  0.9453  1.8999  1.0950
 5206SOL     OW27079   2.896   3.820  15.099  0.4766  0.3517 -0.3074
 5206SOL    HW127080   2.822   3.759  15.109  0.8772 -0.3643 -1.6169
 5206SOL    HW227081   2.871   3.875  15.025 -0.4831  2.7058  1.7544
 5207SOL     OW27082   4.461   3.910  15.497 -0.1568  0.4342 -0.0401
 5207SOL    HW127083   4.391   3.912  15.563 -0.0946 -0.0528  0.0407
 5207SOL    HW227084   4.536   3.897  15.555  0.3515 -0.6896 -0.9550
 5208SOL     OW27085   2.060   4.346   9.393 -0.7684 -0.5755  0.0647
 5208SOL    HW127086   2.106   4.299   9.462 -0.9760 -1.3977 -0.3471
 5208SOL    HW227087   2.117   4.421   9.379 -1.7701  0.4275  1.3796
 5209SOL     OW27088   3.874   0.923   0.432  0.1774  0.5395  0.1118
 5209SOL    HW127089   3.850   0.931   0.524 -0.1023 -0.5236  0.1362
 5209SOL    HW227090   3.932   0.997   0.418  1.2284 -0.3566 -0.2999
 5210SOL     OW27091   0.375   3.087  12.358  0.0510 -0.0101  0.7758
 5210SOL    HW127092   0.317   3.036  12.415 -0.2482 -2.3184 -1.5527
 5210SOL    HW227093   0.428   3.020  12.315 -0.1125  0.0927  0.4177
 5211SOL     OW27094   1.452   3.701   3.608 -0.4353  0.0493  0.1819
 5211SOL    HW127095   1.536   3.671   3.574  0.3680  1.6963  0.6803
 5211SOL    HW227096   1.461   3.677   3.700 -1.4244  0.3816  0.3679
 5212SOL     OW27097   2.967   0.251   7.043  0.1543 -0.5712 -0.0469
 5212SOL    HW127098   2.906   0.190   7.001  1.0136  1.2442 -3.9329
 5212SOL    HW227099   2.994   0.198   7.118  2.8498  2.4127  1.0531
 5213SOL     OW27100   2.658   3.989   2.119  0.5699  0.1883  0.4425
 5213SOL    HW127101   2.613   3.925   2.063 -1.0125  1.0654  0.7306
 5213SOL    HW227102   2.701   4.042   2.051 -0.6762 -2.4179 -2.4143
 5214SOL     OW27103   4.068   4.013   5.048  0.6133 -0.2197  0.4181
 5214SOL    HW127104   4.146   3.990   4.997  0.5470  0.7014 -0.0959
 5214SOL    HW227105   4.098   4.092   5.094  0.7084 -0.3378  0.5620
 5215SOL     OW27106   4.230   1.369   2.795  0.2580  0.6886 -0.4328
 5215SOL    HW127107   4.303   1.365   2.733  0.2580 -0.9325 -0.3287
 5215SOL    HW227108   4.272   1.358   2.879 -1.2996  1.0151  0.3966
 5216SOL     OW27109   0.868   2.608   5.000 -0.5932 -0.5392  0.4707
 5216SOL    HW127110   0.914   2.568   5.073  0.9280 -0.6833 -0.5841
 5216SOL    HW227111   0.874   2.698   5.031  1.2592 -0.5188  0.0241
 5217SOL     OW27112   4.464   0.885   9.731  0.1105  0.5059  0.0154
 5217SOL    HW127113   4.470   0.890   9.827 -0.5103  0.0871  0.0773
 5217SOL    HW227114   4.383   0.835   9.727 -0.0227  0.5068  2.2388
 5218SOL     OW27115   2.909   2.515   0.090 -0.2252 -0.8090 -0.0611
 5218SOL    HW127116   2.890   2.421   0.085  1.0768 -1.1019  0.3892
 5218SOL    HW227117   2.934   2.519   0.182  1.8152  0.7328 -0.6879
 5219SOL     OW27118   2.716   3.493   5.238 -0.5618  0.0786  0.5281
 5219SOL    HW127119   2.701   3.401   5.216  0.5711  0.3512 -1.3693
 5219SOL    HW227120   2.663   3.538   5.173  0.0006 -0.4982 -0.3429
 5220SOL     OW27121   1.863   3.436  16.004 -0.3900 -1.5288  0.3052
 5220SOL    HW127122   1.951   3.427  15.967 -0.4424  1.7847 -0.7016
 5220SOL    HW227123   1.880   3.456  16.096  0.6434 -1.7094  0.1477
 5221SOL     OW27124   2.123   0.719   8.840 -0.4895  0.5229  0.4163
 5221SOL    HW127125   2.192   0.782   8.862 -1.3135  1.5001  0.1840
 5221SOL    HW227126   2.168   0.641   8.872 -1.3554 -1.0043 -2.0846
 5222SOL     OW27127   4.099   4.537  16.310  0.2491 -0.1666 -0.2888
 5222SOL    HW127128   4.189   4.541  16.344  0.2588  0.0575 -0.3436
 5222SOL    HW227129   4.082   4.443  16.303  1.3375 -0.3983  0.1723
 5223SOL     OW27130   2.490   1.326   6.805  0.5016 -0.1811 -0.2773
 5223SOL    HW127131   2.426   1.395   6.822 -0.0740 -0.5504 -0.9204
 5223SOL    HW227132   2.433   1.258   6.767  0.0412  0.4258 -0.6778
 5224SOL     OW27133   1.971   2.761   4.814 -0.0780  0.0045 -0.3027
 5224SOL    HW127134   1.936   2.704   4.882  1.1700 -0.1569  0.2174
 5224SOL    HW227135   2.050   2.720   4.778 -0.2359  2.5703 -3.5224
 5225SOL     OW27136   1.951   1.908   4.189 -0.4410 -0.0101  0.2689
 5225SOL    HW127137   1.859   1.897   4.213 -1.0961  0.4222 -2.0259
 5225SOL    HW227138   1.976   1.993   4.225 -0.5329  0.1381 -0.0117
 5226SOL     OW27139   4.550   3.528   1.027 -0.0829  0.5920 -0.4752
 5226SOL    HW127140   4.620   3.555   1.087  1.4207 -1.1855 -1.3828
 5226SOL    HW227141   4.583   3.452   0.977  0.6296 -0.1605  1.1333
 5227SOL     OW27142   0.379   1.127   8.080  0.3713  0.1389  0.3599
 5227SOL    HW127143   0.466   1.088   8.087  0.3430  0.2607  1.4602
 5227SOL    HW227144   0.336   1.053   8.036 -0.7409 -1.1158  3.5658
 5228SOL     OW27145   3.416   3.556   6.067  1.0301 -0.1889  0.1014
 5228SOL    HW127146   3.451   3.483   6.117  2.7657  1.0194  0.6204
 5228SOL    HW227147   3.335   3.514   6.035  2.3974 -1.6194 -1.4706
 5229SOL     OW27148   0.152   3.499   5.072 -0.1036  0.0413 -0.2475
 5229SOL    HW127149   0.118   3.540   5.151 -0.6383 -0.0113 -0.4479
 5229SOL    HW227150   0.247   3.506   5.086 -0.0208  1.0552 -1.3095
 5230SOL     OW27151   2.390   4.081   8.302  0.0459 -0.6042  0.0471
 5230SOL    HW127152   2.387   4.059   8.209 -0.8418  1.3629 -0.3813
 5230SOL    HW227153   2.323   4.149   8.310 -0.3965 -0.5557 -4.3047
 5231SOL     OW27154   1.818   0.129  10.444 -0.1114  0.8516  0.2675
 5231SOL    HW127155   1.914   0.126  10.440 -0.1603  1.8223 -1.4446
 5231SOL    HW227156   1.786   0.121  10.354 -1.9543 -0.2895  1.0239
 5232SOL     OW27157   4.282   2.557   8.285 -0.1829  0.7046  0.6124
 5232SOL    HW127158   4.319   2.524   8.202  1.3649  0.8272  1.2613
 5232SOL    HW227159   4.352   2.534   8.346 -0.8344 -2.5131  0.1952
 5233SOL     OW27160   3.435   1.013   7.374 -0.1805  0.1051  0.3570
 5233SOL    HW127161   3.515   1.003   7.323 -0.3014 -0.3273  0.2488
 5233SOL    HW227162   3.421   1.104   7.347 -3.5848 -0.5576 -0.1172
 5234SOL     OW27163   3.545   0.877   0.918  0.5766 -0.4362 -0.2819
 5234SOL    HW127164   3.465   0.877   0.864 -0.5016 -0.8269  1.3193
 5234SOL    HW227165   3.588   0.809   0.866 -0.2228 -0.1688 -1.3014
 5235SOL     OW27166   2.283   1.692  11.391  0.0606  0.9216  0.0402
 5235SOL    HW127167   2.275   1.601  11.363 -0.7764  1.3189 -1.0022
 5235SOL    HW227168   2.300   1.675  11.483  0.9502  1.4841 -0.0202
 5236SOL     OW27169   4.200   0.562  15.352  0.3817  0.2049 -0.3862
 5236SOL    HW127170   4.171   0.603  15.271 -1.1444  0.7220  0.4187
 5236SOL    HW227171   4.157   0.626  15.409  0.3139  0.5155 -0.7883
 5237SOL     OW27172   0.866   4.199  10.775 -0.0418  0.4294 -0.0715
 5237SOL    HW127173   0.819   4.281  10.793 -0.5357 -0.0849  1.0125
 5237SOL    HW227174   0.928   4.189  10.847  0.9816  2.5231 -0.6549
 5238SOL     OW27175   1.073   0.584   5.412 -0.1497 -0.0405  0.1165
 5238SOL    HW127176   1.136   0.530   5.458  0.2015  0.1808 -0.1100
 5238SOL    HW227177   1.088   0.668   5.455  0.8611 -1.1798  1.9529
 5239SOL     OW27178   2.589   0.881   2.841 -0.5224 -0.4567  0.1608
 5239SOL    HW127179   2.505   0.924   2.826  0.2409  0.3556 -1.7384
 5239SOL    HW227180   2.591   0.804   2.784 -1.3751  1.3841 -2.3666
 5240SOL     OW27181   1.946   4.304  15.658 -0.4041  0.5590  0.2686
 5240SOL    HW127182   1.950   4.300  15.563 -0.7376  0.2510  0.2717
 5240SOL    HW227183   1.884   4.234  15.678 -0.6857 -0.1658 -3.2051
 5241SOL     OW27184   1.881   3.034   3.541  0.2001 -0.7872  0.1582
 5241SOL    HW127185   1.862   2.982   3.463 -1.6817  2.9700 -1.9179
 5241SOL    HW227186   1.971   3.060   3.520 -0.3173  0.6579 -0.2466
 5242SOL     OW27187   3.877   1.358   0.877 -0.4333  0.2843 -0.0736
 5242SOL    HW127188   3.803   1.336   0.820 -0.0577 -2.3115  0.4670
 5242SOL    HW227189   3.841   1.308   0.950 -0.3022 -0.8608 -0.7950
 5243SOL     OW27190   3.515   0.004   2.920 -0.5544  0.1982  0.0387
 5243SOL    HW127191   3.573   0.027   2.847 -0.4132 -0.5321 -0.0752
 5243SOL    HW227192   3.529   4.637   2.930 -0.0975  0.3096  0.4385
 5244SOL     OW27193   0.334   0.200   0.399 -0.5217 -0.2775  0.5852
 5244SOL    HW127194   0.271   0.209   0.470 -0.2244 -1.0341  0.9420
 5244SOL    HW227195   0.399   0.261   0.432 -0.8029  0.2416  0.1730
 5245SOL     OW27196   1.419   0.419   8.910  0.0291  0.0184  0.5541
 5245SOL    HW127197   1.421   0.424   8.815 -1.0061  1.7188  0.6097
 5245SOL    HW227198   1.411   0.513   8.929  2.5041  0.1326  1.0641
 5246SOL     OW27199   0.095   0.358   9.009 -0.3037 -0.1353 -0.6902
 5246SOL    HW127200   0.032   0.299   9.050  0.6622 -1.0196 -0.4804
 5246SOL    HW227201   0.029   0.416   8.970 -1.1316 -0.3376  0.4162
 5247SOL     OW27202   4.431   3.098   4.841 -0.5129 -0.3402 -0.3416
 5247SOL    HW127203   4.450   3.007   4.818 -1.9949 -0.3308 -1.6331
 5247SOL    HW227204   4.488   3.153   4.788 -0.3452  0.4320  0.6533
 5248SOL     OW27205   2.030   1.643   1.608  0.3074 -0.1820 -0.2212
 5248SOL    HW127206   1.994   1.730   1.624  0.7261 -0.3339  1.4858
 5248SOL    HW227207   2.124   1.660   1.609  0.4967 -1.3266  1.3058
 5249SOL     OW27208   0.026   1.025   4.607 -0.0018 -0.2475  0.6438
 5249SOL    HW127209   0.112   0.984   4.600 -1.2720 -2.7296 -0.8684
 5249SOL    HW227210   4.716   0.984   4.685 -1.1277  1.3257  0.9374
 5250SOL     OW27211   3.299   3.726   7.646  0.1716 -0.3856  0.3853
 5250SOL    HW127212   3.348   3.802   7.615 -0.3771 -0.2483 -0.1477
 5250SOL    HW227213   3.268   3.688   7.563  0.4027 -0.6092  0.4005
 5251SOL     OW27214   2.376   2.951  11.881 -0.2505 -0.1302 -0.2247
 5251SOL    HW127215   2.298   3.005  11.877 -0.1611 -0.0748 -1.2650
 5251SOL    HW227216   2.372   2.908  11.795 -2.5447  2.2525 -1.2995
 5252SOL     OW27217   1.541   0.477   1.863  0.1135 -0.2441 -0.3617
 5252SOL    HW127218   1.566   0.410   1.926 -1.6427 -0.1057  0.4985
 5252SOL    HW227219   1.593   0.448   1.788 -1.2429 -2.1987 -0.5257
 5253SOL     OW27220   1.658   1.076   8.756  0.4075  0.1983 -0.6238
 5253SOL    HW127221   1.740   1.076   8.706  0.8632  0.0486  0.1293
 5253SOL    HW227222   1.671   0.999   8.811  0.2337 -1.1427 -2.4800
 5254SOL     OW27223   2.909   0.794  16.779  0.4850 -0.0430 -0.7111
 5254SOL    HW127224   2.822   0.782  16.741 -0.5283  1.2727  1.1864
 5254SOL    HW227225   2.884   0.863  16.841 -1.5138 -0.8260 -0.6644
 5255SOL     OW27226   1.042   0.222   3.149 -0.0817 -0.1695  0.0893
 5255SOL    HW127227   0.990   0.229   3.068  0.0141  1.2640  0.1491
 5255SOL    HW227228   0.983   0.272   3.206 -0.5673 -0.5265 -0.0966
 5256SOL     OW27229   2.565   1.143  15.544 -0.5270 -0.0520  0.1258
 5256SOL    HW127230   2.604   1.082  15.606  1.7959  0.1987 -1.1009
 5256SOL    HW227231   2.618   1.222  15.546 -1.9739  0.9112  0.7282
 5257SOL     OW27232   2.560   2.695   5.198  0.2462 -0.5175 -0.2553
 5257SOL    HW127233   2.617   2.763   5.233  0.4071 -0.7634 -0.0383
 5257SOL    HW227234   2.600   2.625   5.250 -1.0782 -0.8959  0.2803
 5258SOL     OW27235   4.119   3.310   4.678  0.1740  0.0914 -0.4549
 5258SOL    HW127236   4.168   3.241   4.634 -0.1416 -1.0558  0.9973
 5258SOL    HW227237   4.192   3.353   4.723 -0.6979  0.1963  0.8454
 5259SOL     OW27238   0.190   3.715  12.420  0.0434 -0.5081 -0.2495
 5259SOL    HW127239   0.215   3.694  12.510 -1.9423  0.9520  0.6289
 5259SOL    HW227240   0.102   3.677  12.419  0.8911 -2.5251  0.7502
 5260SOL     OW27241   1.955   0.091  15.067 -0.3663 -0.2685 -0.1883
 5260SOL    HW127242   1.973   4.726  15.047 -1.9506 -0.2941 -1.5108
 5260SOL    HW227243   2.022   0.115  15.132  0.1084 -0.4799 -0.6011
 5261SOL     OW27244   0.734   3.061  13.873 -0.3336  0.6913  0.6644
 5261SOL    HW127245   0.722   2.968  13.857  0.5598  0.5889  0.5745
 5261SOL    HW227246   0.744   3.071  13.967 -1.3121  2.2929  0.6124
 5262SOL     OW27247   3.120   2.032  12.680  0.1577 -0.1365 -0.1119
 5262SOL    HW127248   3.107   1.996  12.592 -1.6897 -0.5871  0.3499
 5262SOL    HW227249   3.209   2.064  12.668  0.1626 -0.6759 -1.5667
 5263SOL     OW27250   1.534   2.051  11.803  0.2631  0.0320  0.0835
 5263SOL    HW127251   1.527   2.045  11.707  2.7283 -4.2167  0.1943
 5263SOL    HW227252   1.455   2.001  11.824 -0.2241  1.5188  1.7340
 5264SOL     OW27253   2.581   4.268   1.995  0.0202  0.2930  0.3852
 5264SOL    HW127254   2.513   4.335   2.000  0.9945  1.1766  1.7978
 5264SOL    HW227255   2.529   4.201   1.950 -1.3830 -0.1705  2.6984
 5265SOL     OW27256   0.888   0.532  14.158  0.5729 -0.0925  0.1387
 5265SOL    HW127257   0.832   0.610  14.156  2.5936  1.2437 -3.4535
 5265SOL    HW227258   0.843   0.465  14.106  1.1148 -0.9053  0.7047
 5266SOL     OW27259   0.516   2.934  11.967 -0.1748  0.1198 -0.4129
 5266SOL    HW127260   0.587   2.875  11.941 -1.4805 -2.7860  2.6014
 5266SOL    HW227261   0.542   3.022  11.939  0.3154 -0.9974 -3.4589
 5267SOL     OW27262   0.713   3.617  16.614  0.5898 -0.4895 -0.0045
 5267SOL    HW127263   0.693   3.660  16.697 -1.2442  1.9535 -1.6980
 5267SOL    HW227264   0.630   3.614  16.565 -0.8021 -0.3150  2.3368
 5268SOL     OW27265   3.021   2.039   9.711 -0.6245  0.1202 -0.3310
 5268SOL    HW127266   2.933   2.076   9.702 -1.2584 -0.8027  1.9406
 5268SOL    HW227267   3.037   2.032   9.617  1.8040 -1.5375  0.1936
 5269SOL     OW27268   3.358   2.104   5.433  0.3624 -0.3046  0.2026
 5269SOL    HW127269   3.292   2.140   5.492 -0.3096 -1.5381  0.2000
 5269SOL    HW227270   3.296   2.040   5.397  0.9991 -1.2959  0.8646
 5270SOL     OW27271   4.434   2.598   0.083  0.0097 -0.4076  0.2918
 5270SOL    HW127272   4.412   2.653   0.157  0.7798  0.6672 -0.2695
 5270SOL    HW227273   4.356   2.547   0.065 -1.1520  1.8274 -1.0370
 5271SOL     OW27274   3.016   1.678   7.530  0.0183 -0.1972 -0.0366
 5271SOL    HW127275   3.111   1.686   7.538  0.0933 -0.7991 -0.2995
 5271SOL    HW227276   3.007   1.751   7.470  1.1897  0.5338  0.6747
 5272SOL     OW27277   1.833   4.052   2.679  0.2495 -0.1372  0.3997
 5272SOL    HW127278   1.769   4.100   2.626  3.0708  1.0601 -1.9555
 5272SOL    HW227279   1.912   4.074   2.628 -1.1076  2.0505 -0.7402
 5273SOL     OW27280   0.200   2.837   5.391  0.1945 -0.0070  0.1948
 5273SOL    HW127281   0.132   2.827   5.457 -0.6433 -0.8755 -0.7956
 5273SOL    HW227282   0.215   2.746   5.364  0.5388  0.2163 -0.3614
 5274SOL     OW27283   4.294   1.850   2.915  0.0652  0.5011 -0.4306
 5274SOL    HW127284   4.271   1.812   2.831  1.5259  0.6332 -0.8871
 5274SOL    HW227285   4.305   1.772   2.970  1.2114 -0.4689 -2.0396
 5275SOL     OW27286   2.729   2.611   5.601 -0.3826 -0.4929  0.0647
 5275SOL    HW127287   2.801   2.674   5.599 -1.7266  0.9942 -1.4886
 5275SOL    HW227288   2.661   2.657   5.650  0.7260  2.5161 -1.2438
 5276SOL     OW27289   4.308   2.988   5.707  0.0927  0.6239  0.0619
 5276SOL    HW127290   4.230   2.934   5.709  1.3307 -1.0879  2.0387
 5276SOL    HW227291   4.375   2.922   5.727  1.7829  2.5780  0.9143
 5277SOL     OW27292   4.605   1.617   0.512  0.1044 -0.5528  0.1244
 5277SOL    HW127293   4.569   1.696   0.471  1.5792  1.1743  2.1626
 5277SOL    HW227294   4.653   1.666   0.579  1.1424 -1.7963  0.2875
 5278SOL     OW27295   3.216   4.259   8.360  0.6276  0.0983  0.2670
 5278SOL    HW127296   3.247   4.258   8.450  2.8123  0.7674 -0.4577
 5278SOL    HW227297   3.123   4.241   8.371  0.4878  0.1739 -0.7348
 5279SOL     OW27298   0.040   2.990   7.021  0.6576 -0.4207 -0.0836
 5279SOL    HW127299   0.055   3.066   7.076  0.7350 -1.2832  1.0955
 5279SOL    HW227300   0.129   2.957   7.008 -0.4692 -3.6280  0.4030
 5280SOL     OW27301   1.279   2.513   8.650  0.4176  0.4262 -0.1782
 5280SOL    HW127302   1.353   2.455   8.628  0.5696  0.7394 -0.5022
 5280SOL    HW227303   1.207   2.457   8.622 -0.5088  1.3292  0.4276
 5281SOL     OW27304   1.691   2.030  16.743 -0.2451 -0.0472 -0.2855
 5281SOL    HW127305   1.680   1.937  16.721  0.4487 -0.1265 -0.3056
 5281SOL    HW227306   1.600   2.060  16.747 -0.2098 -0.0475  0.5497
 5282SOL     OW27307   2.512   0.976   8.629  0.1378  0.3364 -0.3380
 5282SOL    HW127308   2.458   0.940   8.559 -1.3508  1.6558  0.1452
 5282SOL    HW227309   2.457   1.039   8.674 -0.6497  0.6112 -1.6786
 5283SOL     OW27310   3.172   3.681   8.388 -0.2014 -0.4488 -0.2347
 5283SOL    HW127311   3.188   3.765   8.431 -1.5183 -0.0172 -0.6081
 5283SOL    HW227312   3.109   3.712   8.323 -1.6649  0.5996  1.7133
 5284SOL     OW27313   3.362   0.258   3.247 -0.1761 -0.1432 -0.5830
 5284SOL    HW127314   3.332   0.182   3.296 -2.7760  1.9551  1.0353
 5284SOL    HW227315   3.450   0.239   3.214 -0.3953 -1.4404 -0.4070
 5285SOL     OW27316   0.852   0.163  12.423 -0.1388 -0.2405  0.4994
 5285SOL    HW127317   0.870   0.157  12.329  0.2380 -3.1996  0.7539
 5285SOL    HW227318   0.756   0.162  12.421 -0.0768 -2.1110 -1.6732
 5286SOL     OW27319   2.310   3.495  14.462 -0.3157  0.7939 -0.0305
 5286SOL    HW127320   2.219   3.468  14.450 -0.0279 -0.6148  1.0703
 5286SOL    HW227321   2.304   3.586  14.491 -0.4786  0.1046  2.0797
 5287SOL     OW27322   3.523   4.398   1.651 -0.7234  0.5910  0.1800
 5287SOL    HW127323   3.508   4.426   1.561  1.0478 -0.0786 -0.3208
 5287SOL    HW227324   3.610   4.435   1.663  0.1185 -2.0470  2.1743
 5288SOL     OW27325   1.412   3.160   5.122  0.3592  0.4656  0.2347
 5288SOL    HW127326   1.482   3.224   5.119  1.3399 -0.6403 -0.5795
 5288SOL    HW227327   1.350   3.206   5.179 -1.5031 -1.3638 -0.3070
 5289SOL     OW27328   0.727   3.823   4.965 -0.9767 -0.0351  0.0769
 5289SOL    HW127329   0.676   3.903   4.961  1.1905  1.4480  2.4501
 5289SOL    HW227330   0.768   3.852   5.046 -1.6866  1.2279 -0.0311
 5290SOL     OW27331   3.977   3.634  14.633 -0.2498  0.6784  0.0143
 5290SOL    HW127332   3.894   3.665  14.596 -1.0040 -0.2938  0.8626
 5290SOL    HW227333   3.992   3.699  14.701  1.9888  1.7580 -1.5502
 5291SOL     OW27334   3.526   3.356   4.775  0.0666 -0.5503  0.1777
 5291SOL    HW127335   3.620   3.359   4.795 -0.2546 -1.0104  1.8095
 5291SOL    HW227336   3.531   3.356   4.680 -0.1896 -1.4718  0.1684
 5292SOL     OW27337   3.443   3.773   2.424  0.0495 -0.1416  0.3369
 5292SOL    HW127338   3.379   3.842   2.407  2.3603  1.8553 -0.1639
 5292SOL    HW227339   3.462   3.748   2.334 -1.1402 -1.1938  0.3726
 5293SOL     OW27340   3.023   3.360   0.218  0.1108 -0.1572 -0.1710
 5293SOL    HW127341   2.962   3.308   0.167 -0.7760 -2.0794  2.8461
 5293SOL    HW227342   2.972   3.432   0.255  1.1304  0.6149 -0.2590
 5294SOL     OW27343   3.030   1.895   3.723 -0.2143 -0.3332  0.1873
 5294SOL    HW127344   3.022   1.988   3.704  0.1184  0.1796  2.6088
 5294SOL    HW227345   2.978   1.859   3.651  1.3890 -2.2303 -0.0363
 5295SOL     OW27346   0.147   0.780   7.205 -0.1280  0.4029 -0.0276
 5295SOL    HW127347   0.103   0.759   7.288 -2.2913  6.7846  0.4423
 5295SOL    HW227348   0.088   0.736   7.143  0.8075 -0.1441 -0.5180
 5296SOL     OW27349   3.234   4.456   4.290  0.1010 -0.3056  0.0083
 5296SOL    HW127350   3.212   4.438   4.381 -0.6271 -0.7572 -0.2569
 5296SOL    HW227351   3.294   4.382   4.279  1.5199  0.5951  1.6316
 5297SOL     OW27352   3.864   1.446  12.466  0.1490  0.4937 -0.5357
 5297SOL    HW127353   3.852   1.504  12.391 -0.8118  0.3145 -0.5122
 5297SOL    HW227354   3.895   1.361  12.433 -0.1763  0.2517 -0.2276
 5298SOL     OW27355   0.180   1.414   6.189 -0.6626 -0.0301 -0.3147
 5298SOL    HW127356   0.152   1.373   6.107 -2.1255  0.7005 -0.1851
 5298SOL    HW227357   0.098   1.448   6.226  0.9222  2.2823  1.0142
 5299SOL     OW27358   4.116   3.738   2.804 -0.5374  0.2701 -0.5172
 5299SOL    HW127359   4.209   3.724   2.818 -0.5019 -2.3612 -3.4503
 5299SOL    HW227360   4.096   3.650   2.774 -0.1408 -0.5189  1.5661
 5300SOL     OW27361   3.450   2.932   1.741 -1.0417  0.5253  0.3971
 5300SOL    HW127362   3.426   2.943   1.650  1.7931  2.6191 -0.0924
 5300SOL    HW227363   3.426   3.014   1.785 -0.9003  0.3155  0.8737
 5301SOL     OW27364   0.550   4.113   3.031 -0.6610 -0.2010 -0.1605
 5301SOL    HW127365   0.509   4.191   2.995 -0.9432 -0.4196 -0.3179
 5301SOL    HW227366   0.635   4.152   3.049 -0.1735 -0.2583 -2.2445
 5302SOL     OW27367   4.054   3.207   6.737 -0.5454 -0.2076 -0.5654
 5302SOL    HW127368   4.008   3.123   6.734 -1.1449  0.0018  2.2003
 5302SOL    HW227369   3.982   3.262   6.769  0.4257  0.3984  0.5941
 5303SOL     OW27370   2.944   4.011   3.488 -0.1090  0.3466  0.5791
 5303SOL    HW127371   2.874   4.077   3.491 -1.1732 -0.7609 -0.1703
 5303SOL    HW227372   2.981   4.028   3.575  0.0887 -0.3443  0.6294
 5304SOL     OW27373   1.223   4.591  10.368 -0.2791 -0.1595 -0.2849
 5304SOL    HW127374   1.280   4.523  10.403 -0.0675  0.0969 -0.1322
 5304SOL    HW227375   1.192   4.630  10.450 -1.1649 -1.0370 -0.1972
 5305SOL     OW27376   0.589   2.803   1.097  0.0445 -0.1194  0.2330
 5305SOL    HW127377   0.630   2.726   1.137  0.4315  0.3666  0.7865
 5305SOL    HW227378   0.515   2.808   1.158 -1.0967 -1.1454 -1.0567
 5306SOL     OW27379   2.181   4.654  16.476 -0.3145  0.1333  0.6439
 5306SOL    HW127380   2.106   4.600  16.502  0.4525 -1.1577  0.1833
 5306SOL    HW227381   2.230   4.602  16.413 -2.4942 -0.4364 -0.5674
 5307SOL     OW27382   0.484   3.675   8.774  0.2844 -0.1459  0.0279
 5307SOL    HW127383   0.389   3.676   8.786  0.9611  0.7457  4.9481
 5307SOL    HW227384   0.505   3.743   8.838 -2.4513  0.2558  0.4897
 5308SOL     OW27385   2.438   2.338   0.732 -0.0789  0.2770  0.5223
 5308SOL    HW127386   2.506   2.330   0.665  0.8757 -1.4483  1.6678
 5308SOL    HW227387   2.494   2.319   0.808  0.0394  0.0536  0.3803
 5309SOL     OW27388   0.530   3.219   8.755 -0.2332  0.7888  1.2443
 5309SOL    HW127389   0.526   3.166   8.675  0.2860  3.1133 -0.3272
 5309SOL    HW227390   0.461   3.285   8.748 -2.0283 -1.1416  0.7498
 5310SOL     OW27391   2.151   1.865  13.667 -0.4459 -0.4220  0.1038
 5310SOL    HW127392   2.092   1.845  13.594  1.5622  3.6689 -2.6508
 5310SOL    HW227393   2.092   1.827  13.731 -1.1965 -0.2838 -0.5030
 5311SOL     OW27394   0.976   1.086  16.022  0.1636 -0.1243 -0.3781
 5311SOL    HW127395   0.985   1.105  15.929 -1.1518  2.0599 -0.0489
 5311SOL    HW227396   0.933   1.161  16.062 -0.8135 -0.9442  0.0891
 5312SOL     OW27397   0.319   1.149  13.563 -0.1472 -0.5528  0.5999
 5312SOL    HW127398   0.341   1.097  13.485 -0.0786  2.0841 -1.1429
 5312SOL    HW227399   0.253   1.098  13.610 -0.5096 -0.4353  0.2207
 5313SOL     OW27400   1.598   4.471   1.799 -0.7259  0.0535  0.0551
 5313SOL    HW127401   1.629   4.418   1.726 -0.7943 -0.1600  0.1812
 5313SOL    HW227402   1.568   4.555   1.764  4.2271  1.3607 -1.0628
 5314SOL     OW27403   1.168   0.444   3.966  0.0280  0.1231  0.2565
 5314SOL    HW127404   1.151   0.474   3.877  2.1684  4.4354  1.2854
 5314SOL    HW227405   1.208   0.523   4.003 -0.5315  0.6068 -0.1709
 5315SOL     OW27406   2.593   3.939  13.104  0.3313 -0.1652 -0.4685
 5315SOL    HW127407   2.642   4.021  13.108 -0.5858  0.3103  0.9062
 5315SOL    HW227408   2.662   3.874  13.115  2.0175  1.3428 -1.9055
 5316SOL     OW27409   2.878   3.581   8.142  0.5631 -0.1164  0.1050
 5316SOL    HW127410   2.915   3.614   8.060  1.4418  1.2814  1.0617
 5316SOL    HW227411   2.906   3.659   8.190  0.6661 -1.0788  1.6000
 5317SOL     OW27412   2.943   1.342   2.146  0.0033  0.4206  0.2606
 5317SOL    HW127413   2.943   1.352   2.050 -1.3534  2.2743  0.4444
 5317SOL    HW227414   2.973   1.430   2.167 -1.8160  1.1634 -0.2303
 5318SOL     OW27415   1.495   1.433   9.127  0.1450 -0.0017  0.5659
 5318SOL    HW127416   1.436   1.464   9.196  0.4011  0.1898  0.6989
 5318SOL    HW227417   1.508   1.348   9.169  1.1791 -0.3942 -0.5409
 5319SOL     OW27418   3.666   2.853   7.501  0.2214  0.0562  0.0599
 5319SOL    HW127419   3.574   2.869   7.519 -0.0076  0.3827 -1.3982
 5319SOL    HW227420   3.678   2.771   7.550 -0.0833  0.0482  0.1161
 5320SOL     OW27421   1.325   0.759   2.773  0.0469 -0.1186 -0.7375
 5320SOL    HW127422   1.259   0.694   2.796  0.1135 -0.0473 -0.3495
 5320SOL    HW227423   1.353   0.793   2.858 -2.2341  2.0063 -0.8265
 5321SOL     OW27424   4.209   3.307   1.433  0.0197  0.9804  0.1024
 5321SOL    HW127425   4.284   3.345   1.387  2.2572 -1.7616  1.5029
 5321SOL    HW227426   4.151   3.275   1.363 -1.2283  1.8301  0.7659
 5322SOL     OW27427   0.856   2.948   3.483 -0.2462  0.7850  0.1554
 5322SOL    HW127428   0.840   2.876   3.544 -1.8139  1.7893  0.9361
 5322SOL    HW227429   0.901   2.894   3.418  0.3828  0.0751  1.1802
 5323SOL     OW27430   1.392   1.406  11.774 -0.7625 -0.8969  0.6959
 5323SOL    HW127431   1.412   1.318  11.743  3.3144  0.1112  0.4718
 5323SOL    HW227432   1.452   1.470  11.736 -0.7007 -0.6029  1.3006
 5324SOL     OW27433   0.515   0.646   4.928  0.2389  0.1024 -0.5259
 5324SOL    HW127434   0.516   0.741   4.912 -2.5464 -0.3024 -3.0975
 5324SOL    HW227435   0.519   0.613   4.839 -1.8205  1.5768 -1.1723
 5325SOL     OW27436   0.626   0.053   4.521  0.0208 -0.6182  0.4420
 5325SOL    HW127437   0.587   0.116   4.582 -0.5390  0.9149 -1.4935
 5325SOL    HW227438   0.568   0.068   4.447  0.6591 -0.1137  0.0491
 5326SOL     OW27439   0.664   1.783   6.329  0.0453  0.5348 -0.9936
 5326SOL    HW127440   0.592   1.833   6.290 -1.6345 -1.2171 -0.1602
 5326SOL    HW227441   0.617   1.764   6.411  0.1527 -0.3428 -1.1330
 5327SOL     OW27442   3.293   2.450   1.313  0.1063  0.2873 -0.5328
 5327SOL    HW127443   3.367   2.446   1.375  0.1813 -1.3365 -0.7160
 5327SOL    HW227444   3.327   2.403   1.237  2.4425  0.8805  0.1271
 5328SOL     OW27445   2.313   2.064   1.119 -0.0354 -0.5203  0.4807
 5328SOL    HW127446   2.269   2.131   1.171  1.0674  1.1399 -0.7244
 5328SOL    HW227447   2.341   2.000   1.185 -1.2706 -0.7823  0.7348
 5329SOL     OW27448   1.069   0.183   4.028  0.0523 -0.3172 -0.2435
 5329SOL    HW127449   1.003   0.205   4.094 -0.5632 -0.7409 -0.7184
 5329SOL    HW227450   1.095   0.274   4.016  1.7385 -0.6927  0.5851
 5330SOL     OW27451   1.431   3.181   9.877 -0.0348  0.4635  0.4632
 5330SOL    HW127452   1.409   3.216   9.790 -2.5090 -1.8598  0.1420
 5330SOL    HW227453   1.498   3.241   9.910 -0.6458  0.9134  0.8775
 5331SOL     OW27454   2.111   3.852   3.866  0.0055 -0.0388 -0.2037
 5331SOL    HW127455   2.172   3.800   3.814 -0.0924  1.1273 -1.4704
 5331SOL    HW227456   2.114   3.817   3.955 -3.2407  0.0330 -0.0401
 5332SOL     OW27457   2.113   2.625   6.693  0.0486  0.3478  0.3699
 5332SOL    HW127458   2.172   2.579   6.752  0.7549  2.2815  1.1871
 5332SOL    HW227459   2.032   2.650   6.739 -1.0121 -0.1541 -1.2361
 5333SOL     OW27460   2.404   1.047  10.323  0.2133 -0.2117 -0.0111
 5333SOL    HW127461   2.311   1.069  10.313  0.5428  0.3143 -1.8820
 5333SOL    HW227462   2.448   1.089  10.249  0.2605  0.0537  0.1659
 5334SOL     OW27463   2.213   3.109   1.176  0.4330 -0.5044  0.1868
 5334SOL    HW127464   2.246   3.040   1.233  2.0174  0.6155  0.6316
 5334SOL    HW227465   2.117   3.112   1.184  0.6216 -1.9119  2.8925
 5335SOL     OW27466   0.129   0.320  13.859 -0.6688 -0.2325  0.2045
 5335SOL    HW127467   0.046   0.346  13.819 -0.1723 -0.0040 -0.6827
 5335SOL    HW227468   0.159   0.397  13.907  1.9440 -0.0926 -1.6201
 5336SOL     OW27469   4.448   2.794   8.467 -0.2629  0.2849 -0.5808
 5336SOL    HW127470   4.358   2.769   8.447  0.0729  0.8690 -2.7615
 5336SOL    HW227471   4.493   2.800   8.383 -0.0358  1.2746 -0.3841
 5337SOL     OW27472   2.115   0.920   7.241  0.0188  0.1544 -0.0590
 5337SOL    HW127473   2.135   1.008   7.207  0.6910  0.6826  1.7022
 5337SOL    HW227474   2.021   0.914   7.225  0.3766 -1.2550 -1.5874
 5338SOL     OW27475   3.260   0.095   2.872  0.3668 -0.0400  0.5673
 5338SOL    HW127476   3.230   0.004   2.876 -0.8196  0.2096 -2.2875
 5338SOL    HW227477   3.355   0.085   2.881  0.4234  0.0792  0.1181
 5339SOL     OW27478   1.060   0.436   6.636  0.5844  0.0043 -0.3031
 5339SOL    HW127479   0.978   0.435   6.685  2.3220  2.1621  2.6244
 5339SOL    HW227480   1.028   0.480   6.557  1.4969 -0.8842 -1.1706
 5340SOL     OW27481   2.524   0.434   8.109  0.5340 -0.2489 -0.5415
 5340SOL    HW127482   2.502   0.500   8.174  1.1098 -1.0767  0.4881
 5340SOL    HW227483   2.524   0.351   8.157 -1.0677  0.5705  0.8436
 5341SOL     OW27484   1.164   0.520   4.594 -0.1112  0.3275 -0.7280
 5341SOL    HW127485   1.126   0.434   4.575  0.1889 -0.1568  0.8020
 5341SOL    HW227486   1.252   0.504   4.561  0.6397 -0.6559  1.7125
 5342SOL     OW27487   3.926   0.083  17.137  0.2900 -0.3386 -0.0277
 5342SOL    HW127488   3.888   0.168  17.159  1.0262 -0.2513  0.9695
 5342SOL    HW227489   3.904   0.070  17.045  2.4553  2.3477 -0.9252
 5343SOL     OW27490   2.574   1.961   3.581  0.2433  0.3734  0.1357
 5343SOL    HW127491   2.632   2.037   3.578  1.1042 -0.1575  3.3361
 5343SOL    HW227492   2.628   1.897   3.535  0.4216  0.5826  0.0546
 5344SOL     OW27493   1.468   1.662   1.405 -0.2198 -0.5460 -0.3175
 5344SOL    HW127494   1.391   1.605   1.408 -0.4418 -0.3045 -1.3166
 5344SOL    HW227495   1.439   1.710   1.483  2.5067  0.3341  0.1384
 5345SOL     OW27496   2.293   1.184   6.688  0.1269  0.3192 -0.2718
 5345SOL    HW127497   2.219   1.245   6.680 -1.3724 -1.6290 -1.0313
 5345SOL    HW227498   2.286   1.158   6.597  0.5459  1.2975 -0.5907
 5346SOL     OW27499   0.931   3.017   4.249 -0.6064  0.1942 -0.5258
 5346SOL    HW127500   0.895   2.934   4.217 -1.6566 -0.1747  1.6368
 5346SOL    HW227501   1.014   2.984   4.284  0.1847  1.3530 -1.3154
 5347SOL     OW27502   2.273   0.211   5.160 -0.0349 -0.1615 -0.0919
 5347SOL    HW127503   2.322   0.129   5.150  2.0253  1.2128 -1.2873
 5347SOL    HW227504   2.188   0.192   5.123 -0.1402 -0.0790  0.1076
 5348SOL     OW27505   4.315   1.065  14.521 -0.2199 -0.3725 -0.0170
 5348SOL    HW127506   4.257   1.002  14.478 -0.4906  0.0209 -0.2313
 5348SOL    HW227507   4.296   1.035  14.610 -1.9953  1.0187  0.0833
 5349SOL     OW27508   2.701   0.287   3.856 -0.4964 -0.0887  0.4547
 5349SOL    HW127509   2.762   0.308   3.785 -0.8655  0.6092  0.3484
 5349SOL    HW227510   2.617   0.325   3.830 -0.3328  0.2272  0.3887
 5350SOL     OW27511   3.272   2.610   7.632  0.3244 -0.1746  0.1829
 5350SOL    HW127512   3.323   2.690   7.644  0.0651 -0.1634  1.1736
 5350SOL    HW227513   3.297   2.556   7.706  0.4179  1.5950  1.4310
 5351SOL     OW27514   3.015   3.115   2.453  0.6897 -0.0017  0.2880
 5351SOL    HW127515   3.007   3.064   2.372 -0.7274 -0.8457  0.9774
 5351SOL    HW227516   2.943   3.084   2.507 -0.0075  0.7906 -0.1882
 5352SOL     OW27517   2.955   3.039   8.458 -0.3372 -0.0743  0.6469
 5352SOL    HW127518   2.910   3.121   8.479  0.4972  0.6001 -0.1979
 5352SOL    HW227519   3.045   3.066   8.474  0.0328 -0.4041 -0.8160
 5353SOL     OW27520   0.387   2.982  10.528 -0.1344 -0.7002  0.1187
 5353SOL    HW127521   0.436   3.063  10.515  0.2789 -1.1832 -1.3318
 5353SOL    HW227522   0.445   2.923  10.480  0.2727 -0.0981 -0.1312
 5354SOL     OW27523   2.300   2.781   6.359 -0.5500  0.2351  0.1976
 5354SOL    HW127524   2.305   2.814   6.449  0.1655  2.9837 -0.8420
 5354SOL    HW227525   2.381   2.805   6.314  0.5830 -3.1559  0.4665
 5355SOL     OW27526   0.243   3.128   5.427  0.3580 -0.1849 -0.4241
 5355SOL    HW127527   0.242   3.121   5.523 -2.4353 -4.3313 -0.8068
 5355SOL    HW227528   0.239   3.034   5.410  1.9606 -0.2393 -0.5129
 5356SOL     OW27529   2.645   4.600   8.528  0.0671 -0.2594 -0.4529
 5356SOL    HW127530   2.645   4.665   8.598 -1.8003 -1.3779  0.5934
 5356SOL    HW227531   2.551   4.582   8.519  0.0193 -1.1737  2.0603
 5357SOL     OW27532   2.232   2.189   1.370 -0.2707  1.1517  0.1792
 5357SOL    HW127533   2.143   2.213   1.395 -0.2177 -1.6240  3.1118
 5357SOL    HW227534   2.253   2.135   1.446  0.5246 -1.4311 -1.8573
 5358SOL     OW27535   2.132   3.377   9.490  0.2094  0.3889 -0.2253
 5358SOL    HW127536   2.186   3.424   9.554 -0.6688 -2.7565  2.8356
 5358SOL    HW227537   2.194   3.305   9.478  1.1442  0.8619  1.7268
 5359SOL     OW27538   3.612   4.055   4.908  0.2382  0.2403 -0.0896
 5359SOL    HW127539   3.669   4.040   4.983  0.0632 -0.1749 -0.0438
 5359SOL    HW227540   3.543   4.111   4.945  1.4170  1.2082  0.6480
 5360SOL     OW27541   1.004   3.888  12.800  0.1132 -0.2875 -0.2900
 5360SOL    HW127542   0.939   3.835  12.754  0.9427 -0.8270 -0.8467
 5360SOL    HW227543   1.084   3.836  12.792  0.2208 -0.2175  0.3949
 5361SOL     OW27544   3.775   4.496   1.668 -0.7829 -0.4075  0.1202
 5361SOL    HW127545   3.870   4.499   1.678 -0.9672 -0.3436  1.9654
 5361SOL    HW227546   3.755   4.589   1.656 -1.0817 -0.9295 -3.2162
 5362SOL     OW27547   0.814   1.505   3.845 -0.3339  0.1837  0.4369
 5362SOL    HW127548   0.741   1.549   3.889 -1.6336 -1.1791 -0.3796
 5362SOL    HW227549   0.846   1.583   3.799 -1.0816  1.0737  1.4042
 5363SOL     OW27550   2.657   1.682  10.429  0.5903  0.3835 -0.6151
 5363SOL    HW127551   2.629   1.762  10.384 -2.7794  0.2245  1.2200
 5363SOL    HW227552   2.690   1.725  10.508  0.4659  0.8851 -0.8370
 5364SOL     OW27553   1.404   1.967   4.502  0.4392 -0.2495  0.2702
 5364SOL    HW127554   1.469   2.036   4.516  1.5195 -0.6896 -2.5539
 5364SOL    HW227555   1.356   1.978   4.584  1.2938  0.7322  0.6523
 5365SOL     OW27556   0.601   2.098   6.961  0.5463 -0.8899  0.1696
 5365SOL    HW127557   0.550   2.095   6.880 -1.0633 -1.6910  1.2287
 5365SOL    HW227558   0.642   2.183   6.949 -1.5452  0.5027  2.9681
 5366SOL     OW27559   2.399   2.879   0.632 -0.0576 -0.0711  0.5666
 5366SOL    HW127560   2.458   2.936   0.583 -1.6966  1.6632  0.5998
 5366SOL    HW227561   2.455   2.805   0.655  0.0555  0.3298  1.6132
 5367SOL     OW27562   0.123   0.765   9.515 -0.3253  0.1716  0.3270
 5367SOL    HW127563   0.157   0.701   9.453 -1.2963 -0.4040  0.3803
 5367SOL    HW227564   0.033   0.733   9.517 -0.1477 -0.1920  2.5377
 5368SOL     OW27565   4.523   3.238   6.906 -0.4825 -0.5851 -0.1633
 5368SOL    HW127566   4.432   3.267   6.912  0.0387  1.4860 -1.9717
 5368SOL    HW227567   4.530   3.175   6.977  1.9522  1.1741  1.1582
 5369SOL     OW27568   1.902   0.351   3.519 -0.5032  0.5515 -0.2869
 5369SOL    HW127569   1.947   0.410   3.458 -1.1159  0.5081 -0.7695
 5369SOL    HW227570   1.875   0.279   3.463 -0.9165 -1.1930  2.1772
 5370SOL     OW27571   2.503   1.618   6.576  0.5618 -0.2966 -0.1358
 5370SOL    HW127572   2.445   1.602   6.651  0.8327  1.2783  0.4074
 5370SOL    HW227573   2.589   1.592   6.610 -0.2242 -0.4008  1.7836
 5371SOL     OW27574   4.566   4.071   4.037  0.2338 -0.0871 -0.3427
 5371SOL    HW127575   4.517   4.013   4.095  0.0885  1.9218  1.5507
 5371SOL    HW227576   4.494   4.121   3.998 -0.2801 -1.2419 -0.8813
 5372SOL     OW27577   3.174   4.056  16.738 -0.0730 -0.3945  0.0722
 5372SOL    HW127578   3.257   4.104  16.740  0.2163 -0.9631  1.8905
 5372SOL    HW227579   3.119   4.125  16.776 -0.9737 -1.5364  0.8485
 5373SOL     OW27580   1.254   1.212   6.919  0.1553  0.0098  0.8353
 5373SOL    HW127581   1.224   1.134   6.966  4.5866 -1.8124  0.5897
 5373SOL    HW227582   1.184   1.225   6.855 -0.2813 -0.6730  1.1745
 5374SOL     OW27583   4.295   1.764  15.353  0.7039 -0.0400 -0.1378
 5374SOL    HW127584   4.376   1.719  15.328  0.4891  1.2215 -3.0343
 5374SOL    HW227585   4.233   1.707  15.309  2.1083 -1.7228  0.0738
 5375SOL     OW27586   3.002   2.392  11.912 -0.9218 -0.5897  0.4697
 5375SOL    HW127587   2.917   2.349  11.913  0.2528 -2.9021  1.5720
 5375SOL    HW227588   2.986   2.463  11.851 -1.3570 -1.3941 -0.3450
 5376SOL     OW27589   3.470   4.330  15.330  0.2228  0.2674 -0.2627
 5376SOL    HW127590   3.420   4.308  15.408 -0.1486 -0.3227 -0.6619
 5376SOL    HW227591   3.444   4.259  15.271  0.2192 -0.8282  1.0664
 5377SOL     OW27592   4.146   3.873   7.408 -0.5284  0.1384  0.2166
 5377SOL    HW127593   4.057   3.888   7.378  0.0466 -0.0486 -1.6103
 5377SOL    HW227594   4.173   3.790   7.367  0.2674  0.1658  0.6863
 5378SOL     OW27595   1.614   1.098   1.710  0.3691  0.3132  0.1347
 5378SOL    HW127596   1.653   1.185   1.709  2.0849 -0.4819 -0.8914
 5378SOL    HW227597   1.546   1.112   1.644  0.5666 -0.0684 -0.1478
 5379SOL     OW27598   2.717   2.466   7.317 -0.0924 -0.3857  0.2790
 5379SOL    HW127599   2.780   2.461   7.388 -0.0445  1.7427  0.3985
 5379SOL    HW227600   2.671   2.547   7.341 -0.9759 -0.9559  0.5091
 5380SOL     OW27601   3.096   3.267  13.890 -0.6523  0.3408  0.2538
 5380SOL    HW127602   3.074   3.341  13.946  0.3678  1.7294 -1.1881
 5380SOL    HW227603   3.192   3.262  13.890 -0.6821 -0.1232 -0.4873
 5381SOL     OW27604   0.684   1.843   4.356 -0.0776 -0.3737 -0.3999
 5381SOL    HW127605   0.614   1.843   4.291  0.3271  2.7304 -0.8457
 5381SOL    HW227606   0.755   1.851   4.292 -0.8879  3.6949 -0.8019
 5382SOL     OW27607   2.627   1.738  11.556 -0.5918 -0.7165  0.5825
 5382SOL    HW127608   2.627   1.784  11.472 -0.8418 -2.1247 -0.1800
 5382SOL    HW227609   2.606   1.654  11.516  2.2804  0.1409 -2.7047
 5383SOL     OW27610   2.447   1.758  16.283 -0.0783  0.1358  0.0092
 5383SOL    HW127611   2.404   1.674  16.297  0.6152 -0.2049  0.0560
 5383SOL    HW227612   2.374   1.811  16.248 -1.1149 -0.0142  1.9101
 5384SOL     OW27613   4.451   0.583   7.101 -0.2943  0.5150 -0.2103
 5384SOL    HW127614   4.389   0.616   7.036 -0.6992 -1.0162 -0.5853
 5384SOL    HW227615   4.429   0.656   7.160  0.1619  1.1118 -0.7844
 5385SOL     OW27616   0.819   3.054   7.140  0.1637  0.0588 -0.5414
 5385SOL    HW127617   0.873   3.058   7.061 -0.0147  0.3736 -0.6476
 5385SOL    HW227618   0.819   3.147   7.164 -1.3880 -0.7039  2.4328
 5386SOL     OW27619   3.157   2.662  17.682 -0.0359  0.7538  0.4232
 5386SOL    HW127620   3.093   2.596   0.001 -1.6811  1.6893 -1.1610
 5386SOL    HW227621   3.143   2.654  17.588  0.3543 -0.4951  0.4808
 5387SOL     OW27622   2.113   0.528   3.661  0.1111 -0.1735  0.0565
 5387SOL    HW127623   2.157   0.471   3.598  2.3264 -0.1050  1.5570
 5387SOL    HW227624   2.176   0.599   3.673  0.2672 -0.4137  0.6387
 5388SOL     OW27625   3.056   0.257   2.561  0.1348  0.0693 -0.8803
 5388SOL    HW127626   3.056   0.305   2.644 -5.7173 -0.7427 -0.4357
 5388SOL    HW227627   3.146   0.255   2.529  0.3148  0.7126 -0.4269
 5389SOL     OW27628   0.819   3.919   0.590 -0.3628  0.3847  0.3677
 5389SOL    HW127629   0.825   3.859   0.664 -1.1658  0.7840  0.7565
 5389SOL    HW227630   0.876   3.880   0.524 -1.0827  1.4700 -0.9061
 5390SOL     OW27631   2.558   4.361   6.719  0.7417 -0.0256 -0.7566
 5390SOL    HW127632   2.596   4.417   6.651  0.4527 -0.4447 -1.2566
 5390SOL    HW227633   2.475   4.334   6.679 -0.4834  2.4824  0.0113
 5391SOL     OW27634   1.691   1.606   1.598  0.3199  0.7150 -0.0242
 5391SOL    HW127635   1.773   1.621   1.550 -0.4701  0.5149 -1.4237
 5391SOL    HW227636   1.632   1.638   1.530 -0.4809 -0.7437 -0.0024
 5392SOL     OW27637   0.421   3.600  11.052 -0.9925  0.2282  0.0819
 5392SOL    HW127638   0.484   3.617  10.982 -1.1325 -0.2749 -0.1710
 5392SOL    HW227639   0.402   3.508  11.033  4.3746 -1.0212  0.5994
 5393SOL     OW27640   3.953   2.142   8.298  0.2992  0.5079 -0.6030
 5393SOL    HW127641   3.899   2.201   8.246  2.2986  2.9103  0.0323
 5393SOL    HW227642   4.003   2.204   8.352 -1.6673  1.5153  0.0656
 5394SOL     OW27643   0.407   0.237   3.084 -0.4038 -0.1448 -0.0346
 5394SOL    HW127644   0.442   0.320   3.054  0.3070 -0.4856 -0.1525
 5394SOL    HW227645   0.327   0.264   3.128  1.6551  2.1298  2.2944
 5395SOL     OW27646   1.073   0.904   4.075  0.6727 -0.9224 -0.0486
 5395SOL    HW127647   1.120   0.858   4.006  2.0240  0.2550  0.0834
 5395SOL    HW227648   1.147   0.941   4.125 -0.5132 -0.5375  1.4281
 5396SOL     OW27649   2.273   2.750   0.867 -0.4349 -0.5269  0.4688
 5396SOL    HW127650   2.215   2.688   0.911 -3.2908  0.1130 -2.4449
 5396SOL    HW227651   2.294   2.691   0.795 -0.7712  0.2001 -0.2173
 5397SOL     OW27652   2.188   0.766   3.945 -0.1293  0.3374  1.2390
 5397SOL    HW127653   2.184   0.695   4.009  0.5809  0.9861  2.0128
 5397SOL    HW227654   2.278   0.750   3.919 -0.6543  1.4971 -1.3812
 5398SOL     OW27655   1.287   0.010   0.064 -0.3257  0.0916 -0.1299
 5398SOL    HW127656   1.295   0.056   0.148  0.0642 -1.3394  0.6287
 5398SOL    HW227657   1.374   0.034   0.031  0.7577  1.1732  3.4328
 5399SOL     OW27658   4.444   1.297  13.198  0.0528 -0.3925  0.0050
 5399SOL    HW127659   4.362   1.315  13.154 -0.8328 -0.4425  1.6492
 5399SOL    HW227660   4.482   1.384  13.199  2.9887 -1.6606  1.0637
 5400SOL     OW27661   1.572   2.025  14.393 -0.7379 -0.3546 -0.5187
 5400SOL    HW127662   1.487   2.068  14.381 -0.3412  0.4383 -0.5265
 5400SOL    HW227663   1.584   2.000  14.302 -0.5961 -3.1589  0.2694
 5401SOL     OW27664   2.828   2.826  11.210  0.4624 -0.4409  0.4453
 5401SOL    HW127665   2.795   2.777  11.135  1.4906  0.3756 -0.5373
 5401SOL    HW227666   2.785   2.765  11.271 -0.6236 -1.7539 -1.6351
 5402SOL     OW27667   0.898   3.856  15.821 -0.2216  0.2479  0.0405
 5402SOL    HW127668   0.828   3.915  15.851  1.0548  1.2746  1.0239
 5402SOL    HW227669   0.969   3.917  15.843  0.7725 -0.8603 -0.0938
 5403SOL     OW27670   2.878   1.500   5.136 -0.1578  0.2906 -0.0448
 5403SOL    HW127671   2.940   1.557   5.090 -0.9856 -0.6582 -2.2910
 5403SOL    HW227672   2.923   1.499   5.221  0.2006  0.9220 -0.2238
 5404SOL     OW27673   2.901   1.768   3.366  0.3199 -0.1556  0.0508
 5404SOL    HW127674   2.946   1.701   3.418 -0.3485  0.2055  1.1100
 5404SOL    HW227675   2.810   1.747   3.386  0.7917 -0.7925  1.5800
 5405SOL     OW27676   0.295   1.583   4.405 -0.6112  0.3559  0.2964
 5405SOL    HW127677   0.313   1.607   4.314 -0.4524  0.5442  0.3769
 5405SOL    HW227678   0.360   1.513   4.412 -2.4539 -1.3885  0.0757
 5406SOL     OW27679   1.064   2.322   8.611 -0.3171 -0.1117  0.3368
 5406SOL    HW127680   1.061   2.324   8.707 -0.6178  0.3975  0.3184
 5406SOL    HW227681   0.978   2.363   8.597 -0.4105 -0.4849 -0.1776
 5407SOL     OW27682   3.213   2.671   0.405  0.0040  0.3845  0.0916
 5407SOL    HW127683   3.232   2.715   0.323 -1.6478 -0.2241 -0.6262
 5407SOL    HW227684   3.285   2.702   0.460 -0.6041 -0.2229  1.2428
 5408SOL     OW27685   0.364   4.172   2.209 -0.2038 -0.1932  0.1274
 5408SOL    HW127686   0.318   4.181   2.126 -0.0906  1.7275  0.2711
 5408SOL    HW227687   0.449   4.200   2.175 -0.0790 -1.1446 -0.3540
 5409SOL     OW27688   3.992   0.831   9.108 -0.0647 -0.2876 -0.4464
 5409SOL    HW127689   3.932   0.847   9.034  0.0370 -0.9580 -0.6692
 5409SOL    HW227690   3.925   0.810   9.173  0.4356  0.0917  0.1956
 5410SOL     OW27691   4.586   4.564   6.027 -0.4933  0.0388 -0.2138
 5410SOL    HW127692   4.539   4.605   6.100 -0.2367  1.1204 -0.6595
 5410SOL    HW227693   4.607   4.641   5.974  1.4474 -1.2124 -1.2695
 5411SOL     OW27694   0.873   3.492   9.415  0.4027 -0.5010 -0.3415
 5411SOL    HW127695   0.899   3.534   9.333  1.3236  3.7667  2.0925
 5411SOL    HW227696   0.814   3.427   9.377 -0.7242  0.3446 -0.0397
 5412SOL     OW27697   1.301   1.087  11.788  0.3762  0.2417  0.0361
 5412SOL    HW127698   1.239   1.044  11.847  1.7807  0.5243  1.7408
 5412SOL    HW227699   1.260   1.171  11.769  0.8404  0.3817 -0.3555
 5413SOL     OW27700   2.227   2.990  17.479  0.7704  0.0746  0.0046
 5413SOL    HW127701   2.206   2.982  17.386  0.1429 -2.6216  0.3717
 5413SOL    HW227702   2.322   2.991  17.486  0.7756 -0.7273  0.1381
 5414SOL     OW27703   4.290   0.095   5.158  0.0346  0.4015 -0.0520
 5414SOL    HW127704   4.356   0.158   5.183  0.6168 -0.6587  1.0749
 5414SOL    HW227705   4.206   0.138   5.171  0.3333  0.7821  0.5962
 5415SOL     OW27706   4.589   3.975   7.508  0.0290 -0.2607 -0.1491
 5415SOL    HW127707   4.494   3.982   7.517  0.2067  1.4906  0.4154
 5415SOL    HW227708   4.618   4.027   7.584  0.2046  1.3668 -1.3238
 5416SOL     OW27709   2.293   3.869   7.784  0.4149  0.1638 -0.2833
 5416SOL    HW127710   2.237   3.794   7.802  0.9691  0.6265  3.3827
 5416SOL    HW227711   2.369   3.821   7.753  0.9200 -0.1311  1.4528
 5417SOL     OW27712   4.021   2.872   4.673 -0.3262 -0.0712 -0.0704
 5417SOL    HW127713   3.977   2.905   4.752 -0.9296  0.0283 -0.4465
 5417SOL    HW227714   4.032   2.946   4.613 -1.0259  0.5308  0.5366
 5418SOL     OW27715   2.028   1.005   3.769 -0.4885 -0.3295  0.6079
 5418SOL    HW127716   2.101   1.032   3.713 -0.5103  0.1664  0.8249
 5418SOL    HW227717   2.060   1.032   3.855  1.6086  2.9101 -1.1825
 5419SOL     OW27718   0.349   1.709   7.113  0.2727  0.4775  0.5765
 5419SOL    HW127719   0.312   1.692   7.200 -0.6673 -3.9892 -0.7108
 5419SOL    HW227720   0.311   1.793   7.087  0.2148  0.5437  0.8753
 5420SOL     OW27721   0.796   4.476   4.421  0.4996  0.7504  0.0883
 5420SOL    HW127722   0.797   4.383   4.441  1.1268  0.6850 -0.2374
 5420SOL    HW227723   0.703   4.487   4.400  0.6260 -0.5483 -1.1896
 5421SOL     OW27724   4.612   4.137   6.537 -0.9608 -0.0642  0.0567
 5421SOL    HW127725   4.661   4.155   6.457  1.0073  0.3353  1.3495
 5421SOL    HW227726   4.541   4.081   6.506 -0.3002  0.4488 -2.3432
 5422SOL     OW27727   2.008   0.460  15.689 -0.0487  0.0152  0.2544
 5422SOL    HW127728   1.961   0.542  15.706 -1.5375 -0.8184  0.2151
 5422SOL    HW227729   2.061   0.494  15.617  1.9416 -3.0277  0.3268
 5423SOL     OW27730   1.947   2.171  10.822  0.2971 -0.2261 -0.4105
 5423SOL    HW127731   1.925   2.187  10.731  0.7711 -1.8558 -0.8132
 5423SOL    HW227732   2.033   2.212  10.818  0.1221 -0.0203 -2.0774
 5424SOL     OW27733   3.296   2.696   1.161  0.3494 -0.7423 -0.2081
 5424SOL    HW127734   3.373   2.686   1.217 -1.2307 -1.0937  1.9130
 5424SOL    HW227735   3.246   2.620   1.190 -1.7428  0.7056  0.0058
 5425SOL     OW27736   3.652   1.553   1.795 -0.4244 -0.2586 -0.0750
 5425SOL    HW127737   3.698   1.476   1.829  2.6752  1.7502  0.2849
 5425SOL    HW227738   3.600   1.587   1.868 -1.0806  1.3673 -1.3038
 5426SOL     OW27739   4.528   0.715   6.518  0.0978  0.2247  0.0030
 5426SOL    HW127740   4.510   0.771   6.593  2.3720  3.7768 -2.1357
 5426SOL    HW227741   4.484   0.759   6.445 -0.2058  0.3874  0.2815
 5427SOL     OW27742   1.750   4.681   8.727  0.0324 -0.3390  0.3120
 5427SOL    HW127743   1.782   4.702   8.815  0.5376 -0.3185  0.1235
 5427SOL    HW227744   1.663   4.646   8.748  0.0464 -0.3736  0.3132
 5428SOL     OW27745   0.373   0.754  15.796 -0.2303  0.2637 -0.2449
 5428SOL    HW127746   0.407   0.824  15.852  0.4030  0.5654 -1.0041
 5428SOL    HW227747   0.407   0.673  15.836  1.1081  1.1940  0.5074
 5429SOL     OW27748   1.982   0.739   3.119  0.3231 -0.0369  0.5115
 5429SOL    HW127749   1.939   0.665   3.076 -0.8786  0.6010  0.6241
 5429SOL    HW227750   2.075   0.718   3.112  0.1703 -1.9895  3.9771
 5430SOL     OW27751   3.722   4.426   5.358 -0.8028 -0.2781 -0.2386
 5430SOL    HW127752   3.641   4.379   5.376 -0.3247 -1.1597 -0.3921
 5430SOL    HW227753   3.735   4.395   5.268  0.0406  2.1740 -0.9682
 5431SOL     OW27754   3.266   1.180  16.828  0.0240 -0.1128  0.2823
 5431SOL    HW127755   3.221   1.144  16.904  1.2318 -1.6019  0.2936
 5431SOL    HW227756   3.186   1.177  16.776 -0.6666  1.0003  1.2793
 5432SOL     OW27757   2.649   3.640  10.410  0.1691 -0.0172 -0.0086
 5432SOL    HW127758   2.637   3.599  10.325 -2.5689  2.5553 -0.8453
 5432SOL    HW227759   2.710   3.579  10.453 -0.7955 -1.3674 -0.5640
 5433SOL     OW27760   3.699   0.315   2.294 -0.4719  0.0071 -0.6469
 5433SOL    HW127761   3.725   0.401   2.261  0.4700 -1.3440 -3.3856
 5433SOL    HW227762   3.770   0.300   2.357 -0.3065 -1.5823 -1.2077
 5434SOL     OW27763   0.754   1.033   3.832 -0.8956  0.4260  0.5012
 5434SOL    HW127764   0.812   1.109   3.833  1.4528 -1.3737 -0.9408
 5434SOL    HW227765   0.750   1.011   3.739  0.4369  0.7486  0.3631
 5435SOL     OW27766   0.325   0.072   5.449 -0.0203  0.1122 -0.2002
 5435SOL    HW127767   0.330   0.113   5.362 -0.7243 -2.5458 -1.4976
 5435SOL    HW227768   0.376   0.120   5.513 -0.4967 -0.2467  0.4452
 5436SOL     OW27769   1.787   3.421   9.359  0.3739 -0.4890 -0.2885
 5436SOL    HW127770   1.790   3.363   9.283  0.7936 -1.1779  0.2527
 5436SOL    HW227771   1.792   3.505   9.312  0.7030  0.2517  1.0780
 5437SOL     OW27772   2.585   2.880   0.192  0.0323  0.3191 -0.1751
 5437SOL    HW127773   2.631   2.825   0.255  0.8462 -2.1554 -2.9453
 5437SOL    HW227774   2.655   2.942   0.175  0.4801 -0.0895  0.1684
 5438SOL     OW27775   1.685   4.194   6.217 -0.4061 -0.2441 -0.6416
 5438SOL    HW127776   1.596   4.168   6.243  0.1317 -0.7585  0.6644
 5438SOL    HW227777   1.680   4.163   6.126  2.1759 -0.0671 -0.8343
 5439SOL     OW27778   2.892   3.374   1.615  0.3782  0.5966 -0.7362
 5439SOL    HW127779   2.921   3.376   1.523  2.9431  2.3820  0.1066
 5439SOL    HW227780   2.811   3.425   1.610  0.4850  0.6669 -1.8866
 5440SOL     OW27781   1.958   0.413  12.371  0.2227  0.7201  0.1926
 5440SOL    HW127782   2.053   0.423  12.364 -0.0609  2.1680 -1.4872
 5440SOL    HW227783   1.956   0.350  12.442  1.3711  1.2535  0.6997
 5441SOL     OW27784   4.526   3.057   1.797 -0.3168 -0.6926  0.5300
 5441SOL    HW127785   4.505   3.074   1.706 -0.7710 -0.1320  0.7411
 5441SOL    HW227786   4.516   2.962   1.801  0.4325 -0.6843  3.0601
 5442SOL     OW27787   2.588   2.425  14.700 -0.1391 -0.1084 -0.3794
 5442SOL    HW127788   2.574   2.359  14.768  1.1873  1.2008  1.1560
 5442SOL    HW227789   2.581   2.377  14.618  2.3744 -0.4039 -0.4187
 5443SOL     OW27790   2.862   1.412   6.507 -0.4935  0.2621  0.9866
 5443SOL    HW127791   2.786   1.357   6.527  0.1495 -0.4209  1.5605
 5443SOL    HW227792   2.837   1.482   6.567  1.4920  1.2825  0.6217
 5444SOL     OW27793   4.648   4.064  12.170  0.2624  0.3499 -0.0702
 5444SOL    HW127794   4.598   4.142  12.148 -1.2262 -0.7644 -0.6669
 5444SOL    HW227795   4.674   4.029  12.085  1.3555 -0.5453  0.6296
 5445SOL     OW27796   1.283   2.346   9.154  0.2085  0.7686 -0.9577
 5445SOL    HW127797   1.300   2.398   9.232  0.1357  0.1117 -0.5077
 5445SOL    HW227798   1.314   2.402   9.083  1.1875  0.6129 -0.6431
 5446SOL     OW27799   4.084   3.460   1.644  0.6143  0.0406 -0.9522
 5446SOL    HW127800   4.104   3.408   1.566  1.5156 -1.4862  0.2878
 5446SOL    HW227801   4.136   3.409   1.708  2.5208  1.6927 -1.1801
 5447SOL     OW27802   3.953   3.133   5.657  0.3539 -0.4205  0.0533
 5447SOL    HW127803   3.891   3.146   5.729  0.4074  0.1984 -0.0132
 5447SOL    HW227804   3.905   3.175   5.586 -0.8900 -0.6324  0.7671
 5448SOL     OW27805   3.120   0.922  16.588  0.1472 -0.5332 -0.1260
 5448SOL    HW127806   3.054   0.858  16.613 -0.9164  0.1629 -1.1756
 5448SOL    HW227807   3.078   0.999  16.626 -1.3007 -1.1747 -0.4075
 5449SOL     OW27808   4.260   1.262   8.726 -0.1878  0.1225  0.3577
 5449SOL    HW127809   4.167   1.285   8.727 -0.0676  0.6443 -0.6550
 5449SOL    HW227810   4.292   1.348   8.696 -2.1949  1.7133  2.7626
 5450SOL     OW27811   0.155   1.885   3.740  0.2627  0.0588 -0.0907
 5450SOL    HW127812   0.108   1.967   3.725  0.5697  0.8354  3.1993
 5450SOL    HW227813   0.086   1.824   3.766  1.8517 -0.9685  1.6552
 5451SOL     OW27814   4.019   2.505   1.572  0.2574 -0.2930 -0.2325
 5451SOL    HW127815   3.963   2.443   1.525 -1.3326  1.4420 -0.6123
 5451SOL    HW227816   3.983   2.500   1.661 -0.4117  0.7140 -0.4568
 5452SOL     OW27817   2.482   1.253   2.221  0.5365  0.2435 -0.2874
 5452SOL    HW127818   2.567   1.214   2.203  1.6903  1.9909  1.3350
 5452SOL    HW227819   2.430   1.186   2.265 -0.4559 -0.0007 -1.8452
 5453SOL     OW27820   0.359   0.518   6.208  0.5824 -0.2378  0.1280
 5453SOL    HW127821   0.342   0.539   6.300 -2.2471  1.0267 -0.6926
 5453SOL    HW227822   0.351   0.604   6.167  2.2605  0.1938  0.6838
 5454SOL     OW27823   0.884   1.411   3.524 -0.0492 -0.0339 -0.1753
 5454SOL    HW127824   0.940   1.485   3.502 -1.2679  1.1173  0.5752
 5454SOL    HW227825   0.801   1.458   3.519  0.0831  0.2566  0.4626
 5455SOL     OW27826   1.975   1.302  10.414  0.2766 -0.8222 -0.2897
 5455SOL    HW127827   2.034   1.355  10.361  2.4107 -1.5377  1.4040
 5455SOL    HW227828   2.029   1.224  10.425  1.5810  0.4533  2.1947
 5456SOL     OW27829   0.672   0.496   7.019  0.6632  0.4818 -0.3365
 5456SOL    HW127830   0.654   0.519   7.110 -0.6876 -0.9033 -0.2516
 5456SOL    HW227831   0.646   0.581   6.983 -1.4319 -0.9775 -2.3072
 5457SOL     OW27832   3.746   4.680  14.198  0.5630  0.2977 -0.3140
 5457SOL    HW127833   3.831   4.720  14.213 -0.2981  1.4423  1.5028
 5457SOL    HW227834   3.776   4.631  14.121  2.5536 -0.9534  1.2739
 5458SOL     OW27835   4.263   4.387   8.761 -0.6129 -0.4671  0.0558
 5458SOL    HW127836   4.346   4.418   8.724 -0.6450  0.4746  0.7785
 5458SOL    HW227837   4.203   4.394   8.687  1.4565  1.1739 -1.4916
 5459SOL     OW27838   1.465   3.441   6.740  0.0827 -0.1347  0.1762
 5459SOL    HW127839   1.516   3.406   6.813  1.3471  0.5965 -0.3573
 5459SOL    HW227840   1.379   3.447   6.782 -0.6728 -1.5072 -1.2110
 5460SOL     OW27841   0.815   1.578   7.021 -0.6863 -0.3501  0.8133
 5460SOL    HW127842   0.868   1.586   6.942 -1.2869 -0.5715  0.3872
 5460SOL    HW227843   0.732   1.620   6.996  0.2947  1.5918  0.7909
 5461SOL     OW27844   0.164   4.463   9.650  0.2633 -0.3147  0.2085
 5461SOL    HW127845   0.166   4.552   9.685 -0.6748 -0.5315  0.8008
 5461SOL    HW227846   0.075   4.463   9.615  0.4343 -1.8147 -0.2424
 5462SOL     OW27847   4.170   1.586  15.205  0.3159 -0.4113  0.2122
 5462SOL    HW127848   4.111   1.513  15.188 -0.3054  0.3689 -1.0571
 5462SOL    HW227849   4.229   1.573  15.131  0.4952  0.9243  0.1103
 5463SOL     OW27850   0.155   1.762   4.955  0.3334  0.2021  0.0283
 5463SOL    HW127851   0.207   1.842   4.958  0.7521 -0.0409 -0.9369
 5463SOL    HW227852   0.065   1.791   4.973 -0.4832 -2.0472 -0.4048
 5464SOL     OW27853   2.772   3.634   6.274 -0.9210 -0.2332  0.1739
 5464SOL    HW127854   2.763   3.698   6.344 -0.5952  0.1875 -0.1721
 5464SOL    HW227855   2.834   3.574   6.316 -0.4268 -0.4549 -0.8748
 5465SOL     OW27856   1.977   1.219   4.553 -0.1211 -0.5328  0.8003
 5465SOL    HW127857   1.911   1.287   4.539  0.0882 -0.4256  0.3253
 5465SOL    HW227858   1.993   1.190   4.463 -2.2101 -0.1142  0.2884
 5466SOL     OW27859   1.965   4.688  17.213  0.4888  0.3291 -0.5635
 5466SOL    HW127860   1.896   4.622  17.204  0.4336  0.2761  0.2203
 5466SOL    HW227861   1.942   0.017  17.138  1.0782 -2.0848 -2.5127
 5467SOL     OW27862   3.642   4.040  17.311 -0.3174 -0.0463  1.0921
 5467SOL    HW127863   3.618   4.013  17.399  1.9304  0.7620  1.9584
 5467SOL    HW227864   3.640   4.135  17.325  3.3558  0.2864 -0.6671
 5468SOL     OW27865   0.193   0.395   7.944  0.6920 -0.1937  0.0038
 5468SOL    HW127866   0.099   0.381   7.953  0.7422  0.1351  1.0157
 5468SOL    HW227867   0.213   0.338   7.870  0.2807 -0.6880  0.2758
 5469SOL     OW27868   0.600   0.052   3.050 -0.2253  0.5043 -0.3350
 5469SOL    HW127869   0.520   0.091   3.084 -0.6585 -0.2861 -0.4279
 5469SOL    HW227870   0.623   0.002   3.129 -1.0043 -0.7737 -0.9168
 5470SOL     OW27871   4.277   1.112   5.809  0.0261 -0.1610  0.1038
 5470SOL    HW127872   4.210   1.140   5.872  2.5215 -0.7912  2.9903
 5470SOL    HW227873   4.345   1.175   5.832 -1.9707  2.5045 -1.2856
 5471SOL     OW27874   4.683   2.450   0.828 -0.1515 -0.3835 -0.2962
 5471SOL    HW127875   4.660   2.381   0.766  1.2312 -0.8125 -0.3502
 5471SOL    HW227876   4.724   2.515   0.770  1.0704 -1.4868 -0.6839
 5472SOL     OW27877   4.588   2.037   0.501 -0.5863  0.6731 -0.1049
 5472SOL    HW127878   4.558   1.962   0.450 -1.7316  0.8156  0.3460
 5472SOL    HW227879   4.600   2.102   0.432 -2.5959 -0.5220 -1.6066
 5473SOL     OW27880   2.097   1.566   5.293 -0.1201 -0.1603  0.3300
 5473SOL    HW127881   2.149   1.641   5.264 -1.2100  1.0447  1.5023
 5473SOL    HW227882   2.013   1.602   5.322 -0.3346 -0.6828  0.3496
 5474SOL     OW27883   1.292   3.301  11.687  0.0223  0.0339  0.4399
 5474SOL    HW127884   1.292   3.259  11.601  1.5601 -2.7822  1.8254
 5474SOL    HW227885   1.249   3.229  11.733  1.6298 -0.4475  1.1900
 5475SOL     OW27886   3.049   3.846   0.438  0.5177 -0.1501  0.5795
 5475SOL    HW127887   2.963   3.853   0.397  1.1631  1.2550 -0.5367
 5475SOL    HW227888   3.050   3.922   0.495  0.4536  0.7750 -0.6389
 5476SOL     OW27889   3.883   0.725   4.396 -0.1012 -0.3370 -0.0114
 5476SOL    HW127890   3.914   0.669   4.468  2.6923  1.9675  0.5808
 5476SOL    HW227891   3.788   0.712   4.398 -0.1292 -0.0328  0.6489
 5477SOL     OW27892   2.750   4.226   3.691 -0.0572  0.6607 -0.0234
 5477SOL    HW127893   2.767   4.235   3.597 -2.6242 -2.1896 -0.7611
 5477SOL    HW227894   2.659   4.197   3.692 -0.2983  1.4306  0.4216
 5478SOL     OW27895   2.704   0.285   0.363  0.3823 -0.0836  0.0585
 5478SOL    HW127896   2.747   0.207   0.328 -2.0012  0.1607 -3.3905
 5478SOL    HW227897   2.644   0.241   0.423 -0.2650 -0.2800 -0.7227
 5479SOL     OW27898   3.336   3.978   8.745  0.1570  0.0053  0.7160
 5479SOL    HW127899   3.277   3.962   8.819  1.1348 -2.7712  0.8897
 5479SOL    HW227900   3.400   4.038   8.785 -1.2136  2.3728 -0.6058
 5480SOL     OW27901   4.508   4.021   2.641 -0.4808  0.0031 -0.0372
 5480SOL    HW127902   4.444   3.959   2.606 -0.1922 -0.7313  0.7329
 5480SOL    HW227903   4.537   3.991   2.727  0.6149 -0.9990 -0.7471
 5481SOL     OW27904   0.637   3.639   1.356 -0.6359 -0.4789  0.0936
 5481SOL    HW127905   0.597   3.604   1.435 -1.3468 -1.5388 -0.7359
 5481SOL    HW227906   0.611   3.565   1.302 -0.0616 -0.8725  0.3617
 5482SOL     OW27907   4.678   0.203   8.389 -0.3002  0.2710  0.5821
 5482SOL    HW127908   4.714   0.268   8.449 -2.0807  0.5752  1.3149
 5482SOL    HW227909   4.586   0.228   8.389 -0.2511  0.4312 -0.7762
 5483SOL     OW27910   1.659   1.428  15.551  0.2827 -0.2092  0.1238
 5483SOL    HW127911   1.739   1.376  15.549  0.8423  0.6984 -0.9240
 5483SOL    HW227912   1.628   1.398  15.637  2.6666  0.8735  1.3446
 5484SOL     OW27913   1.220   0.550   3.659 -0.1629  0.5253 -0.0750
 5484SOL    HW127914   1.255   0.461   3.657 -1.6734 -0.0376 -1.3127
 5484SOL    HW227915   1.234   0.574   3.568  1.7973 -0.9083 -0.1439
 5485SOL     OW27916   0.759   2.009  13.091  0.6970  0.0500 -0.5169
 5485SOL    HW127917   0.685   2.034  13.036 -1.5808 -2.5588  1.3480
 5485SOL    HW227918   0.750   2.076  13.158 -0.3716 -0.6771  0.0545
 5486SOL     OW27919   2.875   3.467   3.846  0.3486  0.2227  0.2952
 5486SOL    HW127920   2.849   3.390   3.794 -1.6212  1.2664 -0.2655
 5486SOL    HW227921   2.821   3.536   3.807 -2.5747 -0.9609  2.2160
 5487SOL     OW27922   0.734   0.934  14.829  0.1488  0.5643 -0.4786
 5487SOL    HW127923   0.736   0.839  14.821  0.6232  0.3732  2.0053
 5487SOL    HW227924   0.676   0.945  14.905  0.3456  0.7443 -0.3558
 5488SOL     OW27925   1.514   4.233   5.510  0.6752  0.0358 -0.1512
 5488SOL    HW127926   1.525   4.273   5.596  0.6102 -0.3562  0.0354
 5488SOL    HW227927   1.421   4.251   5.495  0.0513 -2.0718  1.3236
 5489SOL     OW27928   4.545   3.742  10.751 -0.4949 -0.7997  0.0157
 5489SOL    HW127929   4.612   3.728  10.684 -0.4739  0.4088 -0.2094
 5489SOL    HW227930   4.565   3.667  10.808 -1.2381  0.6149  2.1385
 5490SOL     OW27931   0.424   1.212   5.306 -0.3122 -0.1533 -0.3028
 5490SOL    HW127932   0.393   1.294   5.344  1.2863  0.5878 -0.5736
 5490SOL    HW227933   0.356   1.150   5.333 -0.5192 -0.3312 -1.2234
 5491SOL     OW27934   4.713   4.077  11.869  0.4122 -0.6723  0.7480
 5491SOL    HW127935   4.698   3.983  11.874  1.7832 -0.7617  2.9511
 5491SOL    HW227936   0.073   4.075  11.829 -0.4552  0.5495 -1.1992
 5492SOL     OW27937   1.921   3.493  16.247  0.2848 -0.7383 -0.3336
 5492SOL    HW127938   1.855   3.532  16.304  0.9002 -1.2388  0.7192
 5492SOL    HW227939   2.003   3.540  16.258  0.1821 -0.5618 -0.3286
 5493SOL     OW27940   3.377   2.334  14.819  0.2735  0.1219  0.1507
 5493SOL    HW127941   3.283   2.349  14.804  0.0539 -1.1217  0.3038
 5493SOL    HW227942   3.402   2.312  14.730 -0.0531  1.2212 -0.2251
 5494SOL     OW27943   3.552   2.476  15.400  0.0465 -0.0125 -0.3266
 5494SOL    HW127944   3.601   2.408  15.446 -0.4736 -0.2403 -0.0990
 5494SOL    HW227945   3.587   2.468  15.311 -1.2304  2.9525 -1.0988
 5495SOL     OW27946   1.555   2.769   5.305 -0.2076 -0.5703  0.8019
 5495SOL    HW127947   1.569   2.841   5.244 -2.0057 -0.3795  0.5973
 5495SOL    HW227948   1.642   2.736   5.328 -0.7880 -1.0581  2.3074
 5496SOL     OW27949   1.895   3.875   2.885 -0.0961 -0.5030 -0.0661
 5496SOL    HW127950   1.861   3.942   2.826 -0.1529 -2.1508 -1.8755
 5496SOL    HW227951   1.831   3.882   2.957  0.8822  1.3244  0.6331
 5497SOL     OW27952   4.005   2.882   2.756  0.4215  0.4005  0.4020
 5497SOL    HW127953   4.065   2.832   2.811 -2.0462 -1.1372  1.6707
 5497SOL    HW227954   3.937   2.816   2.745  0.0372  0.4368  2.5729
 5498SOL     OW27955   1.745   0.170  14.787 -0.0255 -0.3103 -0.2520
 5498SOL    HW127956   1.686   0.209  14.722 -1.4191  0.4505  1.4693
 5498SOL    HW227957   1.827   0.198  14.746 -0.4368  1.9398  0.4750
 5499SOL     OW27958   0.874   4.514   3.467 -0.2358  0.3370 -0.0005
 5499SOL    HW127959   0.881   4.419   3.468  1.6543  0.5365  2.2901
 5499SOL    HW227960   0.911   4.533   3.552 -3.7187  1.5687  1.2441
 5500SOL     OW27961   2.725   4.630   8.266  0.8715  0.0664 -0.0520
 5500SOL    HW127962   2.711   4.593   8.353  2.1962 -1.2528 -0.4019
 5500SOL    HW227963   2.670   4.573   8.212  2.7341 -0.9075 -0.9181
 5501SOL     OW27964   3.276   1.393  15.922 -0.5994 -0.5348 -0.5598
 5501SOL    HW127965   3.198   1.358  15.880 -1.1494 -0.9776  0.8133
 5501SOL    HW227966   3.241   1.429  16.004  2.0260  0.9408 -0.0847
 5502SOL     OW27967   1.517   3.025   4.532 -0.3171 -0.1649  0.3891
 5502SOL    HW127968   1.456   3.097   4.520 -0.7690 -0.0699  3.1104
 5502SOL    HW227969   1.546   3.001   4.444  0.1069  1.9807 -0.0481
 5503SOL     OW27970   2.655   3.500  14.276  0.8698 -0.4621  0.3685
 5503SOL    HW127971   2.587   3.562  14.302  1.2890 -1.0029  2.6914
 5503SOL    HW227972   2.662   3.448  14.356  1.4424  0.4246  0.8906
 5504SOL     OW27973   0.901   1.263   3.770  0.3625  0.2561  0.3174
 5504SOL    HW127974   0.911   1.281   3.677  0.6486 -4.2761 -0.5163
 5504SOL    HW227975   0.866   1.348   3.798 -0.6939  0.2739 -1.0805
 5505SOL     OW27976   2.789   3.320   5.825  0.1419 -0.1199 -0.1425
 5505SOL    HW127977   2.884   3.321   5.833  0.1960  0.0309 -0.8720
 5505SOL    HW227978   2.751   3.332   5.912  1.1198 -1.8001  0.5211
 5506SOL     OW27979   3.455   4.209  11.700  0.1919 -0.4304 -0.4257
 5506SOL    HW127980   3.540   4.165  11.691  0.0030 -1.0375  0.7140
 5506SOL    HW227981   3.487   4.299  11.690 -1.9886  0.5120  1.1302
 5507SOL     OW27982   2.745   0.920   7.906 -0.3604  0.2105  0.3981
 5507SOL    HW127983   2.830   0.889   7.874 -0.8106 -0.2478 -0.3653
 5507SOL    HW227984   2.698   0.842   7.933  1.1031 -0.4809  0.9697
 5508SOL     OW27985   2.452   3.174   6.669  0.1025  0.0022  0.3819
 5508SOL    HW127986   2.532   3.167   6.721  1.0807  0.0848 -1.1117
 5508SOL    HW227987   2.469   3.254   6.619  0.9795  0.0974  0.8184
 5509SOL     OW27988   0.488   0.928   5.096 -0.0085 -0.0362  0.9399
 5509SOL    HW127989   0.501   1.021   5.114 -2.0884  0.8263 -1.9786
 5509SOL    HW227990   0.550   0.932   5.023 -0.1789 -0.3538  0.7763
 5510SOL     OW27991   3.142   4.466   2.211  0.3645 -0.1126 -0.5585
 5510SOL    HW127992   3.179   4.425   2.289  0.0853  2.8501  1.1298
 5510SOL    HW227993   3.055   4.487   2.246  0.5326 -0.3764  0.0242
 5511SOL     OW27994   0.487   2.576   4.227 -0.2500 -0.0612  0.3046
 5511SOL    HW127995   0.558   2.591   4.290 -1.1157  0.1142  1.2370
 5511SOL    HW227996   0.407   2.595   4.276 -0.1666  1.9852 -0.3636
 5512SOL     OW27997   4.181   2.098   5.669  0.5362  0.2209  0.2175
 5512SOL    HW127998   4.148   2.180   5.705  0.9260  0.8957 -0.9601
 5512SOL    HW227999   4.098   2.078   5.624  1.4649 -2.2265 -0.4062
 5513SOL     OW28000   2.066   2.208   4.518 -0.2546 -0.2560 -0.5037
 5513SOL    HW128001   2.025   2.230   4.434  1.2363  0.4929 -1.0344
 5513SOL    HW228002   2.017   2.132   4.551 -1.1413  0.5343  0.0203
 5514SOL     OW28003   0.236   2.970   3.529  0.3273  0.3088 -0.6663
 5514SOL    HW128004   0.301   2.911   3.490  0.8256 -0.3128  1.1224
 5514SOL    HW228005   0.279   3.047   3.565  0.5981 -0.4868  0.6927
 5515SOL     OW28006   2.071   3.381   9.891 -0.0403  0.0287 -0.3321
 5515SOL    HW128007   2.153   3.352   9.851  0.2882  0.1683  0.2402
 5515SOL    HW228008   2.050   3.451   9.829  2.0544  1.1689  0.2663
 5516SOL     OW28009   2.254   2.568   5.968 -0.2083 -0.2031 -0.1317
 5516SOL    HW128010   2.215   2.633   6.027  0.1368 -1.4502  1.4686
 5516SOL    HW228011   2.346   2.576   5.994 -0.1154  1.0927 -0.8192
 5517SOL     OW28012   3.425   4.251   7.225  0.1700 -0.1249  0.2923
 5517SOL    HW128013   3.487   4.180   7.208 -0.4441 -0.5957 -0.0157
 5517SOL    HW228014   3.432   4.318   7.157  0.7859  0.8048  1.2612
 5518SOL     OW28015   1.611   2.244   2.305 -0.6117 -0.8804  0.0893
 5518SOL    HW128016   1.668   2.195   2.363  0.9933  0.2497 -0.5399
 5518SOL    HW228017   1.594   2.188   2.229  0.2790  0.1055 -0.8246
 5519SOL     OW28018   1.002   4.194  11.355  0.0614  0.3684 -0.2311
 5519SOL    HW128019   1.040   4.265  11.407 -0.7357  2.5235 -2.5887
 5519SOL    HW228020   0.993   4.129  11.425  0.3358 -0.4750 -0.9807
 5520SOL     OW28021   1.638   2.110   4.205 -0.1063  0.4174  0.4491
 5520SOL    HW128022   1.704   2.127   4.138 -1.6369  1.1652 -0.8713
 5520SOL    HW228023   1.565   2.172   4.201  1.4627  2.3226  1.1349
 5521SOL     OW28024   2.188   2.144  13.473 -0.2153  0.0434 -0.2669
 5521SOL    HW128025   2.101   2.108  13.492  0.3569 -1.5057 -0.5305
 5521SOL    HW228026   2.161   2.200  13.400  2.7415 -0.9939 -2.1605
 5522SOL     OW28027   1.239   1.479  13.106 -0.1223 -0.5100  0.4088
 5522SOL    HW128028   1.333   1.482  13.124  0.1546 -0.9816 -1.0008
 5522SOL    HW228029   1.212   1.388  13.117  0.7329 -0.8470 -0.2659
 5523SOL     OW28030   1.239   0.016   3.758  0.2844  0.2368 -0.3706
 5523SOL    HW128031   1.220   4.649   3.759  4.1279 -0.5397  0.5538
 5523SOL    HW228032   1.149   0.047   3.769  0.1998  0.6561 -2.2012
 5524SOL     OW28033   2.325   1.436  14.558  0.1993  0.3203  0.3967
 5524SOL    HW128034   2.249   1.469  14.510  1.9438  2.5038 -0.8312
 5524SOL    HW228035   2.388   1.420  14.488 -0.2017  1.2477 -0.1784
 5525SOL     OW28036   3.962   2.231   4.734 -0.7910  0.1416  0.0388
 5525SOL    HW128037   4.043   2.276   4.714  0.2393 -2.2759 -1.1964
 5525SOL    HW228038   3.994   2.142   4.722  0.0178  0.5960 -1.1386
 5526SOL     OW28039   1.883   2.291   5.311 -0.4065  0.2205 -0.3160
 5526SOL    HW128040   1.931   2.210   5.326 -1.7177 -0.5091 -0.0296
 5526SOL    HW228041   1.931   2.332   5.238 -1.3121  1.3276 -0.3006
 5527SOL     OW28042   1.061   0.228   2.226 -0.0872  0.1807 -0.2533
 5527SOL    HW128043   0.996   0.298   2.226 -1.6626 -1.2633  1.1699
 5527SOL    HW228044   1.136   0.266   2.181 -0.6607 -1.5173 -2.6564
 5528SOL     OW28045   3.868   1.652   6.377 -0.6975 -0.1153  0.0275
 5528SOL    HW128046   3.914   1.728   6.414  0.2045  0.3175 -2.0146
 5528SOL    HW228047   3.940   1.615   6.326  0.1370 -0.7559  1.6387
 5529SOL     OW28048   2.606   0.901   1.711 -0.2301  0.1136  0.3958
 5529SOL    HW128049   2.699   0.919   1.698 -0.8927  4.8987  2.3464
 5529SOL    HW228050   2.559   0.947   1.642  0.8997 -0.7892 -0.9717
 5530SOL     OW28051   2.782   2.129   3.599  0.0225 -0.1244  0.5083
 5530SOL    HW128052   2.851   2.167   3.654  0.2889 -0.9295  0.7333
 5530SOL    HW228053   2.782   2.191   3.525 -1.0891 -0.6325  0.0777
 5531SOL     OW28054   0.208   4.490   4.048  0.1733  0.2368 -0.7654
 5531SOL    HW128055   0.121   4.457   4.030 -0.9626  2.2744  1.0041
 5531SOL    HW228056   0.222   4.545   3.970 -1.6419 -0.8805 -1.8682
 5532SOL     OW28057   1.905   2.523   3.036  0.3170  0.1970 -0.6012
 5532SOL    HW128058   1.916   2.432   3.063  1.2641  0.4124 -0.2730
 5532SOL    HW228059   1.993   2.558   3.053 -0.1730  0.1586  2.1136
 5533SOL     OW28060   3.920   3.426   3.751 -0.4788  0.4737  0.7916
 5533SOL    HW128061   3.858   3.498   3.761  0.2689  1.1408  0.6404
 5533SOL    HW228062   3.921   3.391   3.840  2.2272 -1.1312  0.1177
 5534SOL     OW28063   1.136   2.637  14.172 -0.1946  0.3682  0.1084
 5534SOL    HW128064   1.105   2.650  14.083  0.7203 -2.7655 -0.6556
 5534SOL    HW228065   1.097   2.550  14.187  0.5585 -0.1480 -0.9386
 5535SOL     OW28066   3.605   0.955  14.407 -0.7941  0.5532 -0.0062
 5535SOL    HW128067   3.596   1.046  14.378 -0.4480  0.2952 -0.9490
 5535SOL    HW228068   3.515   0.924  14.398 -1.2094  1.7364 -0.0008
 5536SOL     OW28069   1.326   3.165   1.097  0.0319  0.0363  0.0813
 5536SOL    HW128070   1.387   3.212   1.154 -0.6391 -1.7770  2.2700
 5536SOL    HW228071   1.375   3.171   1.015 -3.8326  2.1060 -2.0836
 5537SOL     OW28072   3.019   0.999   1.343  0.5322  0.1615 -0.6908
 5537SOL    HW128073   2.924   1.000   1.331  0.2234  2.0743  1.8056
 5537SOL    HW228074   3.055   0.965   1.261  1.4355  2.7919 -1.3935
 5538SOL     OW28075   1.714   0.437  11.814 -0.1720 -0.4867 -0.2145
 5538SOL    HW128076   1.639   0.473  11.861  0.4590  1.7141 -0.8525
 5538SOL    HW228077   1.776   0.407  11.881  0.7370  2.6388  0.3378
 5539SOL     OW28078   0.964   3.248  10.754 -0.5934  0.5516  0.0161
 5539SOL    HW128079   0.991   3.178  10.814 -2.0606 -0.6341 -0.7148
 5539SOL    HW228080   1.022   3.320  10.779 -0.4981  0.6275 -0.4284
 5540SOL     OW28081   2.072   3.789   1.195  0.3241 -1.0629  0.1013
 5540SOL    HW128082   2.033   3.844   1.127 -0.9056  1.0335  2.4947
 5540SOL    HW228083   2.135   3.738   1.145 -0.5921 -1.0177 -1.0881
 5541SOL     OW28084   0.333   1.170  16.169 -0.1882  0.4506 -0.6681
 5541SOL    HW128085   0.325   1.133  16.257 -1.1369 -2.5763 -2.0388
 5541SOL    HW228086   0.426   1.160  16.148 -0.6129 -1.4270 -1.6102
 5542SOL     OW28087   1.680   3.853  17.331  0.1073 -0.0124  0.0255
 5542SOL    HW128088   1.638   3.935  17.355 -0.1373 -0.2805  0.5201
 5542SOL    HW228089   1.730   3.834  17.411 -0.3734 -0.5194  0.2032
 5543SOL     OW28090   2.577   4.400  17.148 -0.1233  0.1450  0.2889
 5543SOL    HW128091   2.551   4.485  17.112  0.3207 -1.0116 -2.7038
 5543SOL    HW228092   2.542   4.418  17.236 -0.8751 -1.7790  0.3881
 5544SOL     OW28093   0.175   0.354   5.501 -0.2381 -0.0876  0.3535
 5544SOL    HW128094   0.152   0.373   5.592  0.7441  0.7384  0.4370
 5544SOL    HW228095   0.207   0.438   5.468 -0.1112 -0.5460 -0.6864
 5545SOL     OW28096   0.179   2.506   5.584  0.3427  0.3893  0.6180
 5545SOL    HW128097   0.103   2.467   5.626  0.6552  0.3366  1.1253
 5545SOL    HW228098   0.202   2.570   5.651  0.1359  0.7851  0.3130
 5546SOL     OW28099   2.307   4.633   3.397  0.4256 -0.1623 -0.0098
 5546SOL    HW128100   2.241   4.565   3.385  0.5026 -0.7555  3.0241
 5546SOL    HW228101   2.369   4.587   3.453  1.7326 -0.9112 -2.0595
 5547SOL     OW28102   2.125   2.506  10.903  0.1017 -0.4420 -0.3748
 5547SOL    HW128103   2.172   2.464  10.831  0.8504  0.8380 -0.6336
 5547SOL    HW228104   2.050   2.532  10.850 -0.5130 -1.1059  0.1773
 5548SOL     OW28105   4.090   4.566   6.868 -0.1285 -0.3826 -0.0929
 5548SOL    HW128106   4.157   4.552   6.934 -0.5511 -0.6908  0.2725
 5548SOL    HW228107   4.021   4.604   6.923 -1.9110  1.3246 -3.5187
 5549SOL     OW28108   1.770   0.186   3.332  0.0890  0.2915 -0.2351
 5549SOL    HW128109   1.766   0.203   3.238 -0.3267  0.3272 -0.2110
 5549SOL    HW228110   1.676   0.180   3.352  0.4503  1.4682  1.8073
 5550SOL     OW28111   2.800   3.953  10.332  0.2815 -0.2105  0.0706
 5550SOL    HW128112   2.811   3.929  10.424 -0.1856 -0.6660  0.0046
 5550SOL    HW228113   2.802   3.864  10.299 -1.6979 -0.1442 -0.2508
 5551SOL     OW28114   0.489   0.516   2.028  0.0985 -0.5199 -0.0595
 5551SOL    HW128115   0.460   0.556   1.946 -1.6018 -0.9598  0.3234
 5551SOL    HW228116   0.427   0.545   2.094  0.4833  0.6213 -0.2079
 5552SOL     OW28117   0.390   4.538   6.734  0.4531  0.4407  0.5133
 5552SOL    HW128118   0.295   4.542   6.735  0.4025 -0.7795  0.7137
 5552SOL    HW228119   0.391   4.633   6.740 -0.4582  0.3259  2.7082
 5553SOL     OW28120   2.042   3.231  15.091  0.2401  0.4446  0.0677
 5553SOL    HW128121   1.983   3.160  15.118 -2.9269  2.4218 -1.7124
 5553SOL    HW228122   2.081   3.260  15.174 -0.7250 -1.1939  1.0984
 5554SOL     OW28123   1.934   1.029   8.780 -0.1806 -0.4069 -0.7179
 5554SOL    HW128124   1.971   1.012   8.866 -1.4066  0.9027  0.0658
 5554SOL    HW228125   1.964   0.953   8.730  2.7202  1.8502 -2.4245
 5555SOL     OW28126   1.984   2.182   7.068  0.0712  0.0629 -0.1106
 5555SOL    HW128127   2.049   2.165   7.135 -0.3095 -1.6645 -0.1959
 5555SOL    HW228128   2.030   2.261   7.040 -0.9062  1.1510  1.3357
 5556SOL     OW28129   0.943   0.939   4.811  0.0952  0.4692  0.4655
 5556SOL    HW128130   0.970   1.031   4.807  1.0016  0.1419 -1.2407
 5556SOL    HW228131   1.021   0.883   4.810  0.8457  1.5290  0.1166
 5557SOL     OW28132   2.815   3.832   8.821  0.5554 -0.1831 -0.1186
 5557SOL    HW128133   2.872   3.871   8.887 -0.8245 -0.1709  1.0704
 5557SOL    HW228134   2.826   3.738   8.837  3.9211  0.1228 -0.6202
 5558SOL     OW28135   3.184   0.619   8.412 -0.2206 -0.6014  0.3116
 5558SOL    HW128136   3.239   0.624   8.491  1.1588  0.7580 -0.7401
 5558SOL    HW228137   3.250   0.595   8.346  0.3141  0.8163  0.3371
 5559SOL     OW28138   2.699   2.095  10.454  0.2893 -0.4383  0.2510
 5559SOL    HW128139   2.658   2.067  10.536 -2.3158 -0.6354 -1.1091
 5559SOL    HW228140   2.782   2.048  10.450  1.3220  1.4327 -0.1326
 5560SOL     OW28141   3.425   0.657  10.021 -0.4317  0.3457 -0.1794
 5560SOL    HW128142   3.466   0.610   9.949 -2.3238  0.3083 -1.2293
 5560SOL    HW228143   3.350   0.602  10.045 -2.3207  3.0051 -0.0398
 5561SOL     OW28144   3.939   3.408   6.413 -0.5365 -0.4160 -0.6933
 5561SOL    HW128145   3.910   3.453   6.492 -0.0330  0.5687 -1.0705
 5561SOL    HW228146   3.880   3.441   6.345 -1.0523  1.1211  0.5165
 5562SOL     OW28147   4.175   0.372   2.497  0.0548 -0.2130 -0.1279
 5562SOL    HW128148   4.182   0.277   2.495  0.7212 -0.1628 -0.0657
 5562SOL    HW228149   4.256   0.400   2.539  0.2080  1.2188 -1.4112
 5563SOL     OW28150   0.361   4.526  14.556  0.6336  0.1646  0.4203
 5563SOL    HW128151   0.447   4.554  14.587  1.1588 -0.5782 -0.3639
 5563SOL    HW228152   0.290   4.561  14.610 -0.6544 -0.0569 -1.1358
 5564SOL     OW28153   2.259   3.503   6.927  0.0811 -0.1934  0.2146
 5564SOL    HW128154   2.257   3.411   6.898 -0.4985 -0.1067 -0.0089
 5564SOL    HW228155   2.266   3.489   7.021  0.9487  0.5244  0.2534
 5565SOL     OW28156   2.704   2.048  10.143 -0.2661 -0.0152 -0.5703
 5565SOL    HW128157   2.676   2.041  10.234  0.4778 -0.6463 -0.3921
 5565SOL    HW228158   2.632   2.020  10.086  1.1315 -2.3429 -1.1673
 5566SOL     OW28159   2.519   3.167   0.735 -0.3942  0.3866 -0.3008
 5566SOL    HW128160   2.434   3.197   0.766 -0.3018 -0.8336  1.1544
 5566SOL    HW228161   2.539   3.098   0.798  0.8953  0.2321 -0.8741
 5567SOL     OW28162   3.103   2.118   7.959  0.7399  0.0887  0.6147
 5567SOL    HW128163   3.180   2.066   7.938  0.7279  0.5772 -0.6606
 5567SOL    HW228164   3.085   2.088   8.048  0.2902 -1.3880  0.0275
 5568SOL     OW28165   2.465   2.296   5.449  0.0587  0.3304  0.3077
 5568SOL    HW128166   2.394   2.232   5.447 -1.3321  1.9082 -0.0440
 5568SOL    HW228167   2.547   2.251   5.426  0.5421  1.9013 -1.0100
 5569SOL     OW28168   2.927   0.265  13.558  0.1225  0.0128 -0.2826
 5569SOL    HW128169   2.921   0.321  13.480 -3.7007 -0.0013  0.0118
 5569SOL    HW228170   2.842   0.224  13.545  0.0819  0.3116 -0.9754
 5570SOL     OW28171   1.211   0.676  14.955 -0.6109  0.5208  0.0501
 5570SOL    HW128172   1.246   0.598  14.998  0.3068  0.5754 -0.6066
 5570SOL    HW228173   1.116   0.665  14.965 -0.4290  0.0986  1.2205
 5571SOL     OW28174   4.092   4.306  10.072  0.5878 -0.4249 -0.4226
 5571SOL    HW128175   4.044   4.324  10.153  3.3102 -1.3314  1.4040
 5571SOL    HW228176   4.168   4.359  10.096 -0.5441  0.8151  0.4032
 5572SOL     OW28177   0.003   0.929  11.473 -0.4759 -0.3427 -0.2187
 5572SOL    HW128178   0.065   0.856  11.472  1.7692  1.6349 -2.8409
 5572SOL    HW228179   0.056   1.009  11.469 -1.0929  0.0279 -1.0057
 5573SOL     OW28180   2.913   2.323  15.263  0.0008  0.2139  0.3920
 5573SOL    HW128181   2.978   2.352  15.199  0.4567 -0.0205  0.7445
 5573SOL    HW228182   2.926   2.228  15.261  0.8175  0.3516 -0.7216
 5574SOL     OW28183   1.691   1.384   3.024 -0.3714 -0.3983 -0.4936
 5574SOL    HW128184   1.732   1.470   3.029 -2.2965  0.6050 -2.0385
 5574SOL    HW228185   1.742   1.340   2.955  1.0170  0.8819 -0.2847
 5575SOL     OW28186   2.915   0.426  13.343  0.0068  0.0040  0.0994
 5575SOL    HW128187   2.942   0.483  13.415  2.1180 -1.9879  0.8920
 5575SOL    HW228188   2.923   0.486  13.269 -2.1575  1.8738  1.3634
 5576SOL     OW28189   0.731   4.206   0.567  0.6225 -0.2748  0.3309
 5576SOL    HW128190   0.772   4.121   0.555 -1.0951 -1.0853  0.1064
 5576SOL    HW228191   0.716   4.224   0.474  0.1643  2.2759  0.9151
 5577SOL     OW28192   0.738   4.185  14.086 -0.1269  0.0911 -0.0697
 5577SOL    HW128193   0.751   4.199  14.180 -1.5985 -0.1269  0.1651
 5577SOL    HW228194   0.827   4.179  14.050  0.5498  0.4093  1.5220
 5578SOL     OW28195   2.361   0.086   8.242 -0.5788 -0.2491 -0.5142
 5578SOL    HW128196   2.307   0.159   8.272 -3.0985 -1.5383 -1.8626
 5578SOL    HW228197   2.448   0.119   8.264 -0.7709 -0.6931  0.9248
 5579SOL     OW28198   0.204   3.379   1.862  0.4265  0.7954  0.0482
 5579SOL    HW128199   0.231   3.307   1.918 -2.5703 -0.2653  0.0974
 5579SOL    HW228200   0.276   3.441   1.873 -0.0330  1.7563 -2.2367
 5580SOL     OW28201   1.902   4.460   9.171  0.4319 -0.2711 -0.7357
 5580SOL    HW128202   1.886   4.373   9.135  0.7982 -0.7491  0.2550
 5580SOL    HW228203   1.953   4.438   9.249  1.0037 -0.6864 -1.2325
 5581SOL     OW28204   4.689   4.392   6.362 -0.7613 -0.2646 -0.0368
 5581SOL    HW128205   0.032   4.438   6.315  0.4281  1.0520  3.0296
 5581SOL    HW228206   4.658   4.352   6.280  0.7887 -2.6980  0.5694
 5582SOL     OW28207   4.539   1.201  11.555 -0.3292 -0.3394 -0.4136
 5582SOL    HW128208   4.454   1.200  11.600  0.3737 -2.7993  0.8783
 5582SOL    HW228209   4.536   1.120  11.503  1.1554  1.0247 -2.6467
 5583SOL     OW28210   0.536   2.122   1.020  0.0847 -0.1994  0.2409
 5583SOL    HW128211   0.530   2.081   0.934  0.3746  0.4685 -0.0933
 5583SOL    HW228212   0.612   2.179   1.013 -0.5432  0.4797 -0.9089
 5584SOL     OW28213   1.850   3.828   3.729  0.1503 -0.0539 -0.4135
 5584SOL    HW128214   1.919   3.809   3.792 -1.2947 -0.2844  1.0990
 5584SOL    HW228215   1.773   3.804   3.781 -0.2579  0.1779 -0.9035
 5585SOL     OW28216   3.934   4.054   8.293 -0.2730 -0.3407 -0.3720
 5585SOL    HW128217   3.868   4.116   8.323 -0.2226  0.7694 -2.5661
 5585SOL    HW228218   3.931   3.996   8.369 -0.1410  1.2619  0.8651
 5586SOL     OW28219   0.573   2.079   0.124 -0.1762  0.0254  0.0742
 5586SOL    HW128220   0.628   2.156   0.114 -0.9360  0.6090  0.4568
 5586SOL    HW228221   0.578   2.042   0.035  1.1461 -0.8099  0.4964
 5587SOL     OW28222   0.987   0.312  16.220  0.2579  0.0978  0.4349
 5587SOL    HW128223   0.997   0.381  16.155  2.4541 -1.0800 -0.4650
 5587SOL    HW228224   0.962   0.367  16.294  2.0379 -0.2959  1.3252
 5588SOL     OW28225   3.210   1.726   1.422  0.3633 -0.3964  0.4045
 5588SOL    HW128226   3.291   1.712   1.372 -0.2867  2.0869 -1.3625
 5588SOL    HW228227   3.162   1.787   1.366 -0.9384  0.2720  2.2489
 5589SOL     OW28228   4.394   3.654  14.526  0.7511  0.2674 -0.4403
 5589SOL    HW128229   4.348   3.629  14.447  0.0361 -0.9299  0.3641
 5589SOL    HW228230   4.468   3.594  14.531  0.9190  0.6132  1.3847
 5590SOL     OW28231   0.265   4.302   4.724 -0.5101 -0.0106  0.1747
 5590SOL    HW128232   0.344   4.331   4.678 -1.1323 -0.9040 -1.4557
 5590SOL    HW228233   0.292   4.210   4.727  1.8868  0.6471 -0.8445
 5591SOL     OW28234   2.003   2.587   0.217  0.1601 -0.6340 -0.1644
 5591SOL    HW128235   1.950   2.630   0.149 -2.1440 -1.9980  0.7537
 5591SOL    HW228236   2.052   2.522   0.167  1.0842 -1.2271  1.5153
 5592SOL     OW28237   2.360   3.334   8.600  0.6126 -0.0012  0.2997
 5592SOL    HW128238   2.278   3.315   8.554  2.0721 -0.1536 -2.2817
 5592SOL    HW228239   2.404   3.373   8.525  0.0544  3.1345  1.6207
 5593SOL     OW28240   3.125   1.105  13.039 -0.3634  0.8498  0.2626
 5593SOL    HW128241   3.161   1.019  13.017 -1.4103  0.8215 -1.3048
 5593SOL    HW228242   3.211   1.146  13.029 -1.7895  3.2600 -1.9843
 5594SOL     OW28243   3.823   4.275   1.466  0.0694 -0.2163 -0.2545
 5594SOL    HW128244   3.832   4.342   1.533  1.6203 -0.2925 -0.3843
 5594SOL    HW228245   3.891   4.211   1.489  2.9295  3.4888  1.5243
 5595SOL     OW28246   2.774   2.334   7.073 -0.3586 -0.1590 -0.0081
 5595SOL    HW128247   2.762   2.377   7.158 -1.4910 -1.5703  0.5467
 5595SOL    HW228248   2.839   2.390   7.030 -0.4995  0.5012  0.6305
 5596SOL     OW28249   3.249   1.224   5.639 -0.5773 -0.6951 -0.6366
 5596SOL    HW128250   3.341   1.243   5.659 -1.3456  1.3696  1.0002
 5596SOL    HW228251   3.269   1.168   5.564  2.6548 -0.9588  0.4394
 5597SOL     OW28252   4.651   1.704   2.963  0.5305  0.1331 -0.0032
 5597SOL    HW128253   4.709   1.639   2.924  1.3101  1.0120 -0.3262
 5597SOL    HW228254   4.605   1.727   2.882 -1.0401  0.1685  0.8936
 5598SOL     OW28255   0.904   1.416   7.456 -0.3099 -0.9435 -0.3126
 5598SOL    HW128256   0.890   1.505   7.425 -2.4113 -0.4007  2.2401
 5598SOL    HW228257   0.955   1.428   7.536  0.3977  0.0704 -0.9153
 5599SOL     OW28258   3.058   3.524  14.068 -0.1065  0.3310 -0.0641
 5599SOL    HW128259   3.035   3.563  14.152 -0.0776 -2.1765  1.1167
 5599SOL    HW228260   3.130   3.583  14.046 -0.3222  1.1215  1.3668
 5600SOL     OW28261   0.879   1.783   1.569 -0.1132  0.4518 -0.4252
 5600SOL    HW128262   0.860   1.789   1.662 -1.9714  0.5041 -0.8040
 5600SOL    HW228263   0.934   1.859   1.550  2.8838 -1.9040 -1.1399
 5601SOL     OW28264   0.368   2.017  11.434 -0.0863 -0.6262 -0.5279
 5601SOL    HW128265   0.432   1.954  11.468 -0.0910 -2.3140 -3.6474
 5601SOL    HW228266   0.287   1.967  11.444 -0.4979 -0.3698 -2.5770
 5602SOL     OW28267   2.259   2.612   4.456  0.4261 -0.9633  0.2494
 5602SOL    HW128268   2.203   2.539   4.481 -0.6899  0.1135  0.9201
 5602SOL    HW228269   2.342   2.565   4.464  0.7318 -0.1983  1.7519
 5603SOL     OW28270   4.395   0.886   5.998  0.0160 -0.1946 -0.1367
 5603SOL    HW128271   4.317   0.924   6.039  1.1783  1.8521  0.1697
 5603SOL    HW228272   4.414   0.954   5.934 -0.1312  3.0228  3.2001
 5604SOL     OW28273   4.255   1.806   6.785  0.1179  0.1261 -0.1977
 5604SOL    HW128274   4.195   1.804   6.860 -0.3977  2.3033 -0.5622
 5604SOL    HW228275   4.220   1.879   6.734  0.8353 -0.8544 -2.1058
 5605SOL     OW28276   0.063   2.695   2.680  0.1466  0.4379 -0.2999
 5605SOL    HW128277   0.011   2.688   2.760 -0.0474  0.2043 -0.4468
 5605SOL    HW228278   0.143   2.695   2.734 -1.0324 -1.5574  1.4217
 5606SOL     OW28279   2.702   0.559  10.444 -0.2442 -0.0600 -0.0938
 5606SOL    HW128280   2.795   0.573  10.460 -0.7489  1.6737  1.3659
 5606SOL    HW228281   2.662   0.606  10.517  3.5118  1.6227  0.8663
 5607SOL     OW28282   3.579   1.262   5.986  0.3869  0.1866 -0.7174
 5607SOL    HW128283   3.552   1.194   6.047  1.1314 -0.4688 -1.1251
 5607SOL    HW228284   3.517   1.333   6.006 -0.9852 -1.4512  0.8749
 5608SOL     OW28285   3.701   0.019   2.426  0.1302  0.2007  0.3593
 5608SOL    HW128286   3.789   0.054   2.415  1.5995 -3.1030  1.4887
 5608SOL    HW228287   3.668   0.055   2.509 -0.4649 -0.9128  0.6189
 5609SOL     OW28288   4.512   2.846  17.382  0.1707  0.4932 -0.5527
 5609SOL    HW128289   4.493   2.756  17.407  0.0455  0.0154 -2.3678
 5609SOL    HW228290   4.519   2.889  17.467  0.7794  0.6499 -0.6782
 5610SOL     OW28291   4.058   3.790  17.475 -0.6607 -0.1238 -0.3051
 5610SOL    HW128292   4.008   3.860  17.518  0.6930 -0.0872  1.2222
 5610SOL    HW228293   4.013   3.769  17.393  0.3726  0.3534 -0.9924
 5611SOL     OW28294   1.979   3.500  10.131 -0.2739 -0.1281  1.0372
 5611SOL    HW128295   2.001   3.588  10.099  0.8785 -1.0435 -0.6740
 5611SOL    HW228296   2.000   3.452  10.051  1.1391 -1.2162  2.0637
 5612SOL     OW28297   1.822   0.319   7.993  0.1462 -0.2154 -0.0519
 5612SOL    HW128298   1.843   0.357   8.079 -0.6910  1.7176 -0.6997
 5612SOL    HW228299   1.733   0.286   7.997  0.3393 -0.6204  0.9410
 5613SOL     OW28300   0.025   2.984   2.135 -0.1268 -0.8100  0.5303
 5613SOL    HW128301   0.038   2.903   2.086 -0.1998  0.6978 -1.9847
 5613SOL    HW228302   4.657   2.978   2.124 -0.3758  2.8236  0.6403
 5614SOL     OW28303   3.885   4.561   5.535 -0.4092  0.8240 -0.2447
 5614SOL    HW128304   3.804   4.530   5.495  0.3078  0.6889 -1.5820
 5614SOL    HW228305   3.877   4.653   5.509 -0.6179  0.4570 -1.4685
 5615SOL     OW28306   2.371   1.283  13.941 -0.1080 -0.0245  0.0211
 5615SOL    HW128307   2.319   1.261  13.864 -0.6033  0.3083  0.2535
 5615SOL    HW228308   2.316   1.245  14.010 -0.5278 -0.3229 -0.4750
 5616SOL     OW28309   1.742   0.481  14.090  0.1064  0.2447  0.3583
 5616SOL    HW128310   1.806   0.542  14.128  1.3826 -0.6889 -0.2702
 5616SOL    HW228311   1.775   0.474  14.000  2.1122  1.6442  0.9976
 5617SOL     OW28312   0.436   2.726  11.279 -0.1373  0.1681 -0.1730
 5617SOL    HW128313   0.344   2.731  11.302 -0.3480  1.9310 -1.3961
 5617SOL    HW228314   0.413   2.713  11.186 -0.8319  0.1554  0.0017
 5618SOL     OW28315   1.941   1.089   6.389 -0.1691  0.3166 -0.0495
 5618SOL    HW128316   1.879   1.025   6.353 -0.1870  0.5728 -0.4630
 5618SOL    HW228317   1.902   1.105   6.476 -0.5442  2.5204 -0.6139
 5619SOL     OW28318   2.097   4.650   1.643 -0.5276  0.3435  0.4143
 5619SOL    HW128319   2.025   4.712   1.631 -0.8554  0.0230  0.6960
 5619SOL    HW228320   2.116   4.622   1.553  0.0880  1.1398  0.3002
 5620SOL     OW28321   3.290   1.712   2.307 -0.4566  0.0099  0.9020
 5620SOL    HW128322   3.301   1.773   2.380  1.0119 -0.2215  0.8810
 5620SOL    HW228323   3.366   1.654   2.317 -0.0520  0.6484  1.5716
 5621SOL     OW28324   3.559   0.223   7.569  0.4484  0.3201  0.3191
 5621SOL    HW128325   3.628   0.194   7.629 -0.4624 -1.9044  0.2795
 5621SOL    HW228326   3.507   0.275   7.630 -0.3259  0.3851 -0.3964
 5622SOL     OW28327   4.339   1.871   6.396 -0.6941 -0.3274 -0.3550
 5622SOL    HW128328   4.320   1.777   6.392 -1.2233 -0.1236 -2.2033
 5622SOL    HW228329   4.435   1.873   6.392 -0.6902  1.7306  0.4684
 5623SOL     OW28330   4.133   3.595   9.103  1.0482 -0.2837  0.1875
 5623SOL    HW128331   4.140   3.540   9.025  2.2246 -1.6117  1.2366
 5623SOL    HW228332   4.170   3.678   9.072 -2.2185  1.0911  0.0303
 5624SOL     OW28333   1.778   4.630   0.416  0.1698 -0.1914  0.0066
 5624SOL    HW128334   1.735   4.635   0.501  2.5665  0.2909  1.1930
 5624SOL    HW228335   1.802   4.537   0.420 -1.4200 -0.6525 -1.3047
 5625SOL     OW28336   1.766   2.069   3.686  0.2115 -0.3727  0.5345
 5625SOL    HW128337   1.684   2.076   3.736  0.7382 -1.2797  1.5170
 5625SOL    HW228338   1.756   1.984   3.642  0.6992  0.9442 -2.1124
 5626SOL     OW28339   0.662   0.692   6.216 -0.3116 -0.4470  0.7140
 5626SOL    HW128340   0.686   0.653   6.132  0.5240 -1.3427  1.3741
 5626SOL    HW228341   0.614   0.769   6.186  2.2312  1.0111  0.3051
 5627SOL     OW28342   0.545   0.345   6.830  0.3206 -0.0129  0.7925
 5627SOL    HW128343   0.575   0.412   6.891 -1.2379 -0.3284  1.9087
 5627SOL    HW228344   0.457   0.326   6.863 -0.4455 -0.2738 -1.3497
 5628SOL     OW28345   2.822   0.860   0.564 -0.6421  0.2859 -0.5972
 5628SOL    HW128346   2.778   0.893   0.642  1.1966 -1.1156  1.0416
 5628SOL    HW228347   2.904   0.837   0.607  0.1273  1.5303 -1.3963
 5629SOL     OW28348   3.007   4.536   4.721 -0.0463  0.2493  0.0804
 5629SOL    HW128349   2.915   4.561   4.731 -0.7696 -2.3051 -0.1090
 5629SOL    HW228350   3.031   4.534   4.814  1.6693  0.5487 -0.3604
 5630SOL     OW28351   3.041   2.715   1.638  0.4045  0.0165  1.0762
 5630SOL    HW128352   3.129   2.734   1.606  0.2561 -1.6247 -0.3155
 5630SOL    HW228353   3.054   2.655   1.711 -1.0704 -0.4524  0.9528
 5631SOL     OW28354   3.545   3.185  16.461 -0.3012 -0.0080 -0.2326
 5631SOL    HW128355   3.528   3.273  16.426  1.4251  0.1644 -0.6569
 5631SOL    HW228356   3.464   3.144  16.434 -0.6864  1.6022 -1.5082
 5632SOL     OW28357   0.672   3.095   8.953  0.1125  0.0391 -0.7339
 5632SOL    HW128358   0.741   3.133   8.899 -0.4504  1.9128 -0.1437
 5632SOL    HW228359   0.597   3.137   8.910 -0.4548 -1.1253 -0.8998
 5633SOL     OW28360   3.296   3.171   1.823 -0.4780  0.6961 -0.7936
 5633SOL    HW128361   3.231   3.182   1.753 -0.5606 -0.4678 -0.9042
 5633SOL    HW228362   3.335   3.258   1.830 -2.2952  1.4052  0.5083
 5634SOL     OW28363   2.533   2.895  14.395  0.6469 -0.1521  0.6085
 5634SOL    HW128364   2.536   2.943  14.312 -0.7625 -1.8285 -0.4369
 5634SOL    HW228365   2.492   2.964  14.447 -1.2226 -2.7412  2.5764
 5635SOL     OW28366   4.486   2.503   1.851 -0.0007 -0.1038  0.3997
 5635SOL    HW128367   4.465   2.438   1.783  2.0567  1.5852 -1.8371
 5635SOL    HW228368   4.580   2.484   1.851 -0.1709 -0.9282  1.8487
 5636SOL     OW28369   3.625   0.505   3.982 -0.1788 -0.2064 -0.0227
 5636SOL    HW128370   3.627   0.598   4.003  1.0021  0.0187 -1.1142
 5636SOL    HW228371   3.699   0.471   4.034 -2.1918 -4.4144  0.1199
 5637SOL     OW28372   2.589   2.062   4.085 -0.0632 -0.9576 -0.1532
 5637SOL    HW128373   2.650   2.049   4.158  0.6330 -0.9046 -0.7261
 5637SOL    HW228374   2.505   2.082   4.128  0.2723 -1.3442  0.6849
 5638SOL     OW28375   0.384   4.671   5.081 -0.0323  0.4324  0.2807
 5638SOL    HW128376   0.393   4.653   5.174  0.0008  1.0204  0.3912
 5638SOL    HW228377   0.360   4.587   5.042 -0.3852  0.1804  1.0461
 5639SOL     OW28378   0.833   2.784   5.870 -0.1939 -0.5125 -0.3253
 5639SOL    HW128379   0.882   2.750   5.945 -0.3829  0.9361  0.4590
 5639SOL    HW228380   0.749   2.742   5.888 -0.7762 -0.0543 -2.0403
 5640SOL     OW28381   1.400   3.797  15.794  0.2838 -0.6109 -0.3711
 5640SOL    HW128382   1.484   3.797  15.748  0.8046 -1.3874  0.5969
 5640SOL    HW228383   1.348   3.752  15.726  1.4085 -2.1204 -0.2317
 5641SOL     OW28384   1.808   1.417   0.422 -0.5266 -0.0021  0.3735
 5641SOL    HW128385   1.886   1.376   0.460 -1.7547 -0.4846  2.3154
 5641SOL    HW228386   1.786   1.467   0.500 -1.2795  1.3922 -0.7327
 5642SOL     OW28387   0.045   3.837   6.711  0.1931 -0.2914  0.9952
 5642SOL    HW128388   0.055   3.804   6.801 -0.5773  3.0691  2.3067
 5642SOL    HW228389   0.135   3.865   6.693 -0.1233 -1.5387 -2.5917
 5643SOL     OW28390   3.123   4.268   6.579 -0.6749 -0.4047  0.7538
 5643SOL    HW128391   3.159   4.238   6.496  1.3478 -1.6722  2.0748
 5643SOL    HW228392   3.030   4.257   6.561 -0.1946 -3.1697  0.0088
 5644SOL     OW28393   0.054   2.065   4.106  0.7515  0.3885 -0.4657
 5644SOL    HW128394   4.689   2.087   4.120  0.6700  0.0165 -0.4213
 5644SOL    HW228395   0.072   2.117   4.028  2.9853  0.8298  0.3350
 5645SOL     OW28396   2.879   3.358   3.037 -0.0281 -0.2700  0.0539
 5645SOL    HW128397   2.813   3.289   3.049 -0.9923  0.5404 -0.5940
 5645SOL    HW228398   2.921   3.341   3.121  0.4801  0.8628  0.0252
 5646SOL     OW28399   1.962   0.048  12.268 -0.6050 -0.3475  0.2051
 5646SOL    HW128400   1.967   4.709  12.338  0.9207 -0.5386 -0.0632
 5646SOL    HW228401   1.870   0.063  12.250 -0.7895 -0.1052  1.3174
 5647SOL     OW28402   0.701   3.735   7.131  0.5730  0.2171  0.0352
 5647SOL    HW128403   0.643   3.760   7.203  0.6296 -3.8752  1.4983
 5647SOL    HW228404   0.763   3.808   7.135 -0.9304  1.5575 -1.0236
 5648SOL     OW28405   2.167   4.538   6.337 -0.5999 -0.4619  0.1548
 5648SOL    HW128406   2.228   4.464   6.334 -1.2032 -0.8830 -2.1486
 5648SOL    HW228407   2.158   4.570   6.426  1.7898  1.7373 -0.3752
 5649SOL     OW28408   0.464   1.738  17.611 -0.0172 -0.3019 -0.1657
 5649SOL    HW128409   0.508   1.708  17.532 -1.8446  3.0968 -2.5099
 5649SOL    HW228410   0.497   1.828  17.612 -0.2427 -0.2245  0.7057
 5650SOL     OW28411   3.169   2.164   2.389  0.1321  0.3567 -0.9085
 5650SOL    HW128412   3.102   2.122   2.442  0.5546  0.8852  0.0290
 5650SOL    HW228413   3.176   2.106   2.313 -0.1917 -0.2494 -0.4712
 5651SOL     OW28414   3.903   1.797  15.610  0.8318  0.6642 -0.2457
 5651SOL    HW128415   3.965   1.843  15.553 -1.9978  2.7534 -1.6325
 5651SOL    HW228416   3.868   1.732  15.549  0.9849  0.1001  0.2666
 5652SOL     OW28417   3.369   0.311   5.707 -0.1814 -0.6342 -0.5988
 5652SOL    HW128418   3.315   0.360   5.645  1.9373  0.1258 -1.8211
 5652SOL    HW228419   3.325   0.327   5.790 -0.6092  0.5449 -1.0390
 5653SOL     OW28420   2.399   1.763  13.186  0.0440 -0.4672  0.1805
 5653SOL    HW128421   2.393   1.798  13.276 -0.0486 -0.7282  0.2756
 5653SOL    HW228422   2.492   1.747  13.170 -0.1840 -0.7046 -0.8669
 5654SOL     OW28423   1.236   4.458   6.657  0.1292  0.4307  0.3333
 5654SOL    HW128424   1.313   4.461   6.713  1.1888  0.1083 -1.1231
 5654SOL    HW228425   1.261   4.501   6.576 -1.7649 -0.1259 -0.5409
 5655SOL     OW28426   2.018   1.627  17.151  0.2303  0.0726  0.0116
 5655SOL    HW128427   1.956   1.699  17.163 -0.3754 -0.1326 -1.9378
 5655SOL    HW228428   2.100   1.662  17.185  0.5549  0.4644 -1.1597
 5656SOL     OW28429   0.569   1.876  15.375 -0.3036 -0.2221  0.8124
 5656SOL    HW128430   0.539   1.788  15.352 -0.0184  0.6050 -2.6516
 5656SOL    HW228431   0.527   1.927  15.307  0.2102  0.8865  1.3250
 5657SOL     OW28432   4.447   1.073   4.442 -0.3462 -0.6880 -0.0289
 5657SOL    HW128433   4.388   1.148   4.439 -0.3207 -0.8992 -4.7161
 5657SOL    HW228434   4.439   1.051   4.535  1.9754  1.0406  0.5696
 5658SOL     OW28435   2.354   0.887  10.521 -0.1951  0.1945  0.2381
 5658SOL    HW128436   2.303   0.956  10.562  2.3350  2.2600 -0.0985
 5658SOL    HW228437   2.371   0.936  10.440 -0.5838 -0.7914 -0.4367
 5659SOL     OW28438   2.041   1.026   7.615 -0.0557 -1.2181  0.2343
 5659SOL    HW128439   2.099   0.950   7.613  1.9635  0.4041 -1.4226
 5659SOL    HW228440   2.108   1.090   7.593 -0.8785  0.2543  1.9839
 5660SOL     OW28441   1.867   0.248   6.146 -0.3198 -0.5934 -0.3101
 5660SOL    HW128442   1.845   0.277   6.235  1.5389  2.6778 -0.9497
 5660SOL    HW228443   1.802   0.306   6.107  0.0142 -2.1473 -3.1512
 5661SOL     OW28444   1.232   3.947   5.012 -0.2302 -0.2494 -0.4123
 5661SOL    HW128445   1.292   3.977   5.080  0.5024  0.1439 -1.2416
 5661SOL    HW228446   1.171   3.902   5.071  0.8533 -0.1509  0.7839
 5662SOL     OW28447   4.092   4.307   3.451 -0.1854 -0.1091  0.5804
 5662SOL    HW128448   3.997   4.311   3.457 -0.2214  1.6135 -1.1341
 5662SOL    HW228449   4.105   4.218   3.418  1.5106  0.7764 -1.1490
 5663SOL     OW28450   1.869   3.260  14.108  0.0465  0.4456 -0.2757
 5663SOL    HW128451   1.875   3.222  14.020 -1.5604 -0.4525  0.0014
 5663SOL    HW228452   1.839   3.186  14.160  0.4771  1.2028  1.0452
 5664SOL     OW28453   2.868   1.668   0.861  0.2326  0.2268 -0.3408
 5664SOL    HW128454   2.927   1.626   0.923 -1.3218 -0.0439  0.9471
 5664SOL    HW228455   2.908   1.755   0.869  2.2174 -0.6573 -0.5200
 5665SOL     OW28456   0.172   0.978  14.658  0.3742  0.0766  0.1038
 5665SOL    HW128457   0.257   0.945  14.629  0.0519  0.9347 -1.7663
 5665SOL    HW228458   0.120   0.907  14.621 -1.5232  0.8246  1.3011
 5666SOL     OW28459   2.825   3.650  10.793 -0.4522  0.2598 -0.3156
 5666SOL    HW128460   2.844   3.679  10.703  1.8072  0.0694  0.0941
 5666SOL    HW228461   2.734   3.678  10.800  0.7564  4.2716 -0.9185
 5667SOL     OW28462   1.618   3.822   2.469  0.2812  1.0265 -0.4933
 5667SOL    HW128463   1.695   3.878   2.460 -0.7779  2.8587  1.7469
 5667SOL    HW228464   1.545   3.882   2.453 -0.4733  0.6633  1.5687
 5668SOL     OW28465   0.312   4.099   1.735 -0.4960 -0.0211 -0.1042
 5668SOL    HW128466   0.296   4.172   1.675  1.1899  0.0368 -0.4865
 5668SOL    HW228467   0.407   4.103   1.742 -0.5171  0.4108 -0.0446
 5669SOL     OW28468   0.680   0.148   1.221 -0.4930 -0.3744  0.2813
 5669SOL    HW128469   0.644   0.219   1.167 -1.9519 -1.2505  0.1070
 5669SOL    HW228470   0.606   0.088   1.228 -1.2741  0.5887  0.1815
 5670SOL     OW28471   1.509   3.402  16.369 -0.1922 -0.5005  0.1272
 5670SOL    HW128472   1.540   3.361  16.288  1.0276  0.3224  0.1787
 5670SOL    HW228473   1.575   3.470  16.384  0.7028 -1.1614 -0.7354
 5671SOL     OW28474   2.934   2.708   7.138  0.2409  0.3758  0.5387
 5671SOL    HW128475   2.911   2.755   7.219  1.1023  2.1870 -0.2534
 5671SOL    HW228476   2.999   2.771   7.104 -0.1429 -0.4147 -1.6313
 5672SOL     OW28477   0.170   4.064   7.142 -0.2944  0.3654 -0.2390
 5672SOL    HW128478   0.205   4.117   7.070  2.5133 -1.2360 -0.0548
 5672SOL    HW228479   0.230   3.990   7.149 -2.3109 -1.1131  1.2110
 5673SOL     OW28480   4.571   1.982  13.634 -0.0921  0.0876  0.1568
 5673SOL    HW128481   4.564   1.949  13.544  1.4783 -0.6639  0.3157
 5673SOL    HW228482   4.518   1.918  13.681  0.6755  0.0876  1.0180
 5674SOL     OW28483   3.861   0.639   4.982  0.1985 -0.1227 -0.0901
 5674SOL    HW128484   3.862   0.607   4.891 -1.1650 -0.3920 -0.0102
 5674SOL    HW228485   3.906   0.565   5.022  1.7329  0.0691 -1.4783
 5675SOL     OW28486   0.292   3.366   8.726 -0.1641  0.5044  0.3840
 5675SOL    HW128487   0.289   3.363   8.630  1.4877  2.5314  0.2749
 5675SOL    HW228488   0.216   3.421   8.743 -0.9805  0.3609 -2.7786
 5676SOL     OW28489   3.354   1.967   6.000  0.0338 -0.0088 -0.8215
 5676SOL    HW128490   3.262   1.945   6.012  0.6343 -2.3536 -0.4102
 5676SOL    HW228491   3.393   1.962   6.087 -0.0495  1.8268 -0.6736
 5677SOL     OW28492   1.209   2.473   5.964 -0.0144  0.0671  0.6210
 5677SOL    HW128493   1.230   2.522   6.043 -0.3930  2.3068 -0.6495
 5677SOL    HW228494   1.287   2.418   5.961 -0.0293  0.0923 -0.4386
 5678SOL     OW28495   4.029   4.641  12.823  0.5081  0.1868  0.2929
 5678SOL    HW128496   4.015   0.008  12.836 -0.6485  0.0654 -0.0803
 5678SOL    HW228497   3.992   4.603  12.902 -1.2087 -0.2573 -0.7306
 5679SOL     OW28498   3.061   4.170   8.756 -0.7865 -0.2714  0.2632
 5679SOL    HW128499   3.027   4.260   8.752  0.2254  0.1883  1.8380
 5679SOL    HW228500   2.988   4.131   8.709 -0.8882  0.7971 -0.4864
 5680SOL     OW28501   3.187   0.053  10.451  0.0043 -0.0152 -0.0324
 5680SOL    HW128502   3.196   4.688  10.427 -1.2865 -0.7072  2.1199
 5680SOL    HW228503   3.092   0.061  10.463  0.2498  2.9929 -0.0126
 5681SOL     OW28504   2.633   0.682   2.664  0.3980  0.1359  0.1991
 5681SOL    HW128505   2.616   0.590   2.686  0.6931 -0.2306 -1.1178
 5681SOL    HW228506   2.582   0.697   2.584 -0.0468 -0.5598  0.3540
 5682SOL     OW28507   3.898   0.545   4.721  0.6253  0.0424  0.3694
 5682SOL    HW128508   3.977   0.597   4.735  0.3120  0.7708 -0.5843
 5682SOL    HW228509   3.929   0.455   4.711  0.0752 -0.2180  1.0001
 5683SOL     OW28510   4.135   4.646   6.308 -0.2521 -0.5492 -1.2200
 5683SOL    HW128511   4.154   4.575   6.369  2.7010  1.9911  0.8373
 5683SOL    HW228512   4.063   4.691   6.352  2.0310  4.6292 -2.6832
 5684SOL     OW28513   0.418   3.299   0.082 -0.1768  0.4287  0.2038
 5684SOL    HW128514   0.391   3.275  17.702  1.2677 -1.0078  0.1489
 5684SOL    HW228515   0.354   3.365   0.107  0.1862  0.4507  1.0954
 5685SOL     OW28516   4.029   1.730   7.772  0.2924 -0.1778 -0.6359
 5685SOL    HW128517   4.002   1.726   7.864  0.1523  0.1956 -0.6586
 5685SOL    HW228518   3.973   1.799   7.736 -1.6476 -1.5085 -0.1683
 5686SOL     OW28519   3.485   3.841   4.106 -0.3363  0.2941 -0.3223
 5686SOL    HW128520   3.442   3.923   4.130  0.7397  0.8829 -0.3813
 5686SOL    HW228521   3.529   3.836   4.191 -1.1943 -0.1404  0.0996
 5687SOL     OW28522   2.767   1.905   3.933 -0.9553 -0.0139 -0.7067
 5687SOL    HW128523   2.714   1.955   3.994  1.4456  1.1436  0.4444
 5687SOL    HW228524   2.854   1.945   3.940 -0.8417 -0.5135  0.5889
 5688SOL     OW28525   0.160   3.146   4.838 -0.1977  0.4310  0.0697
 5688SOL    HW128526   0.199   3.233   4.824  0.5878 -0.0132 -0.5027
 5688SOL    HW228527   0.171   3.111   4.750  0.5346  1.3283 -0.1989
 5689SOL     OW28528   1.060   1.567   6.282  0.0096  0.4125  0.1227
 5689SOL    HW128529   1.014   1.535   6.360  3.4556 -1.9919  1.1458
 5689SOL    HW228530   1.087   1.482   6.247 -1.3276 -0.2749  0.7510
 5690SOL     OW28531   3.194   4.434   2.578  0.0245  0.2688  0.0165
 5690SOL    HW128532   3.152   4.520   2.580 -0.4749  0.0523 -1.2634
 5690SOL    HW228533   3.267   4.447   2.639  1.4750 -4.1085 -0.8169
 5691SOL     OW28534   1.781   3.505   3.056 -0.3547 -0.1457 -1.1651
 5691SOL    HW128535   1.804   3.576   2.996  0.6086 -0.2473 -0.9148
 5691SOL    HW228536   1.780   3.547   3.142 -0.3359 -1.8709 -0.3236
 5692SOL     OW28537   1.244   4.378  12.475  0.4133  0.7020  0.6376
 5692SOL    HW128538   1.300   4.371  12.553  2.6535 -2.1378 -1.2332
 5692SOL    HW228539   1.309   4.376  12.406 -0.2437  2.9000 -0.0156
 5693SOL     OW28540   1.535   1.721   4.413  0.2099 -0.6094  0.6689
 5693SOL    HW128541   1.481   1.777   4.469  0.0673  0.1916 -0.2645
 5693SOL    HW228542   1.510   1.633   4.443  1.1604 -1.7271 -1.8538
 5694SOL     OW28543   3.945   0.634   6.870 -0.1375  0.0571  0.0297
 5694SOL    HW128544   3.940   0.551   6.824 -2.2129  0.9617 -1.3819
 5694SOL    HW228545   3.913   0.688   6.797  1.8779  0.3173 -0.6741
 5695SOL     OW28546   4.424   3.870  10.131 -0.1337  0.2237 -0.1621
 5695SOL    HW128547   4.498   3.883  10.071 -0.5895 -0.7765 -0.9542
 5695SOL    HW228548   4.395   3.960  10.140  0.7437  0.6470 -1.5176
 5696SOL     OW28549   1.344   3.552  10.674 -0.1054 -0.1018 -0.8943
 5696SOL    HW128550   1.306   3.465  10.686  0.9330 -0.4674 -0.2947
 5696SOL    HW228551   1.260   3.593  10.697 -0.7766 -0.7999 -2.0995
 5697SOL     OW28552   2.882   2.229   1.563 -0.2991  0.2490 -0.5697
 5697SOL    HW128553   2.879   2.321   1.588 -1.9027  1.0241 -3.5502
 5697SOL    HW228554   2.976   2.209   1.562 -0.4513 -0.4920  1.1553
 5698SOL     OW28555   3.498   2.427   3.356  0.4947 -0.3445  0.1119
 5698SOL    HW128556   3.464   2.363   3.293 -0.4560  0.0069  0.2682
 5698SOL    HW228557   3.474   2.512   3.319  0.1001  0.1153  1.4373
 5699SOL     OW28558   1.731   2.747   2.533 -0.2954 -0.1958 -0.1574
 5699SOL    HW128559   1.781   2.671   2.504 -0.4673 -0.3804  0.0280
 5699SOL    HW228560   1.650   2.697   2.521 -1.8889  2.3009  0.1692
 5700SOL     OW28561   2.190   2.348   4.193 -0.4406 -0.3213 -0.0541
 5700SOL    HW128562   2.256   2.290   4.231  0.7270 -0.1203 -1.7518
 5700SOL    HW228563   2.106   2.320   4.230 -1.0632 -1.1654 -2.0938
 5701SOL     OW28564   0.763   2.547   7.698  0.2239 -0.1076  0.2224
 5701SOL    HW128565   0.856   2.530   7.689  0.2352  0.9942 -1.9339
 5701SOL    HW228566   0.738   2.571   7.787  1.2250 -1.0528  0.7489
 5702SOL     OW28567   4.545   4.488   8.018 -0.1746 -0.0708  0.1173
 5702SOL    HW128568   4.572   4.415   8.073  0.8718 -0.9482 -1.5648
 5702SOL    HW228569   4.629   4.518   7.983  0.1864 -1.2536 -0.0269
 5703SOL     OW28570   1.600   3.448   9.676  0.5030 -0.4762 -0.6044
 5703SOL    HW128571   1.623   3.376   9.735  1.8392 -0.8230 -1.5437
 5703SOL    HW228572   1.646   3.424   9.596 -0.8727 -0.1779 -1.4772
 5704SOL     OW28573   4.465   1.448   3.525  0.1174 -0.0611 -0.1240
 5704SOL    HW128574   4.387   1.417   3.570  0.7317 -0.3242  0.7559
 5704SOL    HW228575   4.527   1.475   3.593  0.4730 -2.2344  0.4248
 5705SOL     OW28576   3.449   0.074   4.319 -0.2141  0.0498  0.1199
 5705SOL    HW128577   3.510   0.001   4.305  1.7740  2.3341 -3.0199
 5705SOL    HW228578   3.372   0.022   4.293  0.3529 -0.8005  0.1389
 5706SOL     OW28579   2.478   2.029   4.589 -0.1860 -0.3480  0.5771
 5706SOL    HW128580   2.514   1.972   4.521 -1.4034  0.1086 -0.4434
 5706SOL    HW228581   2.521   1.979   4.659 -1.0289 -0.6450  0.8826
 5707SOL     OW28582   1.087   1.017  17.207  0.1521  0.7033  0.5225
 5707SOL    HW128583   1.105   0.932  17.248 -1.3478  0.1565  0.0474
 5707SOL    HW228584   1.109   1.082  17.273  1.1104 -0.4168  1.3105
 5708SOL     OW28585   1.143   3.781   0.736  0.3947  0.5200  0.3915
 5708SOL    HW128586   1.092   3.742   0.808 -2.1937  0.7287 -1.3056
 5708SOL    HW228587   1.140   3.708   0.675 -0.3498  0.1082  0.9136
 5709SOL     OW28588   3.443   1.356   6.704 -0.0084 -0.2102 -0.4047
 5709SOL    HW128589   3.512   1.310   6.752  0.4768 -0.7937 -1.6699
 5709SOL    HW228590   3.489   1.437   6.682 -0.7221 -0.0923 -1.4039
 5710SOL     OW28591   1.641   2.608   8.268  0.5676 -0.1580  0.2742
 5710SOL    HW128592   1.548   2.590   8.252  0.8493 -1.7142  0.3782
 5710SOL    HW228593   1.634   2.638   8.358  2.3652 -1.2757  0.7858
 5711SOL     OW28594   0.867   0.270  11.615 -0.7711  0.0580 -0.1151
 5711SOL    HW128595   0.800   0.219  11.660  0.1935 -1.3362 -0.2426
 5711SOL    HW228596   0.822   0.315  11.543 -0.3030 -2.4333 -1.9524
 5712SOL     OW28597   1.499   1.343   8.206  0.4377 -0.8359 -0.2930
 5712SOL    HW128598   1.575   1.395   8.231  1.3233 -1.1735 -2.1981
 5712SOL    HW228599   1.509   1.263   8.258  0.4030 -0.6493 -0.0029
 5713SOL     OW28600   3.678   4.044  11.653  0.2961  0.1824 -0.2680
 5713SOL    HW128601   3.703   4.129  11.617 -1.0971  0.6504 -0.1096
 5713SOL    HW228602   3.748   4.032  11.717  0.0514 -1.0799 -0.2258
 5714SOL     OW28603   0.558   3.606   5.823 -0.2493  0.1472  0.7525
 5714SOL    HW128604   0.617   3.532   5.837  0.9916  1.2745  1.4632
 5714SOL    HW228605   0.547   3.648   5.909 -0.7395 -1.2607  1.3697
 5715SOL     OW28606   0.800   1.880   8.380 -0.4282 -0.0896  0.0682
 5715SOL    HW128607   0.875   1.839   8.337 -2.2112 -0.0977 -3.0308
 5715SOL    HW228608   0.837   1.922   8.458 -2.1734 -0.6255  1.1672
 5716SOL     OW28609   1.539   2.704  11.537  0.4632 -0.1437 -0.5669
 5716SOL    HW128610   1.511   2.693  11.628  0.9897  0.6273 -0.3152
 5716SOL    HW228611   1.488   2.777  11.504  2.2101  0.7472 -1.3241
 5717SOL     OW28612   4.273   3.923  10.936  0.0577 -0.5519 -0.2319
 5717SOL    HW128613   4.223   3.926  11.017  0.0948 -1.3644 -0.1709
 5717SOL    HW228614   4.297   3.831  10.925  0.3575 -0.5623  0.5681
 5718SOL     OW28615   2.495   3.969   1.068  0.1896  0.1007  0.5542
 5718SOL    HW128616   2.463   4.029   1.001 -0.7380 -2.3266 -1.1978
 5718SOL    HW228617   2.414   3.932   1.103  1.1547 -1.2125  1.4240
 5719SOL     OW28618   2.702   3.126   3.037  0.5307 -0.0786  0.1930
 5719SOL    HW128619   2.712   3.037   3.005 -1.0186 -0.4050  0.6270
 5719SOL    HW228620   2.630   3.165   2.988  0.4452 -1.4639 -0.7729
 5720SOL     OW28621   3.552   2.149  15.178  0.0363  0.1053 -0.0899
 5720SOL    HW128622   3.463   2.156  15.212 -0.6270 -0.6370 -1.6716
 5720SOL    HW228623   3.586   2.236  15.196  0.5123 -0.5744  2.2815
 5721SOL     OW28624   1.518   1.118   0.524  0.0133 -0.5540  0.4743
 5721SOL    HW128625   1.452   1.137   0.590  0.5768  1.4163  0.4907
 5721SOL    HW228626   1.530   1.205   0.486 -0.4519 -0.4094  0.6611
 5722SOL     OW28627   1.416   1.278  10.340 -0.3368  0.1188  0.0386
 5722SOL    HW128628   1.381   1.243  10.258  0.5128 -0.2734 -0.1510
 5722SOL    HW228629   1.400   1.371  10.325 -0.5368 -0.1470 -1.3632
 5723SOL     OW28630   1.937   3.440   7.917 -0.3803 -0.1073  0.5512
 5723SOL    HW128631   1.963   3.350   7.896 -2.3664 -0.9270  1.5986
 5723SOL    HW228632   1.975   3.467   8.001 -0.1559 -0.2870  0.5078
 5724SOL     OW28633   0.377   1.945   4.914  0.4697 -0.2548 -0.3796
 5724SOL    HW128634   0.390   2.027   4.866 -0.2331  1.5542  2.4954
 5724SOL    HW228635   0.457   1.894   4.904  1.3031  0.6606  1.6360
 5725SOL     OW28636   4.509   0.878   5.573  0.0894  0.0374  0.3208
 5725SOL    HW128637   4.575   0.928   5.620 -0.7443  1.2594  0.1895
 5725SOL    HW228638   4.529   0.792   5.610  0.9318 -1.6952 -4.0831
 5726SOL     OW28639   1.626   2.234   2.708 -0.1548  0.5359 -0.2461
 5726SOL    HW128640   1.694   2.213   2.644  1.8130  1.9693  1.3827
 5726SOL    HW228641   1.569   2.296   2.664 -0.3741 -0.4416 -1.3481
 5727SOL     OW28642   1.075   3.680   8.454 -0.8715  0.3358 -0.3773
 5727SOL    HW128643   1.028   3.598   8.470 -1.0104 -0.1468 -3.2826
 5727SOL    HW228644   1.120   3.654   8.374  0.5412  0.0717  0.4962
 5728SOL     OW28645   1.310   2.138  11.152  0.0531  0.0043 -0.0524
 5728SOL    HW128646   1.238   2.078  11.137 -1.1448  1.6131 -0.6843
 5728SOL    HW228647   1.276   2.192  11.223 -1.6049  0.0814 -0.9250
 5729SOL     OW28648   2.796   1.357  15.670 -0.5982 -0.3664  0.3137
 5729SOL    HW128649   2.777   1.451  15.673  0.9802 -0.0028 -1.2231
 5729SOL    HW228650   2.743   1.326  15.743  1.9805 -0.7270  2.0391
 5730SOL     OW28651   0.578   1.860   8.232  0.2584  0.2147 -0.1336
 5730SOL    HW128652   0.521   1.806   8.288  0.7377 -1.4347 -1.2113
 5730SOL    HW228653   0.652   1.871   8.291 -1.6076 -1.0375  2.4658
 5731SOL     OW28654   3.128   2.421   2.245 -0.3071 -0.3099  0.2358
 5731SOL    HW128655   3.059   2.372   2.200 -0.7300  0.4698  0.0357
 5731SOL    HW228656   3.146   2.348   2.305  2.2374  0.1839  0.0775
 5732SOL     OW28657   4.064   0.824   8.379  0.3662  0.2506  0.4182
 5732SOL    HW128658   4.088   0.824   8.471 -0.4490 -0.2793  0.6293
 5732SOL    HW228659   4.076   0.918   8.363  0.0211  0.3166  0.5436
 5733SOL     OW28660   0.539   0.165   3.626  0.7856 -0.4156  0.0583
 5733SOL    HW128661   0.504   0.084   3.588 -0.8812 -0.3175  1.4045
 5733SOL    HW228662   0.458   0.191   3.670 -0.9962 -0.4505 -3.1595
 5734SOL     OW28663   1.547   3.867  10.660  0.1671  0.5501 -0.1504
 5734SOL    HW128664   1.474   3.914  10.703  0.1325 -1.5640  2.1404
 5734SOL    HW228665   1.623   3.926  10.660 -0.8019  1.8458  2.5411
 5735SOL     OW28666   2.890   0.477   2.834 -0.2192  0.4967  0.7225
 5735SOL    HW128667   2.956   0.496   2.767  1.3901 -0.7616  1.9429
 5735SOL    HW228668   2.892   0.564   2.874  0.3590  0.5021  0.6909
 5736SOL     OW28669   3.349   4.228   8.617 -0.1402 -0.0380  0.7959
 5736SOL    HW128670   3.419   4.191   8.563  0.0723 -0.3692  1.2987
 5736SOL    HW228671   3.350   4.170   8.693 -1.0823 -0.4466  0.4859
 5737SOL     OW28672   0.294   3.726  15.258  0.1951  0.5710 -0.1284
 5737SOL    HW128673   0.338   3.645  15.281 -0.1679  0.7959  1.3600
 5737SOL    HW228674   0.300   3.732  15.162 -2.6644 -0.4304 -0.3686
 5738SOL     OW28675   4.011   1.707   3.661  0.0278  0.0410 -0.3776
 5738SOL    HW128676   3.937   1.762   3.685 -0.7049 -0.6568 -1.0357
 5738SOL    HW228677   4.076   1.774   3.637  1.2359 -0.7811  0.5818
 5739SOL     OW28678   2.699   0.702   8.490  0.4212 -0.3772 -0.1164
 5739SOL    HW128679   2.793   0.716   8.476  0.2037  1.5339  0.2798
 5739SOL    HW228680   2.676   0.785   8.532 -0.5542 -0.4763 -0.4537
 5740SOL     OW28681   3.526   3.773  17.159 -0.0626  0.1579  0.1003
 5740SOL    HW128682   3.478   3.827  17.097  1.0585 -0.1884 -1.0667
 5740SOL    HW228683   3.517   3.818  17.243  1.0506  1.2664 -0.3725
 5741SOL     OW28684   3.430   1.926   3.163 -0.2566 -0.0020  0.2527
 5741SOL    HW128685   3.454   1.856   3.103 -0.9977 -0.2589  0.2616
 5741SOL    HW228686   3.476   1.898   3.242 -1.6464 -1.9929  0.3514
 5742SOL     OW28687   2.085   4.227  14.775 -0.0377  0.1742  0.1037
 5742SOL    HW128688   2.157   4.164  14.776  0.7871  1.1107 -0.4072
 5742SOL    HW228689   2.088   4.255  14.683 -1.1081 -0.0089  0.0141
 5743SOL     OW28690   2.949   2.089   2.538  0.5004  0.8711 -0.4353
 5743SOL    HW128691   2.990   2.068   2.621 -1.7343  0.6618  0.6237
 5743SOL    HW228692   2.861   2.078   2.573  0.8632  2.6828  1.0187
 5744SOL     OW28693   3.198   3.150   8.509  0.4529 -0.0855  0.7427
 5744SOL    HW128694   3.237   3.208   8.444  1.4962  0.3444  1.7538
 5744SOL    HW228695   3.275   3.114   8.552  2.0571  0.4490 -1.6578
 5745SOL     OW28696   4.686   4.163   1.127  0.2755 -0.0687 -0.0672
 5745SOL    HW128697   4.626   4.089   1.119 -3.0284  2.6231 -0.0110
 5745SOL    HW228698   4.640   4.238   1.091 -0.6695 -0.7446 -0.2796
 5746SOL     OW28699   2.140   1.884   1.331  0.5272  0.2308 -0.3432
 5746SOL    HW128700   2.123   1.934   1.411 -1.4529 -0.9182 -0.0326
 5746SOL    HW228701   2.235   1.879   1.341  0.2675 -4.1075 -0.1463
 5747SOL     OW28702   0.551   3.833   8.985 -0.5311  0.3029  0.0390
 5747SOL    HW128703   0.514   3.776   9.052 -2.6001  2.7243  0.9802
 5747SOL    HW228704   0.512   3.918   9.008 -1.0869 -0.0311  0.3137
 5748SOL     OW28705   0.293   4.225   6.260  0.4722  0.2204 -0.2326
 5748SOL    HW128706   0.230   4.157   6.236  2.8918 -2.6832  1.5634
 5748SOL    HW228707   0.376   4.178   6.273  1.0768  1.2189 -0.5274
 5749SOL     OW28708   1.723   2.517   4.781 -0.2548  0.1063  0.4388
 5749SOL    HW128709   1.723   2.442   4.840 -1.9056  0.7477  1.2482
 5749SOL    HW228710   1.731   2.581   4.851 -0.0178  0.0965  0.4204
 5750SOL     OW28711   3.204   1.130   5.239  0.0491  0.2919 -0.3179
 5750SOL    HW128712   3.126   1.117   5.185 -0.2292 -1.8790  0.5901
 5750SOL    HW228713   3.169   1.174   5.316 -0.8007  4.3457 -3.0488
 5751SOL     OW28714   4.447   2.188  15.122  0.6284 -0.2761  0.1671
 5751SOL    HW128715   4.391   2.136  15.065  1.8519  0.1362 -1.3955
 5751SOL    HW228716   4.447   2.273  15.078 -0.7390 -0.2839  0.1464
 5752SOL     OW28717   0.449   4.677   2.624  0.4509  0.0211 -0.1350
 5752SOL    HW128718   0.470   4.587   2.597  1.6777  0.7180 -1.4679
 5752SOL    HW228719   0.361   4.654   2.652 -1.0093  0.7696 -4.1696
 5753SOL     OW28720   1.396   2.742  16.878  0.0026  0.7496 -0.2685
 5753SOL    HW128721   1.328   2.682  16.911  0.0289 -0.4758 -2.4730
 5753SOL    HW228722   1.370   2.777  16.793  0.7676  0.2337 -0.7126
 5754SOL     OW28723   0.363   2.569   1.072  0.4716 -0.7743  0.6073
 5754SOL    HW128724   0.409   2.545   0.991  0.8616  0.7783  0.3771
 5754SOL    HW228725   0.438   2.555   1.131 -1.2004  1.4550  3.2407
 5755SOL     OW28726   2.544   0.492  10.778 -0.1159  0.0780  0.1476
 5755SOL    HW128727   2.490   0.414  10.759  0.5840 -0.0397 -1.3500
 5755SOL    HW228728   2.479   0.556  10.750  0.8378  0.6378 -0.7455
 5756SOL     OW28729   1.180   4.192   7.661  0.0121  0.1559  0.2170
 5756SOL    HW128730   1.270   4.206   7.690 -0.1245  1.3977  0.0216
 5756SOL    HW228731   1.204   4.189   7.568 -1.7132  1.3881 -0.2500
 5757SOL     OW28732   2.112   2.203   3.529 -0.0590 -0.2762 -0.1016
 5757SOL    HW128733   2.188   2.148   3.509 -0.0324 -0.4220  0.3958
 5757SOL    HW228734   2.099   2.181   3.621 -0.9921  0.1540 -0.1297
 5758SOL     OW28735   0.104   0.173   2.708  0.1066 -0.3861  0.0677
 5758SOL    HW128736   0.114   0.152   2.801 -0.1295 -0.1614  0.1436
 5758SOL    HW228737   0.043   0.248   2.709  1.7335  0.9271  1.5341
 5759SOL     OW28738   3.795   0.635   2.559 -0.3836  0.0587 -0.5895
 5759SOL    HW128739   3.827   0.703   2.500 -0.2944  2.4542  2.2251
 5759SOL    HW228740   3.822   0.558   2.509  1.3575  0.3578 -0.1031
 5760SOL     OW28741   1.504   1.825  17.367 -0.5209  0.4020  0.1459
 5760SOL    HW128742   1.468   1.885  17.433 -0.2903  0.6238  0.0669
 5760SOL    HW228743   1.570   1.772  17.412 -4.6919 -2.8333  2.5684
 5761SOL     OW28744   2.000   4.602   7.146  0.0028 -0.7610 -0.0352
 5761SOL    HW128745   1.986   4.563   7.060  1.3748  0.6024 -0.8701
 5761SOL    HW228746   2.094   4.616   7.138 -0.3789  1.0517 -1.2086
 5762SOL     OW28747   3.224   3.687  15.535 -0.4617  0.4205 -0.3275
 5762SOL    HW128748   3.202   3.743  15.608 -2.0912 -2.0621  1.0828
 5762SOL    HW228749   3.170   3.722  15.464 -0.8811 -1.9425 -1.1755
 5763SOL     OW28750   1.240   2.520   8.950 -0.5177  0.2753 -0.1731
 5763SOL    HW128751   1.229   2.533   8.856  2.1346  0.7987 -0.4014
 5763SOL    HW228752   1.229   2.608   8.987 -0.4488  0.0210  0.4543
 5764SOL     OW28753   0.406   1.767  12.247 -0.1555 -0.1066 -0.1421
 5764SOL    HW128754   0.410   1.819  12.327 -2.9468 -0.4103  0.1803
 5764SOL    HW228755   0.429   1.684  12.289  1.0102 -0.5674 -1.6875
 5765SOL     OW28756   2.267   3.545   1.197  0.0160 -0.2977  0.4464
 5765SOL    HW128757   2.306   3.472   1.246  0.3407  0.4595  1.3208
 5765SOL    HW228758   2.341   3.579   1.146  0.9440 -0.7855  1.4576
 5766SOL     OW28759   2.775   4.661   2.906 -0.4974 -0.1509  0.3083
 5766SOL    HW128760   2.768   0.020   2.948  0.1443  0.3581 -0.6223
 5766SOL    HW228761   2.765   4.675   2.812  1.4670 -0.9774 -0.0415
 5767SOL     OW28762   0.443   2.112   6.710  0.4377 -0.0852 -0.2110
 5767SOL    HW128763   0.391   2.033   6.700  1.3010 -0.4540 -1.6831
 5767SOL    HW228764   0.375   2.178   6.693  1.0234  0.1528 -1.6043
 5768SOL     OW28765   4.162   4.678  17.037 -0.6535 -0.2057 -0.1937
 5768SOL    HW128766   4.119   4.725  17.108  3.3898 -0.1667  2.2283
 5768SOL    HW228767   4.101   4.696  16.965  1.0582  3.0341 -0.8232
 5769SOL     OW28768   0.940   0.715  15.007  0.0319 -0.6613  0.7027
 5769SOL    HW128769   0.881   0.742  15.078 -0.8711 -0.0346 -0.2862
 5769SOL    HW228770   0.874   0.694  14.940  1.0692 -1.3702 -0.0952
 5770SOL     OW28771   1.844   0.511   4.808  0.1717  0.0767  0.2064
 5770SOL    HW128772   1.895   0.565   4.749 -1.6191  1.5534  0.0152
 5770SOL    HW228773   1.798   0.582   4.853 -1.4112  0.1402 -1.5344
 5771SOL     OW28774   3.779   4.084  10.763  0.3997 -0.0212 -0.5169
 5771SOL    HW128775   3.815   4.021  10.701  1.1006  1.5199 -1.6596
 5771SOL    HW228776   3.859   4.127  10.791 -0.6972  1.3755  0.4653
 5772SOL     OW28777   0.699   0.820  10.663  0.4885 -0.4323 -0.1150
 5772SOL    HW128778   0.615   0.792  10.699  1.1282  0.1538  1.8228
 5772SOL    HW228779   0.678   0.861  10.579  0.6358 -1.4212 -0.6239
 5773SOL     OW28780   3.312   4.722   1.748  0.2664  0.6873 -0.2002
 5773SOL    HW128781   3.295   4.678   1.832 -0.4349  3.2615  0.9857
 5773SOL    HW228782   3.285   0.086   1.758  3.8345  1.7633 -0.3714
 5774SOL     OW28783   1.463   0.909   6.550 -0.3925 -0.4858  0.1488
 5774SOL    HW128784   1.483   0.818   6.526  3.0791 -0.1031  1.5578
 5774SOL    HW228785   1.368   0.902   6.553 -0.3910 -1.0198 -1.2556
 5775SOL     OW28786   2.600   0.307   3.438 -0.1252  0.1152  0.0530
 5775SOL    HW128787   2.653   0.228   3.442  1.9106  1.2856 -3.7118
 5775SOL    HW228788   2.545   0.298   3.361 -0.0566 -1.7179  0.2150
 5776SOL     OW28789   4.313   0.136   3.560 -0.2398 -0.7917  0.4392
 5776SOL    HW128790   4.328   0.225   3.530  1.0881 -1.1125  0.1359
 5776SOL    HW228791   4.336   0.146   3.652  1.0383 -1.5789  0.2070
 5777SOL     OW28792   4.518   2.686   0.555  0.1058 -0.0268 -0.1785
 5777SOL    HW128793   4.591   2.702   0.615  0.7248 -0.3832 -0.8483
 5777SOL    HW228794   4.442   2.741   0.578  0.0811 -0.6376  1.2058
 5778SOL     OW28795   4.476   3.597   8.256 -0.1606  0.0540  0.0084
 5778SOL    HW128796   4.432   3.555   8.182  1.9344 -0.6269 -0.8565
 5778SOL    HW228797   4.528   3.663   8.211 -0.0257  0.5227  0.8562
 5779SOL     OW28798   3.087   3.875   4.637  0.0816  0.1984 -0.3978
 5779SOL    HW128799   3.086   3.830   4.722 -4.7268 -0.3333 -0.7356
 5779SOL    HW228800   3.035   3.819   4.579 -3.4228 -0.2258  3.1103
 5780SOL     OW28801   1.514   1.423   6.157  0.6218 -0.0811 -0.0533
 5780SOL    HW128802   1.515   1.467   6.242  2.7545 -1.2580  0.5491
 5780SOL    HW228803   1.551   1.493   6.103 -0.1745  0.2183 -0.2003
 5781SOL     OW28804   3.836   1.735   1.983 -0.1481  0.1316  0.6195
 5781SOL    HW128805   3.779   1.746   2.059 -0.2066  1.1303  0.4188
 5781SOL    HW228806   3.784   1.789   1.924  1.4752 -0.1012 -1.0143
 5782SOL     OW28807   0.974   1.604   6.798  0.3289  0.3479  0.7338
 5782SOL    HW128808   1.067   1.623   6.810  0.4516  0.1272  0.1434
 5782SOL    HW228809   0.971   1.574   6.707 -0.0358  0.3858  0.7329
 5783SOL     OW28810   4.623   0.848  13.171 -1.0565  0.1414  0.0025
 5783SOL    HW128811   4.593   0.894  13.249  2.0500  1.9534  0.1213
 5783SOL    HW228812   4.645   0.914  13.105 -1.2767  0.0780 -0.1346
 5784SOL     OW28813   2.165   3.282   1.747 -0.1116 -0.1631 -0.2166
 5784SOL    HW128814   2.247   3.331   1.740 -0.7144  0.8523 -0.1569
 5784SOL    HW228815   2.095   3.345   1.762  0.1877  0.3298 -0.9199
 5785SOL     OW28816   1.590   0.275  13.503  0.4383 -0.0088 -0.1831
 5785SOL    HW128817   1.580   0.354  13.557  0.6156 -0.5854  0.7007
 5785SOL    HW228818   1.497   0.253  13.497  1.2598 -3.0840 -1.3894
 5786SOL     OW28819   1.280   0.410   5.533  0.0193  0.1596  0.0122
 5786SOL    HW128820   1.211   0.344   5.538 -1.4824  1.6431 -1.1358
 5786SOL    HW228821   1.321   0.414   5.619 -1.3762  2.1945  0.5805
 5787SOL     OW28822   4.129   1.239   6.365 -0.0579  0.2582  0.0618
 5787SOL    HW128823   4.146   1.268   6.275  0.4823 -2.2409 -0.6315
 5787SOL    HW228824   4.089   1.154   6.346 -1.5946  1.2344 -1.0607
 5788SOL     OW28825   3.084   4.151   7.969  0.3804 -0.2124 -0.0368
 5788SOL    HW128826   3.148   4.216   7.942 -0.4719 -0.0450 -1.6801
 5788SOL    HW228827   3.005   4.190   7.932  0.9627  0.7985 -0.2137
 5789SOL     OW28828   0.653   0.876   3.253  0.0775  1.0357 -0.1382
 5789SOL    HW128829   0.714   0.931   3.302  2.0952 -0.4895 -0.9329
 5789SOL    HW228830   0.652   0.913   3.164  0.8783 -2.3568 -1.5496
 5790SOL     OW28831   1.815   2.951   4.463  0.0674 -0.2367  0.2128
 5790SOL    HW128832   1.895   2.926   4.416  0.6650  1.7588  0.1666
 5790SOL    HW228833   1.742   2.935   4.404  0.6793 -1.9774 -0.0809
 5791SOL     OW28834   0.769   4.572  10.888 -0.9718  0.1180  0.6597
 5791SOL    HW128835   0.696   4.511  10.893 -0.6116 -0.1909  2.0869
 5791SOL    HW228836   0.744   4.617  10.807 -0.1241 -0.5225  0.0478
 5792SOL     OW28837   3.135   3.547   3.715  0.0749 -0.5607  0.5020
 5792SOL    HW128838   3.087   3.477   3.759  2.3839 -2.4240  0.1059
 5792SOL    HW228839   3.215   3.507   3.680 -1.1226 -0.8183 -1.9198
 5793SOL     OW28840   1.880   2.613   7.276  0.7361  0.4095 -0.5368
 5793SOL    HW128841   1.861   2.525   7.242  2.5216  0.0663 -0.6321
 5793SOL    HW228842   1.885   2.665   7.196  1.6007  1.3873  0.1589
 5794SOL     OW28843   0.219   1.070   4.330  0.5583  0.0895  0.6593
 5794SOL    HW128844   0.197   1.163   4.333 -1.1141 -0.2769  0.1696
 5794SOL    HW228845   0.257   1.056   4.416 -1.1843  0.6885  1.5174
 5795SOL     OW28846   1.090   2.841   1.379  0.2564 -0.0826 -0.8968
 5795SOL    HW128847   1.013   2.811   1.330 -0.0124 -0.8224 -0.0174
 5795SOL    HW228848   1.150   2.817   1.309  0.0290  1.0046 -1.4619
 5796SOL     OW28849   2.413   3.995  11.207  0.2718  0.0997 -0.4056
 5796SOL    HW128850   2.379   4.032  11.126  0.6187  1.2809 -0.0120
 5796SOL    HW228851   2.478   3.931  11.180  0.1023 -0.6352  0.9016
 5797SOL     OW28852   1.723   3.530  13.635  0.0506  0.5815 -0.2590
 5797SOL    HW128853   1.793   3.494  13.689 -0.0233 -2.4636 -2.1849
 5797SOL    HW228854   1.723   3.614  13.680 -1.2672  0.1900  0.4831
 5798SOL     OW28855   4.504   0.619   8.438 -0.3942  0.3533  0.2358
 5798SOL    HW128856   4.495   0.584   8.527  1.8680 -1.5319 -0.2740
 5798SOL    HW228857   4.595   0.647   8.450  0.0786 -1.1636  0.1785
 5799SOL     OW28858   0.819   3.854   1.710  0.6005 -0.6056  0.8447
 5799SOL    HW128859   0.877   3.786   1.675  0.1479 -1.5102  1.8771
 5799SOL    HW228860   0.867   3.877   1.789  1.2325  0.6150  0.1032
 5800SOL     OW28861   0.847   3.045   7.663  0.2535 -0.0035 -0.2576
 5800SOL    HW128862   0.809   3.106   7.599  1.8458  0.6909 -0.5414
 5800SOL    HW228863   0.792   3.060   7.740  1.7295  2.2349  0.3578
 5801SOL     OW28864   3.823   4.653   0.308  0.1778  0.3479 -0.2591
 5801SOL    HW128865   3.752   4.616   0.359  0.5199  2.9349  2.0948
 5801SOL    HW228866   3.894   4.624   0.365  1.2892  4.4413  0.4730
 5802SOL     OW28867   2.313   2.791   4.785 -0.0089 -0.2517  0.5891
 5802SOL    HW128868   2.373   2.806   4.858 -0.0375 -0.3834  0.6374
 5802SOL    HW228869   2.306   2.699   4.763 -0.1666 -0.0147 -0.3604
 5803SOL     OW28870   2.781   2.873   5.239  0.1606 -0.0712  0.3985
 5803SOL    HW128871   2.834   2.928   5.297  3.3036 -0.8004 -1.7757
 5803SOL    HW228872   2.808   2.905   5.153  0.8888 -0.1799  0.5894
 5804SOL     OW28873   0.022   3.385   6.847  0.3722  0.7721 -0.1196
 5804SOL    HW128874   0.071   3.334   6.911 -0.3681  0.5795  0.2889
 5804SOL    HW228875   4.664   3.341   6.846  0.1499  1.1530  2.4089
 5805SOL     OW28876   2.088   2.678   5.777  0.0390 -0.1252  0.3557
 5805SOL    HW128877   2.146   2.626   5.834 -1.5133 -1.7950  0.4164
 5805SOL    HW228878   2.012   2.695   5.833 -0.4238  0.1798 -0.3753
 5806SOL     OW28879   1.083   2.197   7.994  0.3270  0.0320 -0.1951
 5806SOL    HW128880   1.104   2.111   7.956  3.3701  1.4393 -1.6556
 5806SOL    HW228881   1.027   2.238   7.928  1.7839  0.7325 -1.0132
 5807SOL     OW28882   0.592   0.971   8.062 -0.1950 -0.6647 -0.1100
 5807SOL    HW128883   0.628   0.944   7.977  0.0093 -0.3982 -0.1079
 5807SOL    HW228884   0.656   0.931   8.121 -0.1866  1.3661  1.2119
 5808SOL     OW28885   4.707   4.047   5.816 -0.1108  0.2542 -0.3410
 5808SOL    HW128886   4.689   4.096   5.736  0.7337  1.1208  0.0155
 5808SOL    HW228887   0.036   4.101   5.871  1.4503  0.2799 -1.9536
 5809SOL     OW28888   2.470   2.445   6.131  0.1701  0.4917  0.3938
 5809SOL    HW128889   2.564   2.464   6.143  0.3091  1.9055 -2.8008
 5809SOL    HW228890   2.487   2.375   6.069  0.3429 -0.2442  1.2751
 5810SOL     OW28891   0.125   1.106  13.302  0.6556  0.3528 -0.1109
 5810SOL    HW128892   0.181   1.176  13.268  1.6506 -0.9042 -1.0710
 5810SOL    HW228893   0.089   1.143  13.383  1.6470  2.0120 -0.4240
 5811SOL     OW28894   2.645   3.343   3.933 -0.0592  0.2242  0.1254
 5811SOL    HW128895   2.720   3.388   3.970 -0.5521  1.7543 -0.7539
 5811SOL    HW228896   2.578   3.346   4.001 -0.7071 -1.3809 -0.4290
 5812SOL     OW28897   2.201   4.453  14.356  0.0428  0.1636  0.2023
 5812SOL    HW128898   2.256   4.497  14.421 -0.2135  0.9364 -0.1010
 5812SOL    HW228899   2.242   4.481  14.274  1.0408 -0.0358  0.6353
 5813SOL     OW28900   0.602   2.070   3.450 -0.2164  0.0987  0.0665
 5813SOL    HW128901   0.615   2.163   3.434  1.2004  0.3571  2.5679
 5813SOL    HW228902   0.518   2.075   3.495  0.1850  0.7029  0.7605
 5814SOL     OW28903   0.873   1.322   4.362  0.4374 -0.0002  0.3167
 5814SOL    HW128904   0.830   1.241   4.334  1.7669 -0.8523  0.7245
 5814SOL    HW228905   0.955   1.280   4.389  0.6062  0.5805  0.7237
 5815SOL     OW28906   4.080   0.095  15.325 -0.0913  0.2815  0.4363
 5815SOL    HW128907   4.081   0.182  15.365  0.8482  0.7964 -0.7206
 5815SOL    HW228908   4.026   0.043  15.384  1.5923  0.5575  2.2346
 5816SOL     OW28909   2.153   3.986   6.990 -0.4329  0.5592  0.1292
 5816SOL    HW128910   2.177   4.002   6.899 -0.2188 -2.4559 -0.3308
 5816SOL    HW228911   2.058   3.979   6.976 -0.2182 -2.5797  0.3488
 5817SOL     OW28912   3.227   3.593   4.323  0.4493  0.5279 -0.2075
 5817SOL    HW128913   3.229   3.684   4.351 -0.3746 -0.4115  2.9099
 5817SOL    HW228914   3.269   3.551   4.399 -0.4962  2.5100  1.4135
 5818SOL     OW28915   2.946   0.740   8.412 -0.0762 -0.1775 -0.3525
 5818SOL    HW128916   3.026   0.697   8.383  0.8272  1.0703  0.2926
 5818SOL    HW228917   2.912   0.763   8.326 -0.3867 -1.1888 -0.5017
 5819SOL     OW28918   1.722   0.737   4.865  0.1553 -0.2187  1.0907
 5819SOL    HW128919   1.666   0.751   4.788 -1.4194 -1.3632  2.0312
 5819SOL    HW228920   1.779   0.814   4.868 -2.6735  1.8640  1.7142
 5820SOL     OW28921   2.729   4.473   4.511  0.7287 -0.3276  0.2702
 5820SOL    HW128922   2.752   4.513   4.595  1.0540  0.3079 -0.1235
 5820SOL    HW228923   2.736   4.549   4.453 -2.7532  0.8116  1.3532
 5821SOL     OW28924   2.764   0.559   6.159  0.2466 -0.2508  0.0718
 5821SOL    HW128925   2.785   0.507   6.081  0.1510  0.3065 -0.3200
 5821SOL    HW228926   2.760   0.646   6.120 -2.0647 -1.3155 -2.0487
 5822SOL     OW28927   2.866   1.376   3.147 -0.5386  0.1600  0.1985
 5822SOL    HW128928   2.935   1.314   3.170 -1.4818 -1.5719 -1.6125
 5822SOL    HW228929   2.886   1.403   3.057  1.4928  2.0889  1.1947
 5823SOL     OW28930   3.876   0.516   3.261  0.2608  0.9043 -0.2895
 5823SOL    HW128931   3.926   0.543   3.184 -0.7588  1.2181 -0.8461
 5823SOL    HW228932   3.880   0.421   3.250  1.2340  0.5714  3.0446
 5824SOL     OW28933   0.693   2.555   6.178 -0.2413 -0.0259  0.2259
 5824SOL    HW128934   0.781   2.528   6.206 -1.1043 -1.6924  1.3293
 5824SOL    HW228935   0.666   2.487   6.116 -0.7392  0.7410 -0.3868
 5825SOL     OW28936   2.961   0.011   7.181 -1.0653  0.4629 -0.1903
 5825SOL    HW128937   2.869   0.012   7.157 -1.2549  1.8630  0.5645
 5825SOL    HW228938   2.955   4.712   7.273  0.1021  1.4216  0.1602
 5826SOL     OW28939   1.565   0.852   1.860  0.0139  0.4430 -0.1093
 5826SOL    HW128940   1.510   0.930   1.862 -1.3058 -0.4914 -0.4235
 5826SOL    HW228941   1.508   0.780   1.833  0.4369  0.1068 -0.1200
 5827SOL     OW28942   2.510   4.545  10.790  0.6684 -0.2973 -0.3661
 5827SOL    HW128943   2.542   4.455  10.790 -1.0538 -0.9104 -2.0395
 5827SOL    HW228944   2.509   4.566  10.883  2.4051 -0.9780 -0.1872
 5828SOL     OW28945   0.220   3.257  14.872 -0.0211 -0.3745  0.4021
 5828SOL    HW128946   0.273   3.192  14.825  0.7020  1.3462 -1.1354
 5828SOL    HW228947   0.135   3.237  14.834 -0.6522  1.2181  0.9846
 5829SOL     OW28948   3.506   2.444   1.038 -0.0381 -0.0779  0.1252
 5829SOL    HW128949   3.573   2.486   1.093  0.5323 -2.4475  1.2382
 5829SOL    HW228950   3.559   2.401   0.971 -0.4517  1.1338 -0.9877
 5830SOL     OW28951   4.600   1.622  15.843 -0.1640 -0.1247  0.2504
 5830SOL    HW128952   4.573   1.634  15.752 -0.5581 -1.9467  0.1186
 5830SOL    HW228953   4.673   1.562  15.830  0.1362  0.9989 -3.1583
 5831SOL     OW28954   0.506   3.518   9.043  0.0041 -0.2733 -0.3835
 5831SOL    HW128955   0.463   3.534   8.959  0.6537  0.6174 -0.5405
 5831SOL    HW228956   0.451   3.561   9.108 -0.9553 -1.2360 -0.5673
 5832SOL     OW28957   2.334   4.053   2.252 -0.3823 -0.3001  0.8318
 5832SOL    HW128958   2.308   3.993   2.322  0.2431 -0.5557  0.8487
 5832SOL    HW228959   2.351   3.998   2.176 -0.4920 -0.0580  0.6327
 5833SOL     OW28960   4.106   2.344   5.751 -0.5262  0.0568  0.0156
 5833SOL    HW128961   4.179   2.320   5.808 -0.7632 -0.0518  0.2703
 5833SOL    HW228962   4.139   2.424   5.710 -1.6847  1.1337  1.1980
 5834SOL     OW28963   0.447   4.594   4.712  0.2326  0.7506 -0.2984
 5834SOL    HW128964   0.420   4.676   4.754 -2.5563  0.0064 -0.5967
 5834SOL    HW228965   0.540   4.590   4.730  0.5594  1.0877 -1.8525
 5835SOL     OW28966   0.338   1.130   4.715  0.0031  0.1794  0.4303
 5835SOL    HW128967   0.430   1.143   4.738  0.3185  1.1525 -1.3266
 5835SOL    HW228968   0.291   1.212   4.723  1.1589  0.5993  2.7492
 5836SOL     OW28969   2.230   1.512   5.536  0.2055  0.0895  0.5887
 5836SOL    HW128970   2.249   1.603   5.561  0.2176  0.5979 -1.2683
 5836SOL    HW228971   2.182   1.534   5.456  2.7384 -1.6001 -1.4075
 5837SOL     OW28972   0.857   2.417   3.949  0.6333 -0.2899 -0.2329
 5837SOL    HW128973   0.841   2.503   3.989 -0.2353 -1.3133  1.6500
 5837SOL    HW228974   0.798   2.366   4.004 -1.5313  1.9802 -0.4674
 5838SOL     OW28975   4.391   3.259  16.246 -0.2307  0.1161 -0.0661
 5838SOL    HW128976   4.332   3.213  16.305 -1.9806 -1.5521 -3.0985
 5838SOL    HW228977   4.349   3.343  16.226 -1.0602  0.2286  2.1782
 5839SOL     OW28978   3.194   3.873   2.331  0.5132 -0.0957 -0.5711
 5839SOL    HW128979   3.161   3.891   2.242  0.4078 -1.6519 -0.8402
 5839SOL    HW228980   3.149   3.796   2.364 -3.0392  0.2729 -4.5427
 5840SOL     OW28981   1.720   1.588   3.960  0.1405  0.1045 -0.0423
 5840SOL    HW128982   1.690   1.654   3.898 -2.5047  0.0479  1.1989
 5840SOL    HW228983   1.780   1.548   3.896  0.3204 -1.6047  1.1944
 5841SOL     OW28984   2.781   0.531   2.132 -0.6458 -0.0720  0.1894
 5841SOL    HW128985   2.778   0.512   2.226  0.8998 -0.8204  0.0800
 5841SOL    HW228986   2.875   0.526   2.114 -0.0643  2.4142  2.6168
 5842SOL     OW28987   4.378   1.639   5.452 -0.0006 -0.1653 -0.7946
 5842SOL    HW128988   4.367   1.734   5.452 -1.5649 -0.3498 -0.8324
 5842SOL    HW228989   4.361   1.616   5.361  0.9970  1.4932 -1.3924
 5843SOL     OW28990   1.873   0.796   3.680 -0.0745  0.0085 -0.1961
 5843SOL    HW128991   1.823   0.845   3.614 -1.0074 -0.8923 -0.1519
 5843SOL    HW228992   1.941   0.856   3.710  0.3239  0.0193 -1.1040
 5844SOL     OW28993   0.045   2.829   4.112  0.1230  0.1545  0.0075
 5844SOL    HW128994   0.026   2.852   4.021  0.2218  0.2264  0.0057
 5844SOL    HW228995   0.138   2.848   4.101  0.5456 -2.9253 -1.8050
 5845SOL     OW28996   0.550   4.537  17.254 -0.6703 -0.0967 -0.0029
 5845SOL    HW128997   0.624   4.519  17.196  0.2706 -2.4534  1.9153
 5845SOL    HW228998   0.598   4.521  17.335  0.8429 -2.1547 -1.2962
 5846SOL     OW28999   0.211   3.582   2.397 -0.8430  0.0847  0.0994
 5846SOL    HW129000   0.130   3.554   2.354  0.6810 -1.6936 -1.6119
 5846SOL    HW229001   0.199   3.676   2.414  3.3765  0.7115 -0.4019
 5847SOL     OW29002   1.972   4.189   1.842  0.3299 -0.0410  0.4446
 5847SOL    HW129003   2.043   4.180   1.778 -1.1596 -1.2720 -1.0331
 5847SOL    HW229004   1.939   4.276   1.820  0.7105 -0.1000 -0.3844
 5848SOL     OW29005   2.172   2.047   8.854  0.1779 -0.2230  0.2437
 5848SOL    HW129006   2.223   2.079   8.780 -0.3213 -1.3285 -0.5841
 5848SOL    HW229007   2.132   2.128   8.885 -0.7138  0.8086 -3.5419
 5849SOL     OW29008   0.687   0.375   1.058 -0.6286  0.5900  0.5755
 5849SOL    HW129009   0.745   0.406   0.988  0.0088 -0.5858  0.5729
 5849SOL    HW229010   0.732   0.404   1.137  0.3329 -1.5010  0.8017
 5850SOL     OW29011   1.576   4.017   4.957 -0.1182 -0.1410  0.2178
 5850SOL    HW129012   1.541   3.929   4.943 -0.8456  0.3978 -1.4294
 5850SOL    HW229013   1.635   4.000   5.031  1.5697 -0.5256 -1.2155
 5851SOL     OW29014   1.156   4.409  15.182 -0.2508  0.4513 -0.4097
 5851SOL    HW129015   1.093   4.424  15.253 -0.3063 -0.9617 -0.1510
 5851SOL    HW229016   1.232   4.363  15.219 -1.1488 -1.7138 -1.2444
 5852SOL     OW29017   1.085   4.098   9.630  1.1178 -0.1848 -0.3908
 5852SOL    HW129018   1.142   4.086   9.706  1.0853 -1.6204 -0.6041
 5852SOL    HW229019   1.142   4.150   9.574  1.2882  1.8716  1.6875
 5853SOL     OW29020   4.599   4.172  17.029 -0.0629 -0.2538 -0.5124
 5853SOL    HW129021   4.512   4.206  17.008  0.1850 -0.3035 -1.6153
 5853SOL    HW229022   4.646   4.217  16.959  1.4834  1.9367  1.9163
 5854SOL     OW29023   3.043   3.579   4.765  0.3000  0.0582  0.1701
 5854SOL    HW129024   3.002   3.529   4.836 -2.3277  0.4556 -1.0687
 5854SOL    HW229025   2.965   3.583   4.710  1.2797  0.0264 -1.2243
 5855SOL     OW29026   0.088   3.495  15.279  0.3633 -0.5738 -0.0651
 5855SOL    HW129027   0.121   3.428  15.219  0.6913 -1.6003  1.2576
 5855SOL    HW229028   0.153   3.492  15.349 -1.2039 -1.9644  1.3520
 5856SOL     OW29029   0.843   2.389   9.466  0.4628  0.2648 -0.3791
 5856SOL    HW129030   0.781   2.338   9.414 -1.3631  1.2997  0.7709
 5856SOL    HW229031   0.827   2.355   9.554 -1.7531 -1.8524 -1.5997
 5857SOL     OW29032   2.677   3.068  17.472  0.3876 -0.6209 -0.3042
 5857SOL    HW129033   2.761   3.025  17.485  0.5362 -0.7822 -1.8053
 5857SOL    HW229034   2.661   3.045  17.381  1.1596 -0.3991 -0.4971
 5858SOL     OW29035   2.092   3.828  13.770 -1.1416 -0.7285 -0.5454
 5858SOL    HW129036   2.051   3.791  13.692 -2.2219 -2.1606  0.7125
 5858SOL    HW229037   2.172   3.775  13.765  0.1900  1.1175  1.0116
 5859SOL     OW29038   3.010   4.190   4.859  0.5921 -0.4681  0.1747
 5859SOL    HW129039   3.047   4.227   4.779  0.6006 -1.4344 -0.2585
 5859SOL    HW229040   2.959   4.268   4.883  2.2243  1.7220 -3.5181
 5860SOL     OW29041   3.856   0.632   9.802  0.5809  0.0252  0.1637
 5860SOL    HW129042   3.853   0.629   9.897  0.2273  0.3013  0.1645
 5860SOL    HW229043   3.801   0.555   9.787 -1.2237  1.5407 -1.0919
 5861SOL     OW29044   3.978   1.402  16.795 -0.5012  0.1541 -0.4197
 5861SOL    HW129045   4.052   1.434  16.845  0.6420 -0.7403 -1.5243
 5861SOL    HW229046   3.937   1.335  16.850 -3.2666  1.5466 -0.7768
 5862SOL     OW29047   2.637   3.913   6.992 -0.2199  0.3902  0.0784
 5862SOL    HW129048   2.562   3.894   6.936 -1.3297  1.4850  1.2048
 5862SOL    HW229049   2.678   3.990   6.953  0.8112 -0.3306 -0.2651
 5863SOL     OW29050   3.453   2.189   2.260  0.1124  0.1744  0.3939
 5863SOL    HW129051   3.473   2.165   2.350  0.0960 -4.4096 -0.8338
 5863SOL    HW229052   3.374   2.141   2.234 -0.6287  0.5252  1.9799
 5864SOL     OW29053   4.422   4.140   3.395 -0.3909  1.3432 -0.3342
 5864SOL    HW129054   4.372   4.199   3.339 -3.7438 -1.1572 -0.0294
 5864SOL    HW229055   4.506   4.179   3.417 -0.5213  1.1541  0.4992
 5865SOL     OW29056   2.432   4.379   3.793  0.4744 -0.1249 -0.7226
 5865SOL    HW129057   2.474   4.404   3.710 -0.0448  4.2872  0.3693
 5865SOL    HW229058   2.355   4.435   3.801  0.9977  0.7191 -1.5324
 5866SOL     OW29059   3.189   3.588   6.708  0.1190  0.1734 -0.4948
 5866SOL    HW129060   3.190   3.629   6.621  0.2013  0.6535 -0.2677
 5866SOL    HW229061   3.252   3.637   6.761  0.2999 -0.4023 -0.1716
 5867SOL     OW29062   0.767   1.769   3.698 -0.2047  0.0708  0.1912
 5867SOL    HW129063   0.737   1.855   3.668  1.1879  0.1757 -0.9195
 5867SOL    HW229064   0.847   1.794   3.745 -1.3233  3.4493  0.3083
 5868SOL     OW29065   4.368   0.179   9.314  0.0661  0.1855  0.2562
 5868SOL    HW129066   4.295   0.142   9.265  2.2220 -0.7457 -2.2575
 5868SOL    HW229067   4.382   0.115   9.384 -0.8252  3.6401  3.5583
 5869SOL     OW29068   3.569   0.270   8.027 -0.2161 -0.0351  0.1210
 5869SOL    HW129069   3.542   0.179   8.014 -1.7449  0.2779  1.0457
 5869SOL    HW229070   3.609   0.282   7.941 -0.1002 -0.5795  0.0995
 5870SOL     OW29071   4.322   2.451  15.553  0.0738 -0.1330  0.1827
 5870SOL    HW129072   4.265   2.508  15.604  0.9478 -1.3613  2.5275
 5870SOL    HW229073   4.262   2.382  15.526  0.0869 -0.4897  1.0640
 5871SOL     OW29074   0.268   4.091   5.202 -0.0129 -0.2694  0.7547
 5871SOL    HW129075   0.258   4.033   5.127  0.3403 -0.3951  0.8029
 5871SOL    HW229076   0.176   4.106   5.224 -0.5295  0.3127 -1.8599
 5872SOL     OW29077   3.492   2.366   6.266  0.3960 -0.1339  0.2162
 5872SOL    HW129078   3.487   2.447   6.317 -2.4538 -1.4833  2.0326
 5872SOL    HW229079   3.406   2.354   6.227  0.5646 -0.9673  0.0910
 5873SOL     OW29080   3.839   4.458   4.710 -0.0274 -0.1067  0.0559
 5873SOL    HW129081   3.930   4.450   4.680  0.5137  2.7434  0.9194
 5873SOL    HW229082   3.839   4.377   4.762 -1.9808 -1.0278 -1.4080
 5874SOL     OW29083   2.145   1.150   7.102 -0.7375  0.3976 -0.0362
 5874SOL    HW129084   2.052   1.137   7.082 -0.6235  0.8323 -0.8679
 5874SOL    HW229085   2.143   1.240   7.136  2.4673 -0.1009  1.3984
 5875SOL     OW29086   0.180   1.369   5.701 -0.0797 -0.2970 -0.2852
 5875SOL    HW129087   0.270   1.400   5.691 -0.1032 -0.1248  0.0476
 5875SOL    HW229088   0.167   1.349   5.608 -1.8524 -3.9915  0.7843
 5876SOL     OW29089   2.500   4.414   3.530 -0.1255 -0.5716 -0.5967
 5876SOL    HW129090   2.592   4.413   3.505  0.3626  0.8079  1.1136
 5876SOL    HW229091   2.469   4.345   3.472  0.2094  0.5469 -2.0910
 5877SOL     OW29092   1.541   3.449   4.493 -0.2699 -0.4390  0.5688
 5877SOL    HW129093   1.622   3.439   4.445 -1.1557 -1.5537 -0.6823
 5877SOL    HW229094   1.551   3.540   4.522 -1.4631 -0.6256  1.6060
 5878SOL     OW29095   2.689   3.142   9.099 -0.7826  0.0812  0.4435
 5878SOL    HW129096   2.615   3.105   9.052  0.7198 -0.3140 -1.6098
 5878SOL    HW229097   2.708   3.226   9.056  1.2642  0.1105  1.3994
 5879SOL     OW29098   3.239   3.043   0.674 -0.1928  0.1604 -0.0363
 5879SOL    HW129099   3.286   3.079   0.750 -1.5201  1.8866 -0.0411
 5879SOL    HW229100   3.303   2.980   0.639  0.5024  0.0820  1.3543
 5880SOL     OW29101   3.610   2.558  11.518 -0.4074 -0.2041  0.0165
 5880SOL    HW129102   3.602   2.548  11.613  1.1050  0.1694  0.1939
 5880SOL    HW229103   3.626   2.652  11.506 -0.9647 -0.3751 -1.9920
 5881SOL     OW29104   4.394   0.826   6.275  0.0151  0.1287  0.0775
 5881SOL    HW129105   4.438   0.840   6.191  1.4725 -2.8760  0.3374
 5881SOL    HW229106   4.337   0.751   6.258  1.2646 -0.0775 -3.1657
 5882SOL     OW29107   3.580   2.402  14.353 -0.5364  0.1463 -0.1489
 5882SOL    HW129108   3.606   2.376  14.265 -2.3704  0.8065 -0.8909
 5882SOL    HW229109   3.487   2.394  14.330 -0.3469 -0.0512 -0.8565
 5883SOL     OW29110   3.431   2.209   3.166  0.2251 -0.0438  0.9448
 5883SOL    HW129111   3.341   2.231   3.188  0.4884  1.9106  0.0790
 5883SOL    HW229112   3.422   2.114   3.159  1.5392  0.1190 -3.0436
 5884SOL     OW29113   0.097   3.857  11.564 -0.2482  0.4083 -0.2451
 5884SOL    HW129114   0.138   3.941  11.587 -1.3076  0.7894  0.2609
 5884SOL    HW229115   0.004   3.879  11.556 -0.1734  0.6616 -0.4528
 5885SOL     OW29116   3.723   2.919   0.267 -0.2065  0.0945  0.4023
 5885SOL    HW129117   3.801   2.915   0.322 -0.7827 -1.8598  1.0898
 5885SOL    HW229118   3.762   2.970   0.196  0.0642  0.6957  0.9833
 5886SOL     OW29119   4.011   3.059  17.578  0.2220 -0.1529 -0.0402
 5886SOL    HW129120   4.006   3.113  17.499 -1.0894  0.5851  0.5528
 5886SOL    HW229121   4.089   3.006  17.563  2.9966  3.6505  1.1733
 5887SOL     OW29122   3.220   3.951   0.270 -0.1190  0.3137  0.2924
 5887SOL    HW129123   3.256   3.874   0.225  0.3501  0.7477 -0.0724
 5887SOL    HW229124   3.172   3.910   0.342  0.3415 -0.1483  0.3450
 5888SOL     OW29125   3.625   1.964   4.899 -0.0220 -0.3210  0.3724
 5888SOL    HW129126   3.693   1.958   4.832 -0.1755  0.1051  0.1745
 5888SOL    HW229127   3.568   1.893   4.871 -0.3241  0.2372 -0.4506
 5889SOL     OW29128   1.480   0.896  12.705  0.1149  0.2005 -1.4093
 5889SOL    HW129129   1.525   0.880  12.788 -1.5626  0.0755 -0.5027
 5889SOL    HW229130   1.542   0.958  12.667  0.2070 -1.1066 -3.4033
 5890SOL     OW29131   2.780   3.861   9.871  0.6548 -0.0611 -0.1160
 5890SOL    HW129132   2.802   3.945   9.830 -0.2783  0.3434  0.2049
 5890SOL    HW229133   2.745   3.814   9.795  0.4258 -0.8092  0.4559
 5891SOL     OW29134   1.870   0.350   7.492 -0.2524  0.2837 -0.5409
 5891SOL    HW129135   1.872   0.303   7.576 -1.4885 -0.3881 -0.8861
 5891SOL    HW229136   1.915   0.278   7.447  1.3850  0.3180  1.0034
 5892SOL     OW29137   0.187   2.957   0.820 -0.2334 -0.0954  0.1170
 5892SOL    HW129138   0.209   2.941   0.728 -1.2507  0.5413 -0.2334
 5892SOL    HW229139   0.271   2.972   0.864 -0.2275  1.7889 -0.5448
 5893SOL     OW29140   2.504   2.662   6.700 -0.5653  0.3535 -0.3341
 5893SOL    HW129141   2.534   2.600   6.767 -0.8052  0.1546 -0.4086
 5893SOL    HW229142   2.576   2.723   6.685  0.6005 -0.6840  0.9455
 5894SOL     OW29143   0.876   0.435  15.111 -0.0130 -0.0543  0.3815
 5894SOL    HW129144   0.822   0.476  15.044 -0.6837  0.3635  1.1857
 5894SOL    HW229145   0.911   0.365  15.055  0.8173 -0.0752  0.9226
 5895SOL     OW29146   3.820   3.552   1.657 -0.5324 -0.0383  0.2636
 5895SOL    HW129147   3.773   3.552   1.573  0.0271 -2.2162 -0.0423
 5895SOL    HW229148   3.904   3.511   1.636 -0.4685 -1.1532  2.6844
 5896SOL     OW29149   1.218   2.737   3.191 -0.1750  0.0122  0.1167
 5896SOL    HW129150   1.279   2.711   3.123  0.6762 -1.7759  1.5419
 5896SOL    HW229151   1.266   2.802   3.242 -2.4662  1.1649  0.7803
 5897SOL     OW29152   2.512   4.582   4.139 -0.0516  0.0275  0.1529
 5897SOL    HW129153   2.490   4.620   4.054  2.2916  0.1499 -0.3986
 5897SOL    HW229154   2.591   4.633   4.159 -0.5100  0.7602  0.1214
 5898SOL     OW29155   2.404   0.455  15.565  0.1598 -0.3394 -0.3351
 5898SOL    HW129156   2.405   0.541  15.607  1.4909 -0.3676 -0.3220
 5898SOL    HW229157   2.308   0.452  15.568  0.1676  1.0670  1.0249
 5899SOL     OW29158   0.279   2.473   0.493 -0.3558 -0.5424 -0.4095
 5899SOL    HW129159   0.243   2.562   0.488 -1.0237 -0.7686  0.4037
 5899SOL    HW229160   0.366   2.496   0.524 -0.0972 -0.0138 -1.5108
 5900SOL     OW29161   1.757   2.679  11.897  0.2494 -0.4322  0.0471
 5900SOL    HW129162   1.839   2.652  11.857  0.3631  0.5503 -0.3833
 5900SOL    HW229163   1.766   2.662  11.991  0.2046 -1.5650 -0.1554
 5901SOL     OW29164   3.356   2.688   2.393 -0.0292  0.0796  0.2559
 5901SOL    HW129165   3.431   2.717   2.343  1.5089 -4.0153  0.1319
 5901SOL    HW229166   3.362   2.593   2.379  0.7373  0.2774 -0.7173
 5902SOL     OW29167   0.877   0.248   4.209 -0.0818 -0.3663 -0.2279
 5902SOL    HW129168   0.840   0.196   4.280 -0.2271  2.1233  1.5272
 5902SOL    HW229169   0.800   0.262   4.154 -0.7892 -1.8055  0.4029
 5903SOL     OW29170   1.817   1.700  16.866  0.4514  0.5995 -0.2288
 5903SOL    HW129171   1.864   1.771  16.822  1.4405 -0.7484 -1.3352
 5903SOL    HW229172   1.727   1.696  16.835  0.7542  3.5452 -1.4672
 5904SOL     OW29173   2.809   2.085   6.378 -0.5001  0.1684  0.4569
 5904SOL    HW129174   2.726   2.130   6.362 -0.5304  0.6593  2.0188
 5904SOL    HW229175   2.872   2.129   6.320 -0.3662 -0.3561  0.2068
 5905SOL     OW29176   3.096   0.798   6.592  0.3968 -0.3068  0.2597
 5905SOL    HW129177   3.097   0.710   6.629 -0.9830  0.2926  1.7113
 5905SOL    HW229178   3.117   0.779   6.500 -2.0051 -1.7401  0.0090
 5906SOL     OW29179   1.831   1.646   6.383 -0.2750  0.3972 -0.0718
 5906SOL    HW129180   1.819   1.580   6.314  1.2349 -0.1368  0.1845
 5906SOL    HW229181   1.918   1.680   6.363 -0.1480 -0.1288 -0.4197
 5907SOL     OW29182   0.870   3.788   5.258  0.5414  0.4085 -0.0275
 5907SOL    HW129183   0.814   3.861   5.285 -1.2520 -1.3601  1.0458
 5907SOL    HW229184   0.842   3.713   5.311  0.2908  0.0620 -0.6525
 5908SOL     OW29185   4.481   0.630   6.011  0.4989  0.2677  0.3365
 5908SOL    HW129186   4.571   0.638   6.042  0.4876 -0.7888  0.6462
 5908SOL    HW229187   4.457   0.722   6.002  1.7064  0.5451 -0.0507
 5909SOL     OW29188   4.413   2.697  16.065  0.3439  0.1824  0.2037
 5909SOL    HW129189   4.478   2.768  16.067 -0.9005  1.2858  1.1620
 5909SOL    HW229190   4.454   2.634  16.005  0.9559  1.0151 -0.2641
 5910SOL     OW29191   4.353   0.826   8.632  0.3295  0.2761 -0.1320
 5910SOL    HW129192   4.333   0.761   8.564  0.8319  0.1959 -0.2013
 5910SOL    HW229193   4.420   0.869   8.578 -0.8254  1.8081 -0.3506
 5911SOL     OW29194   2.603   1.003   6.609 -0.0035  0.5249  0.2600
 5911SOL    HW129195   2.559   0.989   6.693 -0.5160  1.9357  0.2347
 5911SOL    HW229196   2.650   0.920   6.611 -0.2360  0.3360 -1.9704
 5912SOL     OW29197   2.012   3.529  15.340  0.3345 -0.0004 -0.2935
 5912SOL    HW129198   1.964   3.556  15.418 -0.6787  0.3264 -1.0283
 5912SOL    HW229199   2.033   3.438  15.362 -2.4378 -1.0325 -1.9183
 5913SOL     OW29200   4.122   0.173   3.902 -0.2556 -0.4116  0.2222
 5913SOL    HW129201   4.162   0.220   3.975  2.3543 -2.3614  0.0475
 5913SOL    HW229202   4.168   0.205   3.824 -1.3870 -1.0660 -0.7134
 5914SOL     OW29203   1.225   2.778   7.353  0.2887 -0.4380  0.4615
 5914SOL    HW129204   1.238   2.862   7.396  1.2791 -0.3845  0.0378
 5914SOL    HW229205   1.291   2.733   7.406  2.4204  0.2251 -1.6343
 5915SOL     OW29206   4.399   2.727  14.893 -0.1422 -0.0023 -0.5116
 5915SOL    HW129207   4.310   2.691  14.890  0.8857 -2.5270 -0.1503
 5915SOL    HW229208   4.441   2.676  14.824 -1.8423 -1.7222 -0.2885
 5916SOL     OW29209   4.688   1.834   7.776 -0.0427  0.2652  0.4175
 5916SOL    HW129210   0.037   1.885   7.803  1.7099 -2.5920  0.9219
 5916SOL    HW229211   0.005   1.752   7.752 -1.5632 -0.6647  0.7750
 5917SOL     OW29212   2.104   1.917  17.475 -0.4044 -0.1026  0.0312
 5917SOL    HW129213   2.091   1.979  17.547  3.2182  2.3566 -1.4243
 5917SOL    HW229214   2.014   1.906  17.444  0.0721 -0.4631 -1.2248
 5918SOL     OW29215   0.774   3.702   2.639  0.2265 -0.4669  0.0342
 5918SOL    HW129216   0.762   3.721   2.732 -0.6913  1.6726 -0.5292
 5918SOL    HW229217   0.764   3.607   2.647  1.3602 -0.6258 -0.4362
 5919SOL     OW29218   0.176   4.364   7.827 -0.0132 -0.4212  0.8181
 5919SOL    HW129219   0.176   4.458   7.843 -0.6467 -0.1134 -0.9758
 5919SOL    HW229220   0.107   4.329   7.884  1.2952  0.0490  2.6928
 5920SOL     OW29221   1.197   3.355  12.059 -0.4254  0.1030 -0.1641
 5920SOL    HW129222   1.106   3.381  12.072 -0.5795 -0.7230  0.4159
 5920SOL    HW229223   1.243   3.432  12.026 -0.9940 -0.2084 -1.7002
 5921SOL     OW29224   4.446   2.276  15.783 -0.0980  0.0685 -0.0345
 5921SOL    HW129225   4.424   2.183  15.780 -0.8574  0.2496  0.0568
 5921SOL    HW229226   4.418   2.297  15.694 -0.2518 -2.0378 -0.4955
 5922SOL     OW29227   0.899   3.401   7.610  0.4632 -0.4510  0.1778
 5922SOL    HW129228   0.851   3.474   7.570  3.3373  0.9958 -0.5660
 5922SOL    HW229229   0.890   3.332   7.543 -0.3017  0.5092 -0.7051
 5923SOL     OW29230   3.854   2.667   2.710  0.0307  0.7203  0.3349
 5923SOL    HW129231   3.854   2.625   2.625  0.0624  0.8587  0.2663
 5923SOL    HW229232   3.872   2.600   2.775  1.0892 -0.4549 -1.1884
 5924SOL     OW29233   4.044   3.891   2.031  0.0186  0.0504  0.1554
 5924SOL    HW129234   4.108   3.934   1.974  1.0823 -0.6323  0.8190
 5924SOL    HW229235   4.010   3.818   1.979 -0.7670  0.4123  0.1637
 5925SOL     OW29236   4.218   1.036   2.955 -0.3057 -0.1535  0.0458
 5925SOL    HW129237   4.272   1.111   2.980 -1.6061  0.5118  0.8920
 5925SOL    HW229238   4.284   0.968   2.941 -0.4651 -0.6343  1.6220
 5926SOL     OW29239   1.029   2.555   8.026 -0.6954  0.2031 -0.2758
 5926SOL    HW129240   1.037   2.497   8.101 -1.8637  1.0478  0.4987
 5926SOL    HW229241   1.001   2.626   8.083  0.3960  1.1542 -0.8984
 5927SOL     OW29242   0.305   2.412   4.073 -0.4873  0.0030  0.1232
 5927SOL    HW129243   0.265   2.458   3.998 -0.5644 -1.4073 -0.6943
 5927SOL    HW229244   0.371   2.466   4.117  0.1664 -0.3968 -0.3678
 5928SOL     OW29245   2.154   3.075   0.562  0.5448  0.1089 -0.7692
 5928SOL    HW129246   2.124   3.166   0.572  2.0748  0.6765 -1.4224
 5928SOL    HW229247   2.174   3.071   0.468  2.9991 -2.1270 -0.1279
 5929SOL     OW29248   0.870   0.838   6.369 -0.1048  0.7660  0.1983
 5929SOL    HW129249   0.895   0.875   6.284 -2.4443  1.2389 -0.2889
 5929SOL    HW229250   0.789   0.799   6.336  0.8579  0.1255 -1.4327
 5930SOL     OW29251   2.009   1.484   2.589 -0.2624 -0.2240  0.2267
 5930SOL    HW129252   1.948   1.556   2.574 -1.5706 -1.3833  0.0271
 5930SOL    HW229253   2.057   1.478   2.507  0.6283  0.0863  0.7193
 5931SOL     OW29254   0.562   3.298   2.591  0.2267  0.5013 -0.2402
 5931SOL    HW129255   0.565   3.203   2.596 -2.5700  0.5357  2.1152
 5931SOL    HW229256   0.530   3.325   2.677  1.2376  0.5549  0.1308
 5932SOL     OW29257   2.355   3.848   7.181  0.1299 -0.7382 -0.0847
 5932SOL    HW129258   2.424   3.907   7.152  0.1509 -0.1280  1.2186
 5932SOL    HW229259   2.280   3.878   7.130 -0.8596  0.1038  1.8624
 5933SOL     OW29260   2.737   0.449   7.764 -0.3242  0.0258 -0.3779
 5933SOL    HW129261   2.787   0.531   7.760 -0.3670  0.1309  0.9424
 5933SOL    HW229262   2.778   0.410   7.688 -0.7492  0.1798 -0.6878
 5934SOL     OW29263   0.433   3.073   3.008 -0.1203 -0.3604 -0.5524
 5934SOL    HW129264   0.499   3.004   3.000 -0.2258 -0.6782  1.2570
 5934SOL    HW229265   0.393   3.056   2.923  1.4350 -2.7722 -0.8070
 5935SOL     OW29266   0.110   1.653   9.197 -0.2985 -0.2715  0.1588
 5935SOL    HW129267   0.076   1.655   9.108  0.3711 -0.4531 -0.0993
 5935SOL    HW229268   0.196   1.613   9.184 -1.5484 -2.6473 -0.8720
 5936SOL     OW29269   0.441   0.876   4.299 -0.2816 -0.1562 -0.0624
 5936SOL    HW129270   0.502   0.831   4.358 -1.2194  1.5458  2.2077
 5936SOL    HW229271   0.460   0.969   4.315  2.0086 -1.1210  2.8034
 5937SOL     OW29272   3.484   0.929  11.818  0.0527 -0.1659  0.1722
 5937SOL    HW129273   3.486   0.880  11.900 -0.9126  0.2238  0.4313
 5937SOL    HW229274   3.423   0.875  11.768  0.2838  2.0597 -2.5152
 5938SOL     OW29275   2.186   2.055   1.873 -0.2435 -0.3446  0.4811
 5938SOL    HW129276   2.136   2.034   1.952 -0.4796 -2.4715 -0.2412
 5938SOL    HW229277   2.272   2.034   1.911 -0.6259 -0.5996  1.2012
 5939SOL     OW29278   3.600   2.184   6.430  0.2228 -0.0220  0.4207
 5939SOL    HW129279   3.546   2.217   6.502 -1.3158 -0.1217 -0.6907
 5939SOL    HW229280   3.553   2.211   6.352 -2.2531 -3.9544  0.5258
 5940SOL     OW29281   1.595   1.789   7.760  0.0152 -0.6863  1.1510
 5940SOL    HW129282   1.682   1.794   7.719  0.2096 -0.8310  1.5520
 5940SOL    HW229283   1.601   1.845   7.837 -0.2440 -0.8250  1.2685
 5941SOL     OW29284   0.490   0.412   7.647  0.2030  0.5444  0.2536
 5941SOL    HW129285   0.467   0.385   7.736 -1.0691  1.3134  0.1687
 5941SOL    HW229286   0.534   0.494   7.669 -1.3737  0.6463  2.9845
 5942SOL     OW29287   3.512   2.176  10.359 -0.3721  0.0267 -0.5338
 5942SOL    HW129288   3.459   2.111  10.311 -1.6383 -0.4992  1.5588
 5942SOL    HW229289   3.564   2.194  10.281  0.0558  0.8446 -0.0545
 5943SOL     OW29290   2.722   2.460   6.619  0.4074  0.3142 -0.1159
 5943SOL    HW129291   2.642   2.499   6.585 -0.4565 -0.2899  1.1870
 5943SOL    HW229292   2.749   2.511   6.695 -1.0788 -0.6674  1.0748
 5944SOL     OW29293   1.397   1.456   6.438  0.2594  0.5790  0.1548
 5944SOL    HW129294   1.390   1.549   6.415  0.0715  0.4263 -0.3886
 5944SOL    HW229295   1.449   1.469   6.518  0.4380  1.2880 -0.0714
 5945SOL     OW29296   3.885   4.705  16.370  0.0093  0.5505 -0.0281
 5945SOL    HW129297   3.953   4.653  16.328 -2.0102 -0.3694 -2.1382
 5945SOL    HW229298   3.806   4.680  16.322 -0.2292 -1.6979  1.5052
 5946SOL     OW29299   0.407   2.679  15.041 -0.0458  0.1971  0.1713
 5946SOL    HW129300   0.407   2.609  15.106  1.0668  0.6417  0.6523
 5946SOL    HW229301   0.422   2.752  15.101  3.6264  0.5467 -1.1415
 5947SOL     OW29302   4.199   2.012   8.021  0.3250  0.2419 -0.3014
 5947SOL    HW129303   4.252   2.022   7.942 -0.5035 -0.4457 -0.9426
 5947SOL    HW229304   4.222   2.087   8.076 -0.3751 -0.0883  0.4258
 5948SOL     OW29305   4.312   2.975  17.575 -0.1509  0.0002  0.4908
 5948SOL    HW129306   4.283   2.903  17.518  0.1904 -0.4787  0.9136
 5948SOL    HW229307   4.393   2.935  17.609 -1.2491 -2.9796 -0.3575
 5949SOL     OW29308   2.766   4.205   3.421 -0.0594  0.4923 -0.2958
 5949SOL    HW129309   2.681   4.182   3.384 -0.8552  0.6972  1.4083
 5949SOL    HW229310   2.798   4.270   3.359  1.1220  0.8100  0.6510
 5950SOL     OW29311   3.972   0.462   2.368 -0.2775  0.5007 -0.3042
 5950SOL    HW129312   4.046   0.463   2.429  1.0164  2.0489 -1.8864
 5950SOL    HW229313   3.976   0.555   2.346  0.4443  0.5237 -0.0856
 5951SOL     OW29314   3.412   4.665   5.099  0.3098 -0.0788 -0.1118
 5951SOL    HW129315   3.355   4.609   5.152  0.3737 -1.0039 -1.0171
 5951SOL    HW229316   3.491   4.617   5.075  0.5979 -0.5574  1.8473
 5952SOL     OW29317   0.089   2.537   5.924 -0.3103  0.3667  0.0868
 5952SOL    HW129318   0.035   2.550   6.002  0.1807 -1.9512  0.8190
 5952SOL    HW229319   0.071   2.447   5.896 -1.7512  1.0204 -1.1119
 5953SOL     OW29320   3.282   2.519   6.567 -0.2755 -0.2125 -0.0266
 5953SOL    HW129321   3.217   2.584   6.541  0.4371  0.4319 -0.2045
 5953SOL    HW229322   3.229   2.444   6.541 -2.0437  0.7459  0.8328
 5954SOL     OW29323   0.922   3.261  12.111  0.4233  0.3360  0.3579
 5954SOL    HW129324   0.855   3.304  12.164 -0.3507 -1.3423  0.7429
 5954SOL    HW229325   0.877   3.257  12.027 -0.3481 -1.1129  0.8425
 5955SOL     OW29326   4.647   3.813   8.180  0.6343  0.2134  0.4640
 5955SOL    HW129327   4.700   3.801   8.101  0.7067  0.0848  0.5326
 5955SOL    HW229328   4.632   3.907   8.183  3.2745  0.5864  2.0215
 5956SOL     OW29329   2.626   0.115   9.971 -0.0326  0.2102  0.6217
 5956SOL    HW129330   2.572   0.180  10.015  0.8226  1.0413  0.4364
 5956SOL    HW229331   2.670   0.073  10.045 -1.9331 -3.6019 -0.4025
 5957SOL     OW29332   3.021   2.372   1.333  0.6192 -0.2990  0.4710
 5957SOL    HW129333   3.055   2.309   1.396  2.0439 -0.5334 -0.5318
 5957SOL    HW229334   3.082   2.444   1.352  0.0186  0.4329 -0.3410
 5958SOL     OW29335   3.595   2.050   5.278  0.3646  0.4312 -0.1742
 5958SOL    HW129336   3.530   2.074   5.344 -0.3581 -1.0243 -0.3461
 5958SOL    HW229337   3.578   1.956   5.284  0.4473  0.2949 -2.0005
 5959SOL     OW29338   2.216   1.363   8.320  0.5865 -0.3508  0.0925
 5959SOL    HW129339   2.253   1.383   8.234 -1.1910  2.2473 -0.0760
 5959SOL    HW229340   2.228   1.430   8.388  1.4156 -0.7764  0.3727
 5960SOL     OW29341   1.602   2.291   6.552 -0.7925 -0.0727 -0.0031
 5960SOL    HW129342   1.560   2.345   6.618  2.0577  1.4504  0.5486
 5960SOL    HW229343   1.665   2.242   6.605 -1.2192 -0.5497  0.0657
 5961SOL     OW29344   1.191   0.864   5.415  0.3560  0.3043 -0.4264
 5961SOL    HW129345   1.210   0.803   5.344 -2.1604  0.9243 -1.6497
 5961SOL    HW229346   1.219   0.949   5.380  0.1358  0.1943 -0.8585
 5962SOL     OW29347   4.342   4.072   6.957  0.2133  0.0745  0.2603
 5962SOL    HW129348   4.320   3.981   6.939  0.5451 -0.1321  0.9087
 5962SOL    HW229349   4.426   4.075   6.912  0.3820  1.4380  0.6507
 5963SOL     OW29350   3.497   4.656   2.182 -0.0993 -0.3136 -0.3290
 5963SOL    HW129351   3.530   4.567   2.168 -2.4027 -1.2726  0.3637
 5963SOL    HW229352   3.410   4.654   2.143  0.8783  0.3453 -2.5374
 5964SOL     OW29353   2.479   1.908  10.277  0.0892  0.3019 -0.3078
 5964SOL    HW129354   2.415   1.960  10.326  1.6814  1.8041  0.2009
 5964SOL    HW229355   2.467   1.938  10.187  0.1692 -0.8964 -0.7252
 5965SOL     OW29356   2.924   2.525   9.403 -0.3088 -0.9823  0.2354
 5965SOL    HW129357   2.892   2.614   9.414 -3.6007 -1.7829 -2.9226
 5965SOL    HW229358   2.904   2.512   9.311 -0.6090  1.5409 -0.0439
 5966SOL     OW29359   2.052   0.006   4.110  0.0145 -0.0446  0.0162
 5966SOL    HW129360   2.129   4.679   4.128  0.3865  0.8226  1.0172
 5966SOL    HW229361   1.988   4.674   4.150 -1.1377  2.4080  1.7691
 5967SOL     OW29362   0.072   1.462  15.756 -0.1028 -0.2147  0.2593
 5967SOL    HW129363   0.143   1.426  15.703  0.7452  1.2144  0.4254
 5967SOL    HW229364   0.045   1.382  15.801 -1.6757  0.5054  0.6157
 5968SOL     OW29365   3.260   1.804   7.107 -0.1818  0.3234  0.6577
 5968SOL    HW129366   3.347   1.766   7.097 -0.1193  0.2265  1.5770
 5968SOL    HW229367   3.265   1.899   7.108  0.7028  0.2844 -1.4535
 5969SOL     OW29368   1.409   0.816  16.937  0.3764 -0.4697  0.3076
 5969SOL    HW129369   1.459   0.875  16.993  0.8914 -0.2363 -0.3943
 5969SOL    HW229370   1.451   0.736  16.967  0.2672 -0.5256  0.3099
 5970SOL     OW29371   4.208   2.315   4.147  0.6389  0.5902 -0.6470
 5970SOL    HW129372   4.254   2.394   4.174  2.1478 -0.3955 -0.3419
 5970SOL    HW229373   4.159   2.340   4.069 -2.4977  0.7600  1.3475
 5971SOL     OW29374   3.520   4.371   0.879 -0.7927 -0.2050  0.2835
 5971SOL    HW129375   3.517   4.422   0.798 -0.3144 -0.9473 -0.2039
 5971SOL    HW229376   3.551   4.289   0.841  2.0285  0.0771  1.9568
 5972SOL     OW29377   2.557   0.513   6.373 -0.1745 -0.2066 -0.2623
 5972SOL    HW129378   2.524   0.550   6.292  0.9339  1.7281  0.1869
 5972SOL    HW229379   2.616   0.584   6.398 -1.4504  0.7049  0.1383
 5973SOL     OW29380   0.868   1.483   4.815 -0.3054  0.4830  0.0326
 5973SOL    HW129381   0.882   1.469   4.909  0.1700 -1.2138 -0.2891
 5973SOL    HW229382   0.912   1.567   4.802  0.7974 -0.6347 -3.4533
 5974SOL     OW29383   3.359   1.622   0.178  0.4843 -0.1979  0.6280
 5974SOL    HW129384   3.403   1.703   0.203 -1.4608  1.7773 -2.2981
 5974SOL    HW229385   3.299   1.622   0.252 -0.3948 -0.5917 -0.0858
 5975SOL     OW29386   2.477   2.892   5.727  0.4610  0.2614  0.5690
 5975SOL    HW129387   2.520   2.968   5.688  0.2455  0.1377  0.0944
 5975SOL    HW229388   2.394   2.927   5.757 -0.0657 -1.2367  0.8397
 5976SOL     OW29389   3.786   3.237   4.867  0.0010  0.1823 -0.1752
 5976SOL    HW129390   3.818   3.218   4.955  0.5743 -2.7338 -1.0301
 5976SOL    HW229391   3.748   3.150   4.857 -1.4646  1.0902 -2.3506
 5977SOL     OW29392   2.176   3.339  13.568 -0.3642 -0.1304  0.0244
 5977SOL    HW129393   2.187   3.289  13.487  1.2952 -0.9168  0.7406
 5977SOL    HW229394   2.241   3.407  13.551 -0.2045 -0.9427 -2.6540
 5978SOL     OW29395   2.979   1.989   6.625  0.4684 -0.4731 -0.5072
 5978SOL    HW129396   2.945   1.972   6.713  1.9371  1.2748  0.3866
 5978SOL    HW229397   2.901   1.998   6.571 -1.4158 -0.6724  2.1482
 5979SOL     OW29398   1.686   2.574  15.596 -0.6474 -0.2851 -0.0176
 5979SOL    HW129399   1.747   2.545  15.527 -0.8642  1.6246 -1.0069
 5979SOL    HW229400   1.748   2.592  15.666 -3.2818  1.7529  1.7507
 5980SOL     OW29401   0.508   4.700  11.859 -0.0992 -0.3684 -0.3611
 5980SOL    HW129402   0.440   4.670  11.919  2.3623 -0.8466  2.1469
 5980SOL    HW229403   0.516   4.632  11.792  1.8497  0.3801 -0.8977
 5981SOL     OW29404   1.975   3.859  13.357 -0.2699 -0.0272 -0.3197
 5981SOL    HW129405   1.964   3.948  13.325  0.0670  0.0797 -0.1342
 5981SOL    HW229406   1.971   3.804  13.279  0.6858 -1.9650  0.9969
 5982SOL     OW29407   3.740   1.754   5.564  0.0827 -0.4554  0.4503
 5982SOL    HW129408   3.793   1.776   5.641 -0.3580  0.8293  0.4008
 5982SOL    HW229409   3.668   1.814   5.580  1.2576  1.1950 -0.3824
 5983SOL     OW29410   3.708   1.300   8.331 -0.0541 -0.1008  0.2034
 5983SOL    HW129411   3.705   1.292   8.236  0.1596  2.3599 -0.0084
 5983SOL    HW229412   3.764   1.376   8.340  0.5395 -0.4847 -0.2844
 5984SOL     OW29413   1.868   3.324   7.021 -0.0932 -0.3033  0.2337
 5984SOL    HW129414   1.928   3.370   7.080  0.9892 -1.5774  0.1259
 5984SOL    HW229415   1.919   3.281   6.952  0.0943  0.1583  0.0879
 5985SOL     OW29416   4.088   4.635   3.857  0.2898  0.3229 -0.1707
 5985SOL    HW129417   4.130   4.628   3.771 -2.1061 -0.9924 -1.2288
 5985SOL    HW229418   4.108   4.725   3.885 -0.4010  0.5176 -0.2936
 5986SOL     OW29419   3.434   0.269   7.012  0.4710  0.0802  0.0765
 5986SOL    HW129420   3.505   0.332   7.012  0.4274  0.1305  0.7634
 5986SOL    HW229421   3.418   0.261   7.106  1.6260 -1.3305  0.1635
 5987SOL     OW29422   0.195   0.060   0.895 -0.6761  0.0815  0.3194
 5987SOL    HW129423   0.185   4.692   0.886  1.8086 -0.0403 -1.1947
 5987SOL    HW229424   0.122   0.075   0.954 -1.6203  0.7843 -1.0415
 5988SOL     OW29425   3.843   2.529   7.323 -0.6598 -0.1604  0.0055
 5988SOL    HW129426   3.831   2.562   7.412 -0.6291  1.0057 -0.4174
 5988SOL    HW229427   3.782   2.456   7.331 -0.2577 -0.5367 -0.3998
 5989SOL     OW29428   3.503   4.175  10.769 -0.2013  0.6681 -0.5275
 5989SOL    HW129429   3.579   4.124  10.799 -1.5421 -0.5465  0.7931
 5989SOL    HW229430   3.491   4.147  10.678  1.3746  1.7213 -1.0766
 5990SOL     OW29431   1.473   1.479   3.760  0.3404 -0.6680  0.4546
 5990SOL    HW129432   1.524   1.560   3.758 -0.1580 -0.3080  2.2004
 5990SOL    HW229433   1.431   1.464   3.675 -0.5695  1.1925  0.5849
 5991SOL     OW29434   4.710   1.300  11.919 -0.4556  0.2058  0.2004
 5991SOL    HW129435   0.066   1.252  11.908 -0.8219 -0.2841 -0.4528
 5991SOL    HW229436   4.644   1.231  11.916 -0.6221  0.3093  1.9657
 5992SOL     OW29437   0.558   2.779   8.111 -0.0213  0.1040  0.1320
 5992SOL    HW129438   0.526   2.751   8.196  0.7496 -0.6523  0.1701
 5992SOL    HW229439   0.486   2.838   8.086 -0.9272 -0.4458  1.5041
 5993SOL     OW29440   1.609   3.625  10.079 -0.2085 -0.1263  0.2655
 5993SOL    HW129441   1.540   3.691  10.070  0.0406  0.3488  1.8080
 5993SOL    HW229442   1.689   3.675  10.088  0.0367 -0.0820 -2.0672
 5994SOL     OW29443   2.124   3.953   4.477  0.1131 -0.2993 -0.0432
 5994SOL    HW129444   2.108   3.859   4.470 -0.6582 -0.3139  1.9116
 5994SOL    HW229445   2.155   3.959   4.568 -0.8190  0.8516  0.2092
 5995SOL     OW29446   1.447   3.701   2.902 -0.3661  0.2448  0.3953
 5995SOL    HW129447   1.380   3.760   2.868  1.4967  1.6339 -0.8454
 5995SOL    HW229448   1.519   3.722   2.842 -0.4579  2.4425  1.0647
 5996SOL     OW29449   1.948   1.899   5.594  0.0018 -0.0877  0.3294
 5996SOL    HW129450   1.875   1.961   5.593 -0.3018 -0.4588 -1.2440
 5996SOL    HW229451   1.993   1.939   5.668 -1.3355  2.5221 -0.2767
 5997SOL     OW29452   0.489   3.877  16.545  0.1811  0.0643  0.0862
 5997SOL    HW129453   0.555   3.918  16.489  1.1860  0.1776  1.3774
 5997SOL    HW229454   0.467   3.805  16.485  1.5833 -0.3328  0.0557
 5998SOL     OW29455   4.151   4.091  16.895  0.1451 -0.0725 -0.0792
 5998SOL    HW129456   4.179   4.078  16.986 -2.3991 -3.0090  0.2460
 5998SOL    HW229457   4.203   4.030  16.843  1.6633  1.8579 -0.8623
 5999SOL     OW29458   1.083   2.277   8.880 -0.0502  0.3794  0.0776
 5999SOL    HW129459   1.125   2.193   8.860  1.0638  1.0431 -0.3892
 5999SOL    HW229460   1.147   2.318   8.939  0.1286  0.9951 -0.5432
 6000SOL     OW29461   1.997   0.071   8.633  0.3173  0.1879  0.2770
 6000SOL    HW129462   1.985   0.065   8.538  1.2122 -0.0424  0.1723
 6000SOL    HW229463   1.919   0.033   8.672 -0.2210 -0.2457 -1.2234
 6001SOL     OW29464   0.475   0.072  11.120  0.0099 -0.6695  0.5140
 6001SOL    HW129465   0.561   0.055  11.081  0.4275  2.3446  0.1289
 6001SOL    HW229466   0.494   0.148  11.175  2.2037 -0.0629 -1.0628
 6002SOL     OW29467   4.627   3.247   8.824 -0.4722  0.0843  0.1962
 6002SOL    HW129468   4.571   3.186   8.873 -0.1284  0.5281  1.1596
 6002SOL    HW229469   4.578   3.329   8.819 -0.4238  0.3227  3.4348
 6003SOL     OW29470   0.462   0.863   5.574  0.1335  0.0994 -0.3497
 6003SOL    HW129471   0.511   0.786   5.547  1.2134  0.2878  1.0813
 6003SOL    HW229472   0.432   0.893   5.489  1.5556 -0.8772 -1.1973
 6004SOL     OW29473   4.019   3.132   6.421  0.2126 -0.6191 -0.3208
 6004SOL    HW129474   4.065   3.134   6.337  2.8666 -0.3374  1.1489
 6004SOL    HW229475   4.004   3.225   6.440  2.7221 -0.1503 -0.6511
 6005SOL     OW29476   0.342   0.339  16.868 -0.6633  0.3628  0.0902
 6005SOL    HW129477   0.325   0.433  16.875  0.4798  0.3852  2.4308
 6005SOL    HW229478   0.300   0.304  16.946  1.3820  0.9313  1.4433
 6006SOL     OW29479   0.216   4.045   4.507  0.7820  0.2411 -0.8601
 6006SOL    HW129480   0.130   4.085   4.501  0.8196  0.5202  0.5635
 6006SOL    HW229481   0.229   4.016   4.416  1.2736  0.6750 -0.9294
 6007SOL     OW29482   0.580   3.221  11.934  0.4799  0.3506  0.4204
 6007SOL    HW129483   0.666   3.254  11.906  1.5992 -1.4676  1.7703
 6007SOL    HW229484   0.517   3.261  11.874 -2.1111 -1.1908  2.1078
 6008SOL     OW29485   3.990   2.757   5.941  0.1951  0.6360  0.6242
 6008SOL    HW129486   3.937   2.688   5.982  2.0782 -0.2484  1.5782
 6008SOL    HW229487   3.961   2.827   6.000  0.5578 -0.6597  2.3574
 6009SOL     OW29488   0.702   1.080   3.552 -0.0255  0.2715  0.1344
 6009SOL    HW129489   0.608   1.061   3.541  0.0508 -0.0088 -0.0333
 6009SOL    HW229490   0.700   1.176   3.545 -1.7697  0.3295  1.5813
 6010SOL     OW29491   2.458   2.392  13.779  0.5921 -0.5061 -0.0538
 6010SOL    HW129492   2.412   2.314  13.751 -1.1836  0.2877  0.6586
 6010SOL    HW229493   2.510   2.349  13.847  1.8021  2.5895  1.0071
 6011SOL     OW29494   3.191   2.112   6.429 -0.0250 -0.0592  0.1571
 6011SOL    HW129495   3.192   2.139   6.338  0.3763 -0.6749 -0.0276
 6011SOL    HW229496   3.142   2.029   6.432  0.7806 -0.5869 -1.0672
 6012SOL     OW29497   0.072   3.555   9.105  0.4549  0.4260 -0.2399
 6012SOL    HW129498   0.058   3.626   9.168 -1.8189 -1.8858  1.8325
 6012SOL    HW229499   4.711   3.529   9.076  0.4964 -0.7359  0.6682
 6013SOL     OW29500   2.082   4.462   0.406 -0.2475  0.1287 -0.2936
 6013SOL    HW129501   2.045   4.382   0.443  0.7366  0.4647  1.4139
 6013SOL    HW229502   2.146   4.423   0.347  0.3040  0.4668  0.0754
 6014SOL     OW29503   2.667   3.716   5.391  0.5703 -0.3492  0.3351
 6014SOL    HW129504   2.607   3.724   5.465  1.1609 -0.9460  0.8782
 6014SOL    HW229505   2.675   3.622   5.376 -2.0552 -0.1128 -2.5589
 6015SOL     OW29506   1.729   4.300   2.950 -0.0526  0.4196 -0.7299
 6015SOL    HW129507   1.757   4.376   3.001 -3.7503  2.0793 -1.1832
 6015SOL    HW229508   1.777   4.296   2.867 -0.5343  1.7270 -1.0744
 6016SOL     OW29509   2.766   3.985   0.863  0.9373 -0.3233 -0.4454
 6016SOL    HW129510   2.757   3.912   0.924 -0.3547 -1.0714 -1.5149
 6016SOL    HW229511   2.808   4.054   0.914  2.0497 -0.2262 -1.4996
 6017SOL     OW29512   2.186   3.797  14.034 -0.3569  0.5921  0.2872
 6017SOL    HW129513   2.191   3.822  14.127  1.4815  1.4845 -0.0513
 6017SOL    HW229514   2.150   3.711  14.055  1.3458 -0.0159  0.6934
 6018SOL     OW29515   2.118   4.413  13.926 -0.0915  0.0624 -0.0189
 6018SOL    HW129516   2.168   4.443  13.850  2.1838  0.6889  1.7266
 6018SOL    HW229517   2.140   4.320  13.930  3.3097  0.7451 -2.8030
 6019SOL     OW29518   3.367   2.071   8.334 -0.3827 -0.1590  0.1149
 6019SOL    HW129519   3.359   2.118   8.417  0.7399 -0.4380  0.3870
 6019SOL    HW229520   3.290   2.015   8.334 -0.6202  0.1726 -2.6265
 6020SOL     OW29521   3.886   2.616   2.129 -0.2506  0.2450 -0.1436
 6020SOL    HW129522   3.930   2.593   2.047 -1.0881 -1.3248 -0.1460
 6020SOL    HW229523   3.840   2.532   2.131  1.8374 -0.9030 -0.0231
 6021SOL     OW29524   4.280   2.250   8.433  0.6089 -0.3281  0.2602
 6021SOL    HW129525   4.219   2.203   8.489  1.1181 -1.5646 -0.2114
 6021SOL    HW229526   4.289   2.335   8.475  1.5866 -0.9960  1.4016
 6022SOL     OW29527   3.645   0.365   8.646 -0.7769 -0.6671  0.4818
 6022SOL    HW129528   3.584   0.383   8.574  0.6346  0.6629 -0.3703
 6022SOL    HW229529   3.581   0.352   8.716  0.0843  0.3586  1.4481
 6023SOL     OW29530   3.442   2.056  11.691 -0.1883 -0.1446  0.0837
 6023SOL    HW129531   3.366   2.024  11.739  0.0277  0.2152  0.6610
 6023SOL    HW229532   3.456   1.985  11.629  0.5781  0.3898 -0.3573
 6024SOL     OW29533   2.945   3.516  10.066  0.5559  0.2159  0.7152
 6024SOL    HW129534   2.885   3.589  10.080 -1.8422 -2.1554  2.7216
 6024SOL    HW229535   2.994   3.561   9.996  0.3673 -1.6733 -0.6366
 6025SOL     OW29536   3.647   2.843  12.993  0.3256 -0.2012  0.1893
 6025SOL    HW129537   3.609   2.761  13.024 -1.1135  0.5047  0.2679
 6025SOL    HW229538   3.682   2.875  13.076 -0.1027  1.3376 -0.2308
 6026SOL     OW29539   1.133   1.024   6.676  0.0885 -0.6008  0.2352
 6026SOL    HW129540   1.203   0.998   6.736  0.0484  0.4939  0.7517
 6026SOL    HW229541   1.165   1.106   6.639 -0.4560  0.6355  2.5074
 6027SOL     OW29542   3.633   2.651   4.616  0.4824  0.2252 -0.4138
 6027SOL    HW129543   3.687   2.586   4.662 -0.6717  0.0776  0.7565
 6027SOL    HW229544   3.669   2.655   4.528  1.5512 -1.5673 -0.0658
 6028SOL     OW29545   1.901   3.510   5.883 -0.8755 -0.1109 -0.7101
 6028SOL    HW129546   1.827   3.484   5.829 -0.3313 -0.2868 -1.3695
 6028SOL    HW229547   1.973   3.479   5.828 -0.8825 -1.9047  0.2954
 6029SOL     OW29548   2.125   3.989   1.678  0.4311 -0.4033 -0.4697
 6029SOL    HW129549   2.211   3.951   1.663  1.4085  0.6817  2.3564
 6029SOL    HW229550   2.130   4.066   1.621 -2.5298 -1.7944 -2.6041
 6030SOL     OW29551   4.427   1.239  12.792 -0.0507  0.1191  0.2832
 6030SOL    HW129552   4.483   1.300  12.745  0.5492 -0.7129 -0.0820
 6030SOL    HW229553   4.475   1.203  12.866 -0.1259  0.1342  0.3397
 6031SOL     OW29554   3.017   0.619   5.555  0.1114  0.7647  0.1528
 6031SOL    HW129555   3.007   0.705   5.514 -0.1354  0.4348 -0.4760
 6031SOL    HW229556   2.927   0.587   5.552 -0.0340  1.0554  1.1994
 6032SOL     OW29557   3.093   3.075   1.264  0.3944 -0.4650  0.0200
 6032SOL    HW129558   3.029   3.032   1.322  1.2171 -2.4404 -0.5213
 6032SOL    HW229559   3.075   3.024   1.185 -1.6176  0.2273  0.0170
 6033SOL     OW29560   1.050   4.235   0.732  0.4335  0.1735 -0.0022
 6033SOL    HW129561   1.008   4.166   0.783 -1.0479  0.2858 -1.0562
 6033SOL    HW229562   1.131   4.240   0.782 -1.0896  0.9425  2.4124
 6034SOL     OW29563   0.044   2.155   4.814 -0.1112  0.3579 -0.7408
 6034SOL    HW129564   0.091   2.111   4.743  2.0029  1.5073 -0.0227
 6034SOL    HW229565   4.704   2.199   4.761 -1.3252 -0.8103 -0.2042
 6035SOL     OW29566   0.537   1.352   3.487  0.3795  0.2427  0.1097
 6035SOL    HW129567   0.506   1.382   3.401 -0.4417 -1.8442 -0.3077
 6035SOL    HW229568   0.587   1.430   3.511 -0.0652  0.5122  0.1711
 6036SOL     OW29569   4.186   2.101   3.281 -0.3362  0.0166 -0.5123
 6036SOL    HW129570   4.192   2.011   3.314  2.5462  0.4258  0.1190
 6036SOL    HW229571   4.169   2.093   3.187  1.7490 -0.9602 -0.8107
 6037SOL     OW29572   3.603   0.394   5.785  0.3012  0.2669  0.1419
 6037SOL    HW129573   3.648   0.428   5.708  0.4777 -1.2884 -0.4385
 6037SOL    HW229574   3.521   0.367   5.746 -0.5104 -0.4151  2.2990
 6038SOL     OW29575   1.059   3.785   5.980  0.5119  0.1847 -0.0802
 6038SOL    HW129576   1.093   3.792   6.069 -0.4913  1.7116  0.1717
 6038SOL    HW229577   0.975   3.827   5.994 -0.2931 -1.1118 -0.9729
 6039SOL     OW29578   1.497   2.660  11.830  0.3018 -0.1279 -0.2359
 6039SOL    HW129579   1.450   2.580  11.853 -1.6357  0.1470 -3.2949
 6039SOL    HW229580   1.583   2.649  11.870 -1.3147 -2.5509  2.6629
 6040SOL     OW29581   3.538   3.555  10.213  0.0996 -0.3883 -0.3143
 6040SOL    HW129582   3.573   3.599  10.136 -0.0688 -3.1965 -2.0120
 6040SOL    HW229583   3.447   3.539  10.187 -0.3773  0.5322  0.8140
 6041SOL     OW29584   1.665   1.698  17.530 -0.2801  0.1846 -0.1811
 6041SOL    HW129585   1.708   1.613  17.523 -1.4759 -0.4313 -0.0456
 6041SOL    HW229586   1.632   1.676  17.617 -0.9510  0.3140 -0.4022
 6042SOL     OW29587   1.093   0.959   3.455  0.5162 -0.1461 -0.1809
 6042SOL    HW129588   1.059   1.042   3.423  1.8079 -0.0468 -1.2840
 6042SOL    HW229589   1.104   0.983   3.547 -2.6221 -1.0512  0.4097
 6043SOL     OW29590   0.658   4.074   5.581  0.2374  0.1443 -0.3181
 6043SOL    HW129591   0.581   4.020   5.599  0.8974 -0.5666  0.3800
 6043SOL    HW229592   0.730   4.057   5.641  0.4541 -0.6878 -0.8075
 6044SOL     OW29593   1.631   0.514  11.365 -0.3502  0.0167 -0.6303
 6044SOL    HW129594   1.636   0.447  11.297 -1.4517  0.9772 -1.6646
 6044SOL    HW229595   1.549   0.562  11.354  0.2671  1.9852  3.1993
 6045SOL     OW29596   1.814   4.184  14.205 -0.2851  0.0022  0.0001
 6045SOL    HW129597   1.727   4.192  14.165 -0.8516  0.5725  1.3346
 6045SOL    HW229598   1.815   4.265  14.257 -0.2879 -0.5028  0.7746
 6046SOL     OW29599   0.322   2.561  11.893 -0.0078 -0.1401 -0.3496
 6046SOL    HW129600   0.408   2.519  11.896  0.2849  0.6439  2.0329
 6046SOL    HW229601   0.290   2.547  11.804  0.9535  1.7422 -0.9858
 6047SOL     OW29602   4.171   1.586  14.883 -0.3165 -0.0974  0.4046
 6047SOL    HW129603   4.244   1.558  14.937  0.6149  1.2000 -0.1863
 6047SOL    HW229604   4.169   1.524  14.810 -1.1972 -0.5664  0.8198
 6048SOL     OW29605   1.476   3.080  14.988 -0.4941  0.3613  1.1733
 6048SOL    HW129606   1.395   3.039  15.017 -0.3437 -0.8314 -0.1034
 6048SOL    HW229607   1.445   3.138  14.919  0.7430 -0.0948  0.2423
 6049SOL     OW29608   4.345   1.628   9.893  0.1223  0.5693  0.6564
 6049SOL    HW129609   4.374   1.704   9.943  1.1932  0.0486  0.8285
 6049SOL    HW229610   4.409   1.559   9.908 -2.0646 -1.2475  1.6427
 6050SOL     OW29611   3.344   4.341  14.758  0.4844 -0.1320 -0.4368
 6050SOL    HW129612   3.309   4.376  14.676 -0.0360 -1.7781 -0.9284
 6050SOL    HW229613   3.432   4.379  14.768 -0.7140  2.4803  0.0438
 6051SOL     OW29614   2.893   0.173  11.446 -0.1927 -0.0358 -0.0566
 6051SOL    HW129615   2.798   0.167  11.456 -0.4267 -1.7710 -3.2465
 6051SOL    HW229616   2.906   0.078  11.453 -0.6448 -0.1210 -0.3188
 6052SOL     OW29617   2.015   2.378  15.209 -0.0585 -0.1846  0.8131
 6052SOL    HW129618   2.099   2.424  15.209  0.2970 -0.8548 -1.6638
 6052SOL    HW229619   2.005   2.357  15.116 -1.0923 -0.6569  1.0258
 6053SOL     OW29620   2.063   4.567   3.606  0.1082  0.2677 -0.5812
 6053SOL    HW129621   2.014   4.615   3.539  0.3162  2.6667  1.0116
 6053SOL    HW229622   2.087   4.491   3.553 -0.4201  0.7870 -1.5639
 6054SOL     OW29623   1.020   3.450   2.308  0.3150 -0.0594 -0.1845
 6054SOL    HW129624   1.100   3.491   2.343  1.5000 -1.4789 -1.2466
 6054SOL    HW229625   0.988   3.523   2.254  0.7175 -0.0697 -0.4371
 6055SOL     OW29626   2.077   3.799   3.146  0.4362  0.3970  0.1447
 6055SOL    HW129627   2.080   3.709   3.113 -0.2121  1.1401 -1.9050
 6055SOL    HW229628   2.034   3.836   3.069 -0.0944  0.8015  0.6425
 6056SOL     OW29629   3.293   1.926  14.101 -0.5245 -0.7534  0.0472
 6056SOL    HW129630   3.321   2.017  14.113  0.5828 -0.6722 -3.0541
 6056SOL    HW229631   3.201   1.937  14.124 -0.7589  0.5625 -1.5221
 6057SOL     OW29632   2.850   4.081   9.675 -0.1341  0.0498  0.5819
 6057SOL    HW129633   2.837   4.150   9.609  0.3458 -0.2799  0.1380
 6057SOL    HW229634   2.927   4.119   9.717 -0.7123  1.4068  0.4378
 6058SOL     OW29635   3.890   4.322   8.679  0.3543  0.3032 -0.5918
 6058SOL    HW129636   3.871   4.246   8.623  2.7169  0.1262 -1.1619
 6058SOL    HW229637   3.884   4.397   8.619  2.7454  1.1182  0.1865
 6059SOL     OW29638   0.229   1.018   2.997 -0.5397 -0.7155 -0.1660
 6059SOL    HW129639   0.238   0.968   2.916  0.0825  0.2035 -0.6673
 6059SOL    HW229640   0.134   1.025   3.004 -0.5409 -1.4100  0.4318
 6060SOL     OW29641   1.972   3.987  17.437 -0.1383 -0.6312  0.0044
 6060SOL    HW129642   1.961   3.899  17.471  0.5750 -0.2137  1.3162
 6060SOL    HW229643   2.040   3.959  17.376 -0.4181  2.5204 -1.7485
 6061SOL     OW29644   1.100   0.622   7.882 -0.7686  0.0597  0.2734
 6061SOL    HW129645   1.113   0.636   7.976  2.8810  2.6684 -0.6156
 6061SOL    HW229646   1.117   0.712   7.854 -1.1110  0.2731  0.7490
 6062SOL     OW29647   3.461   4.360   1.929 -0.0916  0.2884 -0.5475
 6062SOL    HW129648   3.449   4.337   1.837 -0.3721 -1.1852 -0.1432
 6062SOL    HW229649   3.555   4.379   1.925 -0.0912  0.8982  2.3217
 6063SOL     OW29650   0.318   3.718  12.708  0.2914  0.3448 -0.0952
 6063SOL    HW129651   0.232   3.697  12.742  1.9409 -1.7940  2.7088
 6063SOL    HW229652   0.336   3.635  12.664 -0.6983  1.2777 -2.2780
 6064SOL     OW29653   3.848   0.679  10.569  0.0442  0.2015 -0.1898
 6064SOL    HW129654   3.822   0.771  10.563  2.4983  0.8371 -1.1795
 6064SOL    HW229655   3.874   0.674  10.661 -1.7538 -1.6219  0.2302
 6065SOL     OW29656   2.972   0.105   6.118 -0.3832 -0.4649 -1.0333
 6065SOL    HW129657   2.956   0.164   6.045 -1.2705  0.2415 -0.2698
 6065SOL    HW229658   3.067   0.100   6.114 -0.3917 -1.7000  0.2197
 6066SOL     OW29659   0.058   3.300   1.661  0.2377 -0.1452 -0.0871
 6066SOL    HW129660   0.102   3.346   1.732 -0.3622 -0.0506  0.2263
 6066SOL    HW229661   4.694   3.330   1.665  0.2349 -0.2750  0.7055
 6067SOL     OW29662   3.298   4.227   2.089 -0.0997  0.3709 -0.3485
 6067SOL    HW129663   3.379   4.262   2.052  0.1920  1.0323  0.9540
 6067SOL    HW229664   3.289   4.272   2.173 -0.4387 -0.7062  0.1904
 6068SOL     OW29665   2.961   1.984   5.689  0.0060  0.0449  0.2310
 6068SOL    HW129666   2.905   1.956   5.761  0.5383 -0.8032  0.3248
 6068SOL    HW229667   2.959   1.900   5.642  2.8207  0.1862 -0.1851
 6069SOL     OW29668   4.160   4.599   8.559 -0.4502 -0.0723  0.3997
 6069SOL    HW129669   4.170   4.676   8.503  1.4963  0.2067  1.1294
 6069SOL    HW229670   4.067   4.593   8.584 -0.8665  0.5689 -1.0027
 6070SOL     OW29671   4.641   2.530   1.071  0.0919  0.1028  0.0367
 6070SOL    HW129672   4.663   2.484   0.990  0.5257  0.9038 -0.3062
 6070SOL    HW229673   4.707   2.600   1.062  1.5532 -1.1331  1.1951
 6071SOL     OW29674   1.596   4.572  14.691 -0.3920 -0.1132 -0.0649
 6071SOL    HW129675   1.675   4.519  14.697 -0.5626 -0.2010  1.5417
 6071SOL    HW229676   1.525   4.531  14.741  0.7804 -1.3874  0.5426
 6072SOL     OW29677   0.772   4.493   8.605  0.3289  0.4130  0.6937
 6072SOL    HW129678   0.824   4.414   8.590  0.3655  1.0575 -2.5172
 6072SOL    HW229679   0.755   4.530   8.518 -2.4527 -0.6093  0.8017
 6073SOL     OW29680   1.299   0.339   1.494  0.0376  0.1117 -0.4218
 6073SOL    HW129681   1.228   0.358   1.556 -0.2594 -2.3844 -0.0031
 6073SOL    HW229682   1.336   0.272   1.551 -0.3316 -0.1334 -0.4708
 6074SOL     OW29683   3.923   0.819   0.190  0.1071  0.3305  0.7284
 6074SOL    HW129684   3.907   0.853   0.278 -0.7029  0.0416  0.6915
 6074SOL    HW229685   4.010   0.779   0.195  0.9822  2.3751  1.9842
 6075SOL     OW29686   0.658   1.053   5.665  0.2058  0.3096 -0.1904
 6075SOL    HW129687   0.595   0.981   5.662  1.6145 -0.8816 -0.4825
 6075SOL    HW229688   0.661   1.074   5.571 -1.3845  1.2282 -0.0540
 6076SOL     OW29689   4.160   2.825   8.446  0.0945 -0.0590 -0.0644
 6076SOL    HW129690   4.110   2.904   8.467 -0.9522  0.2757 -3.8304
 6076SOL    HW229691   4.202   2.803   8.529  1.0305 -2.7148 -1.2351
 6077SOL     OW29692   2.006   2.498   5.157  0.3093  0.2184  0.4434
 6077SOL    HW129693   2.077   2.483   5.219 -0.0347 -0.2420  0.7272
 6077SOL    HW229694   1.950   2.561   5.202 -0.1417  1.0074 -1.2072
 6078SOL     OW29695   4.619   2.843   0.266 -0.2219 -0.4815  0.4126
 6078SOL    HW129696   4.594   2.876   0.180  0.9228  1.0288  0.6765
 6078SOL    HW229697   4.539   2.802   0.300 -1.2731  1.5472  0.3951
 6079SOL     OW29698   2.812   1.791  11.757  0.5829  0.1307  0.4615
 6079SOL    HW129699   2.739   1.749  11.711  0.4254  1.1143 -0.1701
 6079SOL    HW229700   2.877   1.791  11.687  1.1894  2.4418  1.0248
 6080SOL     OW29701   2.169   4.407   3.377 -0.1471 -0.4299  0.2969
 6080SOL    HW129702   2.158   4.312   3.380  0.4495 -0.4637  1.3275
 6080SOL    HW229703   2.161   4.406   3.282 -2.9547 -1.7688  0.5393
 6081SOL     OW29704   4.035   2.840  14.071  0.0360  0.2947  0.0296
 6081SOL    HW129705   4.082   2.876  14.146 -0.3304 -0.4623  0.6252
 6081SOL    HW229706   4.094   2.768  14.049  0.1655 -0.2258  2.1550
 6082SOL     OW29707   3.329   1.884   2.505 -0.1877  0.1185  0.1098
 6082SOL    HW129708   3.418   1.860   2.532 -0.6557  1.2007  2.5842
 6082SOL    HW229709   3.324   1.971   2.543  0.6256  0.2759 -0.1436
 6083SOL     OW29710   4.034   1.078   0.009 -0.6244  0.3003 -0.3056
 6083SOL    HW129711   4.026   0.982   0.008  0.4271  0.1966  0.6239
 6083SOL    HW229712   4.110   1.093  17.660 -0.4308 -1.7276 -0.6065
 6084SOL     OW29713   4.721   0.182   5.160  0.4395  1.1009  0.3202
 6084SOL    HW129714   4.659   0.122   5.120  0.8318 -0.0714  1.4757
 6084SOL    HW229715   0.040   0.215   5.082 -1.1079 -0.7335 -1.3638
 6085SOL     OW29716   0.078   0.664   6.760  0.0720  0.1403 -0.5982
 6085SOL    HW129717   0.079   0.629   6.849 -0.6134  2.2096  0.2248
 6085SOL    HW229718   0.131   0.598   6.715 -0.1576  1.8418 -3.3908
 6086SOL     OW29719   1.430   1.278   7.936  0.0020 -0.7622  0.4285
 6086SOL    HW129720   1.492   1.337   7.893 -0.1145 -1.2017 -0.3362
 6086SOL    HW229721   1.453   1.285   8.029 -0.2371 -1.8634  0.5747
 6087SOL     OW29722   1.379   0.885  11.215 -0.5478 -0.0904  0.3952
 6087SOL    HW129723   1.433   0.940  11.273 -2.6591  2.5592 -0.1280
 6087SOL    HW229724   1.293   0.915  11.244 -0.0512  0.6676  1.1007
 6088SOL     OW29725   1.375   3.417   2.849 -0.0080  0.2604  0.4554
 6088SOL    HW129726   1.444   3.356   2.877 -0.4473 -0.6651 -0.4801
 6088SOL    HW229727   1.397   3.499   2.893  1.6729 -0.0759  0.2618
 6089SOL     OW29728   2.287   3.158  12.668  0.6889 -0.1373  0.0541
 6089SOL    HW129729   2.229   3.153  12.744  0.2652 -0.1297 -0.2657
 6089SOL    HW229730   2.357   3.208  12.709 -0.1419  1.2354 -0.2015
 6090SOL     OW29731   1.940   2.132   4.951 -0.2761 -0.0727  0.2304
 6090SOL    HW129732   2.008   2.198   4.935  1.2795 -1.7503 -0.1390
 6090SOL    HW229733   1.864   2.189   4.940 -2.4644 -2.7189  1.5984
 6091SOL     OW29734   2.463   2.473  11.385  0.2676 -0.1463  0.5354
 6091SOL    HW129735   2.465   2.465  11.480  0.2974  1.6643  0.6879
 6091SOL    HW229736   2.446   2.381  11.365  0.5331  0.1657 -1.1576
 6092SOL     OW29737   1.217   4.250   1.990 -0.5941 -0.2389 -0.8512
 6092SOL    HW129738   1.224   4.272   2.082  1.6700 -0.4134 -0.9890
 6092SOL    HW229739   1.247   4.338   1.968 -2.3787  0.9001  1.3131
 6093SOL     OW29740   3.004   0.572   4.417  0.0996  0.6897 -0.6637
 6093SOL    HW129741   2.980   0.651   4.368  0.8079  0.4451 -1.3967
 6093SOL    HW229742   2.961   0.509   4.360  0.7580 -2.1057  1.9464
 6094SOL     OW29743   1.503   3.201   3.195 -0.0242  1.0404  0.0773
 6094SOL    HW129744   1.486   3.263   3.124  0.8155  0.8937 -0.2472
 6094SOL    HW229745   1.579   3.238   3.240  0.1601 -0.2251  0.8137
 6095SOL     OW29746   4.568   3.241   5.736 -0.4923  0.1218  0.7323
 6095SOL    HW129747   4.614   3.157   5.740 -2.5845 -1.1354 -1.3265
 6095SOL    HW229748   4.592   3.276   5.650 -2.1054  1.1535  0.7036
 6096SOL     OW29749   3.701   0.140  10.578 -0.1742  0.3059 -0.0814
 6096SOL    HW129750   3.669   0.213  10.630 -2.7722  0.4293 -1.8965
 6096SOL    HW229751   3.630   0.078  10.592  0.2456  0.1723  1.4485
 6097SOL     OW29752   3.201   1.063  15.060  0.1465  0.0895  0.2265
 6097SOL    HW129753   3.285   1.084  15.019 -0.9287  1.2060 -1.3834
 6097SOL    HW229754   3.144   1.130  15.022  1.3797  0.7679 -0.4206
 6098SOL     OW29755   0.389   1.055   9.705 -0.7153  0.7680 -0.0325
 6098SOL    HW129756   0.410   1.046   9.612 -0.5506 -1.9649  0.2563
 6098SOL    HW229757   0.422   1.140   9.732  0.2003  0.2318  0.5401
 6099SOL     OW29758   1.170   1.715   7.395  0.2967 -0.0199 -0.0900
 6099SOL    HW129759   1.129   1.793   7.433 -0.3711  0.5724 -2.0244
 6099SOL    HW229760   1.094   1.670   7.358 -0.3976 -0.2217  1.5614
 6100SOL     OW29761   2.904   2.723   3.863 -0.6303 -0.1184 -0.0121
 6100SOL    HW129762   2.938   2.668   3.933  1.3197  1.4604  0.2738
 6100SOL    HW229763   2.887   2.807   3.906 -1.2957 -0.2921  0.0654
 6101SOL     OW29764   2.938   1.602   8.343  0.0247 -0.5064  0.1613
 6101SOL    HW129765   2.969   1.554   8.420  1.1482  0.1172  0.0959
 6101SOL    HW229766   2.893   1.677   8.383 -0.1784  0.0430 -1.0986
 6102SOL     OW29767   3.070   0.982   3.817  0.2985  0.5175 -0.0754
 6102SOL    HW129768   3.020   0.901   3.829 -0.4502  0.7883 -1.3990
 6102SOL    HW229769   3.119   0.975   3.899  2.2335  1.0562 -1.1953
 6103SOL     OW29770   4.030   2.542   8.413 -0.2829 -0.5446 -0.8059
 6103SOL    HW129771   4.034   2.622   8.465  0.8024 -0.8309 -0.4430
 6103SOL    HW229772   4.107   2.546   8.355 -0.9258 -2.1513 -1.7650
 6104SOL     OW29773   0.817   0.839   7.412  0.3207  0.0417 -0.2314
 6104SOL    HW129774   0.895   0.797   7.375  1.0119  1.0095  0.1080
 6104SOL    HW229775   0.840   0.925   7.447 -1.1601 -0.1901  1.3428
 6105SOL     OW29776   3.677   3.243   1.797 -0.4063  0.1609 -0.7414
 6105SOL    HW129777   3.764   3.222   1.763  0.3624 -0.2727  1.4850
 6105SOL    HW229778   3.687   3.318   1.856 -0.4108 -0.5051  0.1005
 6106SOL     OW29779   3.985   2.500   1.907 -0.5648 -0.2131 -0.1229
 6106SOL    HW129780   4.060   2.464   1.859  0.7031 -0.8293  2.3224
 6106SOL    HW229781   3.921   2.439   1.871  1.2162 -1.6110 -0.9239
 6107SOL     OW29782   1.802   3.737   4.557 -0.0021 -0.1822  0.3904
 6107SOL    HW129783   1.711   3.734   4.528  0.9088  0.8589 -2.6471
 6107SOL    HW229784   1.797   3.747   4.652 -0.9740 -1.2844  0.4442
 6108SOL     OW29785   2.688   3.385   0.606 -0.6189 -0.3712  0.6309
 6108SOL    HW129786   2.657   3.339   0.528  2.7320 -0.6240 -0.5446
 6108SOL    HW229787   2.701   3.311   0.666  3.6241 -0.2857 -0.1674
 6109SOL     OW29788   0.461   2.908   2.386 -0.2694 -0.4295 -0.2653
 6109SOL    HW129789   0.372   2.940   2.370 -0.1466  0.3649  0.6073
 6109SOL    HW229790   0.499   2.934   2.302  0.2182 -1.8516 -0.4836
 6110SOL     OW29791   1.034   2.037  13.064 -0.0327  0.0588  0.4585
 6110SOL    HW129792   0.943   2.011  13.080  0.9288 -0.7473  4.5420
 6110SOL    HW229793   1.016   2.093  12.988  1.1114  1.1034  0.9501
 6111SOL     OW29794   3.584   2.650   0.553 -0.2731  0.0889  0.2101
 6111SOL    HW129795   3.660   2.676   0.604  0.8595  0.2797 -1.5511
 6111SOL    HW229796   3.619   2.631   0.465 -0.4098  0.6781  0.0312
 6112SOL     OW29797   0.825   0.890   4.052  0.0672  0.2956  0.2700
 6112SOL    HW129798   0.794   0.948   3.983 -3.1799  0.3762  1.7789
 6112SOL    HW229799   0.919   0.904   4.058  0.5019 -2.3702 -0.5226
 6113SOL     OW29800   3.773   1.726   5.220  0.6239 -0.0949 -0.8640
 6113SOL    HW129801   3.838   1.762   5.159 -2.4386  1.9352 -2.9566
 6113SOL    HW229802   3.829   1.707   5.295  1.0442 -2.4775 -1.7695
 6114SOL     OW29803   1.854   3.712   8.064  0.1676  0.0364 -0.5429
 6114SOL    HW129804   1.886   3.656   8.134  1.0567 -0.8028 -1.6327
 6114SOL    HW229805   1.824   3.639   8.010 -2.5953  1.6630 -1.2400
 6115SOL     OW29806   2.607   1.278   3.268 -0.6800 -0.4949 -0.2345
 6115SOL    HW129807   2.691   1.320   3.248 -0.0051 -0.6247  2.3513
 6115SOL    HW229808   2.600   1.225   3.189  3.3556 -0.7501 -0.4472
 6116SOL     OW29809   4.193   3.309   5.187 -0.8985 -0.3937  0.5880
 6116SOL    HW129810   4.251   3.379   5.217 -2.0153  0.8069 -0.0198
 6116SOL    HW229811   4.258   3.249   5.152 -0.8952 -1.3568  2.2722
 6117SOL     OW29812   0.251   0.811   4.504 -0.0906 -0.2728  0.5501
 6117SOL    HW129813   0.299   0.828   4.423 -1.0927 -0.2932 -0.0511
 6117SOL    HW229814   0.166   0.783   4.470  0.5853 -1.3683 -0.2877
 6118SOL     OW29815   1.338   0.879   3.031 -0.4775 -0.1295  0.8669
 6118SOL    HW129816   1.354   0.957   3.085  1.0620  0.8783 -1.0371
 6118SOL    HW229817   1.259   0.841   3.070 -0.8805 -0.7386 -0.5361
 6119SOL     OW29818   1.153   3.847   6.233 -0.3665 -0.2368 -0.0183
 6119SOL    HW129819   1.086   3.896   6.281  0.5770  0.5307  0.5093
 6119SOL    HW229820   1.198   3.807   6.307 -0.3917  0.2877  0.2856
 6120SOL     OW29821   0.250   4.267   8.411  0.1491 -0.0934  0.0656
 6120SOL    HW129822   0.156   4.248   8.407  0.0499 -0.1142  2.2898
 6120SOL    HW229823   0.255   4.362   8.396 -1.4025 -0.2871 -1.6813
 6121SOL     OW29824   1.913   2.069  13.475  1.3077  0.5338 -0.0878
 6121SOL    HW129825   1.893   1.988  13.428  0.4383  0.0529  1.1251
 6121SOL    HW229826   1.863   2.053  13.554  0.7917  0.7983 -0.3608
 6122SOL     OW29827   0.379   0.765   8.103 -0.1022  0.0678  0.1688
 6122SOL    HW129828   0.416   0.829   8.164 -0.8901  0.1353  0.5777
 6122SOL    HW229829   0.449   0.700   8.112 -0.0510  0.0808 -0.1290
 6123SOL     OW29830   1.552   1.607   2.435 -0.0716 -0.6347 -0.0289
 6123SOL    HW129831   1.586   1.550   2.504 -1.2618  0.8494  1.8016
 6123SOL    HW229832   1.465   1.574   2.409 -0.1401 -0.4301 -0.0596
 6124SOL     OW29833   1.345   1.487   2.323  0.4550  0.1573 -0.1678
 6124SOL    HW129834   1.385   1.495   2.237  1.4543 -0.3625  0.2497
 6124SOL    HW229835   1.261   1.442   2.313  1.2035 -1.3424  0.3160
 6125SOL     OW29836   0.526   0.979   7.639 -0.4704  0.1483  0.3977
 6125SOL    HW129837   0.537   1.027   7.720  3.1987 -0.9668  0.5529
 6125SOL    HW229838   0.524   1.040   7.565 -0.0492  0.2629  0.4853
 6126SOL     OW29839   1.511   0.907   5.163 -0.1269 -0.9652 -0.2032
 6126SOL    HW129840   1.581   0.971   5.160 -0.1903 -0.7625  2.7901
 6126SOL    HW229841   1.441   0.971   5.175  0.0365 -0.8262 -0.0032
 6127SOL     OW29842   3.094   2.219   6.707  0.2222  0.0785  1.0304
 6127SOL    HW129843   3.081   2.130   6.674  0.4715  0.4139  0.0322
 6127SOL    HW229844   3.067   2.264   6.628  3.4642  0.0429 -0.1083
 6128SOL     OW29845   2.818   3.091   8.755  0.0998 -0.2637  0.2536
 6128SOL    HW129846   2.864   3.155   8.702  2.4819 -1.6995  0.6140
 6128SOL    HW229847   2.742   3.143   8.782  0.1722 -0.9452  1.7335
 6129SOL     OW29848   4.556   2.724   8.722  0.5664  0.1203  0.4405
 6129SOL    HW129849   4.533   2.750   8.633  0.0659  1.6075  0.9990
 6129SOL    HW229850   4.651   2.723   8.714  0.5017 -1.4175 -0.1776
 6130SOL     OW29851   1.758   0.374   8.295 -0.0772  0.4662  0.5483
 6130SOL    HW129852   1.768   0.279   8.291  0.8398  0.6210 -0.9424
 6130SOL    HW229853   1.686   0.381   8.358 -1.3617 -0.7857 -0.7999
 6131SOL     OW29854   3.956   1.579   2.300 -0.1670 -0.1312  0.1990
 6131SOL    HW129855   3.872   1.624   2.301 -1.2519 -2.1421 -0.6259
 6131SOL    HW229856   3.981   1.605   2.389  0.8475  1.2760 -0.4812
 6132SOL     OW29857   2.746   0.105   1.725  0.0329 -0.2818  0.4171
 6132SOL    HW129858   2.796   0.107   1.643  0.7570 -2.0076  0.7995
 6132SOL    HW229859   2.819   0.101   1.787  0.5103 -1.1082 -0.1856
 6133SOL     OW29860   3.249   1.543   1.996 -0.3925  0.0339 -0.0178
 6133SOL    HW129861   3.221   1.540   2.088  0.7982 -2.0400  0.2938
 6133SOL    HW229862   3.200   1.619   1.965 -1.8466  0.0034  2.2059
 6134SOL     OW29863   0.538   1.204   5.870 -0.1967 -0.5641  0.0671
 6134SOL    HW129864   0.473   1.139   5.895 -0.6746  0.0589  0.4272
 6134SOL    HW229865   0.587   1.154   5.805  0.3089 -0.4496  0.3596
 6135SOL     OW29866   1.385   1.296   2.633 -0.4667 -0.2973 -0.4202
 6135SOL    HW129867   1.387   1.217   2.687  0.0979  0.2018  0.2879
 6135SOL    HW229868   1.293   1.319   2.631 -0.7130 -1.5415 -3.7271
 6136SOL     OW29869   1.835   0.078   2.876 -0.1229 -0.0771 -0.8078
 6136SOL    HW129870   1.854   4.712   2.886 -3.4181 -0.7469 -0.6666
 6136SOL    HW229871   1.741   0.082   2.855 -0.5578  0.1981  1.1468
 6137SOL     OW29872   2.617   3.382   6.059  0.1686 -0.0293 -0.1573
 6137SOL    HW129873   2.614   3.457   6.117  0.8046 -0.0961 -0.0396
 6137SOL    HW229874   2.613   3.304   6.115 -0.8656 -0.1561 -0.4015
 6138SOL     OW29875   1.760   2.008   1.740  0.4955  0.1541 -0.8351
 6138SOL    HW129876   1.770   1.971   1.828 -0.9683 -0.7952 -1.0734
 6138SOL    HW229877   1.807   2.092   1.744  1.4861 -0.4092 -0.5409
 6139SOL     OW29878   2.896   3.051   5.041  0.3407  0.3097  0.2020
 6139SOL    HW129879   2.981   3.090   5.022  0.6210 -0.4966 -0.2051
 6139SOL    HW229880   2.885   2.995   4.964  0.5021 -0.9950  1.1180
 6140SOL     OW29881   0.844   4.674   2.242 -0.1209 -0.1954 -0.2328
 6140SOL    HW129882   0.793   4.603   2.203 -2.1540  1.6502 -0.9049
 6140SOL    HW229883   0.818   0.020   2.186 -0.5957 -2.2987 -2.7634
 6141SOL     OW29884   0.236   4.282   2.427  0.2302 -0.5497  0.5254
 6141SOL    HW129885   0.145   4.303   2.405 -0.2714 -1.3403  1.8519
 6141SOL    HW229886   0.281   4.268   2.344 -0.8475 -0.3502 -0.0911
 6142SOL     OW29887   2.455   4.446   5.536 -0.1523 -0.4593 -0.3979
 6142SOL    HW129888   2.446   4.470   5.444  0.6220  0.2673 -0.2776
 6142SOL    HW229889   2.508   4.367   5.528  0.0147 -0.2668 -1.1564
 6143SOL     OW29890   2.944   3.903  11.861 -0.1267  0.4042  0.5000
 6143SOL    HW129891   2.949   3.962  11.786 -1.4485 -0.7976 -0.5452
 6143SOL    HW229892   2.853   3.920  11.885 -0.7565 -2.2304  0.0137
 6144SOL     OW29893   0.331   0.270   7.258 -0.1563 -0.0015  0.1088
 6144SOL    HW129894   0.411   0.238   7.300  1.4243  2.4654 -1.0557
 6144SOL    HW229895   0.296   0.322   7.329 -2.4989 -0.2833 -0.8287
 6145SOL     OW29896   1.227   4.053   7.410  0.0828  0.3414 -0.2489
 6145SOL    HW129897   1.249   3.960   7.410  1.2267  0.5964 -2.3506
 6145SOL    HW229898   1.312   4.089   7.382  0.8602 -0.9552  0.4347
 6146SOL     OW29899   3.942   1.698   2.579 -0.2294  0.1784  0.0377
 6146SOL    HW129900   3.870   1.740   2.625 -2.1085 -2.1079 -0.8480
 6146SOL    HW229901   4.005   1.689   2.650 -1.6409 -1.8345  1.0350
 6147SOL     OW29902   0.491   3.172  17.428 -0.0956 -0.4678 -0.1009
 6147SOL    HW129903   0.405   3.187  17.467  0.3094  1.5907  0.0142
 6147SOL    HW229904   0.506   3.080  17.451  2.0652 -0.6037 -2.0372
 6148SOL     OW29905   4.528   0.572   5.484 -0.3881 -0.1875 -0.0899
 6148SOL    HW129906   4.583   0.500   5.453 -0.0155  0.3214 -0.6112
 6148SOL    HW229907   4.535   0.562   5.579  2.0973 -2.7341 -0.5319
 6149SOL     OW29908   0.760   1.515   5.825  0.1782 -0.0404 -0.4404
 6149SOL    HW129909   0.687   1.576   5.833 -0.8353 -1.5223  1.5276
 6149SOL    HW229910   0.810   1.553   5.752 -1.7030 -0.9414 -2.1937
 6150SOL     OW29911   0.566   4.211   3.778 -0.0010 -0.1132 -0.4369
 6150SOL    HW129912   0.518   4.131   3.758  0.1722 -0.4168  0.3719
 6150SOL    HW229913   0.649   4.192   3.734  0.6928  2.4731 -0.2199
 6151SOL     OW29914   3.463   3.615  15.417  0.2440  0.4296 -0.8824
 6151SOL    HW129915   3.392   3.636  15.478 -0.3611 -0.0079 -1.4363
 6151SOL    HW229916   3.408   3.628  15.339  0.3136 -1.6635 -1.2835
 6152SOL     OW29917   3.944   0.564   3.546  0.2784 -0.2440 -0.2306
 6152SOL    HW129918   3.938   0.568   3.451 -1.5357  0.6323 -0.0664
 6152SOL    HW229919   3.901   0.481   3.566 -0.2263 -0.5447 -2.5880
 6153SOL     OW29920   2.012   0.222  14.449  0.4294  0.1918  0.3057
 6153SOL    HW129921   1.944   0.160  14.421 -0.2087  0.5399  1.0890
 6153SOL    HW229922   2.006   0.216  14.544 -1.5041 -0.1565  0.1608
 6154SOL     OW29923   3.416   3.169   7.658 -0.5148 -0.3674  0.0821
 6154SOL    HW129924   3.353   3.233   7.626 -0.7716 -1.0031 -0.6964
 6154SOL    HW229925   3.391   3.157   7.749  0.7180 -2.7576  0.1177
 6155SOL     OW29926   2.649   4.412  14.912 -0.1668 -0.3895  0.5157
 6155SOL    HW129927   2.685   4.359  14.983  1.5797 -1.7376 -1.3897
 6155SOL    HW229928   2.645   4.498  14.954 -0.8164 -1.0758  1.8683
 6156SOL     OW29929   3.860   0.966  10.573  0.5068  0.1299 -0.4943
 6156SOL    HW129930   3.779   0.966  10.521  1.3268  4.6019 -1.8271
 6156SOL    HW229931   3.832   1.022  10.645  0.2282 -0.6762  0.0079
 6157SOL     OW29932   1.998   2.437   2.622 -0.4564  0.6659 -0.0834
 6157SOL    HW129933   2.068   2.373   2.634 -1.3486 -0.0809  1.0342
 6157SOL    HW229934   2.017   2.464   2.532  0.0413 -2.9462 -1.0955
 6158SOL     OW29935   2.547   2.268   7.347 -0.0915 -0.2631 -0.0131
 6158SOL    HW129936   2.600   2.344   7.320 -0.9075  0.8465  1.5198
 6158SOL    HW229937   2.525   2.286   7.438 -1.1307  0.9864 -0.5157
 6159SOL     OW29938   0.913   2.165   8.201  0.5750 -0.4048 -0.0741
 6159SOL    HW129939   0.978   2.169   8.271 -0.7909  0.9356  1.1224
 6159SOL    HW229940   0.973   2.202   8.136 -4.6330  2.8818 -3.0203
 6160SOL     OW29941   4.527   1.514   7.879  0.2569  0.8558 -0.5748
 6160SOL    HW129942   4.501   1.579   7.945 -0.5415  0.0436 -0.1008
 6160SOL    HW229943   4.584   1.460   7.933 -1.6429 -0.4016  0.1453
 6161SOL     OW29944   0.999   3.970   2.223  0.3386 -0.0603  0.4422
 6161SOL    HW129945   1.082   3.941   2.185 -0.0595  0.1306 -0.5874
 6161SOL    HW229946   0.969   4.040   2.165 -0.0217 -1.1599 -0.6961
 6162SOL     OW29947   1.461   0.787   5.984 -0.9020  0.1837  0.0974
 6162SOL    HW129948   1.529   0.848   6.013 -1.9417  1.3494  0.0844
 6162SOL    HW229949   1.441   0.743   6.066 -2.8581  0.8134 -0.0298
 6163SOL     OW29950   0.042   3.197  13.292 -0.1300  0.7461 -0.3435
 6163SOL    HW129951   4.691   3.227  13.338 -0.7318  0.8211 -1.4158
 6163SOL    HW229952   0.088   3.142  13.356  1.2110  0.8105 -1.2548
 6164SOL     OW29953   1.890   3.973   7.638  0.3374  0.2710  0.1715
 6164SOL    HW129954   1.857   3.885   7.654 -0.6688  0.2115 -2.1351
 6164SOL    HW229955   1.952   3.989   7.709  1.1408  1.7052 -0.8507
 6165SOL     OW29956   3.110   3.622   5.674 -0.0731  0.0422  0.0598
 6165SOL    HW129957   3.145   3.603   5.587  0.6528  3.7574 -0.4956
 6165SOL    HW229958   3.016   3.612   5.662  0.3594 -2.3044 -1.3871
 6166SOL     OW29959   1.214   0.730   4.361 -0.3037 -0.4821 -0.3836
 6166SOL    HW129960   1.177   0.681   4.288  0.2917 -2.8871  0.9057
 6166SOL    HW229961   1.229   0.660   4.425 -1.3819 -0.7732 -0.4500
 6167SOL     OW29962   4.230   0.798   7.862 -0.5707 -0.3860  0.0183
 6167SOL    HW129963   4.303   0.761   7.814  1.0687  2.1235  0.5529
 6167SOL    HW229964   4.246   0.761   7.949  1.2164 -2.7638 -1.3398
 6168SOL     OW29965   3.662   3.896   8.300 -0.6002 -0.2185  0.3376
 6168SOL    HW129966   3.580   3.847   8.291 -0.9608  0.4913 -0.2730
 6168SOL    HW229967   3.724   3.848   8.353  1.0322  0.9754 -0.4905
 6169SOL     OW29968   0.090   2.504   2.057  0.3281 -0.2716  0.2894
 6169SOL    HW129969   0.089   2.417   2.018 -1.1369 -0.2619  0.3246
 6169SOL    HW229970   0.179   2.514   2.090 -0.2033 -0.1787  1.6744
 6170SOL     OW29971   1.905   1.356   6.883 -0.5028 -0.0719  0.7279
 6170SOL    HW129972   1.815   1.383   6.898  0.2245  1.3696  2.4255
 6170SOL    HW229973   1.911   1.281   6.942 -2.4166 -0.0280  0.9692
 6171SOL     OW29974   4.613   4.298   6.100  0.0930  0.1548  0.1976
 6171SOL    HW129975   4.572   4.373   6.057 -1.4735  0.1181  1.6026
 6171SOL    HW229976   4.697   4.313   6.057  0.3545  0.7069  0.8844
 6172SOL     OW29977   4.055   1.491   9.609 -0.2330  0.4413  0.2141
 6172SOL    HW129978   3.964   1.463   9.611  0.6545 -2.5352 -1.4589
 6172SOL    HW229979   4.089   1.477   9.698  1.6117  1.3178 -0.3490
 6173SOL     OW29980   0.306   3.256   3.243 -0.0397  0.3962 -0.0081
 6173SOL    HW129981   0.259   3.173   3.231  1.7314 -0.3211 -1.9904
 6173SOL    HW229982   0.286   3.310   3.166  1.5147  2.2706  0.9008
 6174SOL     OW29983   1.437   1.825   5.339 -0.1788  0.4913 -0.3630
 6174SOL    HW129984   1.468   1.768   5.268  0.4205  1.5189 -0.9174
 6174SOL    HW229985   1.341   1.819   5.331  0.0034 -0.3340 -1.9634
 6175SOL     OW29986   1.580   3.787   7.753 -0.7055 -0.0580  0.5127
 6175SOL    HW129987   1.615   3.858   7.807 -0.6751 -0.4373  0.9833
 6175SOL    HW229988   1.603   3.705   7.796 -0.2393  1.3003  2.8621
 6176SOL     OW29989   1.853   2.863   5.158 -0.1495  0.3200 -0.1293
 6176SOL    HW129990   1.924   2.925   5.175 -0.0354 -0.4287  2.1406
 6176SOL    HW229991   1.786   2.930   5.147 -1.2362 -0.6909  0.2745
 6177SOL     OW29992   4.671   0.714  17.282 -0.7501  0.1185  0.2555
 6177SOL    HW129993   0.022   0.745  17.236 -0.4580 -0.9484  0.0155
 6177SOL    HW229994   4.644   0.639  17.228  0.0846 -0.6831  0.9646
 6178SOL     OW29995   3.745   0.559   6.484 -0.5596  0.1595  0.4800
 6178SOL    HW129996   3.781   0.527   6.402  1.9700  0.6372  1.3912
 6178SOL    HW229997   3.790   0.507   6.551  2.4549  1.4041 -0.6073
 6179SOL     OW29998   3.867   4.517   6.537 -0.0139  0.0739 -0.1042
 6179SOL    HW129999   3.899   4.591   6.590  1.4642  0.3953 -1.4745
 6179SOL    HW230000   3.932   4.454   6.568  0.0955 -0.5135 -1.5349
 6180SOL     OW30001   3.061   2.334  14.514 -0.3480  0.3572 -0.0830
 6180SOL    HW130002   3.094   2.395  14.448  2.7943 -0.7561  0.4399
 6180SOL    HW230003   2.965   2.332  14.508 -0.3623  1.4143 -0.1411
 6181SOL     OW30004   1.195   3.187   2.992 -0.1744  0.6500 -0.3102
 6181SOL    HW130005   1.224   3.209   2.904 -0.6020  1.4524 -0.2510
 6181SOL    HW230006   1.194   3.091   2.998 -2.0123  0.5984 -1.4765
 6182SOL     OW30007   2.648   4.442   2.337 -0.1300 -0.7677 -0.1183
 6182SOL    HW130008   2.567   4.491   2.349 -0.7947 -2.0053  0.5242
 6182SOL    HW230009   2.607   4.355   2.329  0.3733 -0.9757 -0.4516
 6183SOL     OW30010   1.399   3.396   4.738 -0.2327 -0.4976  0.3178
 6183SOL    HW130011   1.323   3.453   4.744  0.3388  0.2072  0.8428
 6183SOL    HW230012   1.432   3.409   4.650 -1.2277 -1.5843 -0.2199
 6184SOL     OW30013   4.483   4.527   7.237  0.0824 -0.2483  0.6319
 6184SOL    HW130014   4.464   4.454   7.296  1.2780 -0.7466  0.4039
 6184SOL    HW230015   4.578   4.532   7.230  0.0736 -0.8588  0.0685
 6185SOL     OW30016   2.546   2.297   4.758 -0.4613  0.1581  0.2538
 6185SOL    HW130017   2.597   2.240   4.700 -0.8511  1.9951 -1.8689
 6185SOL    HW230018   2.462   2.309   4.714 -0.5578 -0.6341  0.2232
 6186SOL     OW30019   0.701   0.928   1.710  0.0887  0.7536  1.0061
 6186SOL    HW130020   0.651   1.010   1.714 -1.5174 -0.3152  2.7156
 6186SOL    HW230021   0.630   0.883   1.665  1.2400  1.0155 -1.0548
 6187SOL     OW30022   1.065   3.667   5.522 -0.2917  0.1360 -0.1401
 6187SOL    HW130023   1.102   3.634   5.440 -0.6230 -0.1535 -0.1690
 6187SOL    HW230024   0.971   3.662   5.505  0.0593 -2.0787 -1.3946
 6188SOL     OW30025   3.067   3.877  12.730  0.0847  0.1502 -0.4206
 6188SOL    HW130026   3.087   3.785  12.717 -1.0780  0.1558 -2.1836
 6188SOL    HW230027   2.974   3.874  12.754  0.1665 -1.1253 -0.3091
 6189SOL     OW30028   2.524   1.541  12.984 -0.3087  0.0637 -0.1091
 6189SOL    HW130029   2.537   1.467  12.924 -1.0408  0.2630 -0.5234
 6189SOL    HW230030   2.469   1.600  12.932  0.4406  0.4249 -0.4775
 6190SOL     OW30031   4.404   0.987   4.755  0.4178 -0.7553  0.3837
 6190SOL    HW130032   4.318   0.963   4.789  0.6036 -0.9967  0.6970
 6190SOL    HW230033   4.435   0.901   4.726  1.2174 -0.6982  1.0576
 6191SOL     OW30034   0.486   3.662   4.428  0.1243  0.0887  0.1846
 6191SOL    HW130035   0.519   3.724   4.493 -0.1720  1.6596 -1.1623
 6191SOL    HW230036   0.477   3.726   4.356  1.7587  1.2385  0.9966
 6192SOL     OW30037   2.874   3.523   1.299 -0.3378 -0.2917 -0.1277
 6192SOL    HW130038   2.849   3.535   1.207  3.0016  1.1516 -0.8470
 6192SOL    HW230039   2.934   3.449   1.304  3.0407  2.4656  0.4259
 6193SOL     OW30040   1.973   2.965   6.418  0.1699 -0.1949 -0.4820
 6193SOL    HW130041   1.987   2.876   6.385  0.6633 -0.0178 -0.7466
 6193SOL    HW230042   2.045   2.975   6.480 -2.6643 -0.8568  2.9641
 6194SOL     OW30043   3.972   2.532   2.497 -0.2135  0.6870 -0.4635
 6194SOL    HW130044   3.961   2.438   2.482  1.2205  0.4272  0.1066
 6194SOL    HW230045   4.052   2.524   2.550 -0.4099  0.4714 -0.1977
 6195SOL     OW30046   0.623   0.314   5.998  0.2250 -0.5595 -0.1333
 6195SOL    HW130047   0.571   0.315   6.079 -0.2462  1.9547 -0.4745
 6195SOL    HW230048   0.633   0.409   5.992 -0.8969 -0.4075  0.3920
 6196SOL     OW30049   4.412   2.991  15.814  0.0744 -0.3679  0.6417
 6196SOL    HW130050   4.319   3.013  15.807 -0.4522 -2.5320  0.9306
 6196SOL    HW230051   4.446   3.054  15.877  0.4667 -1.3808  1.4286
 6197SOL     OW30052   0.316   3.504  11.347  0.2240  0.6322  0.4559
 6197SOL    HW130053   0.399   3.551  11.344  0.4562  0.1870 -0.0908
 6197SOL    HW230054   0.253   3.575  11.340  1.4956  1.9222  2.0718
 6198SOL     OW30055   2.713   0.303  13.751 -0.1780 -0.2633  0.5001
 6198SOL    HW130056   2.789   0.294  13.809  0.7693 -1.6650 -0.9540
 6198SOL    HW230057   2.643   0.262  13.802  0.9025 -0.0544  2.1757
 6199SOL     OW30058   0.926   3.371   6.807 -0.5537  0.1159  0.2232
 6199SOL    HW130059   0.993   3.436   6.789 -1.1904  1.1328  1.4846
 6199SOL    HW230060   0.857   3.402   6.748  1.9294  0.6126 -2.3771
 6200SOL     OW30061   4.066   0.987   5.079 -0.1980  0.2065  0.2046
 6200SOL    HW130062   4.125   1.000   5.153 -2.5159  0.9646  1.9430
 6200SOL    HW230063   4.004   0.923   5.113  2.2013 -1.6217  1.1282
 6201SOL     OW30064   0.856   1.353  17.284  0.7333  0.3604 -0.2813
 6201SOL    HW130065   0.809   1.401  17.353 -0.4012 -1.8313  0.4808
 6201SOL    HW230066   0.895   1.424  17.232  0.2132  0.4771 -0.5164
 6202SOL     OW30067   0.902   0.471   2.319  0.2089 -0.1853  0.3754
 6202SOL    HW130068   0.838   0.470   2.249  1.0740  1.2086 -0.4275
 6202SOL    HW230069   0.926   0.560   2.296  0.5186 -0.3198  0.1779
 6203SOL     OW30070   1.762   4.067  10.763 -0.0388 -0.1422  0.2683
 6203SOL    HW130071   1.851   4.093  10.738 -1.2687  2.7927 -1.0824
 6203SOL    HW230072   1.745   4.121  10.840  0.7945  0.6212 -0.0928
 6204SOL     OW30073   4.236   3.990  16.203  0.0200  0.1213 -0.2491
 6204SOL    HW130074   4.226   3.896  16.188 -0.8860  0.5741 -2.3845
 6204SOL    HW230075   4.256   3.981  16.297 -0.5850  0.6024 -0.0769
 6205SOL     OW30076   4.488   4.103   8.100 -0.2640 -0.5625 -0.0055
 6205SOL    HW130077   4.409   4.124   8.151 -1.1715 -1.4554 -1.0494
 6205SOL    HW230078   4.539   4.071   8.174 -1.6100  2.1899  2.1287
 6206SOL     OW30079   2.318   2.912   9.820  0.4428 -0.1607  0.2546
 6206SOL    HW130080   2.392   2.853   9.806  1.3019  0.8763  0.4192
 6206SOL    HW230081   2.279   2.876   9.900 -2.1552 -0.1398 -1.0093
 6207SOL     OW30082   1.059   2.625   0.258  0.4190  0.2391 -0.6310
 6207SOL    HW130083   1.057   2.559   0.327 -1.3139  1.9225  0.9224
 6207SOL    HW230084   0.984   2.600   0.204  0.6630  0.1843 -0.9443
 6208SOL     OW30085   2.684   0.403   6.633  0.3351 -0.1145  0.2330
 6208SOL    HW130086   2.697   0.422   6.541 -1.6628 -0.3544 -0.1138
 6208SOL    HW230087   2.770   0.377   6.667 -0.0403 -0.5189  0.8942
 6209SOL     OW30088   4.607   1.692   7.171 -0.3412 -0.0387 -0.4546
 6209SOL    HW130089   4.515   1.685   7.144 -0.2791 -1.3129 -0.3302
 6209SOL    HW230090   4.598   1.710   7.264 -0.4259 -0.9982 -0.2751
 6210SOL     OW30091   4.134   2.636   2.849 -0.1027 -0.3109  0.0534
 6210SOL    HW130092   4.160   2.577   2.778  0.1376  0.3632 -0.4189
 6210SOL    HW230093   4.066   2.578   2.882  1.3274 -1.1843  1.4690
 6211SOL     OW30094   1.692   1.267   6.477 -0.2873  0.1973 -0.6176
 6211SOL    HW130095   1.696   1.358   6.503 -0.4143  0.4313 -1.4092
 6211SOL    HW230096   1.689   1.226   6.563 -2.2437  1.0086 -0.3016
 6212SOL     OW30097   1.371   2.339   8.236 -0.5006 -0.6986  0.7536
 6212SOL    HW130098   1.318   2.417   8.245 -0.0737 -0.6303  2.6464
 6212SOL    HW230099   1.351   2.303   8.150  0.8048 -0.6494  0.4233
 6213SOL     OW30100   0.476   3.572  12.147 -0.4926  0.2187  0.2928
 6213SOL    HW130101   0.496   3.606  12.060 -0.4802  0.3126  0.3319
 6213SOL    HW230102   0.407   3.509  12.128 -0.0263 -0.1222 -0.2592
 6214SOL     OW30103   0.734   3.389   5.610 -0.1549  0.4879 -0.1695
 6214SOL    HW130104   0.758   3.411   5.700 -1.1696  2.6453 -0.4350
 6214SOL    HW230105   0.679   3.312   5.625 -0.0798  0.6278  0.8637
 6215SOL     OW30106   2.992   3.595  12.112  0.3183  0.1409  0.2127
 6215SOL    HW130107   3.041   3.663  12.066  1.4868 -0.5684  0.4088
 6215SOL    HW230108   3.042   3.516  12.094  0.9376  0.8829 -1.2857
 6216SOL     OW30109   3.004   1.436   2.927 -0.0650 -0.4046 -0.0876
 6216SOL    HW130110   3.088   1.436   2.881 -0.7780  0.7542 -1.3887
 6216SOL    HW230111   2.996   1.527   2.954 -2.2024  0.1781 -2.6680
 6217SOL     OW30112   2.458   0.473   2.750 -0.1997 -0.0253  0.7196
 6217SOL    HW130113   2.385   0.418   2.780  0.6702 -1.9505 -0.7002
 6217SOL    HW230114   2.434   0.463   2.657  0.8997 -1.7162  0.6155
 6218SOL     OW30115   3.611   1.083   8.677 -0.6240  0.6051  0.0078
 6218SOL    HW130116   3.666   1.044   8.610 -0.4593  0.6650  0.1080
 6218SOL    HW230117   3.625   1.021   8.748 -2.8992 -2.0118 -1.8395
 6219SOL     OW30118   1.522   1.203   9.281  0.9505  0.5668 -0.3785
 6219SOL    HW130119   1.542   1.251   9.361  0.2817  0.5005 -0.1731
 6219SOL    HW230120   1.433   1.178   9.304  0.5744  1.9340 -0.3129
 6220SOL     OW30121   1.190   4.249   4.287  0.3370  0.0511 -0.6048
 6220SOL    HW130122   1.167   4.311   4.218  0.4548  1.8366  0.9563
 6220SOL    HW230123   1.105   4.215   4.314  0.8609 -0.1789  0.7499
 6221SOL     OW30124   2.999   1.155   2.620  0.2767 -0.1405 -0.0677
 6221SOL    HW130125   3.046   1.087   2.572 -0.3481 -1.6429  1.4407
 6221SOL    HW230126   3.061   1.227   2.609 -0.7537  0.8101  0.3591
 6222SOL     OW30127   0.469   3.208  12.712 -0.5999  0.1425  0.3004
 6222SOL    HW130128   0.479   3.189  12.806 -0.9315  0.5658  0.4214
 6222SOL    HW230129   0.488   3.128  12.663 -3.1436  0.0023 -0.4711
 6223SOL     OW30130   1.851   1.010   1.545  0.4419 -0.1884  0.4098
 6223SOL    HW130131   1.863   1.104   1.538 -1.5046  0.0941  0.7669
 6223SOL    HW230132   1.936   0.981   1.513 -0.6815 -1.5510 -1.3656
 6224SOL     OW30133   0.192   4.068   2.579  0.0792 -0.1346  0.0777
 6224SOL    HW130134   0.141   4.024   2.511 -0.1124  0.7088 -0.3323
 6224SOL    HW230135   0.208   4.150   2.532 -3.7669  0.0434 -0.9470
 6225SOL     OW30136   0.947   2.222   7.237 -0.1826 -0.7579 -0.3058
 6225SOL    HW130137   0.993   2.242   7.318  2.2166  1.0755 -2.1502
 6225SOL    HW230138   0.945   2.310   7.199  3.1112 -0.4794  0.2222
 6226SOL     OW30139   3.883   3.365   8.453  0.1833 -0.0819 -0.4971
 6226SOL    HW130140   3.916   3.333   8.537 -1.1811  2.2543  0.9223
 6226SOL    HW230141   3.891   3.290   8.394 -0.2948  0.2443 -0.9823
 6227SOL     OW30142   3.200   1.951  11.800 -0.7003 -0.5733 -0.2220
 6227SOL    HW130143   3.186   1.889  11.872 -1.2883 -2.2222 -1.7694
 6227SOL    HW230144   3.140   1.918  11.733  0.9810 -2.6107 -0.7017
 6228SOL     OW30145   4.143   4.100   3.793 -0.3253 -0.3944  0.7726
 6228SOL    HW130146   4.057   4.106   3.750 -0.3357  0.9381  0.9699
 6228SOL    HW230147   4.177   4.027   3.743 -2.3966 -0.5073 -0.4967
 6229SOL     OW30148   2.187   4.446   6.764  0.2543 -0.0170  0.3405
 6229SOL    HW130149   2.183   4.514   6.697  1.4869  0.7177  1.0095
 6229SOL    HW230150   2.186   4.363   6.717 -0.1015  0.1743  0.0077
 6230SOL     OW30151   0.243   1.381  16.013 -0.5760 -0.2980  0.0555
 6230SOL    HW130152   0.263   1.298  16.056  1.5413 -0.1934 -0.7448
 6230SOL    HW230153   0.212   1.429  16.090 -1.1334 -0.5307 -0.0230
 6231SOL     OW30154   3.167   0.000  12.980  0.3518  0.1819  0.1475
 6231SOL    HW130155   3.088   0.053  12.985  0.3611  0.3003 -0.8483
 6231SOL    HW230156   3.197   0.001  13.071  2.0878 -0.4396 -0.4214
 6232SOL     OW30157   2.503   4.582   6.365 -0.1493  0.9398 -0.1761
 6232SOL    HW130158   2.525   4.525   6.291 -1.0621 -1.1932  1.1958
 6232SOL    HW230159   2.568   4.551   6.429 -1.4208 -1.8392 -0.2340
 6233SOL     OW30160   1.886   3.084   7.140  0.3909 -0.2672 -0.1061
 6233SOL    HW130161   1.871   3.167   7.093 -2.8604 -1.4799 -1.1530
 6233SOL    HW230162   1.860   3.112   7.228 -2.0416 -1.1542 -0.5525
 6234SOL     OW30163   3.240   1.486   6.874 -0.4810  0.0643  0.1552
 6234SOL    HW130164   3.306   1.421   6.850 -2.7911 -2.4526  0.5375
 6234SOL    HW230165   3.238   1.542   6.797 -2.2819 -0.0221  0.1326
 6235SOL     OW30166   3.157   3.984   1.806 -0.2529  0.0727  0.0524
 6235SOL    HW130167   3.086   3.936   1.762  0.1026 -1.5408  1.2342
 6235SOL    HW230168   3.227   3.984   1.741 -0.8778  0.5023 -0.6245
 6236SOL     OW30169   1.370   2.871  11.944 -0.8915  0.4279  0.2145
 6236SOL    HW130170   1.286   2.836  11.916 -0.6077 -0.9679  1.0805
 6236SOL    HW230171   1.418   2.806  11.893 -1.2415  1.3608 -1.2954
 6237SOL     OW30172   2.733   2.504   8.016 -0.0138  0.2504 -0.1243
 6237SOL    HW130173   2.693   2.417   8.009  0.4426 -0.0659  1.1685
 6237SOL    HW230174   2.822   2.471   8.027 -0.1929 -0.6962 -1.4119
 6238SOL     OW30175   2.809   2.432   4.592 -0.3220  0.1760  0.5317
 6238SOL    HW130176   2.846   2.356   4.547  0.3719  0.5799  0.4288
 6238SOL    HW230177   2.889   2.482   4.606 -0.9396  0.9047  1.4026
 6239SOL     OW30178   3.415   4.287  10.374 -0.2471  0.0374 -0.1864
 6239SOL    HW130179   3.493   4.339  10.391 -1.5822  1.8444  0.4261
 6239SOL    HW230180   3.392   4.301  10.282 -0.8911 -0.1040 -0.0514
 6240SOL     OW30181   1.260   2.230   4.384 -0.1187 -0.3922  0.5265
 6240SOL    HW130182   1.204   2.154   4.398  0.5554 -0.9822  0.0056
 6240SOL    HW230183   1.229   2.295   4.447 -3.3177 -0.9144 -0.5186
 6241SOL     OW30184   1.886   2.972   2.354  0.3937 -0.2307  0.3308
 6241SOL    HW130185   1.965   3.007   2.395 -0.4513  0.2193  1.5620
 6241SOL    HW230186   1.832   2.929   2.421  1.4453  2.6403  2.9992
 6242SOL     OW30187   4.186   1.290   7.231  0.0836 -0.8051 -0.8259
 6242SOL    HW130188   4.095   1.272   7.256 -0.3682  1.8672 -0.5236
 6242SOL    HW230189   4.165   1.297   7.137  1.0049  1.0153 -0.9048
 6243SOL     OW30190   3.261   1.459   3.783  0.5413 -0.6442 -0.1768
 6243SOL    HW130191   3.297   1.482   3.698  1.0166  0.1377  0.2344
 6243SOL    HW230192   3.316   1.382   3.799  2.9598  1.4063  1.3988
 6244SOL     OW30193   4.648   0.784   1.849 -0.0262 -0.0509 -0.2085
 6244SOL    HW130194   4.726   0.752   1.894 -0.8683 -1.2415  0.3958
 6244SOL    HW230195   4.602   0.701   1.839  1.0838 -0.6672 -0.1714
 6245SOL     OW30196   4.014   0.415   6.703 -0.5020  0.1636  0.3615
 6245SOL    HW130197   3.999   0.357   6.629  1.8294 -0.4076  0.3177
 6245SOL    HW230198   4.086   0.471   6.673 -2.0919  2.3209  0.5712
 6246SOL     OW30199   3.655   0.111   2.699 -0.2827  0.3409 -0.0359
 6246SOL    HW130200   3.723   0.078   2.758 -1.4195 -1.0287  0.4869
 6246SOL    HW230201   3.703   0.184   2.658 -0.7165  1.7224  1.8911
 6247SOL     OW30202   1.611   0.950   8.259  0.1350 -0.3916  0.2339
 6247SOL    HW130203   1.562   1.012   8.313  0.1828 -0.7533  0.6952
 6247SOL    HW230204   1.671   0.915   8.326  0.0076 -2.4302 -0.7155
 6248SOL     OW30205   4.312   3.656  14.986  0.3471 -0.0732  0.1692
 6248SOL    HW130206   4.360   3.637  15.066 -1.8685 -2.7477  0.8415
 6248SOL    HW230207   4.232   3.703  15.009  0.1342  0.1356 -1.0081
 6249SOL     OW30208   1.509   0.446   2.499 -0.6014 -0.3983  0.1172
 6249SOL    HW130209   1.466   0.444   2.414 -0.2989  1.1054 -0.0801
 6249SOL    HW230210   1.500   0.535   2.534  4.0954  1.0856 -2.3738
 6250SOL     OW30211   3.262   3.878   4.433 -0.1539  0.2844  0.3214
 6250SOL    HW130212   3.253   3.968   4.403  1.3080  0.6682  0.9980
 6250SOL    HW230213   3.208   3.879   4.512 -0.5059  2.7913  0.0282
 6251SOL     OW30214   3.120   2.822   4.627  1.0738  0.4792 -0.0410
 6251SOL    HW130215   3.134   2.860   4.540  0.3343  2.2832  0.6481
 6251SOL    HW230216   3.182   2.870   4.681  1.5399 -1.4246  1.1186
 6252SOL     OW30217   3.250   1.991   2.187 -0.0913 -0.0389 -0.6151
 6252SOL    HW130218   3.282   1.914   2.234 -1.2530  0.9339  1.7436
 6252SOL    HW230219   3.218   1.955   2.104  0.9254 -0.6776 -0.7288
 6253SOL     OW30220   1.083   4.035   8.626 -0.1103 -0.2427 -0.0125
 6253SOL    HW130221   1.011   4.095   8.647 -2.0792 -3.2425  1.7599
 6253SOL    HW230222   1.152   4.100   8.637 -0.0319 -0.2791 -0.2769
 6254SOL     OW30223   2.644   4.044  14.448 -0.1277  0.4983  0.2559
 6254SOL    HW130224   2.637   3.998  14.532 -1.0516  2.8995  1.4957
 6254SOL    HW230225   2.565   4.096  14.465 -0.7801 -0.4089 -0.0243
 6255SOL     OW30226   0.497   3.914   6.257  0.1885 -0.2229  0.5222
 6255SOL    HW130227   0.421   3.899   6.312 -0.4486  1.0541 -0.0379
 6255SOL    HW230228   0.537   3.990   6.299 -0.3863 -0.6119  1.7556
 6256SOL     OW30229   4.381   2.969   6.376  0.1338  0.0632 -0.2811
 6256SOL    HW130230   4.335   3.026   6.437 -0.8105 -1.6403  0.5903
 6256SOL    HW230231   4.384   3.025   6.298 -0.0911  0.9014  0.3200
 6257SOL     OW30232   0.092   3.371  12.977  0.3110  0.4170  0.1651
 6257SOL    HW130233   0.138   3.374  13.061 -0.0490  2.2365  0.2995
 6257SOL    HW230234   0.036   3.294  12.988 -0.1935  0.7713  0.0880
 6258SOL     OW30235   3.854   2.070   5.349 -0.4869 -0.6626 -0.1028
 6258SOL    HW130236   3.906   2.067   5.269  1.0661 -2.3747  0.9687
 6258SOL    HW230237   3.761   2.073   5.325 -0.8672  1.6955  1.6911
 6259SOL     OW30238   1.355   0.409   6.210  0.1947 -0.1154  0.1193
 6259SOL    HW130239   1.381   0.349   6.139  0.5814  0.4230 -0.1900
 6259SOL    HW230240   1.431   0.400   6.268  1.5852  3.0741 -1.1894
 6260SOL     OW30241   3.300   2.484   3.714 -0.5396 -0.3642 -0.0400
 6260SOL    HW130242   3.363   2.529   3.657  0.0234 -0.9889  0.0956
 6260SOL    HW230243   3.317   2.391   3.705 -3.3888 -0.6729 -2.1914
 6261SOL     OW30244   3.760   1.480   5.060 -0.0430 -0.0511 -0.1498
 6261SOL    HW130245   3.767   1.511   4.969 -1.7981 -2.2711 -1.0197
 6261SOL    HW230246   3.728   1.565   5.089  3.1877  0.7166  1.2537
 6262SOL     OW30247   1.898   3.399   8.966  0.1368 -0.3595 -0.3017
 6262SOL    HW130248   1.974   3.456   8.950 -0.4521  0.3150 -0.6996
 6262SOL    HW230249   1.913   3.324   8.909  1.3851  0.9824 -1.7460
 6263SOL     OW30250   4.326   1.842   4.097  0.5408  0.4321  0.1684
 6263SOL    HW130251   4.376   1.893   4.033  0.5990  0.2520  0.0714
 6263SOL    HW230252   4.246   1.890   4.076 -0.4165 -1.7300 -1.0509
 6264SOL     OW30253   0.518   0.722   7.661 -0.0936  0.1911  0.7029
 6264SOL    HW130254   0.454   0.700   7.728  0.1188 -0.8103  0.5707
 6264SOL    HW230255   0.493   0.809   7.629 -1.5175 -0.2207  0.6942
 6265SOL     OW30256   4.335   2.191  12.605 -0.6722 -0.6522 -0.5854
 6265SOL    HW130257   4.272   2.214  12.673 -1.8729 -1.0393 -1.5469
 6265SOL    HW230258   4.388   2.270  12.604  0.3344 -1.2842  2.8385
 6266SOL     OW30259   4.681   2.604   9.124  0.1325 -0.5023  0.1761
 6266SOL    HW130260   4.722   2.574   9.043 -0.1204 -1.0201  0.2455
 6266SOL    HW230261   4.619   2.663   9.079 -0.5593 -1.0098  0.4727
 6267SOL     OW30262   4.039   4.614   7.818  0.1032 -0.6065 -0.1389
 6267SOL    HW130263   4.131   4.591   7.808 -0.1936 -1.4783 -0.8496
 6267SOL    HW230264   3.999   4.528   7.807  0.8844 -0.8485 -1.0666
 6268SOL     OW30265   4.497   2.783   1.532 -0.1510 -0.5667  0.2673
 6268SOL    HW130266   4.442   2.705   1.522  2.3834 -2.4592  1.0321
 6268SOL    HW230267   4.568   2.764   1.471 -1.1162  0.0541 -1.0704
 6269SOL     OW30268   3.623   4.309   6.564  0.3826 -0.3388 -0.4522
 6269SOL    HW130269   3.674   4.382   6.600 -0.2052  0.1170 -0.5374
 6269SOL    HW230270   3.696   4.249   6.552  1.4780  1.3651 -2.3191
 6270SOL     OW30271   2.688   2.155   1.883  0.3579 -0.1796  0.5760
 6270SOL    HW130272   2.644   2.226   1.838  0.1296 -0.6701  0.0237
 6270SOL    HW230273   2.622   2.130   1.948 -0.6142 -0.7142 -0.6251
 6271SOL     OW30274   1.604   1.264   1.977 -0.3277  0.0315 -0.0194
 6271SOL    HW130275   1.657   1.277   1.899  1.0795 -3.3650  0.3671
 6271SOL    HW230276   1.538   1.203   1.944 -1.2577  0.9542  0.1578
 6272SOL     OW30277   4.123   0.310  14.493 -0.0536  0.2947 -0.3003
 6272SOL    HW130278   4.180   0.329  14.567  2.6911 -0.2725 -2.2424
 6272SOL    HW230279   4.134   0.216  14.480 -0.0026  0.4435 -1.3280
 6273SOL     OW30280   3.630   4.392   7.722  0.4299 -0.4409  0.3381
 6273SOL    HW130281   3.574   4.359   7.792 -2.1070  0.8461 -1.1156
 6273SOL    HW230282   3.571   4.382   7.648 -0.5818  0.1700  1.0590
 6274SOL     OW30283   3.350   3.405   5.082 -0.0081  0.4737 -0.2632
 6274SOL    HW130284   3.268   3.372   5.045  0.4551 -1.0905  0.0867
 6274SOL    HW230285   3.406   3.332   5.056 -1.4897  0.4368 -3.3243
 6275SOL     OW30286   4.404   2.281   2.534  0.3230 -0.2706 -0.3486
 6275SOL    HW130287   4.487   2.317   2.567 -0.3266  0.5559  0.3626
 6275SOL    HW230288   4.399   2.300   2.441 -2.1064 -0.8564 -0.3329
 6276SOL     OW30289   3.298   2.602   4.840 -0.2476  0.4333  0.1476
 6276SOL    HW130290   3.247   2.633   4.914  0.2422 -0.2049  0.7547
 6276SOL    HW230291   3.255   2.517   4.827 -0.0911  0.3862 -0.0652
 6277SOL     OW30292   2.618   3.908   9.622  1.0470  0.1123 -0.4172
 6277SOL    HW130293   2.669   3.829   9.605  0.3908 -0.4764  0.3360
 6277SOL    HW230294   2.694   3.966   9.616  2.1462 -1.2948  0.1091
 6278SOL     OW30295   4.158   0.840   3.802  0.0523  0.0061  0.0314
 6278SOL    HW130296   4.184   0.789   3.879  0.5473  0.2412  0.0154
 6278SOL    HW230297   4.204   0.790   3.735 -2.5547  0.4512 -2.1081
 6279SOL     OW30298   4.495   3.094  14.951 -0.3454 -0.3923  0.2702
 6279SOL    HW130299   4.553   3.071  14.879 -0.1626  1.4466 -0.1790
 6279SOL    HW230300   4.507   3.014  15.002 -1.0155  1.5184  3.4882
 6280SOL     OW30301   2.912   3.579   8.865 -0.0529  0.0527  0.6037
 6280SOL    HW130302   2.990   3.566   8.919  0.0363 -0.4773  0.3466
 6280SOL    HW230303   2.955   3.609   8.785 -1.1427  1.0263  0.3852
 6281SOL     OW30304   3.297   3.239   4.387  0.0693 -0.3694  0.2978
 6281SOL    HW130305   3.318   3.239   4.294  0.5530  2.1135  0.4178
 6281SOL    HW230306   3.384   3.258   4.423  0.4228  0.6453 -1.0894
 6282SOL     OW30307   2.872   0.965   6.366  0.8109 -0.2422  0.1640
 6282SOL    HW130308   2.830   0.940   6.449  0.8710 -1.1968 -0.0859
 6282SOL    HW230309   2.795   0.998   6.320  1.0391 -1.6951 -1.2603
 6283SOL     OW30310   2.174   2.152   5.497 -0.3306 -0.7887  0.3340
 6283SOL    HW130311   2.099   2.122   5.447  0.4891  0.5394 -1.6981
 6283SOL    HW230312   2.232   2.083   5.465 -0.3216 -1.0079  0.8240
 6284SOL     OW30313   1.630   1.078   6.676 -0.1733 -0.3592 -0.4320
 6284SOL    HW130314   1.569   1.017   6.632  0.9130 -0.0801 -2.3190
 6284SOL    HW230315   1.564   1.120   6.731  0.1778  0.0025 -0.2924
 6285SOL     OW30316   0.492   1.297   3.770 -0.3062  0.4889  0.2441
 6285SOL    HW130317   0.454   1.383   3.749  0.2896  0.2538 -1.8413
 6285SOL    HW230318   0.515   1.263   3.683  2.5645  0.6406  0.9336
 6286SOL     OW30319   4.667   3.879   1.301  0.3396 -0.1733  0.7979
 6286SOL    HW130320   4.711   3.951   1.346 -0.8478  0.6341  0.6618
 6286SOL    HW230321   4.575   3.898   1.319  1.4056  3.0435  2.8539
 6287SOL     OW30322   0.361   2.949   0.595 -0.7586  0.4698 -0.0566
 6287SOL    HW130323   0.424   2.900   0.649 -2.1672 -3.6165 -2.1627
 6287SOL    HW230324   0.399   2.962   0.508 -1.5639 -0.3552 -0.5184
 6288SOL     OW30325   0.529   3.546   5.372 -0.3255 -0.8288  0.0004
 6288SOL    HW130326   0.445   3.526   5.413 -2.1704  0.1627 -3.2861
 6288SOL    HW230327   0.553   3.455   5.353 -0.3020 -0.4763 -1.6735
 6289SOL     OW30328   0.307   2.701   2.811 -0.1943 -0.1631 -0.0258
 6289SOL    HW130329   0.373   2.742   2.756 -0.6634  1.1519  0.3885
 6289SOL    HW230330   0.355   2.618   2.816 -1.8503 -1.2291 -1.7124
 6290SOL     OW30331   3.563   3.837  10.126 -0.5550 -0.1162  0.0963
 6290SOL    HW130332   3.541   3.807  10.038 -1.2187 -2.1971  0.9581
 6290SOL    HW230333   3.632   3.900  10.109  0.3684 -0.8518  1.0968
 6291SOL     OW30334   3.000   2.391   6.270 -0.1482 -0.5226 -0.1402
 6291SOL    HW130335   3.090   2.415   6.248 -0.4924 -1.5021 -2.6430
 6291SOL    HW230336   2.977   2.314   6.217 -0.4758  0.1797 -1.0391
 6292SOL     OW30337   0.966   1.243   4.727  0.0331 -0.2720  0.6008
 6292SOL    HW130338   1.004   1.248   4.639 -1.1974  1.4678  0.1685
 6292SOL    HW230339   0.939   1.335   4.732 -0.1509 -0.4230  2.4434
 6293SOL     OW30340   0.948   2.535  15.351 -0.1305  0.2359 -0.1329
 6293SOL    HW130341   1.022   2.592  15.374  0.3846 -0.8399  0.9445
 6293SOL    HW230342   0.896   2.560  15.428 -1.7710 -0.3370 -1.0623
 6294SOL     OW30343   0.877   4.601   1.899 -0.3533 -0.0675  0.0467
 6294SOL    HW130344   0.825   4.583   1.977 -0.8692  0.8577 -0.0903
 6294SOL    HW230345   0.847   4.687   1.872 -0.6293  0.1085  0.9132
 6295SOL     OW30346   3.094   3.315   9.900 -0.0503  0.0433 -0.1611
 6295SOL    HW130347   3.011   3.353   9.929 -0.5519 -0.8748 -0.3864
 6295SOL    HW230348   3.076   3.229   9.937 -0.7475  0.5366  0.6420
 6296SOL     OW30349   4.195   1.880  17.703  0.5926  0.6053  0.3639
 6296SOL    HW130350   4.139   1.954   0.018 -1.1829 -0.3422 -0.9987
 6296SOL    HW230351   4.264   1.884   0.062 -0.2554  0.2657  1.2460
 6297SOL     OW30352   0.060   2.925  11.092 -0.0566  0.5579  0.1545
 6297SOL    HW130353   0.130   2.984  11.066 -0.0905  1.0321  1.1085
 6297SOL    HW230354   4.709   2.982  11.088  0.1441  0.8383  0.2458
 6298SOL     OW30355   1.409   0.984   2.176  0.5183  0.1823 -0.5988
 6298SOL    HW130356   1.392   1.065   2.223 -1.3416 -0.4637 -0.1855
 6298SOL    HW230357   1.397   1.027   2.091  1.1395 -1.7482 -1.6615
 6299SOL     OW30358   3.388   4.441  12.356  0.3629  0.2947 -0.0771
 6299SOL    HW130359   3.379   4.368  12.417 -1.1138  0.8871  0.4115
 6299SOL    HW230360   3.440   4.502  12.408  0.4051  0.2771 -0.0989
 6300SOL     OW30361   2.649   3.518   7.827  0.7409 -0.5412 -0.0233
 6300SOL    HW130362   2.693   3.601   7.847  0.9483 -0.9931  1.3867
 6300SOL    HW230363   2.675   3.472   7.907 -0.5757  0.2242  0.8341
 6301SOL     OW30364   0.099   2.158  11.492 -0.0261 -0.5869  0.3484
 6301SOL    HW130365   0.099   2.062  11.489 -0.2900 -0.5522 -0.8362
 6301SOL    HW230366   0.187   2.174  11.459 -0.5220 -1.9097 -1.6384
 6302SOL     OW30367   1.119   0.500   5.164 -0.3513 -0.1089  0.5211
 6302SOL    HW130368   1.075   0.522   5.246  0.7749 -1.8719  1.5801
 6302SOL    HW230369   1.060   0.549   5.106 -2.3928 -0.6999  2.1120
 6303SOL     OW30370   1.265   2.375   7.623  0.2569  0.5356 -0.1530
 6303SOL    HW130371   1.314   2.309   7.671  0.1103 -0.4455 -1.3603
 6303SOL    HW230372   1.234   2.320   7.551  1.8623 -0.3964 -0.1114
 6304SOL     OW30373   1.235   0.340  17.545 -0.6640 -0.3446 -0.2018
 6304SOL    HW130374   1.197   0.310  17.628  0.4937 -0.4108  0.3055
 6304SOL    HW230375   1.230   0.257  17.498 -2.0607  0.2133 -1.0392
 6305SOL     OW30376   3.812   3.941  14.518 -0.9005  0.0269  0.1526
 6305SOL    HW130377   3.865   3.969  14.593  0.3192  1.3966 -1.2433
 6305SOL    HW230378   3.798   3.848  14.537  2.3183 -0.5861 -0.3599
 6306SOL     OW30379   2.053   3.229   2.814 -0.1366  0.2447 -0.4345
 6306SOL    HW130380   2.070   3.154   2.757  0.6616  1.6580 -2.0418
 6306SOL    HW230381   1.967   3.208   2.851 -0.4408 -0.3143 -1.4344
 6307SOL     OW30382   2.618   1.333   4.291 -0.5187 -0.2049  0.0869
 6307SOL    HW130383   2.636   1.309   4.200 -2.8195  0.3773 -0.5248
 6307SOL    HW230384   2.528   1.367   4.287 -0.7337 -0.4839  2.5225
 6308SOL     OW30385   1.788   3.882  12.418  0.3505 -0.3512 -0.2208
 6308SOL    HW130386   1.820   3.882  12.508  0.1944 -0.8113 -0.1645
 6308SOL    HW230387   1.866   3.857  12.368  0.7306  0.9423 -0.2713
 6309SOL     OW30388   3.920   2.695  15.007  0.2920 -0.2480 -0.1806
 6309SOL    HW130389   3.897   2.705  14.915  3.9118  0.8987 -0.9756
 6309SOL    HW230390   3.896   2.775  15.054 -1.3846 -0.8970  0.0586
 6310SOL     OW30391   4.533   1.652  15.304 -0.3252  0.4702 -0.0050
 6310SOL    HW130392   4.566   1.612  15.384  0.0491  0.5082 -0.1428
 6310SOL    HW230393   4.571   1.600  15.234 -0.7382  0.6912 -0.3927
 6311SOL     OW30394   2.172   1.099   9.432 -0.0286 -0.7759 -0.0612
 6311SOL    HW130395   2.115   1.134   9.500 -1.7661 -1.5815 -1.1003
 6311SOL    HW230396   2.120   1.043   9.374  0.7020 -1.1121 -0.3864
 6312SOL     OW30397   1.637   4.206   2.498 -0.4024  0.3731 -0.7248
 6312SOL    HW130398   1.587   4.243   2.571  0.9728 -0.6894  0.7544
 6312SOL    HW230399   1.565   4.178   2.442 -0.0786 -1.9517  0.0586
 6313SOL     OW30400   1.514   2.918   4.847  0.1253  0.2887 -0.6248
 6313SOL    HW130401   1.435   2.941   4.798  1.9001  2.0877 -2.6636
 6313SOL    HW230402   1.479   2.848   4.901  0.3245  2.1650  1.9257
 6314SOL     OW30403   2.146   3.899  11.072 -0.0128  0.1326 -0.5608
 6314SOL    HW130404   2.129   3.936  11.158  1.2105 -0.8177  0.0888
 6314SOL    HW230405   2.129   3.806  11.084  0.2421  0.2012  0.3618
 6315SOL     OW30406   4.128   2.811  11.772 -0.6366 -0.3574  0.5937
 6315SOL    HW130407   4.114   2.733  11.825 -0.3135 -0.4423  0.5546
 6315SOL    HW230408   4.088   2.779  11.691  0.5596  0.8204 -0.4782
 6316SOL     OW30409   2.269   0.818   4.436  0.1831 -0.7613 -0.4653
 6316SOL    HW130410   2.188   0.841   4.481 -0.1856 -0.0387 -1.5062
 6316SOL    HW230411   2.312   0.752   4.491 -1.1677 -1.8152 -0.6592
 6317SOL     OW30412   3.163   3.149  11.614  0.0540 -0.1604  1.0107
 6317SOL    HW130413   3.107   3.073  11.600  1.1651 -0.2082 -3.0417
 6317SOL    HW230414   3.110   3.223  11.584  0.0940 -0.5454 -0.0026
 6318SOL     OW30415   1.101   2.015   3.562  0.1476  0.1618 -0.4282
 6318SOL    HW130416   1.018   2.013   3.609  0.7179  0.3886  0.5846
 6318SOL    HW230417   1.094   2.099   3.517  1.9938  0.6829  0.2802
 6319SOL     OW30418   4.480   0.954   8.396 -0.0059 -0.3019  0.2040
 6319SOL    HW130419   4.546   1.015   8.364  0.0994 -0.7637 -0.4381
 6319SOL    HW230420   4.509   0.880   8.344 -0.1935  0.6761 -1.2947
 6320SOL     OW30421   4.651   3.332   3.087 -0.1217  0.5376 -0.3297
 6320SOL    HW130422   4.665   3.251   3.037 -0.2915 -0.1849  0.7707
 6320SOL    HW230423   4.654   3.301   3.178  0.3805  1.5382 -0.0069
 6321SOL     OW30424   1.291   4.512   1.973  0.3285 -0.7470 -0.1764
 6321SOL    HW130425   1.337   4.558   2.043  1.6729 -1.7346 -0.3927
 6321SOL    HW230426   1.253   4.588   1.929  2.2879 -1.3453 -2.9097
 6322SOL     OW30427   3.637   0.414   6.777 -0.1145 -0.2604 -0.0298
 6322SOL    HW130428   3.626   0.404   6.872 -0.5333 -1.1877 -0.1799
 6322SOL    HW230429   3.580   0.488   6.758  1.0102  0.3354 -1.0397
 6323SOL     OW30430   2.561   3.827   8.662 -0.2254  0.3978  0.7543
 6323SOL    HW130431   2.648   3.830   8.702 -0.8547 -1.0985  2.2709
 6323SOL    HW230432   2.564   3.907   8.610 -2.1653  0.7506  1.1961
 6324SOL     OW30433   1.838   3.452   0.079  0.0469  0.1170  0.2638
 6324SOL    HW130434   1.902   3.522   0.090 -0.1004 -0.1681  2.9246
 6324SOL    HW230435   1.847   3.427  17.695 -0.9394  0.7776 -0.0143
 6325SOL     OW30436   0.414   4.296   7.290  0.2432  0.6414 -0.0588
 6325SOL    HW130437   0.381   4.381   7.320  0.3916  0.1090  1.5997
 6325SOL    HW230438   0.394   4.234   7.360 -0.3387 -0.5112 -1.2407
 6326SOL     OW30439   0.182   2.643   6.254  0.7463 -0.1682  0.7334
 6326SOL    HW130440   0.165   2.737   6.245 -0.3963 -0.0792  3.7981
 6326SOL    HW230441   0.258   2.645   6.311  1.8182  0.6936 -0.7417
 6327SOL     OW30442   0.190   4.337  10.910 -0.2356 -0.0252 -0.1666
 6327SOL    HW130443   0.129   4.288  10.854  0.4710 -2.2892  1.0529
 6327SOL    HW230444   0.237   4.260  10.942  1.3992  0.9356 -0.2750
 6328SOL     OW30445   3.277   0.542   1.411 -0.1228 -0.3268  0.1054
 6328SOL    HW130446   3.254   0.635   1.422 -1.9337 -0.6467 -1.0444
 6328SOL    HW230447   3.198   0.515   1.364  1.1748 -0.5290 -1.9583
 6329SOL     OW30448   4.621   4.120   8.331  0.1752 -0.1931  0.1736
 6329SOL    HW130449   4.654   4.099   8.418  0.5315 -1.0446 -0.1658
 6329SOL    HW230450   4.655   4.207   8.310 -0.1943  0.0416  0.5436
 6330SOL     OW30451   4.293   0.271   2.918 -0.3192  0.3491 -0.2254
 6330SOL    HW130452   4.357   0.234   2.857  0.4646  2.1602 -0.4760
 6330SOL    HW230453   4.287   0.198   2.980  0.1917  0.1370 -0.4285
 6331SOL     OW30454   4.099   4.357   4.621 -0.0334  0.3661  0.1026
 6331SOL    HW130455   4.121   4.340   4.529  0.3541  1.9105 -0.0871
 6331SOL    HW230456   4.186   4.344   4.660 -1.4415 -1.9574  2.4619
 6332SOL     OW30457   4.655   4.382   8.299  0.1214 -0.2280  0.6092
 6332SOL    HW130458   4.704   4.429   8.366 -0.4392 -0.5557  1.2421
 6332SOL    HW230459   4.570   4.425   8.308  0.3635  1.0249 -3.0566
 6333SOL     OW30460   3.330   0.815  17.218 -0.5286  0.2621 -0.3245
 6333SOL    HW130461   3.269   0.873  17.263 -0.7385 -1.0624  1.0682
 6333SOL    HW230462   3.340   0.738  17.273 -3.2463 -0.1767 -0.4875
 6334SOL     OW30463   1.070   0.673   7.010  0.5310 -0.3452 -0.0343
 6334SOL    HW130464   1.066   0.758   6.965  0.3453 -1.2463 -1.7331
 6334SOL    HW230465   1.132   0.632   6.950  1.0209  1.4173 -0.7291
 6335SOL     OW30466   4.717   4.447   9.241 -0.2942 -0.2549 -0.1847
 6335SOL    HW130467   4.725   4.448   9.145  1.5656  1.3095 -0.0119
 6335SOL    HW230468   4.649   4.512   9.258 -0.2989 -0.3813  0.2697
 6336SOL     OW30469   3.001   0.873   2.478  0.1957 -0.0365 -0.6654
 6336SOL    HW130470   3.019   0.941   2.413  0.9958  0.0014 -0.4028
 6336SOL    HW230471   2.928   0.908   2.530  0.9875  0.0779  0.3639
 6337SOL     OW30472   0.786   2.256   3.743 -0.2855  0.3367  0.0623
 6337SOL    HW130473   0.831   2.309   3.810 -1.6744  1.7345 -0.1118
 6337SOL    HW230474   0.698   2.233   3.772  0.8370 -0.3937  2.8823
 6338SOL     OW30475   1.117   3.257  14.661 -0.1404  0.0831 -0.2722
 6338SOL    HW130476   1.073   3.264  14.576  1.6661 -0.9604 -1.2890
 6338SOL    HW230477   1.200   3.232  14.620  0.4246 -2.4061  2.4235
 6339SOL     OW30478   0.677   0.916   4.902  0.4164  0.2354 -0.5117
 6339SOL    HW130479   0.658   0.913   4.808 -0.0192  1.4890 -0.4598
 6339SOL    HW230480   0.766   0.879   4.902  0.4255  0.2268  3.1070
 6340SOL     OW30481   0.526   2.304   5.029 -0.0025 -0.3770 -1.0482
 6340SOL    HW130482   0.471   2.251   4.971  2.0924 -2.7556 -0.9144
 6340SOL    HW230483   0.539   2.242   5.101  0.9556  1.0021 -0.0421
 6341SOL     OW30484   2.397   3.404   0.097  0.4198 -0.1359 -0.0622
 6341SOL    HW130485   2.457   3.348   0.048 -1.5402 -1.3296 -1.0899
 6341SOL    HW230486   2.371   3.477   0.040 -0.2741 -0.9911 -0.8334
 6342SOL     OW30487   1.899   3.950   1.477 -0.4394  0.1686 -0.2107
 6342SOL    HW130488   1.975   3.899   1.505 -0.9778 -0.5575 -0.0907
 6342SOL    HW230489   1.823   3.895   1.494 -1.1084  0.8779 -0.9226
 6343SOL     OW30490   4.714   0.942  16.412  0.2554  0.1392 -0.3717
 6343SOL    HW130491   4.713   1.017  16.351 -1.6725 -0.8317 -1.5292
 6343SOL    HW230492   4.644   0.891  16.371  0.3303  0.6075 -1.0848
 6344SOL     OW30493   3.355   3.804   1.650  0.4956 -0.3556  0.3879
 6344SOL    HW130494   3.355   3.887   1.602 -0.0883  0.2342  1.4079
 6344SOL    HW230495   3.397   3.755   1.580  3.0657  0.0178  1.6610
 6345SOL     OW30496   1.855   4.302   3.843 -0.2738 -0.6415 -0.5880
 6345SOL    HW130497   1.780   4.356   3.819  1.0595  1.3331 -0.3140
 6345SOL    HW230498   1.878   4.267   3.757 -0.1243 -1.4944 -0.1976
 6346SOL     OW30499   0.406   4.486   8.626  0.0766 -0.4236 -0.3325
 6346SOL    HW130500   0.466   4.558   8.645 -0.7706  0.0569  0.5664
 6346SOL    HW230501   0.419   4.487   8.532 -1.4776 -0.8551 -0.5560
 6347SOL     OW30502   2.055   0.153   1.270 -0.4135  0.4014 -0.3228
 6347SOL    HW130503   2.075   0.203   1.349  0.2935 -0.2793 -0.0806
 6347SOL    HW230504   2.069   0.229   1.212 -0.6950  2.7485  2.7017
 6348SOL     OW30505   1.239   1.590  13.614 -0.2784  0.5608 -0.9512
 6348SOL    HW130506   1.193   1.600  13.531 -2.3009  0.3967  0.1321
 6348SOL    HW230507   1.167   1.622  13.668  0.8252  2.8917 -0.8839
 6349SOL     OW30508   0.122   3.245   0.745  0.2207 -0.2076  0.0383
 6349SOL    HW130509   0.145   3.283   0.829 -3.0630  2.2092 -0.1205
 6349SOL    HW230510   0.173   3.164   0.753 -1.5745 -1.3153  0.3008
 6350SOL     OW30511   1.240   2.534  11.013 -0.0095 -0.3480 -0.3197
 6350SOL    HW130512   1.197   2.620  11.010  0.8951  0.1260  0.4966
 6350SOL    HW230513   1.333   2.549  11.029 -0.5726  0.5756  1.9808
 6351SOL     OW30514   4.678   1.838   0.676  0.4363 -0.0579  0.2721
 6351SOL    HW130515   4.636   1.909   0.627  0.1224 -1.2202 -1.1751
 6351SOL    HW230516   4.636   1.849   0.761 -0.4927  1.0999 -0.3380
 6352SOL     OW30517   3.249   0.393  15.454 -0.2404 -0.2957 -0.0785
 6352SOL    HW130518   3.198   0.399  15.535  1.0870  1.9939  0.5980
 6352SOL    HW230519   3.186   0.439  15.399  2.1672 -0.6525 -3.1255
 6353SOL     OW30520   2.777   2.937   1.709 -0.1137  0.1816 -0.4780
 6353SOL    HW130521   2.709   2.877   1.679 -0.5536 -0.0710  1.0229
 6353SOL    HW230522   2.729   3.019   1.702  1.5494  1.0107 -2.2054
 6354SOL     OW30523   3.701   3.673   0.149 -0.1898 -0.0397 -0.5141
 6354SOL    HW130524   3.613   3.642   0.170 -1.0333  0.3771 -3.4298
 6354SOL    HW230525   3.681   3.767   0.143  0.5882  0.2447  1.3452
 6355SOL     OW30526   1.431   4.346  13.945  0.4548  0.0225  0.3911
 6355SOL    HW130527   1.405   4.364  13.855  0.1077  0.3016  0.5497
 6355SOL    HW230528   1.371   4.408  13.987 -1.4537 -0.7480 -1.2234
 6356SOL     OW30529   1.383   2.766   6.403  0.3418 -0.1614 -0.2965
 6356SOL    HW130530   1.364   2.742   6.494  0.3595 -2.0806 -0.7990
 6356SOL    HW230531   1.421   2.851   6.425 -0.0162 -0.6782  2.3404
 6357SOL     OW30532   0.826   3.175   4.874 -0.9383  0.1357  0.2896
 6357SOL    HW130533   0.817   3.270   4.868 -0.0789  0.0485 -2.2458
 6357SOL    HW230534   0.903   3.163   4.931 -0.0756 -0.9313 -1.1044
 6358SOL     OW30535   2.738   4.202   9.424 -0.2643  0.9627  0.1625
 6358SOL    HW130536   2.663   4.186   9.367  0.7324 -1.7114 -0.3671
 6358SOL    HW230537   2.813   4.185   9.367 -0.0051 -0.7483  1.0104
 6359SOL     OW30538   3.492   4.463   1.382 -0.3095 -0.7080  0.0848
 6359SOL    HW130539   3.422   4.514   1.342 -0.6436 -1.5557 -0.3949
 6359SOL    HW230540   3.548   4.443   1.307  1.4868  0.1039  1.1842
 6360SOL     OW30541   1.896   2.411   1.932 -0.8685  0.3410  0.0636
 6360SOL    HW130542   1.930   2.338   1.880 -0.8894 -0.2300  0.8501
 6360SOL    HW230543   1.936   2.487   1.890 -0.0030 -0.8255 -1.2139
 6361SOL     OW30544   3.035   2.141   3.972  0.4139 -0.0176  0.6376
 6361SOL    HW130545   2.977   2.216   3.958  0.9605 -0.0856 -2.0993
 6361SOL    HW230546   3.067   2.128   3.883 -3.5070 -1.0655 -0.6513
 6362SOL     OW30547   0.146   4.571  13.128 -0.2121  0.1427 -0.1087
 6362SOL    HW130548   0.174   4.481  13.110  0.6541  0.5596 -0.8485
 6362SOL    HW230549   0.112   4.603  13.045 -3.1084 -1.1448  0.5431
 6363SOL     OW30550   4.043   1.310   0.656 -0.0660 -0.4889 -0.1083
 6363SOL    HW130551   4.119   1.257   0.679  0.0875 -1.0575 -1.9095
 6363SOL    HW230552   3.998   1.314   0.741 -0.7040  0.7569 -0.5170
 6364SOL     OW30553   0.293   2.469   7.954  0.4526  0.0186 -0.0079
 6364SOL    HW130554   0.374   2.451   8.002  0.7192  1.0123 -0.0857
 6364SOL    HW230555   0.241   2.391   7.974 -0.5017  0.9085  0.9790
 6365SOL     OW30556   3.528   3.636   2.970  0.1941 -0.0125  0.0174
 6365SOL    HW130557   3.562   3.665   2.885  0.4887  0.7718  0.4002
 6365SOL    HW230558   3.495   3.546   2.964 -1.1588  0.4552  0.3258
 6366SOL     OW30559   1.857   0.030   1.608  0.3011 -0.2178 -0.7135
 6366SOL    HW130560   1.764   0.030   1.585  0.1000 -1.6162  0.1268
 6366SOL    HW230561   1.883   0.120   1.629  1.3749 -0.4509 -1.0122
 6367SOL     OW30562   4.007   0.850   4.161  0.0976 -0.3274  0.0843
 6367SOL    HW130563   3.946   0.888   4.098  1.3422  2.0744  0.3072
 6367SOL    HW230564   3.955   0.812   4.233 -0.5792  0.3438 -0.0497
 6368SOL     OW30565   1.878   4.054  10.147  0.5933  0.2821  0.1670
 6368SOL    HW130566   1.812   4.116  10.180 -1.7089 -1.5199 -0.9775
 6368SOL    HW230567   1.939   4.062  10.219 -2.0072  1.5614  2.2250
 6369SOL     OW30568   1.193   2.488   6.781  0.1421 -0.1494  0.1495
 6369SOL    HW130569   1.177   2.531   6.864  3.0155 -0.5942  0.9245
 6369SOL    HW230570   1.178   2.398   6.811 -1.0730  0.1425  0.4116
 6370SOL     OW30571   0.327   0.707  12.706 -0.0092  0.0280  0.2416
 6370SOL    HW130572   0.235   0.732  12.711  0.2804  1.3140 -0.9321
 6370SOL    HW230573   0.346   0.729  12.797  0.4380 -0.5709  0.2926
 6371SOL     OW30574   4.163   4.353   2.336  0.3618  0.4443 -0.0596
 6371SOL    HW130575   4.248   4.385   2.306  1.0158 -1.7911 -0.6371
 6371SOL    HW230576   4.135   4.429   2.387 -1.6410 -0.0357 -0.4423
 6372SOL     OW30577   2.724   3.986   6.462  0.3543  0.0080  0.4055
 6372SOL    HW130578   2.795   4.038   6.425  0.1500 -0.3424 -0.4671
 6372SOL    HW230579   2.650   4.001   6.404 -1.7436  0.0514  3.1281
 6373SOL     OW30580   1.271   2.349   6.287 -0.6339 -0.2788 -0.0527
 6373SOL    HW130581   1.219   2.271   6.269 -0.6280 -0.4222  0.5357
 6373SOL    HW230582   1.360   2.316   6.278 -0.9551 -0.7149 -1.5844
 6374SOL     OW30583   2.939   3.889  14.041 -0.0638  0.1756  0.3197
 6374SOL    HW130584   2.846   3.889  14.017  0.7613  0.7543 -2.7791
 6374SOL    HW230585   2.934   3.873  14.136  0.8125 -0.1662  0.3043
 6375SOL     OW30586   4.139   2.523   5.354  0.2826  0.5309  0.2009
 6375SOL    HW130587   4.144   2.475   5.272  0.1546  1.6813 -0.4875
 6375SOL    HW230588   4.073   2.465   5.392  1.1344  0.2011  1.1490
 6376SOL     OW30589   3.345   1.228   4.104  0.2350  0.0902  0.1997
 6376SOL    HW130590   3.393   1.269   4.176 -1.2054 -0.3868  1.4373
 6376SOL    HW230591   3.271   1.185   4.147  1.4509 -0.9459  1.2632
 6377SOL     OW30592   3.069   0.268   4.706  0.0300 -0.3993  0.5144
 6377SOL    HW130593   3.042   0.360   4.706  0.4010 -0.2910  0.1250
 6377SOL    HW230594   3.052   0.239   4.795 -0.7175 -2.1453 -0.1904
 6378SOL     OW30595   1.481   2.950   7.984  0.4017  0.1117 -0.1305
 6378SOL    HW130596   1.475   2.907   8.069  0.7042  1.9513  0.8146
 6378SOL    HW230597   1.438   3.032   8.006 -1.5332 -0.4744 -1.6958
 6379SOL     OW30598   3.174   0.804   1.423  0.5430 -0.4824  0.0801
 6379SOL    HW130599   3.214   0.835   1.504  1.8573 -1.5489 -0.1517
 6379SOL    HW230600   3.144   0.888   1.390  1.7170 -0.3459 -0.6207
 6380SOL     OW30601   1.024   1.129   7.749 -0.4175 -0.0655 -0.1133
 6380SOL    HW130602   1.044   1.222   7.738 -3.5403  0.8070  1.5024
 6380SOL    HW230603   0.968   1.130   7.826 -1.6302 -0.1075 -1.0056
 6381SOL     OW30604   1.412   4.533   9.685  0.3386 -0.5998 -0.7834
 6381SOL    HW130605   1.421   4.544   9.590 -0.7463  0.7138 -0.7337
 6381SOL    HW230606   1.451   4.613   9.720 -1.4979 -0.2209  0.3853
 6382SOL     OW30607   3.956   2.919   7.887  0.1088  0.0144 -0.4568
 6382SOL    HW130608   3.971   2.886   7.976  0.4667  1.7040  0.1097
 6382SOL    HW230609   3.905   2.998   7.903  0.6044 -0.2652  2.6224
 6383SOL     OW30610   2.340   2.410   5.671 -0.0910 -0.4013  0.1418
 6383SOL    HW130611   2.376   2.365   5.748  0.0306 -0.1689  0.2224
 6383SOL    HW230612   2.406   2.402   5.602 -0.8461  0.5497 -0.6928
 6384SOL     OW30613   0.366   3.127   7.245 -0.0322  0.3208  0.0014
 6384SOL    HW130614   0.415   3.055   7.207 -0.6652 -0.0731 -0.0728
 6384SOL    HW230615   0.282   3.084   7.260  0.2925 -0.8647 -1.5755
 6385SOL     OW30616   2.745   3.637   1.859  0.7635 -0.0807  0.5546
 6385SOL    HW130617   2.690   3.709   1.890 -0.3702 -0.2825 -0.9767
 6385SOL    HW230618   2.830   3.651   1.901  0.5902  1.9563  0.2464
 6386SOL     OW30619   0.923   1.723  11.236  0.1109  0.1543 -0.3293
 6386SOL    HW130620   0.955   1.682  11.156  1.0958 -1.1576  0.7351
 6386SOL    HW230621   0.866   1.655  11.272 -0.2229  1.2196  1.1614
 6387SOL     OW30622   2.154   0.064  11.147 -0.4597  0.0782 -0.3753
 6387SOL    HW130623   2.115   4.719  11.098 -0.3651  0.0627 -0.4287
 6387SOL    HW230624   2.093   0.134  11.123 -0.9277 -0.3047 -0.2875
 6388SOL     OW30625   3.585   4.012   5.752  0.0197  0.0084  0.4708
 6388SOL    HW130626   3.500   4.012   5.797  0.2048 -2.4038  0.8644
 6388SOL    HW230627   3.556   4.012   5.661  2.0320 -2.0751 -0.1627
 6389SOL     OW30628   4.206   4.043   4.680 -0.2227 -0.1349  0.2004
 6389SOL    HW130629   4.292   4.084   4.669 -1.0047  1.8881  1.8738
 6389SOL    HW230630   4.218   4.022   4.772 -1.4499 -0.4030  0.2980
 6390SOL     OW30631   4.707   4.194   7.972  0.5052 -0.5127 -0.3414
 6390SOL    HW130632   0.047   4.181   8.041  1.1939  3.3933 -0.2403
 6390SOL    HW230633   4.630   4.160   8.018  0.9577 -3.1231 -1.5208
 6391SOL     OW30634   3.862   0.143   6.990  0.1329  0.2875  0.2512
 6391SOL    HW130635   3.886   0.065   7.039 -3.7455 -1.3125 -0.4239
 6391SOL    HW230636   3.855   0.201   7.066 -1.6383  0.2594  0.1072
 6392SOL     OW30637   1.742   3.682   9.789  0.3941  0.7029 -0.5023
 6392SOL    HW130638   1.671   3.632   9.748 -0.0489  0.8764  0.0419
 6392SOL    HW230639   1.695   3.759   9.823 -0.0498  0.7449 -1.2075
 6393SOL     OW30640   1.640   0.045   2.635  0.5984  0.3462 -0.2000
 6393SOL    HW130641   1.709   0.081   2.579  0.8319  0.3470  0.0911
 6393SOL    HW230642   1.680   4.688   2.659  0.2888 -0.4114 -2.3090
 6394SOL     OW30643   2.653   1.568   3.158  0.2717 -0.2207 -0.1101
 6394SOL    HW130644   2.650   1.573   3.062  3.9146  1.6124 -0.1111
 6394SOL    HW230645   2.730   1.513   3.165 -0.7941 -1.6667  0.2442
 6395SOL     OW30646   1.595   2.039  11.187  0.1188 -0.1139  0.7986
 6395SOL    HW130647   1.559   2.026  11.274  1.2278 -1.9224  0.9970
 6395SOL    HW230648   1.665   1.974  11.192 -0.3969 -0.6775  0.5685
 6396SOL     OW30649   4.229   3.107  12.233  0.1613 -0.1297  0.2970
 6396SOL    HW130650   4.198   3.019  12.254 -1.7272 -0.0512 -2.1731
 6396SOL    HW230651   4.220   3.090  12.140  1.7617 -1.7038  0.4557
 6397SOL     OW30652   4.151   1.555   4.080 -0.1624  0.1719 -0.1509
 6397SOL    HW130653   4.083   1.622   4.085  0.0625  0.4644 -1.0615
 6397SOL    HW230654   4.124   1.501   4.006  1.0474 -1.1349  0.3648
 6398SOL     OW30655   3.602   3.132   0.697 -0.5302  0.1063  0.0253
 6398SOL    HW130656   3.687   3.165   0.670  0.1294 -1.9546 -0.4014
 6398SOL    HW230657   3.545   3.206   0.676 -1.2950 -0.7188 -0.7933
 6399SOL     OW30658   3.432   2.466   7.204 -0.0552  0.3535  0.3971
 6399SOL    HW130659   3.403   2.489   7.115  1.8853  1.7249  0.1248
 6399SOL    HW230660   3.486   2.544   7.215 -0.1427  0.7255 -1.7632
 6400SOL     OW30661   2.057   1.858   7.302 -0.1291  0.4464 -0.6062
 6400SOL    HW130662   1.968   1.828   7.319  0.5552 -1.1527  0.1566
 6400SOL    HW230663   2.080   1.833   7.213  1.6134  0.3907 -0.1401
 6401SOL     OW30664   0.349   1.318   0.702 -0.1421 -0.0417 -0.1262
 6401SOL    HW130665   0.344   1.391   0.640  1.1759 -0.9836 -1.3138
 6401SOL    HW230666   0.322   1.365   0.781  1.4800 -2.1426  1.6760
 6402SOL     OW30667   3.784   0.299   6.258 -0.2233  0.1808 -0.2847
 6402SOL    HW130668   3.799   0.313   6.164  0.7278 -1.3841 -0.3774
 6402SOL    HW230669   3.843   0.364   6.295  0.1751  1.3520 -2.9515
 6403SOL     OW30670   2.195   2.992   4.649 -0.2796  0.1487  0.8102
 6403SOL    HW130671   2.219   2.910   4.693 -0.9558 -0.5440 -0.0994
 6403SOL    HW230672   2.264   3.054   4.672  0.6324 -0.3052 -0.6743
 6404SOL     OW30673   1.293   3.850   8.372  0.4804 -0.4233 -0.3025
 6404SOL    HW130674   1.199   3.845   8.384  0.1228  1.6001 -2.2256
 6404SOL    HW230675   1.289   3.905   8.293  2.2053  0.3338  0.1260
 6405SOL     OW30676   1.883   2.764   5.577  0.7050  0.1863 -0.0202
 6405SOL    HW130677   1.881   2.857   5.551  2.1488  0.6129  1.3934
 6405SOL    HW230678   1.960   2.764   5.633 -0.6543 -1.9230  1.8511
 6406SOL     OW30679   1.053   3.831   9.744  0.2048  0.6545 -0.2489
 6406SOL    HW130680   0.994   3.881   9.688 -0.6853  0.3651  0.4386
 6406SOL    HW230681   1.023   3.741   9.730 -1.7398  1.4277 -1.0319
 6407SOL     OW30682   3.494   1.681   1.982 -0.1939 -0.0896 -0.3051
 6407SOL    HW130683   3.406   1.699   1.949 -0.1383 -1.8356 -1.4487
 6407SOL    HW230684   3.536   1.765   1.963 -0.5569 -0.5699 -3.2311
 6408SOL     OW30685   0.091   2.119   3.419  0.3297  0.2750 -0.8280
 6408SOL    HW130686   0.144   2.111   3.339  2.1693 -1.4662  0.5778
 6408SOL    HW230687   0.009   2.134   3.371 -1.2922 -1.2839  1.4900
 6409SOL     OW30688   1.125   3.297   9.478 -0.3857 -0.2972  0.5327
 6409SOL    HW130689   1.046   3.243   9.483 -0.7139  0.1471  0.1354
 6409SOL    HW230690   1.087   3.382   9.456  0.5711 -0.4184 -1.5875
 6410SOL     OW30691   3.560   1.766   7.546 -0.1981 -0.0796  0.0562
 6410SOL    HW130692   3.628   1.781   7.481  1.0550  0.9909  1.6246
 6410SOL    HW230693   3.598   1.682   7.573 -1.7874 -0.7674  0.1946
 6411SOL     OW30694   0.702   3.936   8.362  0.0267 -0.2972 -0.0491
 6411SOL    HW130695   0.664   3.965   8.445 -0.8111 -0.8607 -0.2443
 6411SOL    HW230696   0.749   3.858   8.392 -1.6398 -1.3186 -0.1344
 6412SOL     OW30697   0.093   1.235  14.652  0.1885 -0.0584  0.5617
 6412SOL    HW130698   0.004   1.248  14.685 -0.6448 -1.0996 -1.2756
 6412SOL    HW230699   0.097   1.140  14.648 -2.1607 -0.1695  0.8233
 6413SOL     OW30700   1.346   3.531   4.166 -0.6431 -0.6672  0.4801
 6413SOL    HW130701   1.410   3.460   4.158  0.9828  0.8749 -0.0455
 6413SOL    HW230702   1.294   3.507   4.089  1.3600 -1.2557 -0.7000
 6414SOL     OW30703   1.390   4.199  10.732  0.2753 -0.2074  0.3163
 6414SOL    HW130704   1.302   4.235  10.720  0.5993 -0.0530 -1.6935
 6414SOL    HW230705   1.365   4.108  10.742 -0.5691 -0.3424 -3.0595
 6415SOL     OW30706   1.947   3.431  12.726 -0.0770 -0.1633  0.1035
 6415SOL    HW130707   1.977   3.520  12.745 -0.1912 -0.0089 -0.4529
 6415SOL    HW230708   1.992   3.426  12.642  0.9940  0.5201  0.6432
 6416SOL     OW30709   0.240   1.271  12.568  0.3906  0.3244  0.3175
 6416SOL    HW130710   0.296   1.266  12.646 -0.2553  2.5199  0.9413
 6416SOL    HW230711   0.225   1.366  12.573 -0.9038  0.0181  2.2955
 6417SOL     OW30712   1.792   1.932  13.071 -0.0581 -0.2788  0.2658
 6417SOL    HW130713   1.781   2.021  13.037 -2.0650  0.2420  2.2354
 6417SOL    HW230714   1.838   1.896  12.996 -0.7787  1.5666 -1.0376
 6418SOL     OW30715   1.242   3.174   3.451 -0.2561 -0.6556  0.5700
 6418SOL    HW130716   1.154   3.212   3.452 -0.4510 -1.1063  0.5280
 6418SOL    HW230717   1.265   3.168   3.358 -1.4389  2.0719  0.0829
 6419SOL     OW30718   2.762   0.690   6.838  0.7800 -0.2787  0.0343
 6419SOL    HW130719   2.676   0.687   6.796  1.2008 -1.4964 -0.7153
 6419SOL    HW230720   2.742   0.610   6.887 -1.7094  0.0425 -0.4603
 6420SOL     OW30721   3.996   0.581   5.359  0.0284 -0.6349  0.2655
 6420SOL    HW130722   3.933   0.521   5.399  0.2841 -0.3935  1.0120
 6420SOL    HW230723   4.068   0.544   5.409  0.6923 -0.8613 -0.8592
 6421SOL     OW30724   2.696   1.533   3.849 -0.0143 -0.2549 -0.5158
 6421SOL    HW130725   2.675   1.518   3.757 -2.5796  0.4169 -0.0467
 6421SOL    HW230726   2.682   1.452   3.899 -0.2717  0.2682  0.2573
 6422SOL     OW30727   2.831   4.646   5.419 -0.1391 -0.2340  0.9825
 6422SOL    HW130728   2.804   4.555   5.412  1.0322 -0.6220  1.7392
 6422SOL    HW230729   2.923   4.645   5.443  0.2502 -1.6834 -0.5599
 6423SOL     OW30730   2.276   4.625   6.575 -0.4492  0.6775  0.6519
 6423SOL    HW130731   2.347   4.623   6.511 -0.8182 -1.0968  0.2966
 6423SOL    HW230732   2.305   4.689   6.640 -2.3199  1.0191  1.1481
 6424SOL     OW30733   2.233   3.391  14.004 -0.4352 -0.6045 -0.0036
 6424SOL    HW130734   2.151   3.440  13.997  0.4599  1.1497  1.7533
 6424SOL    HW230735   2.297   3.459  14.028  1.1765 -1.7096 -1.1806
 6425SOL     OW30736   2.997   1.318   8.766 -0.0413 -0.1273 -0.3305
 6425SOL    HW130737   2.958   1.253   8.707 -3.1350  1.3079  0.1017
 6425SOL    HW230738   3.087   1.304   8.736  0.5397  2.8839  0.0081
 6426SOL     OW30739   3.434   1.777   6.554 -0.4671 -0.1793  0.1261
 6426SOL    HW130740   3.477   1.699   6.520 -0.3125 -0.3099  0.6330
 6426SOL    HW230741   3.471   1.839   6.491 -2.3647 -2.1810 -2.9318
 6427SOL     OW30742   3.927   4.183  15.026  0.2320 -0.1853  0.1644
 6427SOL    HW130743   3.920   4.206  14.933 -0.6023  0.8079  0.4743
 6427SOL    HW230744   3.851   4.127  15.037 -0.6963  1.0473 -0.0477
 6428SOL     OW30745   1.989   3.319   7.548 -0.5949  0.2431  0.3351
 6428SOL    HW130746   2.006   3.288   7.637  0.8421 -1.3182 -0.4910
 6428SOL    HW230747   2.063   3.379   7.546  0.2969 -0.8256  1.6184
 6429SOL     OW30748   2.566   4.100  10.266 -0.2656  0.5648 -0.0715
 6429SOL    HW130749   2.648   4.049  10.263 -0.4707  0.2353 -0.0186
 6429SOL    HW230750   2.515   4.083  10.186 -1.2636  0.3955  0.6114
 6430SOL     OW30751   1.554   2.469   6.843 -0.0391 -0.0704  0.5213
 6430SOL    HW130752   1.557   2.508   6.930 -2.6257 -0.2657  0.7073
 6430SOL    HW230753   1.636   2.420   6.847 -0.8720 -1.3917  1.3903
 6431SOL     OW30754   2.942   4.560   1.670  0.0021 -0.3775  0.0368
 6431SOL    HW130755   2.891   4.483   1.644 -1.4828  0.3315  0.8903
 6431SOL    HW230756   2.896   4.568   1.753  0.3580 -2.6201  0.4599
 6432SOL     OW30757   2.416   1.212   8.755  0.8546  0.0639  0.1223
 6432SOL    HW130758   2.503   1.247   8.738  0.1146  2.6332  1.5584
 6432SOL    HW230759   2.374   1.292   8.788 -0.7832 -0.4077 -0.8166
 6433SOL     OW30760   4.142   3.458   3.090 -0.3693 -0.3517  0.3248
 6433SOL    HW130761   4.171   3.543   3.123 -3.3740  1.1222 -0.8813
 6433SOL    HW230762   4.079   3.481   3.022 -1.5094 -0.5153  1.3228
 6434SOL     OW30763   1.944   1.217  17.037 -0.7566  0.3840 -0.8245
 6434SOL    HW130764   1.944   1.302  16.994 -3.1960  0.9100  0.1875
 6434SOL    HW230765   1.885   1.160  16.987 -0.3806 -0.3718 -0.4080
 6435SOL     OW30766   2.063   1.477  13.955 -0.1898  0.2752 -0.1323
 6435SOL    HW130767   2.009   1.413  13.909 -1.6709  1.2718  0.2434
 6435SOL    HW230768   2.092   1.429  14.032  2.8912 -0.5518 -1.7991
 6436SOL     OW30769   4.274   3.993   1.859 -0.4135 -0.1018 -0.3251
 6436SOL    HW130770   4.359   4.009   1.818 -0.0368  0.1704  0.5785
 6436SOL    HW230771   4.281   3.899   1.875  2.3832 -0.1062 -1.4633
 6437SOL     OW30772   0.222   1.858   0.577  0.4269 -0.4827  0.4930
 6437SOL    HW130773   0.130   1.866   0.553  0.8209  0.3548 -0.7341
 6437SOL    HW230774   0.231   1.905   0.660  0.2799  1.4361 -0.5732
 6438SOL     OW30775   3.246   2.686   6.191 -0.0797 -0.1095  0.3633
 6438SOL    HW130776   3.234   2.781   6.199 -0.9915 -0.1636 -0.3895
 6438SOL    HW230777   3.317   2.695   6.127 -0.3622  1.2062  0.2333
 6439SOL     OW30778   1.022   0.670   7.287 -0.3822 -0.0201 -0.1547
 6439SOL    HW130779   0.996   0.591   7.334 -1.6016  1.3884  1.5525
 6439SOL    HW230780   1.007   0.643   7.197 -1.7311 -0.2930  0.1570
 6440SOL     OW30781   0.752   2.970   2.586  0.1321 -0.3865 -0.2165
 6440SOL    HW130782   0.744   3.056   2.544  0.8559 -0.3253 -0.2449
 6440SOL    HW230783   0.827   2.941   2.534  1.1340  1.9935 -0.1287
 6441SOL     OW30784   0.168   3.636  17.055  0.3838  0.4296 -0.5435
 6441SOL    HW130785   0.244   3.627  16.997 -0.1086 -0.3293 -1.0646
 6441SOL    HW230786   0.207   3.687  17.126  0.8977  1.5350 -1.6170
 6442SOL     OW30787   3.966   0.049  13.743 -0.1793  0.3163  0.0811
 6442SOL    HW130788   4.006   0.107  13.808 -0.0726  2.1289 -1.6303
 6442SOL    HW230789   4.027   4.703  13.755 -1.1747 -0.4944  0.2532
 6443SOL     OW30790   3.578   4.240  14.534  0.5112  0.5440 -0.5148
 6443SOL    HW130791   3.548   4.321  14.493  2.0952  1.6407  0.5043
 6443SOL    HW230792   3.559   4.251  14.627 -2.7177 -1.5415 -0.9437
 6444SOL     OW30793   3.509   1.083   6.197  0.5459  0.2005  0.8245
 6444SOL    HW130794   3.569   1.008   6.195  0.2948  0.0793 -1.3212
 6444SOL    HW230795   3.499   1.099   6.291 -0.4084 -0.0480  0.7616
 6445SOL     OW30796   1.420   3.549   3.276 -0.3818 -0.4481 -0.3968
 6445SOL    HW130797   1.339   3.504   3.254 -0.5208 -0.4183  0.0655
 6445SOL    HW230798   1.424   3.540   3.371 -1.9132 -0.0978 -0.3023
 6446SOL     OW30799   4.684   4.620   4.490 -0.4829  0.1137  0.0098
 6446SOL    HW130800   4.641   4.557   4.432  0.5581 -0.7742  0.1985
 6446SOL    HW230801   4.674   4.567   4.569 -0.6565  2.9092  1.8472
 6447SOL     OW30802   0.835   3.958   7.140 -0.0276  0.1896 -0.1396
 6447SOL    HW130803   0.866   3.932   7.227 -0.8728  2.2429  0.7735
 6447SOL    HW230804   0.915   4.005   7.117  1.0043 -0.4413  2.2310
 6448SOL     OW30805   0.049   0.688   3.636 -0.2223  0.2343 -0.5626
 6448SOL    HW130806   0.035   0.738   3.716  2.4633 -1.3207  0.8668
 6448SOL    HW230807   0.129   0.725   3.600 -0.7339  1.8289 -0.0488
 6449SOL     OW30808   3.759   4.677   3.229 -0.2748  0.1261 -0.3358
 6449SOL    HW130809   3.797   4.620   3.296 -1.1589  0.4769  0.4633
 6449SOL    HW230810   3.667   4.653   3.236 -0.2719  0.3340  0.5010
 6450SOL     OW30811   2.131   4.649   4.539  0.1386  0.5544  0.1854
 6450SOL    HW130812   2.226   4.661   4.539  0.4492 -1.6122  3.0559
 6450SOL    HW230813   2.120   4.646   4.444  1.5002 -1.7393  0.0956
 6451SOL     OW30814   4.321   2.316   6.977 -0.0988 -0.1075  0.3146
 6451SOL    HW130815   4.241   2.264   6.991 -0.3806  0.0956 -0.5933
 6451SOL    HW230816   4.323   2.361   7.061 -1.3951  0.2654  0.1480
 6452SOL     OW30817   4.299   3.728   1.941  0.6460  0.5402  0.1948
 6452SOL    HW130818   4.251   3.656   1.983  0.7763 -0.9120 -2.1253
 6452SOL    HW230819   4.359   3.682   1.882  0.2776 -0.3940  0.5369
 6453SOL     OW30820   0.508   0.233   7.448  0.5036 -0.3447 -0.9206
 6453SOL    HW130821   0.518   0.165   7.515  0.1860 -1.4212 -1.9659
 6453SOL    HW230822   0.506   0.311   7.503 -0.7927 -0.2001 -1.1888
 6454SOL     OW30823   1.997   1.859   4.907  0.4353  0.3729  0.3112
 6454SOL    HW130824   1.971   1.951   4.917  1.2800  0.4415  1.9242
 6454SOL    HW230825   2.053   1.867   4.831  1.6908 -3.8812  0.7739
 6455SOL     OW30826   2.628   2.328   0.506 -0.3656 -0.2898  0.6785
 6455SOL    HW130827   2.723   2.330   0.522  0.0401  0.3079 -1.6859
 6455SOL    HW230828   2.630   2.259   0.439  1.8612  2.7813 -2.4187
 6456SOL     OW30829   0.458   2.163   4.784  0.0787  0.0264  0.3417
 6456SOL    HW130830   0.425   2.132   4.700  2.4350  0.5086 -0.7618
 6456SOL    HW230831   0.546   2.184   4.752 -0.9919 -1.9121 -3.8428
 6457SOL     OW30832   1.082   2.501   5.596 -0.1669 -0.5818  0.2963
 6457SOL    HW130833   0.989   2.481   5.595 -0.3677  0.3693  0.9065
 6457SOL    HW230834   1.088   2.595   5.585  0.5234 -0.8828 -1.9626
 6458SOL     OW30835   2.324   3.270  14.297 -0.2727 -0.4650  0.1566
 6458SOL    HW130836   2.320   3.351  14.349  1.9832 -0.0365 -0.3428
 6458SOL    HW230837   2.308   3.306  14.209  1.5797 -1.4913 -0.5925
 6459SOL     OW30838   3.237   3.930   8.482 -0.2116  0.1529 -0.4042
 6459SOL    HW130839   3.293   3.995   8.439  0.8960  0.7514  1.9413
 6459SOL    HW230840   3.247   3.944   8.576  1.8666 -0.0335 -0.6079
 6460SOL     OW30841   4.198   0.996   8.780 -0.1162  0.9404 -0.1386
 6460SOL    HW130842   4.238   0.923   8.732 -1.4715 -1.5402  2.4653
 6460SOL    HW230843   4.239   1.072   8.738  0.7384  0.5000 -0.1107
 6461SOL     OW30844   0.434   4.522  13.570 -0.1042 -0.3250 -0.3033
 6461SOL    HW130845   0.513   4.571  13.591 -0.1270 -0.4601  0.0947
 6461SOL    HW230846   0.361   4.558  13.620  0.6249  1.8809 -0.8345
 6462SOL     OW30847   2.170   4.166   4.135  0.2856 -0.3529  0.3363
 6462SOL    HW130848   2.240   4.132   4.190  0.4026  0.4435  0.6737
 6462SOL    HW230849   2.104   4.102   4.160 -0.7900  0.2685 -0.9082
 6463SOL     OW30850   2.284   1.539   0.676 -0.1341  0.2207 -0.1389
 6463SOL    HW130851   2.356   1.585   0.633  1.6965 -1.7569  0.8414
 6463SOL    HW230852   2.323   1.498   0.753 -1.8381 -1.2961 -0.0768
 6464SOL     OW30853   1.156   2.579   5.151  0.3430 -0.0743  0.5284
 6464SOL    HW130854   1.224   2.529   5.196  1.3643  0.3719 -0.5327
 6464SOL    HW230855   1.205   2.661   5.142  1.3343 -0.6788  0.4671
 6465SOL     OW30856   1.918   3.000   4.736 -0.1846  0.2315 -0.3077
 6465SOL    HW130857   1.930   2.915   4.779 -0.3208  1.2902  1.8187
 6465SOL    HW230858   1.984   2.992   4.667  0.5352  0.1516  0.3891
 6466SOL     OW30859   4.303   3.102   8.580 -0.1143 -0.1572  0.1957
 6466SOL    HW130860   4.297   3.165   8.508  2.3923  2.7375  2.5348
 6466SOL    HW230861   4.397   3.093   8.591  0.0044  1.7548  0.8292
 6467SOL     OW30862   1.567   2.741   7.771  0.5149 -0.6861  0.4804
 6467SOL    HW130863   1.595   2.678   7.838 -0.7202 -1.2232  0.4924
 6467SOL    HW230864   1.561   2.812   7.836  0.1166 -0.5791  0.3259
 6468SOL     OW30865   3.798   1.646  15.405 -0.0916  0.1886  0.3516
 6468SOL    HW130866   3.809   1.553  15.424  1.0563  0.0976 -0.7493
 6468SOL    HW230867   3.716   1.646  15.356  0.2631  0.0425 -0.2458
 6469SOL     OW30868   1.630   3.563   2.412 -0.1167  0.4393  0.2428
 6469SOL    HW130869   1.586   3.518   2.483 -0.2689  1.9487  1.1140
 6469SOL    HW230870   1.631   3.656   2.435 -1.1479  0.3082  0.8304
 6470SOL     OW30871   0.421   2.178   4.209 -0.0236  0.0492 -0.7520
 6470SOL    HW130872   0.340   2.139   4.242  0.5187  0.9632  1.7108
 6470SOL    HW230873   0.377   2.253   4.169 -1.8031  0.1866  1.4216
 6471SOL     OW30874   3.693   3.932   1.854  0.1458 -0.0860  0.1506
 6471SOL    HW130875   3.603   3.913   1.880 -0.9311  3.1689 -1.2059
 6471SOL    HW230876   3.666   3.983   1.778 -2.0365 -0.6128  0.5824
 6472SOL     OW30877   1.277   4.525   7.023  0.4874 -0.1618 -0.1138
 6472SOL    HW130878   1.321   4.606   7.051 -0.1706 -0.1504  0.9008
 6472SOL    HW230879   1.329   4.494   6.949 -0.2070  0.0619 -0.6992
 6473SOL     OW30880   1.725   2.343   7.170 -0.2917 -0.0121 -0.5202
 6473SOL    HW130881   1.652   2.326   7.110 -1.1972  0.6773  0.3666
 6473SOL    HW230882   1.796   2.321   7.111 -2.7077 -1.8917 -2.7232
 6474SOL     OW30883   2.188   2.667   7.519  0.7030 -0.3101 -0.4067
 6474SOL    HW130884   2.223   2.640   7.604 -1.7122  0.4097  0.8198
 6474SOL    HW230885   2.222   2.604   7.456 -0.7571 -0.7905 -0.6925
 6475SOL     OW30886   3.373   3.381   3.639 -0.1974  0.1074  0.3872
 6475SOL    HW130887   3.452   3.330   3.626  0.4309  1.5282 -1.3996
 6475SOL    HW230888   3.308   3.331   3.590 -1.9697  2.2726  0.5250
 6476SOL     OW30889   3.587   3.016   4.228  0.6014 -0.4686 -0.8212
 6476SOL    HW130890   3.641   3.094   4.220  0.1227 -0.3213 -2.5457
 6476SOL    HW230891   3.554   3.012   4.138 -1.1681  1.1275 -0.2324
 6477SOL     OW30892   3.938   0.410  16.938  0.1412  0.1087  0.6935
 6477SOL    HW130893   3.897   0.332  16.900  3.2131 -1.4549  0.5689
 6477SOL    HW230894   3.891   0.404  17.022  1.6860 -3.5373  1.3076
 6478SOL     OW30895   3.659   0.249  13.379 -0.2887  0.3100 -0.1078
 6478SOL    HW130896   3.725   0.199  13.427 -0.6494 -0.0730 -0.0144
 6478SOL    HW230897   3.605   0.278  13.453 -0.1285  2.5015 -0.8549
 6479SOL     OW30898   3.295   1.750  13.636 -0.0108  0.1566 -0.2408
 6479SOL    HW130899   3.383   1.731  13.604  0.8945  0.3874  2.0846
 6479SOL    HW230900   3.323   1.786  13.721 -0.1598  2.5900 -1.2075
 6480SOL     OW30901   4.577   2.702  15.274  0.1449 -0.7530 -0.1023
 6480SOL    HW130902   4.646   2.757  15.312 -1.0637  0.2727  0.6355
 6480SOL    HW230903   4.555   2.761  15.201  1.1161 -0.5859 -0.2637
 6481SOL     OW30904   4.496   1.785   7.408  0.6243  0.2201  0.1211
 6481SOL    HW130905   4.424   1.840   7.378  1.2968  2.4177  2.5476
 6481SOL    HW230906   4.458   1.697   7.399 -2.8828  1.8218 -0.7898
 6482SOL     OW30907   2.034   1.173  12.200  0.0496  0.3939  0.0124
 6482SOL    HW130908   2.128   1.155  12.201 -0.1988 -0.9840 -1.4594
 6482SOL    HW230909   2.016   1.156  12.108  0.2160  1.4168 -0.2091
 6483SOL     OW30910   1.050   4.251   3.499 -0.5177  0.0571 -0.1444
 6483SOL    HW130911   1.075   4.258   3.407 -0.8593 -0.8452 -0.3077
 6483SOL    HW230912   1.054   4.156   3.505 -1.0488  0.1339  1.3650
 6484SOL     OW30913   1.278   4.107   5.716 -0.3312 -0.6309 -0.1602
 6484SOL    HW130914   1.265   4.012   5.721  0.8012 -0.7881 -0.3237
 6484SOL    HW230915   1.284   4.131   5.809  0.6773 -0.1619 -0.3505
 6485SOL     OW30916   1.611   3.332  10.001 -0.4121 -1.0413 -0.3029
 6485SOL    HW130917   1.687   3.326   9.943  0.5071 -1.9737  1.0065
 6485SOL    HW230918   1.598   3.424  10.023 -0.3801 -0.8451 -1.1258
 6486SOL     OW30919   4.304   3.439   4.161  0.3986 -0.0358  0.1886
 6486SOL    HW130920   4.313   3.529   4.131 -0.6204  0.5285  1.5756
 6486SOL    HW230921   4.391   3.420   4.196  0.3059  1.6345  1.3102
 6487SOL     OW30922   2.216   4.581   8.297 -0.1091  0.0482 -0.1745
 6487SOL    HW130923   2.260   4.666   8.296 -1.5954  0.8218 -1.5451
 6487SOL    HW230924   2.127   4.607   8.323  0.6198  1.9432  0.4507
 6488SOL     OW30925   1.365   4.137   2.825 -0.2840 -0.7998 -0.5742
 6488SOL    HW130926   1.282   4.163   2.785  0.3944 -0.6894 -1.9124
 6488SOL    HW230927   1.343   4.044   2.828  0.5123 -0.9633  0.1962
 6489SOL     OW30928   4.248   2.168  14.551  0.4141  0.3423  0.4727
 6489SOL    HW130929   4.171   2.191  14.604  1.6986 -0.2267  2.5822
 6489SOL    HW230930   4.302   2.240  14.583  0.1555  1.2832 -1.2032
 6490SOL     OW30931   0.660   3.090   6.593  0.2527 -0.2331 -0.1463
 6490SOL    HW130932   0.682   3.009   6.639  1.8110 -0.2023 -0.8291
 6490SOL    HW230933   0.565   3.089   6.598  0.2812 -0.2123  0.3207
 6491SOL     OW30934   0.805   2.599   4.209 -0.2967 -0.0825  0.4496
 6491SOL    HW130935   0.791   2.692   4.195  1.9968  0.2194  0.1140
 6491SOL    HW230936   0.831   2.608   4.301  0.4379 -2.7100  0.5132
 6492SOL     OW30937   1.604   4.497  15.064 -0.5432 -0.1051 -0.0063
 6492SOL    HW130938   1.660   4.513  14.988 -1.6620 -2.8447 -1.3792
 6492SOL    HW230939   1.620   4.576  15.116 -1.7749 -0.4181  0.8527
 6493SOL     OW30940   3.728   3.557   7.176 -0.2599  0.0696 -0.2877
 6493SOL    HW130941   3.720   3.480   7.233  1.0184  0.0352 -0.1697
 6493SOL    HW230942   3.698   3.527   7.090  0.4888  0.2412 -0.6056
 6494SOL     OW30943   0.359   2.201   2.383  0.0872 -0.1598 -0.0779
 6494SOL    HW130944   0.380   2.113   2.352 -0.3297  0.6075 -2.5591
 6494SOL    HW230945   0.274   2.188   2.425  0.0840  0.8027  0.2155
 6495SOL     OW30946   4.365   1.251   9.144  0.5023  0.4586 -0.0624
 6495SOL    HW130947   4.308   1.175   9.137  1.6071 -0.5138  1.6696
 6495SOL    HW230948   4.332   1.297   9.221  0.1619 -1.9007  1.1913
 6496SOL     OW30949   2.191   3.377   8.808  0.2807  0.7084  0.0530
 6496SOL    HW130950   2.247   3.355   8.733 -0.0393  0.0113  0.0184
 6496SOL    HW230951   2.248   3.364   8.884  1.2191  1.8666 -0.4602
 6497SOL     OW30952   3.417   2.279   8.030  0.2976 -0.0241 -0.1524
 6497SOL    HW130953   3.396   2.186   8.043 -0.1486  0.2567  1.0890
 6497SOL    HW230954   3.467   2.298   8.110 -0.1575 -0.0016  0.1255
 6498SOL     OW30955   3.122   2.681   5.010  0.1542  0.3316 -0.0471
 6498SOL    HW130956   3.052   2.722   4.960  0.1353 -1.4811 -1.4817
 6498SOL    HW230957   3.082   2.619   5.071 -1.2340 -0.0416 -1.3646
 6499SOL     OW30958   1.412   0.771  13.071  0.0014  0.6666  0.4703
 6499SOL    HW130959   1.496   0.799  13.033  0.8745 -2.3644  0.1414
 6499SOL    HW230960   1.397   0.688  13.026 -0.4751  0.6600  0.6412
 6500SOL     OW30961   2.531   0.021   3.695  0.2037  0.1302  0.4791
 6500SOL    HW130962   2.580   4.674   3.659  2.7304  1.5361  1.0188
 6500SOL    HW230963   2.605   0.080   3.711  0.4956  0.1775 -1.0591
 6501SOL     OW30964   2.353   0.519   4.901  0.2310  0.5368 -0.1747
 6501SOL    HW130965   2.414   0.592   4.899  0.5813  0.2387 -0.2647
 6501SOL    HW230966   2.276   0.575   4.889 -0.0827  0.3478  0.9938
 6502SOL     OW30967   3.296   2.205  15.261  0.3770 -0.6358 -0.1698
 6502SOL    HW130968   3.235   2.226  15.190  0.0793 -0.9056  0.0080
 6502SOL    HW230969   3.255   2.241  15.340  0.6321  1.7081 -1.1051
 6503SOL     OW30970   0.975   2.722  11.296 -0.4312 -0.3033 -0.1987
 6503SOL    HW130971   1.046   2.692  11.353 -1.3908 -2.5987 -0.2087
 6503SOL    HW230972   0.917   2.647  11.279  1.6581 -1.2964 -2.9133
 6504SOL     OW30973   1.534   4.672   1.659  0.6409  0.2158  0.6205
 6504SOL    HW130974   1.539   4.644   1.567  0.0727 -3.4600  1.7211
 6504SOL    HW230975   1.503   0.034   1.640  1.8059  1.1818  3.3826
 6505SOL     OW30976   1.404   4.302   9.034  0.2983 -0.6944 -0.1369
 6505SOL    HW130977   1.381   4.259   9.116  0.7130  1.0954  0.9207
 6505SOL    HW230978   1.487   4.340   9.065 -0.6835  0.1680  1.4385
 6506SOL     OW30979   1.979   4.214   5.209 -0.6810  0.0664 -0.2597
 6506SOL    HW130980   1.967   4.134   5.261 -1.5145 -1.3481 -2.6533
 6506SOL    HW230981   1.907   4.271   5.237 -0.8753 -1.3576  2.1355
 6507SOL     OW30982   2.590   2.178   8.932  1.0503 -0.2135  0.2070
 6507SOL    HW130983   2.515   2.212   8.981 -0.0916 -1.7252 -0.4776
 6507SOL    HW230984   2.640   2.253   8.899  0.8964 -0.0042  0.4483
 6508SOL     OW30985   2.808   2.424   9.766 -0.3883 -0.0008 -0.0479
 6508SOL    HW130986   2.802   2.390   9.855 -2.1137  0.5897  0.0473
 6508SOL    HW230987   2.893   2.461   9.789 -0.1274 -0.4022 -0.3608
 6509SOL     OW30988   0.167   2.210   7.911 -0.0426  0.0241  0.6717
 6509SOL    HW130989   0.182   2.120   7.881 -1.5778 -0.6230  1.8442
 6509SOL    HW230990   0.099   2.241   7.850 -0.0663 -0.3938  0.4877
 6510SOL     OW30991   4.357   2.836  13.773 -0.0568  0.3460  0.1584
 6510SOL    HW130992   4.285   2.814  13.713 -0.4750 -0.3534  0.9165
 6510SOL    HW230993   4.312   2.835  13.858 -0.8671 -0.8484 -0.2745
 6511SOL     OW30994   4.651   4.708   6.490 -0.0739  0.6281 -0.1381
 6511SOL    HW130995   0.020   4.713   6.502 -0.0321 -0.6381  0.0668
 6511SOL    HW230996   4.636   4.635   6.549 -0.7305  1.9335  1.3237
 6512SOL     OW30997   0.307   3.646  16.632 -0.7559 -0.2427 -0.0618
 6512SOL    HW130998   0.257   3.601  16.700 -1.4487  0.0703 -0.3612
 6512SOL    HW230999   0.273   3.734  16.651 -0.7481 -0.2037 -0.2267
 6513SOL     OW31000   2.454   1.894  17.395  0.2559 -0.8346  0.3249
 6513SOL    HW131001   2.545   1.869  17.411  0.4218 -0.0554  0.6105
 6513SOL    HW231002   2.445   1.988  17.413 -1.5762 -0.8075 -0.8058
 6514SOL     OW31003   2.547   3.851   5.180  0.2042 -0.7043  0.6384
 6514SOL    HW131004   2.570   3.819   5.268  2.5098 -1.0709 -0.0821
 6514SOL    HW231005   2.547   3.765   5.137 -0.8765 -1.2625  1.7497
 6515SOL     OW31006   4.286   3.188   6.564 -0.3758 -0.5772  0.6377
 6515SOL    HW131007   4.258   3.256   6.502  0.1720 -0.1239  0.8889
 6515SOL    HW231008   4.205   3.163   6.608 -0.6641  0.0646  0.4774
 6516SOL     OW31009   1.217   2.725  16.286  0.1212 -0.7132 -0.4157
 6516SOL    HW131010   1.209   2.660  16.216 -0.1469  1.2364 -2.1644
 6516SOL    HW231011   1.311   2.712  16.298 -0.2512 -1.5949  1.5554
 6517SOL     OW31012   4.046   0.941   3.180  0.2264 -0.3374 -0.5475
 6517SOL    HW131013   4.091   0.870   3.134 -3.4687 -2.5307 -0.7600
 6517SOL    HW231014   4.072   1.022   3.137  1.8309 -0.1286  0.7770
 6518SOL     OW31015   0.497   1.509   7.457 -0.3387  0.0935 -0.3972
 6518SOL    HW131016   0.500   1.468   7.544  0.3565  0.1520 -0.3983
 6518SOL    HW231017   0.409   1.477   7.436 -0.7908  1.1797 -0.1369
 6519SOL     OW31018   1.325   1.893   2.718 -0.5302  0.1697 -0.1067
 6519SOL    HW131019   1.294   1.971   2.672 -0.7134  0.8176  1.1155
 6519SOL    HW231020   1.418   1.903   2.737 -0.3809  2.2740 -1.8917
 6520SOL     OW31021   1.208   3.852   5.709 -0.3332 -0.2990 -0.2706
 6520SOL    HW131022   1.154   3.844   5.787  0.2016  0.8104  0.2113
 6520SOL    HW231023   1.154   3.805   5.645 -2.7505  0.5573  1.1429
 6521SOL     OW31024   3.431   2.120   7.321  0.2552 -0.3718  0.0524
 6521SOL    HW131025   3.370   2.090   7.254  1.0002  0.0969 -0.8268
 6521SOL    HW231026   3.383   2.195   7.356  0.4030 -0.6159  0.7859
 6522SOL     OW31027   1.438   3.299   6.502  0.0795  0.4531 -0.8424
 6522SOL    HW131028   1.454   3.347   6.420 -2.8617 -0.0896 -1.7331
 6522SOL    HW231029   1.481   3.353   6.568  0.2557 -0.3473 -0.2953
 6523SOL     OW31030   0.585   4.507   4.175  0.1184  0.1966  0.4729
 6523SOL    HW131031   0.532   4.432   4.147 -0.3947  0.2663  1.2475
 6523SOL    HW231032   0.564   4.519   4.268  1.5403  1.8555  0.5771
 6524SOL     OW31033   2.966   2.815   8.629  0.0755 -0.4922  0.4714
 6524SOL    HW131034   3.027   2.757   8.582  2.0460  2.1717 -0.2832
 6524SOL    HW231035   2.964   2.889   8.569  1.8074 -1.9649 -1.4141
 6525SOL     OW31036   4.381   3.449   9.198  0.0070 -0.0319  0.3000
 6525SOL    HW131037   4.297   3.493   9.208  0.2469  0.3827  0.4650
 6525SOL    HW231038   4.429   3.494   9.267  1.7920 -1.0835 -0.2535
 6526SOL     OW31039   0.980   0.067   7.922 -0.1344 -0.2524  0.0729
 6526SOL    HW131040   1.046   4.726   7.912 -0.0670 -0.0893 -0.6202
 6526SOL    HW231041   0.893   0.029   7.935 -0.6222  0.8189  0.0017
 6527SOL     OW31042   4.121   4.563   6.052  0.4159  0.0314  0.1140
 6527SOL    HW131043   4.031   4.566   6.019  0.6409  0.0962 -0.5050
 6527SOL    HW231044   4.115   4.600   6.140 -0.8213  1.4771 -0.5750
 6528SOL     OW31045   0.138   4.047   6.160 -0.4288  0.3762 -0.2449
 6528SOL    HW131046   0.194   3.979   6.124  1.7334  1.7567  0.5303
 6528SOL    HW231047   0.065   3.990   6.186 -1.2437  2.2614  1.5581
 6529SOL     OW31048   3.705   1.757   2.268 -0.3447 -0.2987  0.4031
 6529SOL    HW131049   3.705   1.852   2.252  0.4314 -0.6001 -1.3789
 6529SOL    HW231050   3.653   1.744   2.347  2.5956 -1.7558  2.0733
 6530SOL     OW31051   4.509   4.096   6.228 -0.0196  0.2315  0.4738
 6530SOL    HW131052   4.538   4.177   6.187  0.0448  1.0663  2.1471
 6530SOL    HW231053   4.516   4.031   6.158 -0.1967 -0.2672  0.9151
 6531SOL     OW31054   0.006   3.769  15.334 -0.0001 -0.1120  0.0874
 6531SOL    HW131055   0.003   3.674  15.341 -0.9661  0.0599  1.9206
 6531SOL    HW231056   0.073   3.778  15.266  1.1294  0.6575  1.3147
 6532SOL     OW31057   3.409   1.952   6.263  0.4713 -0.3117 -0.2325
 6532SOL    HW131058   3.393   2.023   6.325  2.6184  1.9290 -2.2372
 6532SOL    HW231059   3.480   1.907   6.310 -0.5650 -0.2641  1.3885
 6533SOL     OW31060   0.711   1.381   2.818 -0.5613 -0.2003  0.3257
 6533SOL    HW131061   0.770   1.326   2.870 -2.8216 -1.0874  1.9311
 6533SOL    HW231062   0.685   1.319   2.749  0.5540 -1.0699  0.6799
 6534SOL     OW31063   1.226   3.554   5.957 -0.4141  0.0644  0.2686
 6534SOL    HW131064   1.162   3.562   5.886 -0.1397  0.3103  0.0497
 6534SOL    HW231065   1.192   3.619   6.019 -1.4050  1.9676 -2.2608
 6535SOL     OW31066   1.795   2.168   5.557  0.2045 -0.2437 -0.5972
 6535SOL    HW131067   1.815   2.230   5.486  1.3471  1.5264  1.2478
 6535SOL    HW231068   1.720   2.128   5.513  0.6320  0.5820 -2.1032
 6536SOL     OW31069   4.697   3.788   9.226  0.2778 -0.0575  0.0295
 6536SOL    HW131070   4.653   3.827   9.150  2.6031  0.8280 -0.8841
 6536SOL    HW231071   0.008   3.865   9.269  2.1906 -0.6702 -0.5414
 6537SOL     OW31072   1.886   3.934   9.645  0.3784 -0.1059 -0.4925
 6537SOL    HW131073   1.838   3.933   9.562  0.6062  2.7189 -0.6671
 6537SOL    HW231074   1.865   3.848   9.681  0.7820 -0.9429 -2.2361
 6538SOL     OW31075   2.906   4.137  16.079 -0.2820 -0.1450 -0.7256
 6538SOL    HW131076   2.922   4.171  16.168 -0.1440  1.2104 -1.2604
 6538SOL    HW231077   2.991   4.099  16.059  1.0998  1.1824  2.4152
 6539SOL     OW31078   4.414   0.419   2.619 -0.2069 -0.6311  0.4444
 6539SOL    HW131079   4.475   0.420   2.545  0.2550  1.8566  0.8652
 6539SOL    HW231080   4.438   0.332   2.651 -0.1628  0.1178  2.4358
 6540SOL     OW31081   4.581   3.486   6.549  0.6379  0.4043 -0.1431
 6540SOL    HW131082   4.519   3.422   6.583 -0.5573  2.1941  1.0605
 6540SOL    HW231083   4.668   3.460   6.580  1.7559  1.2167 -2.6659
 6541SOL     OW31084   0.503   1.441   2.996  0.0486 -0.4245  0.0942
 6541SOL    HW131085   0.577   1.426   2.938  1.0509  1.4802  0.8773
 6541SOL    HW231086   0.436   1.461   2.930 -0.0942  2.5175  1.1007
 6542SOL     OW31087   0.604   2.840   7.742  0.1916 -0.2659 -0.1258
 6542SOL    HW131088   0.647   2.827   7.658 -2.6707 -0.3219 -1.5875
 6542SOL    HW231089   0.660   2.793   7.804  1.0525 -0.5382 -1.1106
 6543SOL     OW31090   3.818   1.516   3.432 -0.1215 -0.1920 -0.4388
 6543SOL    HW131091   3.859   1.501   3.517 -0.9903  1.0353  0.1852
 6543SOL    HW231092   3.791   1.426   3.412  0.9172 -0.4167 -0.8575
 6544SOL     OW31093   3.337   0.682   7.001 -0.1836 -0.2777 -0.4665
 6544SOL    HW131094   3.275   0.610   6.991 -1.1921  0.2985  1.7689
 6544SOL    HW231095   3.370   0.677   7.091  0.3804  0.9889 -0.6028
 6545SOL     OW31096   4.128   1.379   6.592  0.4301 -0.0605  0.0519
 6545SOL    HW131097   4.213   1.415   6.618  1.4044 -0.5718 -2.4732
 6545SOL    HW231098   4.142   1.354   6.501  1.3507  0.5699  0.0194
 6546SOL     OW31099   0.916   2.248   6.802 -0.2406  0.0832  0.2073
 6546SOL    HW131100   0.851   2.317   6.797  0.0425  0.5054  2.5145
 6546SOL    HW231101   0.860   2.171   6.813  0.4944 -0.5123 -0.2117
 6547SOL     OW31102   3.198   2.995   0.038  0.1728 -0.2093  0.4803
 6547SOL    HW131103   3.231   3.036  17.666  2.1196 -1.1435  0.8202
 6547SOL    HW231104   3.234   3.049   0.108 -0.5560  1.8006 -0.7088
 6548SOL     OW31105   3.642   1.242   4.023 -0.1640  0.0077  0.0141
 6548SOL    HW131106   3.735   1.219   4.028 -0.2190  0.4513  2.8672
 6548SOL    HW231107   3.606   1.210   4.105  0.9017 -0.8322  0.1607
 6549SOL     OW31108   4.056   2.894   7.465  0.1844  0.4068 -0.1199
 6549SOL    HW131109   3.996   2.871   7.394  2.3392  0.9846 -2.1087
 6549SOL    HW231110   4.047   2.813   7.516 -1.3095  0.9641  0.4928
 6550SOL     OW31111   1.311   2.000   8.289 -0.3364 -0.2178  0.2442
 6550SOL    HW131112   1.387   2.050   8.319 -2.5222  1.8737  2.2780
 6550SOL    HW231113   1.243   2.060   8.321  0.9150  0.2789  1.9716
 6551SOL     OW31114   1.744   2.952  11.781 -0.7065 -0.7933 -0.0338
 6551SOL    HW131115   1.661   2.999  11.787 -0.5972 -0.6979  0.7722
 6551SOL    HW231116   1.725   2.868  11.823  0.2562 -0.7090  0.5646
 6552SOL     OW31117   4.225   2.216  11.707 -0.6190  0.4144 -0.1996
 6552SOL    HW131118   4.321   2.206  11.710 -0.8031 -1.0636  0.6058
 6552SOL    HW231119   4.206   2.125  11.730  0.4051 -0.5341 -3.0651
 6553SOL     OW31120   0.936   4.680   2.494  0.5016 -0.0597 -0.4064
 6553SOL    HW131121   0.849   4.718   2.510 -0.6800 -3.4667  1.4200
 6553SOL    HW231122   0.930   4.681   2.399 -1.2063 -1.8604 -0.3184
 6554SOL     OW31123   0.280   2.836   8.848 -0.2990 -0.0667 -0.2045
 6554SOL    HW131124   0.291   2.920   8.803  1.5427 -0.6198 -0.8018
 6554SOL    HW231125   0.278   2.872   8.936  1.8855  0.6786 -0.4612
 6555SOL     OW31126   3.274   1.485   8.449  0.2986  0.3351  0.1988
 6555SOL    HW131127   3.332   1.560   8.430 -2.2420  1.6039 -2.5353
 6555SOL    HW231128   3.197   1.529   8.485 -0.1604 -0.5072  0.2265
 6556SOL     OW31129   4.224   1.777  11.966 -0.3081  0.1670 -0.1841
 6556SOL    HW131130   4.152   1.717  11.947 -1.6137  2.0159 -1.0352
 6556SOL    HW231131   4.297   1.727  11.928 -0.6045 -0.2037 -0.2693
 6557SOL     OW31132   0.351   1.707   3.844 -0.5824  0.4691  0.3093
 6557SOL    HW131133   0.314   1.676   3.926  0.2044 -0.1080  0.4396
 6557SOL    HW231134   0.284   1.770   3.817 -0.7742  0.2037  0.1637
 6558SOL     OW31135   0.986   4.408   4.882  0.3616 -0.4243  0.2073
 6558SOL    HW131136   1.052   4.347   4.915 -0.1869 -1.1399 -0.0090
 6558SOL    HW231137   1.021   4.398   4.793  2.0565 -1.0534  0.9464
 6559SOL     OW31138   2.687   2.507   5.351 -0.4361 -0.6062  0.2034
 6559SOL    HW131139   2.701   2.524   5.444 -2.3007  0.3897  0.2956
 6559SOL    HW231140   2.710   2.415   5.340  1.3398 -0.1299 -0.0970
 6560SOL     OW31141   0.674   2.709   8.400 -0.1768  0.3186  0.1502
 6560SOL    HW131142   0.694   2.802   8.393  2.1717 -0.2184 -0.5151
 6560SOL    HW231143   0.631   2.707   8.485 -0.4003 -1.7213  0.0001
 6561SOL     OW31144   4.180   0.514  16.117  0.2429 -0.1911  0.2952
 6561SOL    HW131145   4.269   0.526  16.083  0.3034 -2.0161 -0.2070
 6561SOL    HW231146   4.165   0.421  16.098 -2.8628  0.7921 -2.1154
 6562SOL     OW31147   4.261   4.498   7.085  0.0393 -0.5645 -0.1434
 6562SOL    HW131148   4.258   4.403   7.095  2.1085 -0.6756 -0.5292
 6562SOL    HW231149   4.325   4.523   7.152  1.1897  1.0201 -1.8361
 6563SOL     OW31150   1.934   2.613   8.199  0.9663  0.3247 -0.0296
 6563SOL    HW131151   1.853   2.614   8.250 -0.8291  1.9837 -2.8780
 6563SOL    HW231152   1.990   2.561   8.257  1.7925 -0.0804 -1.1686
 6564SOL     OW31153   3.606   3.612   3.253 -0.4979 -0.1646 -0.0176
 6564SOL    HW131154   3.606   3.638   3.161  0.2087  0.6019  0.1970
 6564SOL    HW231155   3.635   3.521   3.249  0.5970  0.2515 -1.7451
 6565SOL     OW31156   1.647   3.325  16.124 -0.1739 -0.6046 -0.0216
 6565SOL    HW131157   1.726   3.332  16.070  0.4755 -1.5492  0.7986
 6565SOL    HW231158   1.637   3.230  16.132 -2.3445 -0.2625  1.4289
 6566SOL     OW31159   1.886   3.589   3.886 -0.0353  1.0279 -0.4070
 6566SOL    HW131160   1.848   3.581   3.973  1.3717 -1.8406 -0.0874
 6566SOL    HW231161   1.827   3.529   3.840  1.5605 -3.1367  3.0869
 6567SOL     OW31162   0.938   0.472   0.153  0.4301 -0.4065  0.2036
 6567SOL    HW131163   0.862   0.504   0.104 -0.4620  0.2075  1.9850
 6567SOL    HW231164   0.921   0.518   0.235 -0.1311 -0.7941  0.3084
 6568SOL     OW31165   3.910   0.322  16.607 -0.3131  0.2668 -0.5253
 6568SOL    HW131166   3.973   0.388  16.636  1.4997 -2.2600  1.3065
 6568SOL    HW231167   3.826   0.365  16.623 -1.1076 -1.1948 -0.8046
 6569SOL     OW31168   0.819   1.673  12.768  0.3366 -0.3349  0.0626
 6569SOL    HW131169   0.726   1.678  12.745 -0.2964  0.1894  2.8097
 6569SOL    HW231170   0.827   1.688  12.862  0.2010 -1.8261  0.3123
 6570SOL     OW31171   4.579   1.196   7.800 -0.0773 -0.5438 -0.5336
 6570SOL    HW131172   4.496   1.194   7.848  1.2559 -2.3368  1.6671
 6570SOL    HW231173   4.609   1.280   7.835 -0.1274 -0.8042  0.1430
 6571SOL     OW31174   2.578   0.343   4.820 -0.1399  0.1421  0.4061
 6571SOL    HW131175   2.619   0.411   4.766  0.7651  0.5615  1.6294
 6571SOL    HW231176   2.500   0.393   4.842  0.3546  1.3819 -0.6636
 6572SOL     OW31177   4.683   1.368   6.617  0.3643  0.4048  0.0854
 6572SOL    HW131178   0.035   1.313   6.626  0.7043  0.5233 -1.9857
 6572SOL    HW231179   4.625   1.311   6.668 -2.5029  0.3090 -3.2830
 6573SOL     OW31180   1.796   3.949   7.334 -0.4958 -0.1878 -0.7142
 6573SOL    HW131181   1.887   3.934   7.360 -1.3001 -1.8121  1.1242
 6573SOL    HW231182   1.800   4.028   7.279 -0.0419  1.1974  1.3235
 6574SOL     OW31183   3.808   1.664  15.854 -0.2894 -0.0332 -0.2104
 6574SOL    HW131184   3.756   1.591  15.822  1.0539 -1.1849  0.2619
 6574SOL    HW231185   3.848   1.698  15.774 -2.9498  3.2622 -0.1858
 6575SOL     OW31186   1.626   3.210   4.740 -0.1994  0.0640  0.0915
 6575SOL    HW131187   1.553   3.272   4.729  1.5357  2.0514 -0.3209
 6575SOL    HW231188   1.675   3.249   4.812  0.5896 -0.1484 -0.3380
 6576SOL     OW31189   0.326   0.098   6.012 -0.5172 -0.3090  0.5108
 6576SOL    HW131190   0.329   0.116   5.918  1.0129 -1.4987  0.3360
 6576SOL    HW231191   0.337   0.187   6.045 -0.0742 -0.6575  1.2951
 6577SOL     OW31192   2.446   2.046   7.247  0.3029  0.4467  0.1235
 6577SOL    HW131193   2.358   2.082   7.256  0.3586  0.9053 -1.1293
 6577SOL    HW231194   2.491   2.124   7.278 -1.7934  1.2258  1.1964
 6578SOL     OW31195   0.486   2.164   0.542 -0.5342  0.0662 -0.2881
 6578SOL    HW131196   0.413   2.177   0.603 -1.8133 -0.7145 -1.6278
 6578SOL    HW231197   0.439   2.172   0.458  0.7109  0.1604 -0.9722
 6579SOL     OW31198   1.222   4.305   2.248 -0.5651  0.1678 -0.4545
 6579SOL    HW131199   1.169   4.256   2.311 -2.9408  2.3726 -0.7378
 6579SOL    HW231200   1.254   4.378   2.302  0.1690 -1.4752  1.3288
 6580SOL     OW31201   3.653   4.672  16.226 -0.3693 -0.2916  0.2256
 6580SOL    HW131202   3.650   0.021  16.168 -0.8290 -0.0071  0.6253
 6580SOL    HW231203   3.569   4.671  16.272  0.3838 -0.8496  1.5885
 6581SOL     OW31204   4.330   1.862   8.396  0.3479  0.0277  0.3499
 6581SOL    HW131205   4.298   1.828   8.479 -0.5650  2.6984  1.0957
 6581SOL    HW231206   4.247   1.876   8.350 -0.1472  1.4349  1.6675
 6582SOL     OW31207   0.090   1.021   9.614 -0.0958 -0.3198 -0.4093
 6582SOL    HW131208   0.185   1.030   9.618 -0.2101  0.3100  0.8438
 6582SOL    HW231209   0.091   0.928   9.592 -0.4938  0.1531 -2.4225
 6583SOL     OW31210   4.129   1.280  14.922 -0.1708 -0.2051  0.6105
 6583SOL    HW131211   4.141   1.344  14.852 -2.1881 -0.7592 -0.2303
 6583SOL    HW231212   4.179   1.209  14.882  0.3757  0.7846 -0.4661
 6584SOL     OW31213   2.818   2.446   0.685  0.1534 -0.1497 -0.4780
 6584SOL    HW131214   2.869   2.513   0.732  2.0092  0.6996 -3.6734
 6584SOL    HW231215   2.796   2.395   0.763  1.7298  1.5307  1.0908
 6585SOL     OW31216   0.358   1.497  11.429  0.2379  0.1177 -0.7536
 6585SOL    HW131217   0.319   1.476  11.514  3.9100  0.6588  1.0647
 6585SOL    HW231218   0.329   1.424  11.374 -0.5052 -2.0260  2.4828
 6586SOL     OW31219   1.855   0.050  13.397 -0.6179 -0.2011 -0.3389
 6586SOL    HW131220   1.829   0.124  13.341  0.4278  0.5577  0.1662
 6586SOL    HW231221   1.775   4.725  13.408 -1.1590  0.6222 -0.3575
 6587SOL     OW31222   4.052   3.376   3.346 -0.3201  0.4988  0.0107
 6587SOL    HW131223   4.055   3.282   3.326  0.2193  0.2757  1.1225
 6587SOL    HW231224   4.068   3.416   3.261  1.1042  1.3178  0.6725
 6588SOL     OW31225   1.180   4.347   7.240 -0.0242 -0.6084  0.3347
 6588SOL    HW131226   1.250   4.298   7.196  1.1514  1.3605  0.0124
 6588SOL    HW231227   1.202   4.427   7.192 -2.7002  0.6859  1.3081
 6589SOL     OW31228   2.881   2.368   2.072  0.6696 -0.2813  0.6134
 6589SOL    HW131229   2.831   2.448   2.085  2.8115  0.8294  1.9643
 6589SOL    HW231230   2.814   2.300   2.086 -0.6387  1.0450  0.7841
 6590SOL     OW31231   1.248   3.664  15.487  0.7245  0.5070  0.5643
 6590SOL    HW131232   1.170   3.671  15.542 -1.1972 -1.4312 -1.9925
 6590SOL    HW231233   1.237   3.577  15.449 -1.6827  0.2759  1.8127
 6591SOL     OW31234   1.458   2.612  16.360  0.2233  0.2570  0.2127
 6591SOL    HW131235   1.483   2.557  16.285  1.3801  1.0549  0.0227
 6591SOL    HW231236   1.545   2.618  16.399 -0.6355  1.0170  2.0211
 6592SOL     OW31237   4.291   0.543   2.259 -0.2295  0.2554  0.3871
 6592SOL    HW131238   4.259   0.473   2.317 -1.3762  0.0365 -0.5136
 6592SOL    HW231239   4.212   0.597   2.265  0.7059  1.5582  0.9619
 6593SOL     OW31240   4.689   0.397   2.736 -0.2567 -0.0620  0.0158
 6593SOL    HW131241   4.667   0.467   2.797  0.8773  0.3790 -0.0865
 6593SOL    HW231242   4.682   0.443   2.652 -0.3138 -2.2232 -1.1403
 6594SOL     OW31243   0.732   3.632  14.206 -0.1997  0.1248 -0.1957
 6594SOL    HW131244   0.730   3.727  14.189  1.4752  0.5162  1.7331
 6594SOL    HW231245   0.640   3.608  14.213  0.1812 -0.8780  1.5037
 6595SOL     OW31246   2.377   3.546   7.774 -0.4803  0.0469 -0.0659
 6595SOL    HW131247   2.359   3.516   7.863  1.4622  0.0861  0.3367
 6595SOL    HW231248   2.472   3.538   7.771 -0.4581 -0.6584  2.1066
 6596SOL     OW31249   1.265   0.623  10.065  0.8849  0.2615 -0.2330
 6596SOL    HW131250   1.196   0.677  10.102  0.8120 -0.0792  0.1311
 6596SOL    HW231251   1.315   0.611  10.146  1.3570 -1.2354 -0.7445
 6597SOL     OW31252   4.031   2.768   0.138  0.0315 -0.2721  0.3742
 6597SOL    HW131253   3.968   2.701   0.112 -2.0832  1.6401  0.5315
 6597SOL    HW231254   3.988   2.845   0.099  1.5366  1.3349  1.8890
 6598SOL     OW31255   4.582   4.098   0.335  0.1423  0.1398  0.0221
 6598SOL    HW131256   4.555   4.080   0.425 -0.0915  0.6710  0.0590
 6598SOL    HW231257   4.661   4.046   0.321 -0.3319 -0.8318  0.9384
 6599SOL     OW31258   2.414   2.771   1.081  0.2984 -0.4839  0.3044
 6599SOL    HW131259   2.352   2.755   1.153 -0.1422  3.0510  0.7036
 6599SOL    HW231260   2.365   2.757   0.999 -1.2311 -3.5902  1.7338
 6600SOL     OW31261   1.200   1.459   5.838  0.7168 -0.5117 -0.0958
 6600SOL    HW131262   1.290   1.458   5.806  0.9138  1.5641  0.4301
 6600SOL    HW231263   1.201   1.377   5.889  0.7697 -0.2570  0.3149
 6601SOL     OW31264   3.632   3.779   0.986 -0.0626 -0.3398  0.1131
 6601SOL    HW131265   3.643   3.861   0.937 -2.1084 -0.4993 -0.6192
 6601SOL    HW231266   3.649   3.804   1.077 -0.4661  1.2262 -0.2434
 6602SOL     OW31267   0.696   1.426   4.535 -0.2045  0.5243 -0.2830
 6602SOL    HW131268   0.716   1.519   4.538  2.2977  0.0949 -3.1975
 6602SOL    HW231269   0.775   1.393   4.491  1.1009  1.4169  1.4008
 6603SOL     OW31270   4.407   2.062  16.053 -0.1863  0.2757 -1.3882
 6603SOL    HW131271   4.454   2.042  15.972  2.6884  0.8049  0.1225
 6603SOL    HW231272   4.346   1.988  16.060 -0.2424  0.5323  0.9323
 6604SOL     OW31273   1.563   1.324   0.372  0.2852  0.2152  0.7007
 6604SOL    HW131274   1.644   1.374   0.362  1.3340 -1.0620  2.8361
 6604SOL    HW231275   1.508   1.355   0.301  0.5083  1.4628  1.0752
 6605SOL     OW31276   3.379   0.621   2.296  0.4259  0.5965  0.1185
 6605SOL    HW131277   3.356   0.612   2.204  1.8315 -0.8658 -0.0780
 6605SOL    HW231278   3.470   0.590   2.292  0.5323  1.2409 -2.1791
 6606SOL     OW31279   1.222   3.975   9.365  0.5201 -0.1886 -0.6031
 6606SOL    HW131280   1.231   4.057   9.414  1.7993 -0.2000 -0.8156
 6606SOL    HW231281   1.128   3.978   9.350  0.5245 -1.1574 -0.8089
 6607SOL     OW31282   4.117   1.197   4.897 -0.4925  0.1943  0.7622
 6607SOL    HW131283   4.076   1.128   4.948  0.3669  0.1789  1.4418
 6607SOL    HW231284   4.210   1.173   4.895  0.0260  2.1445  1.6240
 6608SOL     OW31285   3.015   3.787   1.243 -0.0442 -0.0259 -0.1034
 6608SOL    HW131286   2.963   3.707   1.247  0.6406 -0.4523  0.4284
 6608SOL    HW231287   3.103   3.753   1.258 -0.3904 -0.6741  0.4701
 6609SOL     OW31288   2.700   3.881   1.218  0.8525 -0.9624  0.1340
 6609SOL    HW131289   2.745   3.959   1.252 -1.2058 -1.1169  3.2018
 6609SOL    HW231290   2.636   3.923   1.161  0.2934 -2.0470 -0.0196
 6610SOL     OW31291   1.562   1.322   8.694  0.0888  0.2203  0.5266
 6610SOL    HW131292   1.580   1.228   8.700  0.1879  0.0910 -1.7693
 6610SOL    HW231293   1.655   1.344   8.698 -0.2090  1.4919  0.4637
 6611SOL     OW31294   1.012   0.894   1.442 -0.0347 -0.3585  0.1497
 6611SOL    HW131295   1.094   0.918   1.485 -0.4193  0.1775  0.5830
 6611SOL    HW231296   1.037   0.836   1.370  1.6136  0.3109  0.1616
 6612SOL     OW31297   4.667   3.622   1.327  0.3714 -0.4672  0.3591
 6612SOL    HW131298   4.677   3.715   1.305  1.8595 -1.0812 -1.6221
 6612SOL    HW231299   4.698   3.630   1.417 -0.6570  3.0323  0.4202
 6613SOL     OW31300   1.697   1.430  17.460 -0.0161 -0.5973 -0.9964
 6613SOL    HW131301   1.637   1.422  17.534  0.7899  0.7002 -0.1871
 6613SOL    HW231302   1.761   1.371  17.499 -0.3073 -0.9701 -1.0895
 6614SOL     OW31303   4.418   4.273   5.021 -0.3647  0.1539  0.7482
 6614SOL    HW131304   4.495   4.320   5.052 -0.2687  1.4217 -1.4280
 6614SOL    HW231305   4.367   4.328   4.961  1.1101 -1.1455 -1.6416
 6615SOL     OW31306   2.693   0.272   2.043 -0.1549  0.1926  0.5016
 6615SOL    HW131307   2.674   0.291   1.951  2.8095  2.8410  0.3911
 6615SOL    HW231308   2.717   0.357   2.081  1.4932  1.2506 -2.8207
 6616SOL     OW31309   0.850   1.516   5.097  0.2471 -0.3523  0.1659
 6616SOL    HW131310   0.833   1.445   5.160 -2.8948  0.6025  0.3621
 6616SOL    HW231311   0.767   1.514   5.049  1.0147  0.7350 -1.1824
 6617SOL     OW31312   2.886   0.474  15.746 -0.5724  0.0435  0.3603
 6617SOL    HW131313   2.888   0.503  15.837  1.1056  0.6745  0.1213
 6617SOL    HW231314   2.791   0.476  15.734 -0.5902  1.0665  0.7207
 6618SOL     OW31315   0.639   0.617   7.296 -0.5478 -0.2899 -0.4277
 6618SOL    HW131316   0.546   0.615   7.315 -0.3022 -1.4546  0.6550
 6618SOL    HW231317   0.646   0.704   7.258 -2.1615  1.2556  2.8092
 6619SOL     OW31318   0.751   3.336   8.579 -0.4029  0.3556 -0.0213
 6619SOL    HW131319   0.724   3.299   8.663 -0.8217  0.8805  0.0733
 6619SOL    HW231320   0.701   3.417   8.568  0.3255  0.6815 -0.8972
 6620SOL     OW31321   1.075   4.132   2.429 -0.0906  0.1528  0.4300
 6620SOL    HW131322   1.042   4.103   2.343  1.2927 -0.4425  0.1116
 6620SOL    HW231323   1.037   4.064   2.485 -1.1312  1.4872  1.3607
 6621SOL     OW31324   0.635   2.827  13.816 -0.4701  0.0175 -0.1023
 6621SOL    HW131325   0.544   2.803  13.802 -0.4714 -0.8373  1.3238
 6621SOL    HW231326   0.666   2.811  13.726 -0.9897  0.7948 -0.4125
 6622SOL     OW31327   0.643   3.151   9.219  0.3427  0.7361 -0.1284
 6622SOL    HW131328   0.629   3.139   9.125 -1.0421 -1.9402  0.4489
 6622SOL    HW231329   0.663   3.245   9.218  1.5682  0.4895  1.0920
 6623SOL     OW31330   0.767   2.616   9.289 -0.5630  0.0649  0.4797
 6623SOL    HW131331   0.690   2.672   9.284 -0.2149  0.3592 -1.6352
 6623SOL    HW231332   0.749   2.554   9.218  2.0399  0.5372 -0.5808
 6624SOL     OW31333   2.615   0.576   0.361  0.3625 -0.6856  0.1772
 6624SOL    HW131334   2.625   0.481   0.366  1.2234 -0.6998 -1.6481
 6624SOL    HW231335   2.710   0.584   0.348  0.0998 -1.1054 -2.0389
 6625SOL     OW31336   3.519   1.585   8.840  0.0265  0.0666 -0.1027
 6625SOL    HW131337   3.569   1.516   8.883  0.7354  1.5307  1.4150
 6625SOL    HW231338   3.463   1.529   8.787 -0.3531 -0.3906  0.7846
 6626SOL     OW31339   0.550   1.470  15.880  0.5164  0.4769 -0.1872
 6626SOL    HW131340   0.585   1.540  15.934 -3.1120  1.3544  0.9938
 6626SOL    HW231341   0.463   1.463  15.919  0.7175  0.1431  0.2117
 6627SOL     OW31342   4.308   3.576   1.136 -0.2384  0.1447 -0.6677
 6627SOL    HW131343   4.383   3.546   1.085 -0.3751  0.8587 -1.2848
 6627SOL    HW231344   4.244   3.604   1.072 -1.1893 -0.9785 -0.2223
 6628SOL     OW31345   2.049   4.574   8.955 -0.2179 -0.5318 -0.2976
 6628SOL    HW131346   2.005   4.566   9.039  0.2427  1.1235  0.0943
 6628SOL    HW231347   2.138   4.579   8.990  0.3373  1.0014 -1.9349
 6629SOL     OW31348   3.984   3.274   7.507 -0.5321  0.2250 -0.0346
 6629SOL    HW131349   4.021   3.232   7.585 -0.5032 -0.7415 -0.5704
 6629SOL    HW231350   3.913   3.212   7.491 -0.2052  0.2826 -1.7020
 6630SOL     OW31351   2.737   1.951   0.746 -0.2172 -0.2790 -0.4891
 6630SOL    HW131352   2.756   1.925   0.656  2.8436 -1.8579  0.5910
 6630SOL    HW231353   2.646   1.923   0.749 -0.6080  1.2709  2.0713
 6631SOL     OW31354   3.601   2.806   2.748 -0.1693  0.2630  0.8390
 6631SOL    HW131355   3.609   2.901   2.735 -1.6678  0.1705 -0.6780
 6631SOL    HW231356   3.694   2.788   2.734 -0.2240 -0.7520  1.8195
 6632SOL     OW31357   2.920   0.948  12.743  0.2609 -0.3466  0.0408
 6632SOL    HW131358   2.845   0.992  12.782  0.3351  0.5721 -0.8253
 6632SOL    HW231359   2.976   0.942  12.820  0.3542 -2.2343 -0.1791
 6633SOL     OW31360   4.026   1.914   8.404  0.3132 -0.0147  0.1753
 6633SOL    HW131361   3.998   1.986   8.349  2.1914  1.2992  0.9588
 6633SOL    HW231362   4.019   1.951   8.492 -2.4110  2.5166 -1.0832
 6634SOL     OW31363   0.316   2.925   7.000  0.7905  0.2071  0.0098
 6634SOL    HW131364   0.409   2.946   7.011 -0.0251  2.0545  3.4792
 6634SOL    HW231365   0.315   2.845   7.052 -1.2649 -0.1707 -0.6235
 6635SOL     OW31366   2.953   2.316  10.359 -0.2502 -0.4185  0.2500
 6635SOL    HW131367   2.986   2.227  10.370 -0.6236 -0.3253  2.1027
 6635SOL    HW231368   2.989   2.332  10.272  0.2978 -1.1990  0.3358
 6636SOL     OW31369   0.327   1.874   5.646 -0.0318  0.2922 -0.0815
 6636SOL    HW131370   0.319   1.787   5.608  2.1093  0.3862 -0.7270
 6636SOL    HW231371   0.405   1.867   5.701 -1.7261 -3.0236  1.8838
 6637SOL     OW31372   0.812   3.890  13.465 -0.0365  0.1357  0.0741
 6637SOL    HW131373   0.826   3.968  13.413  2.9076  1.0843  2.2998
 6637SOL    HW231374   0.776   3.825  13.404 -0.1038 -0.7126  1.0063
 6638SOL     OW31375   0.694   3.375   6.602  0.4993  0.0540 -0.1572
 6638SOL    HW131376   0.617   3.387   6.657  1.1860  2.4641  0.3238
 6638SOL    HW231377   0.694   3.280   6.609 -2.2157 -0.0382 -1.5111
 6639SOL     OW31378   2.488   4.344   4.485 -0.6839 -0.3079 -0.2965
 6639SOL    HW131379   2.467   4.322   4.576 -0.6546  2.0447  0.2842
 6639SOL    HW231380   2.567   4.395   4.502 -1.7800  1.3095 -0.0652
 6640SOL     OW31381   1.269   3.091   2.365  0.2079 -0.0386  0.0811
 6640SOL    HW131382   1.338   3.145   2.405  0.7411  0.5385 -1.5801
 6640SOL    HW231383   1.189   3.140   2.384 -0.3386 -1.5018  1.5577
 6641SOL     OW31384   0.956   2.591   7.429 -0.0730 -0.0278  0.0497
 6641SOL    HW131385   0.983   2.569   7.519  0.6494  0.6598  0.0018
 6641SOL    HW231386   1.043   2.594   7.390 -0.2803  0.2245 -0.3897
 6642SOL     OW31387   4.319   4.066   7.558  0.1513  0.0149  0.2356
 6642SOL    HW131388   4.274   4.148   7.580 -0.6136  0.0676 -1.5187
 6642SOL    HW231389   4.256   4.009   7.515  0.2799  0.4246 -0.4962
 6643SOL     OW31390   2.532   1.291  12.860  0.6371  0.0983  0.8982
 6643SOL    HW131391   2.459   1.231  12.877  0.7782  0.6004  3.3095
 6643SOL    HW231392   2.567   1.246  12.783  0.3563  1.4342 -0.0101
 6644SOL     OW31393   1.176   3.378   6.647 -0.5531 -0.3038  0.1735
 6644SOL    HW131394   1.264   3.355   6.615 -0.7796  1.1151 -1.4523
 6644SOL    HW231395   1.185   3.471   6.629 -0.3818 -0.3140  0.2010
 6645SOL     OW31396   2.432   2.735   2.389  0.0293  0.0041  0.5714
 6645SOL    HW131397   2.373   2.717   2.315  2.2729 -0.6947 -1.0488
 6645SOL    HW231398   2.503   2.777   2.341 -1.0878  3.3316  1.8107
 6646SOL     OW31399   2.499   3.696  14.345 -0.0098  0.0266 -0.4786
 6646SOL    HW131400   2.482   3.790  14.343  1.0020  0.2244 -0.2136
 6646SOL    HW231401   2.434   3.674  14.411 -0.8586  2.1445 -0.6277
 6647SOL     OW31402   3.798   2.827  12.188 -0.3688  0.5330 -0.3998
 6647SOL    HW131403   3.731   2.774  12.230  0.8517 -1.5090 -1.0139
 6647SOL    HW231404   3.820   2.884  12.263 -2.7664 -0.5910  1.1493
 6648SOL     OW31405   4.135   0.867   5.733 -0.0061 -0.1225 -0.5155
 6648SOL    HW131406   4.188   0.943   5.752 -0.2675  0.4086 -1.9334
 6648SOL    HW231407   4.210   0.808   5.720 -0.7184 -0.7696 -1.7149
 6649SOL     OW31408   0.995   3.620   5.021 -0.2313  0.2101  0.5836
 6649SOL    HW131409   0.905   3.613   5.052 -0.8071  0.4383 -1.0457
 6649SOL    HW231410   1.018   3.702   5.064  1.7042  0.9851 -1.9777
 6650SOL     OW31411   1.626   1.861   5.727 -0.4986  0.8457  0.5232
 6650SOL    HW131412   1.565   1.811   5.782 -0.8218 -1.8826 -2.3080
 6650SOL    HW231413   1.618   1.948   5.767 -0.2460  1.5916 -1.0698
 6651SOL     OW31414   1.118   0.547   8.960  0.4021 -0.3208  0.0352
 6651SOL    HW131415   1.187   0.562   9.025 -3.0140  1.3829  3.3214
 6651SOL    HW231416   1.130   0.452   8.958 -0.5509 -0.4877  1.4904
 6652SOL     OW31417   3.434   1.796   3.591  0.7755 -0.4457 -0.3977
 6652SOL    HW131418   3.398   1.723   3.540  1.7854 -1.1561 -0.0958
 6652SOL    HW231419   3.378   1.801   3.668 -0.0797  2.0001 -1.1540
 6653SOL     OW31420   1.508   2.863   9.653  0.3073  0.2316  0.5986
 6653SOL    HW131421   1.545   2.798   9.594 -0.2776  0.7870 -0.3743
 6653SOL    HW231422   1.446   2.889   9.586  0.7269 -0.1524  0.0655
 6654SOL     OW31423   2.419   1.141   9.343  0.2621 -0.4578  0.0617
 6654SOL    HW131424   2.460   1.125   9.428  1.9291  0.3223 -0.5807
 6654SOL    HW231425   2.335   1.105   9.371  1.2240 -3.3589 -0.7867
 6655SOL     OW31426   1.739   1.817  11.316 -0.7645  0.6635 -0.0104
 6655SOL    HW131427   1.827   1.781  11.325 -1.5986 -0.6517  3.0356
 6655SOL    HW231428   1.699   1.764  11.247 -0.7107  1.6842 -0.8152
 6656SOL     OW31429   3.380   0.422   2.980 -0.5850 -0.3979 -0.2244
 6656SOL    HW131430   3.386   0.371   3.061 -0.7943 -0.4384 -0.2337
 6656SOL    HW231431   3.463   0.399   2.939  0.5240 -0.6122  2.1467
 6657SOL     OW31432   4.257   1.021   6.920 -0.1055  0.2508  0.0069
 6657SOL    HW131433   4.225   0.988   6.837 -2.3672 -0.5002  1.1719
 6657SOL    HW231434   4.181   1.030   6.977  0.6188 -0.0304  1.0278
 6658SOL     OW31435   1.457   1.881   7.052  0.2082  0.1621  0.5350
 6658SOL    HW131436   1.461   1.954   7.114  0.5977  0.0119  0.6789
 6658SOL    HW231437   1.363   1.862   7.054  0.5862 -1.7103  0.5278
 6659SOL     OW31438   2.305   3.998   8.053  1.0214 -0.2304  0.4810
 6659SOL    HW131439   2.218   3.964   8.076  1.5162 -1.3671  0.6458
 6659SOL    HW231440   2.309   3.987   7.958 -0.0791 -0.1571  0.4200
 6660SOL     OW31441   4.186   4.220   5.189 -0.1981  0.6410 -0.0980
 6660SOL    HW131442   4.165   4.313   5.197  0.8516  0.7061  2.1115
 6660SOL    HW231443   4.250   4.216   5.118  0.2897 -1.1768  0.4251
 6661SOL     OW31444   2.095   1.876   8.483  0.4931 -0.4327  0.2281
 6661SOL    HW131445   2.099   1.825   8.564 -3.0901 -0.2129  0.5542
 6661SOL    HW231446   2.075   1.810   8.416  1.6536 -0.1280 -0.4231
 6662SOL     OW31447   3.124   4.511   8.516  0.1651 -0.2479 -0.4460
 6662SOL    HW131448   3.149   4.495   8.425  1.1973  0.2658 -0.2486
 6662SOL    HW231449   3.040   4.467   8.529 -0.0049  0.1528 -0.1931
 6663SOL     OW31450   1.779   3.996   6.491 -0.6356  0.2934 -0.6084
 6663SOL    HW131451   1.874   4.006   6.482 -0.5160 -0.3980 -0.1124
 6663SOL    HW231452   1.769   4.078   6.541 -3.9476  0.4950 -1.6140
 6664SOL     OW31453   3.155   0.360  10.781 -0.4301 -0.2182  0.1992
 6664SOL    HW131454   3.139   0.448  10.814  0.2196 -0.3557  0.8771
 6664SOL    HW231455   3.210   0.318  10.847  0.3272  0.1191 -0.2238
 6665SOL     OW31456   3.501   1.448  13.751  0.0100  0.4583  0.0240
 6665SOL    HW131457   3.504   1.520  13.688  0.7940 -0.9649 -1.5909
 6665SOL    HW231458   3.461   1.374  13.705 -2.3899  1.7956 -0.0453
 6666SOL     OW31459   0.089   4.550   5.552  0.6026  0.2931 -0.7778
 6666SOL    HW131460   0.077   4.587   5.640  0.1276 -0.7172 -0.4168
 6666SOL    HW231461   0.078   4.624   5.493 -0.7025 -0.1559 -1.0870
 6667SOL     OW31462   0.203   2.158  14.834 -0.3835 -0.2327  0.8221
 6667SOL    HW131463   0.202   2.226  14.767 -1.0831 -2.1599 -1.1477
 6667SOL    HW231464   0.293   2.125  14.827 -0.0151  0.6760  1.3942
 6668SOL     OW31465   2.186   2.473   9.099  0.8191 -0.5836  0.2435
 6668SOL    HW131466   2.229   2.552   9.066 -2.5752  0.6265 -1.2780
 6668SOL    HW231467   2.096   2.491   9.074  0.4342 -1.1166  1.2291
 6669SOL     OW31468   0.084   0.328   7.585  0.9417  0.4163 -0.1411
 6669SOL    HW131469   0.137   0.251   7.606 -1.2582 -0.7784  1.0340
 6669SOL    HW231470   0.004   0.288   7.619 -0.5744  0.6375 -3.3913
 6670SOL     OW31471   0.584   4.722  13.635 -0.7715 -0.7569  0.3167
 6670SOL    HW131472   0.579   0.089  13.648  2.4439 -0.8449  2.1982
 6670SOL    HW231473   0.637   4.700  13.712  1.3463  2.9173 -0.1019
 6671SOL     OW31474   1.352   2.607   3.825  0.5250 -0.7404  0.5900
 6671SOL    HW131475   1.285   2.556   3.870 -0.8667  0.2271 -0.3753
 6671SOL    HW231476   1.424   2.550   3.797  0.8121 -1.4216  2.7250
 6672SOL     OW31477   1.065   1.224   5.159  0.4017  0.0148  0.0008
 6672SOL    HW131478   0.998   1.211   5.091  3.2189 -1.2918 -2.5481
 6672SOL    HW231479   1.025   1.284   5.222  0.2419 -2.6049  2.3804
 6673SOL     OW31480   3.034   3.132   1.708 -0.5559 -0.5331 -0.3450
 6673SOL    HW131481   2.981   3.200   1.666  0.7858 -2.3279 -4.9567
 6673SOL    HW231482   2.964   3.076   1.742  0.1005  0.0047  1.8889
 6674SOL     OW31483   3.264   4.335   0.546 -0.5749 -0.4052  0.2689
 6674SOL    HW131484   3.306   4.421   0.550  1.1095 -1.2024 -0.3203
 6674SOL    HW231485   3.339   4.279   0.524 -1.0807 -1.3475  0.9505
 6675SOL     OW31486   1.912   4.128   5.577 -0.2126 -0.2575  0.4810
 6675SOL    HW131487   1.972   4.187   5.623  0.4607  0.2428 -1.0336
 6675SOL    HW231488   1.864   4.075   5.640  1.5943 -1.3545  0.9158
 6676SOL     OW31489   0.072   3.021   2.782  0.3230 -0.3949  0.2193
 6676SOL    HW131490   0.048   2.959   2.714 -0.2250 -0.0485  0.0974
 6676SOL    HW231491   0.114   3.089   2.729 -2.0146  0.9153  0.0470
 6677SOL     OW31492   1.305   1.579   7.593 -0.0736 -0.4051 -0.3464
 6677SOL    HW131493   1.255   1.611   7.669  0.4585  0.7696 -0.4898
 6677SOL    HW231494   1.253   1.632   7.533  0.6428  1.0437  0.2984
 6678SOL     OW31495   0.174   2.701   7.999  0.5276  0.3352 -0.2944
 6678SOL    HW131496   0.216   2.615   7.995 -2.3018 -0.9302 -2.9940
 6678SOL    HW231497   0.244   2.762   7.975 -1.0045  2.3110  0.2715
 6679SOL     OW31498   4.466   2.525   7.117 -0.7737 -0.4258  0.2202
 6679SOL    HW131499   4.443   2.600   7.171  1.2184  0.0212  0.4528
 6679SOL    HW231500   4.497   2.568   7.038 -0.6144 -0.7314  0.1134
 6680SOL     OW31501   2.761   3.183   0.328  0.2268  0.6277  0.0566
 6680SOL    HW131502   2.786   3.203   0.238 -0.0113  0.7995  0.0299
 6680SOL    HW231503   2.825   3.225   0.384  2.8391 -1.0941 -1.6203
 6681SOL     OW31504   3.078   1.574   6.421  0.0216 -0.0789 -0.1283
 6681SOL    HW131505   2.998   1.522   6.429  0.4272 -0.4522  1.4390
 6681SOL    HW231506   3.137   1.503   6.396 -0.9583 -0.8564 -0.2230
 6682SOL     OW31507   3.157   3.697   3.374  0.0217 -0.1318 -0.1259
 6682SOL    HW131508   3.170   3.751   3.452  0.0883 -0.6746  0.2413
 6682SOL    HW231509   3.244   3.657   3.369 -0.7738 -1.6565 -1.7992
 6683SOL     OW31510   1.285   3.217  11.409 -0.0050  0.0653  0.3458
 6683SOL    HW131511   1.241   3.192  11.328 -3.8009 -1.6981  2.9098
 6683SOL    HW231512   1.346   3.283  11.378 -0.9444  0.0348 -1.5320
 6684SOL     OW31513   2.605   1.323   6.132  0.3664  0.5015  0.7500
 6684SOL    HW131514   2.588   1.340   6.225 -0.0682  2.0749  0.3666
 6684SOL    HW231515   2.583   1.408   6.094  1.5022  0.6301  0.3940
 6685SOL     OW31516   3.780   0.562   8.421  0.0618 -0.2549  0.3969
 6685SOL    HW131517   3.742   0.485   8.378  0.7565 -0.2036 -0.2917
 6685SOL    HW231518   3.773   0.632   8.357 -1.1954  0.2867  1.1290
 6686SOL     OW31519   1.623   3.134   8.755 -0.1123 -0.8163  0.6649
 6686SOL    HW131520   1.688   3.123   8.824  0.0148 -0.1434  0.6497
 6686SOL    HW231521   1.665   3.085   8.684  0.8029  2.2525 -0.9276
 6687SOL     OW31522   1.251   3.802   7.958 -0.4961 -0.1992 -0.3922
 6687SOL    HW131523   1.221   3.862   8.026  0.0539  0.4905 -0.7613
 6687SOL    HW231524   1.331   3.768   7.998 -1.1150 -1.0972  0.0947
 6688SOL     OW31525   3.096   0.596  10.879 -0.5210  0.5540 -1.4195
 6688SOL    HW131526   3.086   0.612  10.973  0.3474 -0.7322 -1.0932
 6688SOL    HW231527   3.005   0.579  10.856 -0.5177  0.3261 -1.2695
 6689SOL     OW31528   0.928   2.888  15.537 -0.4952  0.0705 -0.5742
 6689SOL    HW131529   0.883   2.804  15.531 -3.5397  1.6688 -0.2468
 6689SOL    HW231530   0.886   2.900  15.623  0.2356 -0.8490 -0.0855
 6690SOL     OW31531   0.218   0.326   3.991 -0.1615 -0.2779  0.1333
 6690SOL    HW131532   0.164   0.297   4.065  1.6949 -1.8292  0.8518
 6690SOL    HW231533   0.147   0.369   3.942 -0.6571 -0.2854  0.8316
 6691SOL     OW31534   2.512   1.467  14.772  0.4275  0.5651 -0.3440
 6691SOL    HW131535   2.589   1.511  14.735  0.1326  0.6279 -0.8842
 6691SOL    HW231536   2.464   1.455  14.690 -1.5832  2.0012  0.6310
 6692SOL     OW31537   1.315   4.621   7.351 -0.2572 -0.4337  0.4075
 6692SOL    HW131538   1.258   4.620   7.428  0.4958  1.1707  0.9791
 6692SOL    HW231539   1.305   4.712   7.324 -1.3658 -0.7483 -0.2275
 6693SOL     OW31540   2.745   1.680   7.018  0.7941  0.4874 -0.1179
 6693SOL    HW131541   2.706   1.635   7.093  0.5205  0.6173 -0.1802
 6693SOL    HW231542   2.832   1.700   7.051  1.7694 -0.1148 -2.3493
 6694SOL     OW31543   3.845   3.060   7.569  0.8140  0.2075 -0.4269
 6694SOL    HW131544   3.785   2.988   7.551  0.3995  0.8608 -1.6521
 6694SOL    HW231545   3.928   3.025   7.537  1.9965  1.7644  0.8862
 6695SOL     OW31546   0.799   4.115   9.081  0.0604 -0.0973 -0.6324
 6695SOL    HW131547   0.841   4.197   9.055 -0.0039 -0.3253 -1.4640
 6695SOL    HW231548   0.713   4.128   9.041  0.6081 -0.7648 -2.0712
 6696SOL     OW31549   0.809   3.456   3.478 -0.0754 -0.4668  0.5943
 6696SOL    HW131550   0.732   3.472   3.534  0.1920  1.9215  0.2821
 6696SOL    HW231551   0.781   3.469   3.388  1.1494  0.2210  0.3122
 6697SOL     OW31552   3.791   1.592  11.954  0.6667 -0.3165 -0.1678
 6697SOL    HW131553   3.760   1.527  12.017  0.0285 -0.6230 -0.8079
 6697SOL    HW231554   3.763   1.672  12.000 -0.5579 -1.8108  1.6758
 6698SOL     OW31555   2.327   4.018   3.170 -0.4424  0.2350 -0.1020
 6698SOL    HW131556   2.257   3.953   3.167 -2.2257  2.1896 -0.2531
 6698SOL    HW231557   2.316   4.066   3.089  0.1506  0.3604 -0.1128
 6699SOL     OW31558   1.190   0.437   0.522  0.7668  0.0459 -0.4931
 6699SOL    HW131559   1.222   0.362   0.574 -1.4707 -1.7098 -1.6718
 6699SOL    HW231560   1.110   0.402   0.483  0.6311  1.3257 -1.3605
 6700SOL     OW31561   3.291   1.645   3.124 -0.1392 -0.4505  0.3276
 6700SOL    HW131562   3.271   1.563   3.169 -1.2089 -0.9756 -1.1007
 6700SOL    HW231563   3.378   1.627   3.089 -0.7364 -1.5813 -0.5815
 6701SOL     OW31564   2.500   2.364   4.341 -0.2196 -0.5636  0.3880
 6701SOL    HW131565   2.432   2.301   4.365  2.0004 -1.6945  3.7566
 6701SOL    HW231566   2.526   2.408   4.422 -1.2542  2.0621 -0.6892
 6702SOL     OW31567   4.649   1.523   0.264  0.3641 -0.0813  0.1191
 6702SOL    HW131568   4.710   1.451   0.275  0.0231 -0.2742  0.7745
 6702SOL    HW231569   4.624   1.542   0.355  0.3410 -0.1919  0.1361
 6703SOL     OW31570   3.848   1.515  10.542 -0.2370  0.3155 -0.2039
 6703SOL    HW131571   3.929   1.501  10.492  0.0050 -1.5552  0.7146
 6703SOL    HW231572   3.879   1.582  10.603  0.6716 -0.9003  0.6847
 6704SOL     OW31573   3.678   3.460   0.554 -0.7255  0.4624  0.2948
 6704SOL    HW131574   3.733   3.381   0.558  0.4688  1.3706  1.6489
 6704SOL    HW231575   3.715   3.502   0.477 -2.0705  1.0311 -0.0446
 6705SOL     OW31576   2.448   4.104   5.243  0.1601  0.1627 -0.5071
 6705SOL    HW131577   2.365   4.080   5.201 -0.7221  1.5739  0.4315
 6705SOL    HW231578   2.483   4.015   5.243 -3.7458 -1.3898  1.2228
 6706SOL     OW31579   1.781   1.150   4.816  0.3556  0.2339 -0.0394
 6706SOL    HW131580   1.737   1.235   4.810 -3.6084 -1.6271  3.6678
 6706SOL    HW231581   1.726   1.090   4.766  1.4533 -0.1914 -0.7540
 6707SOL     OW31582   1.684   0.055  15.046  0.0822  0.5654 -0.3384
 6707SOL    HW131583   1.765   0.071  15.096 -0.4112 -0.0498  0.6703
 6707SOL    HW231584   1.712   0.074  14.957  0.8186 -0.5723 -0.3501
 6708SOL     OW31585   3.347   2.050   4.976  0.0999 -0.3242 -0.7216
 6708SOL    HW131586   3.424   2.015   4.932  0.2899 -1.7822  0.7437
 6708SOL    HW231587   3.360   2.144   4.964  0.0770  0.0954  2.4266
 6709SOL     OW31588   2.348   4.717   5.870 -0.6308 -0.9043  0.7178
 6709SOL    HW131589   2.353   4.665   5.950 -0.2549 -2.2940 -0.2049
 6709SOL    HW231590   2.299   4.652   5.819 -0.9684 -0.2440  0.1978
 6710SOL     OW31591   0.495   2.042  15.172 -1.2947  0.1038  0.1419
 6710SOL    HW131592   0.410   2.075  15.201 -0.8122  0.3787  1.2390
 6710SOL    HW231593   0.497   2.084  15.085  2.4005  0.8158  0.5604
 6711SOL     OW31594   4.322   2.953  11.678 -0.2324  0.3746 -0.2687
 6711SOL    HW131595   4.358   2.898  11.609 -0.7577  0.7456 -0.8392
 6711SOL    HW231596   4.263   2.889  11.716 -1.8812  0.1595 -3.1880
 6712SOL     OW31597   0.182   1.977   2.250  0.3718 -0.2423 -0.3409
 6712SOL    HW131598   0.268   1.960   2.288  0.5080  1.0560 -0.0593
 6712SOL    HW231599   0.122   1.912   2.286  1.8974  0.1014  2.8906
 6713SOL     OW31600   4.087   3.382  16.377  0.7975 -0.2362  0.0293
 6713SOL    HW131601   4.092   3.464  16.425 -1.2040 -0.6060  0.8692
 6713SOL    HW231602   4.155   3.413  16.317  2.1333 -2.0044  0.6555
 6714SOL     OW31603   1.744   0.696   5.379 -0.3315 -0.0746 -0.3449
 6714SOL    HW131604   1.831   0.701   5.420 -0.9753  2.6514  0.6715
 6714SOL    HW231605   1.758   0.622   5.320  0.2404 -1.7927  1.9349
 6715SOL     OW31606   3.330   0.375   2.484 -0.1086 -0.1361  0.4585
 6715SOL    HW131607   3.385   0.387   2.562  0.5240  2.0735 -0.3131
 6715SOL    HW231608   3.339   0.458   2.438 -0.9232 -0.0377  0.4770
 6716SOL     OW31609   2.305   3.933   0.833 -0.4522  0.0368  0.7668
 6716SOL    HW131610   2.333   3.855   0.786 -1.3295  1.0183 -1.3824
 6716SOL    HW231611   2.377   3.995   0.816  0.8007 -1.5582  0.2630
 6717SOL     OW31612   0.329   0.386   8.905 -0.2417 -0.6472  1.0767
 6717SOL    HW131613   0.324   0.469   8.953 -2.0883  0.5431 -1.1463
 6717SOL    HW231614   0.246   0.350   8.936 -0.7811 -0.1074  0.2687
 6718SOL     OW31615   0.830   0.424   5.048  0.2723  0.2506  0.3148
 6718SOL    HW131616   0.777   0.357   5.090 -1.6753  1.5915  0.0152
 6718SOL    HW231617   0.868   0.362   4.986 -1.3026 -1.0223  0.6227
 6719SOL     OW31618   1.363   3.885  10.051 -0.3239 -0.4628  0.1482
 6719SOL    HW131619   1.302   3.811  10.049 -0.7081 -0.1079 -1.6492
 6719SOL    HW231620   1.343   3.900  10.143  0.8652 -0.6452  0.4393
 6720SOL     OW31621   0.805   3.591   5.450 -0.2744  0.3510  0.5843
 6720SOL    HW131622   0.718   3.609   5.414  0.5361  4.1844  0.4912
 6720SOL    HW231623   0.789   3.507   5.492 -1.1610 -0.6517 -1.7212
 6721SOL     OW31624   3.972   4.702  10.700  0.3866  0.2670  0.2586
 6721SOL    HW131625   3.896   4.648  10.720  0.1090  0.3470 -0.5914
 6721SOL    HW231626   4.006   4.651  10.627  0.6829  0.2891  0.3783
 6722SOL     OW31627   0.829   2.042   8.607  0.1385  0.3689  0.6672
 6722SOL    HW131628   0.828   2.091   8.689  1.2753  0.5450  0.5731
 6722SOL    HW231629   0.918   2.008   8.606  0.0368  0.1000  0.9704
 6723SOL     OW31630   0.426   3.828  17.465 -0.1845 -0.0984 -0.0087
 6723SOL    HW131631   0.349   3.779  17.437 -0.6033 -0.5493  1.9710
 6723SOL    HW231632   0.487   3.754  17.467 -0.4031 -0.2603  0.5796
 6724SOL     OW31633   4.326   3.884   3.053  0.3002 -0.5552 -0.4590
 6724SOL    HW131634   4.304   3.977   3.056  0.5730 -0.4710 -1.0661
 6724SOL    HW231635   4.246   3.843   3.022 -1.1725  2.4643 -0.5426
 6725SOL     OW31636   3.586   0.057  14.701 -0.0544  0.3555  0.6797
 6725SOL    HW131637   3.589   4.710  14.762 -0.8199 -2.5382 -2.8010
 6725SOL    HW231638   3.614   0.025  14.615 -0.6252 -1.7179  1.2745
 6726SOL     OW31639   2.806   1.250   2.460 -0.2927  0.1396 -0.1827
 6726SOL    HW131640   2.731   1.246   2.520  1.5436  1.1678  2.1905
 6726SOL    HW231641   2.877   1.218   2.515 -0.7422  0.9063  0.8600
 6727SOL     OW31642   2.675   2.444   8.343 -0.0232  0.3927  0.0977
 6727SOL    HW131643   2.675   2.434   8.439  0.3666  0.9492  0.1593
 6727SOL    HW231644   2.678   2.355   8.310  3.4323 -0.6458  3.1128
 6728SOL     OW31645   1.701   2.440  10.571 -0.0712 -0.0986  0.0316
 6728SOL    HW131646   1.733   2.440  10.481 -0.2353  1.1633 -0.0341
 6728SOL    HW231647   1.771   2.500  10.597 -1.1844  1.9555 -1.6786
 6729SOL     OW31648   2.189   3.673  10.686 -0.5150  0.1068 -0.2934
 6729SOL    HW131649   2.221   3.621  10.612 -0.0937  0.0983 -0.1031
 6729SOL    HW231650   2.171   3.605  10.750 -0.6173 -0.9190 -1.4059
 6730SOL     OW31651   1.431   3.804  15.349  0.7236  0.4874  0.0916
 6730SOL    HW131652   1.370   3.741  15.386  2.4622 -0.7805  0.8405
 6730SOL    HW231653   1.501   3.797  15.415 -0.4498 -1.9412  1.0690
 6731SOL     OW31654   0.613   4.075   2.750 -0.3783 -0.0866  0.0541
 6731SOL    HW131655   0.628   4.131   2.826  1.2533  0.8449 -0.9553
 6731SOL    HW231656   0.610   3.985   2.783  0.9900 -1.6223 -3.9851
 6732SOL     OW31657   3.670   2.154  14.862 -0.1592  0.3153  0.4211
 6732SOL    HW131658   3.723   2.165  14.782 -1.2940 -0.2969 -0.4060
 6732SOL    HW231659   3.627   2.240  14.856  0.6792  0.6573 -0.8516
 6733SOL     OW31660   1.595   3.461   1.637  0.1487 -0.0315  0.1095
 6733SOL    HW131661   1.572   3.433   1.725  0.1665 -0.2860  0.0313
 6733SOL    HW231662   1.565   3.552   1.641 -1.2235 -0.4672 -0.5985
 6734SOL     OW31663   1.985   1.073  11.955  0.0381 -0.2999  0.2216
 6734SOL    HW131664   2.046   1.007  11.921  0.2516  0.8021 -1.5247
 6734SOL    HW231665   1.950   1.112  11.875 -1.0122 -1.5311  0.0879
 6735SOL     OW31666   2.176   0.004   2.803  0.6483 -0.1360 -0.2781
 6735SOL    HW131667   2.219   4.654   2.841 -0.4074  0.5641  2.3185
 6735SOL    HW231668   2.171   4.710   2.710  1.8975  0.5439 -0.4963
 6736SOL     OW31669   2.491   2.304  10.682  0.2145  0.5419  0.1297
 6736SOL    HW131670   2.457   2.222  10.646  0.1502  0.4477  0.4047
 6736SOL    HW231671   2.562   2.268  10.734 -1.6216 -0.7785  1.6939
 6737SOL     OW31672   2.449   3.727   5.538  0.1587 -0.1490 -0.0503
 6737SOL    HW131673   2.355   3.720   5.525  0.2284 -0.8440 -0.1873
 6737SOL    HW231674   2.453   3.803   5.596 -0.8180  2.4058 -3.4007
 6738SOL     OW31675   3.303   2.350   7.404 -0.2250  0.1077  0.8535
 6738SOL    HW131676   3.265   2.426   7.448  0.5348  1.1460 -0.2730
 6738SOL    HW231677   3.354   2.398   7.339 -0.6656 -2.8321 -1.6420
 6739SOL     OW31678   3.005   1.586   1.621  0.1269  0.5736  0.1439
 6739SOL    HW131679   3.066   1.521   1.657 -0.4403  0.4161  0.8258
 6739SOL    HW231680   3.059   1.625   1.553 -0.8602 -0.1323 -1.0318
 6740SOL     OW31681   3.614   4.326  14.807  0.6147 -0.1636  0.2516
 6740SOL    HW131682   3.697   4.280  14.794  2.4397  3.1308  0.4314
 6740SOL    HW231683   3.608   4.295  14.898 -0.3452 -0.1912  0.1786
 6741SOL     OW31684   4.371   1.411   7.662  0.2264  0.1449  0.7657
 6741SOL    HW131685   4.284   1.450   7.665 -0.1782 -0.6701 -0.3191
 6741SOL    HW231686   4.410   1.431   7.747  1.7083 -0.9774  0.3463
 6742SOL     OW31687   3.281   3.761   6.207  0.1978 -0.2825 -0.7033
 6742SOL    HW131688   3.326   3.698   6.150 -0.5489  0.3625 -2.0181
 6742SOL    HW231689   3.322   3.844   6.183 -0.1501  0.4483  1.2075
 6743SOL     OW31690   0.826   2.391   3.165  0.1260  0.4944 -0.6290
 6743SOL    HW131691   0.913   2.420   3.192 -0.1156 -0.7681  1.4958
 6743SOL    HW231692   0.846   2.344   3.084  0.9727 -0.8865  0.3986
 6744SOL     OW31693   0.454   1.717   8.410  0.6665 -0.1763 -0.1588
 6744SOL    HW131694   0.399   1.649   8.371 -1.8354  2.4280 -1.1269
 6744SOL    HW231695   0.525   1.665   8.448  0.3441 -0.4035  0.1321
 6745SOL     OW31696   1.469   0.472  14.008 -0.0841 -0.8456 -0.2582
 6745SOL    HW131697   1.450   0.540  14.073 -2.6436 -0.6891 -1.1712
 6745SOL    HW231698   1.563   0.454  14.013  0.3016  1.5553  1.1415
 6746SOL     OW31699   3.827   1.417  14.071 -0.0597 -0.2338  0.3085
 6746SOL    HW131700   3.922   1.424  14.070  0.1024 -2.3410  0.1429
 6746SOL    HW231701   3.799   1.508  14.064 -0.8603 -0.5069 -0.0466
 6747SOL     OW31702   0.629   1.961   4.619  0.1480 -0.0708  0.3994
 6747SOL    HW131703   0.576   1.892   4.660 -1.3138  0.0827 -1.2520
 6747SOL    HW231704   0.656   1.918   4.537 -0.1867  1.1715 -0.3531
 6748SOL     OW31705   2.894   0.596   0.354  0.8741 -0.1450  0.0413
 6748SOL    HW131706   2.927   0.515   0.316  2.3161  0.4808 -0.0190
 6748SOL    HW231707   2.955   0.610   0.427  0.7505 -2.6269  0.6087
 6749SOL     OW31708   1.391   2.763   7.027  0.0946 -0.7137  0.1698
 6749SOL    HW131709   1.430   2.777   6.941 -0.0033  2.3124  0.6319
 6749SOL    HW231710   1.471   2.742   7.075  1.5181  1.0103 -1.4671
 6750SOL     OW31711   2.310   2.855  12.676 -0.1420  0.3377 -0.2337
 6750SOL    HW131712   2.341   2.943  12.699  0.0650  0.4401 -0.9160
 6750SOL    HW231713   2.393   2.809  12.690 -0.9397 -0.5427  1.5732
 6751SOL     OW31714   0.401   0.174   4.405 -0.3685  0.0715 -0.6220
 6751SOL    HW131715   0.341   0.100   4.417 -0.0680 -0.0417  0.1466
 6751SOL    HW231716   0.408   0.176   4.309 -0.0582  2.3872 -0.5395
 6752SOL     OW31717   1.781   1.021   5.272 -0.2527 -0.3242 -0.4670
 6752SOL    HW131718   1.789   1.112   5.246 -0.6709  0.4294  2.0101
 6752SOL    HW231719   1.860   0.989   5.229 -0.4073 -0.7222 -0.4566
 6753SOL     OW31720   1.948   3.310   2.045  0.2660  0.4116  0.4707
 6753SOL    HW131721   1.894   3.358   2.108  1.9991 -0.6611  2.7825
 6753SOL    HW231722   2.023   3.276   2.094  0.0816  0.1405  0.5637
 6754SOL     OW31723   3.795   0.985   0.687  0.2564  0.2024  0.0284
 6754SOL    HW131724   3.761   0.949   0.769  0.2864 -0.3123 -0.1829
 6754SOL    HW231725   3.763   1.074   0.699 -0.6163  0.2546 -2.7435
 6755SOL     OW31726   1.682   2.337   0.114 -0.4175  0.3669  0.4486
 6755SOL    HW131727   1.771   2.364   0.137 -0.0565 -0.0688 -0.4281
 6755SOL    HW231728   1.679   2.262   0.172 -1.4935 -0.1005 -0.2223
 6756SOL     OW31729   0.510   2.489  10.617  0.4888  0.2132  0.1564
 6756SOL    HW131730   0.429   2.523  10.655  0.5446  0.0343  0.4342
 6756SOL    HW231731   0.470   2.443  10.543 -1.9185  1.5475  0.6508
 6757SOL     OW31732   3.146   1.820   0.144  0.0128 -0.3995 -0.4380
 6757SOL    HW131733   3.175   1.730   0.128 -0.5595 -0.7597  0.6002
 6757SOL    HW231734   3.197   1.844   0.221  1.2334  4.1501 -2.6877
 6758SOL     OW31735   0.072   3.858   2.410  0.2518 -0.0770  0.7937
 6758SOL    HW131736   4.706   3.864   2.388  0.6878  0.2706 -0.9417
 6758SOL    HW231737   0.128   3.872   2.334  1.7494 -1.1110  1.7213
 6759SOL     OW31738   3.409   3.208  17.261 -1.0514 -0.8624 -0.3413
 6759SOL    HW131739   3.447   3.261  17.190 -3.1411 -0.5663 -1.2478
 6759SOL    HW231740   3.456   3.244  17.336  0.4577 -1.5143 -0.9686
 6760SOL     OW31741   4.088   1.315   4.238 -0.2283  0.0381  0.1602
 6760SOL    HW131742   4.150   1.283   4.304  0.9210 -0.8244 -1.3221
 6760SOL    HW231743   4.133   1.378   4.181 -0.3958  2.2393  2.4764
 6761SOL     OW31744   3.276   4.573  12.772  0.3831 -0.1777 -0.6545
 6761SOL    HW131745   3.239   4.621  12.846  0.2726  0.0983 -0.8888
 6761SOL    HW231746   3.296   4.649  12.717 -0.0734  1.8033  1.8659
 6762SOL     OW31747   1.798   0.491   3.845 -0.4054 -0.2911 -0.7210
 6762SOL    HW131748   1.872   0.470   3.902 -0.8791  0.8403  0.3010
 6762SOL    HW231749   1.762   0.404   3.832 -2.6306  0.6357 -0.6721
 6763SOL     OW31750   2.061   0.619   7.264 -0.2853  0.2776 -0.0162
 6763SOL    HW131751   1.966   0.611   7.274 -0.1083 -0.6270  0.9914
 6763SOL    HW231752   2.077   0.713   7.259  0.2809  0.2698  1.6018
 6764SOL     OW31753   1.964   2.816   8.951  0.2743 -0.2263  0.4452
 6764SOL    HW131754   2.010   2.841   8.871  0.6512 -0.9559  0.4327
 6764SOL    HW231755   1.871   2.814   8.928  0.3800 -2.6508  0.1718
 6765SOL     OW31756   0.096   1.372  14.401  0.1845  0.1810 -0.0449
 6765SOL    HW131757   0.076   1.361  14.493 -1.2929 -1.5886 -0.5883
 6765SOL    HW231758   0.135   1.460  14.399  0.3158  0.1263  0.1892
 6766SOL     OW31759   1.586   0.270   0.879  0.6009  0.1404 -0.0711
 6766SOL    HW131760   1.519   0.304   0.819 -0.8262 -1.7585  0.4608
 6766SOL    HW231761   1.578   0.337   0.947 -0.0511  1.6478 -1.6261
 6767SOL     OW31762   0.275   4.420   9.362 -0.4396 -0.4345  0.1925
 6767SOL    HW131763   0.190   4.406   9.320 -0.4152 -1.8984  0.6425
 6767SOL    HW231764   0.250   4.419   9.454  1.8706 -0.2553  0.8183
 6768SOL     OW31765   3.956   3.751   9.273 -0.0683  0.1239 -0.3074
 6768SOL    HW131766   3.973   3.702   9.354  2.7082 -0.4031 -1.2020
 6768SOL    HW231767   4.017   3.700   9.220  1.7274  0.7306  1.1492
 6769SOL     OW31768   2.780   2.290   9.998  0.2032 -0.3097 -0.5072
 6769SOL    HW131769   2.753   2.200  10.015 -0.3945  0.1208  0.8277
 6769SOL    HW231770   2.860   2.296  10.051  0.0949 -0.4495 -0.3269
 6770SOL     OW31771   0.965   3.688   3.736 -0.1932  0.1107  0.4309
 6770SOL    HW131772   1.006   3.663   3.654  2.1281 -0.7908  1.8788
 6770SOL    HW231773   1.044   3.717   3.781  1.2075 -0.7981 -1.4476
 6771SOL     OW31774   2.703   3.743  13.820 -0.4137 -0.3221  0.3450
 6771SOL    HW131775   2.723   3.704  13.906  2.6670  0.6663  0.0601
 6771SOL    HW231776   2.610   3.754  13.841 -0.1530  0.5023  1.0461
 6772SOL     OW31777   1.143   1.808   5.392  0.0635  0.0983 -0.3307
 6772SOL    HW131778   1.092   1.889   5.390 -0.6332 -0.3491 -0.5179
 6772SOL    HW231779   1.074   1.742   5.394  0.0446  0.0614 -3.2048
 6773SOL     OW31780   3.056   3.167   7.832 -0.9677  0.2401  0.3183
 6773SOL    HW131781   3.022   3.178   7.921 -2.3521 -1.9329  0.0729
 6773SOL    HW231782   2.980   3.178   7.775 -2.7372  1.3199  2.9081
 6774SOL     OW31783   4.702   2.302   4.590  0.2118  0.4785 -0.0091
 6774SOL    HW131784   4.643   2.262   4.526 -2.1616 -0.0474  2.4739
 6774SOL    HW231785   0.054   2.324   4.541 -1.9016  1.1601 -3.1008
 6775SOL     OW31786   3.226   4.719  14.116  0.3857  0.2487 -0.2871
 6775SOL    HW131787   3.142   0.038  14.104  0.4881  0.7285  0.8728
 6775SOL    HW231788   3.278   0.026  14.043  1.2810 -1.1731 -0.2864
 6776SOL     OW31789   0.503   3.272   5.405  0.2752 -0.1874  0.3125
 6776SOL    HW131790   0.562   3.234   5.470 -0.8735  0.8247  1.9667
 6776SOL    HW231791   0.417   3.241   5.436 -1.1946 -0.2353 -3.7650
 6777SOL     OW31792   2.550   2.650   5.826 -0.3731 -0.4657  0.1354
 6777SOL    HW131793   2.475   2.613   5.779 -1.5691  0.7889  1.0674
 6777SOL    HW231794   2.534   2.744   5.819  2.4235  0.0034  0.2385
 6778SOL     OW31795   2.225   1.172   9.983 -0.1608  0.3601  0.2334
 6778SOL    HW131796   2.235   1.252  10.034 -1.2278  0.7517 -0.1618
 6778SOL    HW231797   2.208   1.103  10.046 -1.2087 -0.7690 -1.2745
 6779SOL     OW31798   0.943   4.582  12.445 -0.5090 -0.1702  0.3161
 6779SOL    HW131799   0.913   4.665  12.408  0.1617 -0.0557  0.0264
 6779SOL    HW231800   0.864   4.538  12.476  0.1558 -2.8374 -1.8197
 6780SOL     OW31801   3.679   1.549  12.809  0.1940  0.0955 -0.3424
 6780SOL    HW131802   3.703   1.594  12.728 -1.2993  1.7469  0.1312
 6780SOL    HW231803   3.699   1.616  12.874  0.2559  0.5358 -0.8221
 6781SOL     OW31804   2.326   4.127  10.390  0.1536  0.2691 -0.2557
 6781SOL    HW131805   2.418   4.135  10.364  0.0134  1.6773 -0.3528
 6781SOL    HW231806   2.338   4.035  10.414 -2.2058  0.0084 -0.1008
 6782SOL     OW31807   4.563   3.739   7.340 -0.0576  0.0820 -0.3998
 6782SOL    HW131808   4.524   3.825   7.328 -0.3504  0.2403  1.7226
 6782SOL    HW231809   4.625   3.751   7.412  0.0838 -3.0540  0.0077
 6783SOL     OW31810   3.017   2.833   6.853  0.5150  0.1417  0.0248
 6783SOL    HW131811   3.048   2.870   6.935  1.3842  2.6523 -1.4320
 6783SOL    HW231812   3.089   2.864   6.797  0.6393  0.8677  0.5851
 6784SOL     OW31813   0.240   1.327  13.143 -0.8021 -0.6281 -0.0733
 6784SOL    HW131814   0.331   1.302  13.128 -0.7684 -1.1708  1.1108
 6784SOL    HW231815   0.191   1.319  13.061 -1.3629  0.4732  0.1562
 6785SOL     OW31816   4.110   0.472  15.034  0.4280  0.4467  0.0745
 6785SOL    HW131817   4.063   0.513  15.106 -0.3751 -1.2180  0.5014
 6785SOL    HW231818   4.196   0.512  15.020  0.9699 -0.2449  1.3832
 6786SOL     OW31819   3.979   3.160   8.314  0.2583 -0.2713 -0.0255
 6786SOL    HW131820   3.939   3.097   8.375 -0.4005 -0.3284 -0.5164
 6786SOL    HW231821   3.949   3.123   8.231 -0.9190 -1.1977  0.8005
 6787SOL     OW31822   0.624   2.551   7.983 -0.6090 -0.1618  0.7857
 6787SOL    HW131823   0.596   2.633   8.024 -0.2835 -0.1981  1.0786
 6787SOL    HW231824   0.577   2.488   8.036 -3.9391 -0.4428 -2.5602
 6788SOL     OW31825   3.852   2.889   4.427 -0.4775  0.3944 -0.5018
 6788SOL    HW131826   3.828   2.949   4.498  1.1322  2.5955 -1.8177
 6788SOL    HW231827   3.936   2.926   4.400 -0.3377 -0.0306 -0.6568
 6789SOL     OW31828   1.282   0.190   0.635  0.0157 -0.3485  0.4103
 6789SOL    HW131829   1.346   0.152   0.574  0.5398 -0.2991  0.9275
 6789SOL    HW231830   1.266   0.106   0.679 -1.8174  0.5492  1.4300
 6790SOL     OW31831   2.491   4.124   0.839 -0.5833 -0.1290 -0.2751
 6790SOL    HW131832   2.504   4.218   0.846 -1.7439 -0.2702  3.6688
 6790SOL    HW231833   2.579   4.087   0.850 -0.4319  0.2226 -0.3212
 6791SOL     OW31834   1.061   3.057   8.342  0.5969 -0.0481  1.0566
 6791SOL    HW131835   0.998   2.998   8.383 -1.2587  1.8009  0.8388
 6791SOL    HW231836   1.103   3.003   8.275 -0.5474  1.5271 -0.9032
 6792SOL     OW31837   3.017   2.935   3.106  0.3762  0.0024  0.5249
 6792SOL    HW131838   3.057   2.933   3.019  1.6809 -0.9768  1.1499
 6792SOL    HW231839   2.994   3.028   3.108  0.3974  0.0586 -1.0738
 6793SOL     OW31840   3.764   0.253   7.774  0.1872 -0.2274  0.1465
 6793SOL    HW131841   3.763   0.341   7.813 -0.5668 -0.1941  0.0413
 6793SOL    HW231842   3.852   0.225   7.800 -0.1545  0.8501  2.4489
 6794SOL     OW31843   3.922   0.550  10.291 -0.3046  0.2119 -0.1924
 6794SOL    HW131844   3.971   0.478  10.331 -0.5574  0.3915  0.4308
 6794SOL    HW231845   3.885   0.595  10.366  1.4055 -0.8256  1.2701
 6795SOL     OW31846   1.055   3.682  15.656 -0.0198 -0.7085 -0.0093
 6795SOL    HW131847   0.993   3.752  15.676 -1.2238 -1.2707 -1.7560
 6795SOL    HW231848   0.998   3.630  15.599 -0.2997 -0.8728  0.4258
 6796SOL     OW31849   3.810   3.936   8.077  0.4874 -0.3914 -0.3499
 6796SOL    HW131850   3.872   3.979   8.135  2.1251 -1.7056 -1.1215
 6796SOL    HW231851   3.760   3.893   8.146  0.8349  1.6796  1.1910
 6797SOL     OW31852   3.074   2.716   0.843 -0.0924 -0.0735  0.0014
 6797SOL    HW131853   3.169   2.709   0.833 -0.0175 -1.1763  1.5410
 6797SOL    HW231854   3.057   2.775   0.769 -0.0976  1.8393  1.5452
 6798SOL     OW31855   1.769   1.189   2.725  0.2315  0.1859  0.2153
 6798SOL    HW131856   1.857   1.228   2.723  0.8277 -1.2651 -1.5409
 6798SOL    HW231857   1.775   1.138   2.806  2.8933  1.7030  0.9829
 6799SOL     OW31858   1.105   0.278  13.298  0.0253 -0.0274 -0.2305
 6799SOL    HW131859   1.042   0.337  13.340 -1.8888 -2.1633 -0.0896
 6799SOL    HW231860   1.048   0.236  13.233 -0.5144 -1.2558  1.0190
 6800SOL     OW31861   2.953   3.754   0.106 -0.3812 -0.0047 -0.6497
 6800SOL    HW131862   2.875   3.722   0.150  0.2512 -0.4639  0.1260
 6800SOL    HW231863   2.930   3.845   0.087  0.7096  0.5568  0.7149
 6801SOL     OW31864   1.261   2.488   4.140  0.1745 -0.4876 -0.0590
 6801SOL    HW131865   1.208   2.529   4.208  0.6338 -0.0626  0.0412
 6801SOL    HW231866   1.201   2.495   4.066 -4.1577 -1.2915  3.3940
 6802SOL     OW31867   1.330   1.736   5.621 -0.7157  0.1080 -0.5791
 6802SOL    HW131868   1.316   1.712   5.712  1.0792  2.7149  0.3690
 6802SOL    HW231869   1.248   1.780   5.597 -1.5255 -1.1976 -0.2449
 6803SOL     OW31870   4.263   3.532   0.686  0.0821  0.2653  0.5047
 6803SOL    HW131871   4.320   3.549   0.611  0.6383  1.6103  1.2284
 6803SOL    HW231872   4.181   3.500   0.648  1.4587  0.0343 -2.2670
 6804SOL     OW31873   3.622   2.829   9.110  0.6037  0.2984  0.2817
 6804SOL    HW131874   3.586   2.857   9.195 -1.0582 -2.4119  0.4997
 6804SOL    HW231875   3.655   2.743   9.137  1.7869  0.1633 -1.6352
 6805SOL     OW31876   1.566   0.783   6.942  0.0272  0.3236  0.0063
 6805SOL    HW131877   1.510   0.782   7.020  0.1581 -3.0344  0.0453
 6805SOL    HW231878   1.552   0.692   6.915  0.3344  0.2061  0.2395
 6806SOL     OW31879   1.133   2.512  16.131  0.6773  0.2683 -0.5891
 6806SOL    HW131880   1.057   2.471  16.171  0.5012 -0.3434 -1.5531
 6806SOL    HW231881   1.168   2.438  16.081 -0.0906 -0.8640  0.5510
 6807SOL     OW31882   2.055   1.643  13.193  0.3002 -0.7739  0.1286
 6807SOL    HW131883   2.058   1.650  13.288 -1.8800 -0.7016  0.2035
 6807SOL    HW231884   2.109   1.718  13.168  1.8044 -2.6806 -2.4084
 6808SOL     OW31885   1.157   4.629   7.577  0.4705 -0.3164  0.6475
 6808SOL    HW131886   1.113   4.593   7.654 -0.2233 -2.3333 -0.6957
 6808SOL    HW231887   1.078   4.633   7.523 -0.0050  0.5985  1.4132
 6809SOL     OW31888   1.774   1.878   5.271 -0.2085  0.0086  0.3366
 6809SOL    HW131889   1.704   1.944   5.275 -0.2526 -0.1410  2.3649
 6809SOL    HW231890   1.762   1.819   5.346  2.0633  0.8116  1.3340
 6810SOL     OW31891   0.705   2.426   6.708 -0.3098 -0.5975 -0.1170
 6810SOL    HW131892   0.777   2.489   6.710 -0.2958 -0.6289  0.2813
 6810SOL    HW231893   0.628   2.465   6.750  0.8741  1.5646  0.0768
 6811SOL     OW31894   4.267   1.981   5.104  0.4186  0.3516  0.2317
 6811SOL    HW131895   4.310   2.048   5.157  0.1170 -0.9521  2.1178
 6811SOL    HW231896   4.307   1.984   5.017  0.6911  1.0007  0.3763
 6812SOL     OW31897   4.644   4.134  15.338  0.0661  0.2405  0.1865
 6812SOL    HW131898   4.586   4.084  15.395 -0.6250  0.7143 -0.1062
 6812SOL    HW231899   4.724   4.143  15.391 -0.1076 -0.8545  0.6432
 6813SOL     OW31900   3.636   0.420   7.034  0.6699 -0.7313  0.1826
 6813SOL    HW131901   3.689   0.396   7.111  1.4958  0.7076  0.0558
 6813SOL    HW231902   3.578   0.480   7.080  0.3037  0.5722 -2.0369
 6814SOL     OW31903   3.412   4.061  10.505 -0.2546 -0.0471  0.4617
 6814SOL    HW131904   3.410   4.143  10.454 -1.1598  1.7460  3.3866
 6814SOL    HW231905   3.335   4.012  10.476  1.5525 -1.7063 -1.5657
 6815SOL     OW31906   4.686   0.324   0.084  0.0054  0.1216 -0.1564
 6815SOL    HW131907   0.014   0.402   0.097  0.3129 -0.3961  1.7095
 6815SOL    HW231908   4.700   0.286   0.171 -0.9725 -2.5031 -1.1448
 6816SOL     OW31909   3.408   2.667  15.502 -0.2522  0.3048 -1.3504
 6816SOL    HW131910   3.455   2.591  15.468  1.1611  0.3105  0.5258
 6816SOL    HW231911   3.324   2.638  15.468  0.0639  0.1308 -1.9767
 6817SOL     OW31912   1.417   2.187   7.754  0.0275 -0.5396  0.4615
 6817SOL    HW131913   1.448   2.226   7.836  0.5281  0.9149 -0.4188
 6817SOL    HW231914   1.496   2.150   7.716  0.6498  0.6385  0.5950
 6818SOL     OW31915   0.856   1.338   5.330 -0.3341 -0.3856  0.1251
 6818SOL    HW131916   0.795   1.394   5.378  1.3786  1.9292 -0.4128
 6818SOL    HW231917   0.828   1.247   5.343  2.3501 -1.0460  1.1631
 6819SOL     OW31918   0.978   1.206   3.373  0.6418 -0.1011 -0.0646
 6819SOL    HW131919   0.945   1.273   3.433 -0.4503  1.0318 -1.9526
 6819SOL    HW231920   0.999   1.260   3.298  1.8817  1.1602  1.1952
 6820SOL     OW31921   2.507   3.487  17.264 -0.0429 -0.5683 -0.0539
 6820SOL    HW131922   2.445   3.551  17.229  1.6686  1.3714  0.4920
 6820SOL    HW231923   2.574   3.535  17.313  0.4446  0.2549 -1.5361
 6821SOL     OW31924   2.786   0.026   2.154 -0.0433 -0.6944  0.0474
 6821SOL    HW131925   2.803   0.102   2.098  0.2470 -2.1372 -1.8320
 6821SOL    HW231926   2.710   4.715   2.110  1.0151 -0.6810 -1.7748
 6822SOL     OW31927   0.247   4.137  16.224 -0.9865 -0.2103  0.0969
 6822SOL    HW131928   0.302   4.195  16.277 -0.2899  1.0734 -1.9985
 6822SOL    HW231929   0.308   4.122  16.151 -1.0042 -1.9821  0.4438
 6823SOL     OW31930   3.369   2.627   1.786 -0.4219 -0.2909  0.1028
 6823SOL    HW131931   3.406   2.715   1.776  0.2744 -0.7648 -1.5474
 6823SOL    HW231932   3.321   2.643   1.867  0.5956  0.5737  0.5396
 6824SOL     OW31933   1.889   1.029   5.986 -0.2316  0.0429 -0.3849
 6824SOL    HW131934   1.942   1.095   6.029  1.0036 -1.2494  0.0829
 6824SOL    HW231935   1.891   1.068   5.898 -0.7547 -0.0066 -0.4209
 6825SOL     OW31936   0.393   0.122   9.248 -0.1062 -0.2501  0.1662
 6825SOL    HW131937   0.416   0.042   9.295  2.7250 -0.1242 -0.9742
 6825SOL    HW231938   0.474   0.132   9.198 -0.3402 -0.6875 -0.2918
 6826SOL     OW31939   1.405   0.075   8.940 -0.4804  0.1687  0.8945
 6826SOL    HW131940   1.363   0.012   8.882 -0.3424 -1.1745  2.2428
 6826SOL    HW231941   1.346   0.148   8.922 -0.3178  0.1838  0.4249
 6827SOL     OW31942   0.205   4.173   8.126  0.3393 -0.9059 -0.0228
 6827SOL    HW131943   0.278   4.210   8.076  0.1088  0.4788  0.6762
 6827SOL    HW231944   0.256   4.127   8.192 -1.4198 -2.0377  0.5275
 6828SOL     OW31945   3.400   2.510   0.240 -0.1915  0.5378  0.6394
 6828SOL    HW131946   3.374   2.422   0.212 -0.1307  0.6795  0.1290
 6828SOL    HW231947   3.344   2.535   0.313 -2.2463 -0.9521 -0.4260
 6829SOL     OW31948   1.531   0.385   3.857  0.4588 -0.5173  0.1505
 6829SOL    HW131949   1.541   0.338   3.774 -1.2956 -0.4659 -0.0871
 6829SOL    HW231950   1.499   0.311   3.908 -1.4450  0.1270 -0.1060
 6830SOL     OW31951   1.570   3.059   7.706  0.2613  0.0015  0.4319
 6830SOL    HW131952   1.479   3.060   7.735  0.4056 -0.5616  0.8942
 6830SOL    HW231953   1.632   3.057   7.778  0.8547  0.1384 -0.0733
 6831SOL     OW31954   4.086   4.344   4.965 -0.0890  0.3631  0.4040
 6831SOL    HW131955   4.054   4.433   4.982 -0.3171  0.4591 -0.5852
 6831SOL    HW231956   4.002   4.299   4.958 -0.8546  1.5992  1.6390
 6832SOL     OW31957   3.792   1.277   9.929  0.4554  0.3575  0.3315
 6832SOL    HW131958   3.786   1.226   9.848 -0.3740 -1.9146  1.8168
 6832SOL    HW231959   3.725   1.240   9.986  0.4430  0.5850  0.4631
 6833SOL     OW31960   1.970   2.238   8.873 -0.3671 -0.8140 -0.9247
 6833SOL    HW131961   1.977   2.328   8.906  0.1412 -0.2525 -2.5929
 6833SOL    HW231962   1.940   2.266   8.787  0.2679 -1.6362 -1.4111
 6834SOL     OW31963   0.419   1.545  12.445  0.1340 -0.3625 -0.3853
 6834SOL    HW131964   0.445   1.453  12.444 -0.9348 -0.6932  1.6668
 6834SOL    HW231965   0.349   1.534  12.509  0.7901  1.2890  0.6261
 6835SOL     OW31966   0.451   2.078   8.955  0.1263  0.8835 -0.0202
 6835SOL    HW131967   0.372   2.125   8.980 -0.5155  0.0614 -0.4964
 6835SOL    HW231968   0.469   2.128   8.876  1.8202 -0.6919 -0.6470
 6836SOL     OW31969   3.213   1.206   8.688  0.3025  0.2275 -0.1764
 6836SOL    HW131970   3.213   1.149   8.765 -1.3184  1.5211  0.7815
 6836SOL    HW231971   3.190   1.142   8.620 -1.6131  1.2005 -0.4607
 6837SOL     OW31972   1.496   3.407   2.199  0.3883 -0.1074 -0.0887
 6837SOL    HW131973   1.539   3.322   2.200 -0.3711 -0.4913 -0.1605
 6837SOL    HW231974   1.562   3.475   2.217  0.5233 -0.4118  0.5578
 6838SOL     OW31975   3.725   1.861   8.576 -0.1333 -0.2470 -0.2674
 6838SOL    HW131976   3.719   1.848   8.670  0.5840  0.4444 -0.1258
 6838SOL    HW231977   3.680   1.785   8.540  0.7274 -0.6314 -0.5237
 6839SOL     OW31978   2.508   0.394   5.818  0.5773 -0.1709 -0.5344
 6839SOL    HW131979   2.481   0.456   5.750  0.8298 -0.8738 -1.2770
 6839SOL    HW231980   2.427   0.349   5.844  0.6814 -0.6767 -1.0842
 6840SOL     OW31981   3.750   0.476  11.175  0.1976  0.5852  0.2200
 6840SOL    HW131982   3.672   0.451  11.124 -1.7928  1.5728  2.7612
 6840SOL    HW231983   3.820   0.458  11.112  1.4886  0.3104  1.7445
 6841SOL     OW31984   3.695   3.838   3.616 -0.5332 -0.5473  0.6715
 6841SOL    HW131985   3.625   3.902   3.604 -0.1838 -0.2857  0.0688
 6841SOL    HW231986   3.721   3.811   3.527 -2.0842 -1.4360  0.4821
 6842SOL     OW31987   1.734   2.503  10.932  0.5032  0.1060  0.1884
 6842SOL    HW131988   1.765   2.559  11.004  2.1325 -0.2936 -0.1935
 6842SOL    HW231989   1.714   2.568  10.865  1.1044  1.3619  1.2170
 6843SOL     OW31990   1.674   1.175   3.204 -0.4363  0.1088 -0.2819
 6843SOL    HW131991   1.743   1.119   3.168 -1.7972 -0.6383 -1.7681
 6843SOL    HW231992   1.689   1.256   3.155  0.2256 -1.4356 -2.6371
 6844SOL     OW31993   2.312   3.977  17.577  0.0662  0.0965 -0.1327
 6844SOL    HW131994   2.351   3.907  17.629  2.1101  0.2153 -1.5183
 6844SOL    HW231995   2.240   3.933  17.532  1.0574 -0.7050 -0.9349
 6845SOL     OW31996   1.694   2.218  10.970  0.1965  0.4040  0.0786
 6845SOL    HW131997   1.783   2.192  10.946 -0.3062 -1.0387 -0.2046
 6845SOL    HW231998   1.701   2.313  10.960 -1.2644  0.7636  2.5826
 6846SOL     OW31999   2.089   3.555   8.627 -0.5905 -0.5582 -0.1010
 6846SOL    HW132000   2.078   3.502   8.706 -1.7421  0.7404  0.6196
 6846SOL    HW232001   2.150   3.622   8.658 -2.1474  0.3123  1.0546
 6847SOL     OW32002   3.888   2.635   8.783  0.5323 -0.7733 -0.0643
 6847SOL    HW132003   3.835   2.569   8.827  0.4755  1.1137  2.6497
 6847SOL    HW232004   3.975   2.596   8.792  1.8264  2.6606  2.0969
 6848SOL     OW32005   3.788   0.445  15.334 -0.8432  0.1398  0.4607
 6848SOL    HW132006   3.719   0.401  15.384 -0.1505  2.9403  3.8749
 6848SOL    HW232007   3.792   0.388  15.257  0.2417  0.4131  0.3135
 6849SOL     OW32008   3.089   3.315   7.091  0.0990 -0.0854  0.0027
 6849SOL    HW132009   3.033   3.251   7.135 -0.7291 -1.0165 -2.4003
 6849SOL    HW232010   3.162   3.329   7.151  0.6000 -0.1471 -0.5868
 6850SOL     OW32011   4.538   1.565   4.076 -0.2276 -0.4645 -0.0565
 6850SOL    HW132012   4.485   1.597   4.149  2.8887  2.8414  0.7670
 6850SOL    HW232013   4.607   1.631   4.068 -1.6969  0.8998 -1.5556
 6851SOL     OW32014   4.473   2.916   5.952  0.3949  0.2161  0.0423
 6851SOL    HW132015   4.397   2.972   5.938  0.1184 -0.2105 -0.1468
 6851SOL    HW232016   4.434   2.829   5.947 -1.4675  1.0708 -0.2650
 6852SOL     OW32017   2.642   4.208  16.743  0.0696 -0.4908  0.6881
 6852SOL    HW132018   2.651   4.303  16.751  1.7872 -0.8192  2.6320
 6852SOL    HW232019   2.547   4.200  16.741  0.0456  0.1268 -0.6544
 6853SOL     OW32020   0.165   0.563   9.318  0.2113 -0.3522 -0.0892
 6853SOL    HW132021   0.210   0.533   9.239  1.0547  0.2646  0.1662
 6853SOL    HW232022   0.202   0.502   9.380  2.7880  1.0392 -0.2798
 6854SOL     OW32023   2.592   0.371   5.123 -0.3703 -0.1603  0.0887
 6854SOL    HW132024   2.563   0.338   5.038 -2.3515 -1.0610  1.1265
 6854SOL    HW232025   2.606   0.287   5.166 -0.1381 -0.4055 -0.4642
 6855SOL     OW32026   2.629   2.125   9.376 -0.0605 -0.1321  0.2690
 6855SOL    HW132027   2.576   2.200   9.350  0.8357  0.1993 -0.6105
 6855SOL    HW232028   2.589   2.119   9.463 -2.2973  0.2411 -0.7437
 6856SOL     OW32029   1.390   2.642   7.549 -0.1094 -0.4135  0.3554
 6856SOL    HW132030   1.359   2.558   7.582  0.4927  0.0160  2.0023
 6856SOL    HW232031   1.436   2.674   7.626  1.5299 -1.1770 -0.3051
 6857SOL     OW32032   1.392   0.909   3.760 -0.3207  0.3226  0.9931
 6857SOL    HW132033   1.443   0.829   3.745  0.4650  1.0336 -0.1622
 6857SOL    HW232034   1.307   0.881   3.794 -0.7375  0.5712  0.1584
 6858SOL     OW32035   0.883   4.414   3.161  0.2570  0.0932  0.1998
 6858SOL    HW132036   0.914   4.495   3.120  0.0445  0.2094  0.2723
 6858SOL    HW232037   0.795   4.435   3.190  0.7112  2.2211  0.0848
 6859SOL     OW32038   2.832   4.721   0.678  0.0773  0.2811  0.5039
 6859SOL    HW132039   2.837   4.625   0.681 -0.7614  0.2199  0.1253
 6859SOL    HW232040   2.919   0.015   0.646 -0.4170  1.8253  0.1682
 6860SOL     OW32041   1.096   4.269   8.334 -0.0505 -0.3986  0.0307
 6860SOL    HW132042   1.156   4.341   8.316 -0.5596  0.0569  0.1541
 6860SOL    HW232043   1.163   4.210   8.368  0.1597  0.2737  0.7859
 6861SOL     OW32044   1.728   4.148   5.929  0.4014 -0.2111  0.5321
 6861SOL    HW132045   1.686   4.212   5.871  0.4998 -0.8907 -0.2797
 6861SOL    HW232046   1.723   4.079   5.863  4.5298  2.3499 -2.4781
 6862SOL     OW32047   2.722   2.816   6.690 -0.2351  0.5137  0.5237
 6862SOL    HW132048   2.778   2.812   6.612  0.6632  0.7859  1.1503
 6862SOL    HW232049   2.775   2.863   6.754 -0.0055 -0.0121  0.7179
 6863SOL     OW32050   2.557   3.842   1.891  0.5155 -0.3668 -0.6287
 6863SOL    HW132051   2.462   3.831   1.905  0.6377  1.0329  1.2883
 6863SOL    HW232052   2.561   3.854   1.797 -0.0266 -2.7807 -0.9803
 6864SOL     OW32053   4.222   2.546  11.459  0.1053  0.3934  0.0047
 6864SOL    HW132054   4.180   2.494  11.527 -2.0011  2.2577  0.1375
 6864SOL    HW232055   4.189   2.520  11.373 -0.0819 -0.5420  0.3553
 6865SOL     OW32056   2.987   4.471   7.364 -0.3489 -0.4980 -0.1841
 6865SOL    HW132057   3.044   4.404   7.327  0.2188 -0.6653  0.9710
 6865SOL    HW232058   3.034   4.485   7.447 -1.8582 -0.6012  0.6934
 6866SOL     OW32059   1.217   0.231   8.730  0.2886 -0.3264 -0.2190
 6866SOL    HW132060   1.124   0.210   8.732  0.6100 -1.9447 -2.2309
 6866SOL    HW232061   1.217   0.327   8.723 -0.8503 -0.1934  1.7524
 6867SOL     OW32062   4.330   0.935  12.076  0.0025  0.5001  0.2301
 6867SOL    HW132063   4.326   0.939  12.172 -2.5419 -1.5451  0.1946
 6867SOL    HW232064   4.307   0.845  12.053  2.8098 -0.2576  0.3463
 6868SOL     OW32065   3.850   0.095   9.797  0.5995 -0.3577 -0.0124
 6868SOL    HW132066   3.938   0.057   9.798  0.9617  0.4855  0.7211
 6868SOL    HW232067   3.795   0.057   9.865 -1.9212  2.3129 -0.5734
 6869SOL     OW32068   1.852   4.228   9.040 -0.0957 -0.3245 -0.1559
 6869SOL    HW132069   1.784   4.224   8.973 -0.4723  0.0896  0.2024
 6869SOL    HW232070   1.918   4.168   9.005 -0.5640  0.4754 -2.4112
 6870SOL     OW32071   1.139   1.582   1.711  0.0713  0.1896  0.1797
 6870SOL    HW132072   1.052   1.544   1.700  0.7256 -0.7032 -1.9292
 6870SOL    HW232073   1.109   1.665   1.747  1.1228 -0.5142  2.7231
 6871SOL     OW32074   3.553   3.338  17.047  0.2952 -0.7596  0.0810
 6871SOL    HW132075   3.591   3.388  16.976 -1.2516  1.2267  0.6409
 6871SOL    HW232076   3.575   3.249  17.020  1.5291 -0.8771  1.4728
 6872SOL     OW32077   0.615   0.757   6.885  0.4054 -0.5777 -0.0896
 6872SOL    HW132078   0.640   0.849   6.878  3.1708 -1.3353 -0.0905
 6872SOL    HW232079   0.519   0.759   6.884  0.4712  3.6037  0.2914
 6873SOL     OW32080   4.100   4.299  16.689  0.1278 -0.0398 -0.0056
 6873SOL    HW132081   4.174   4.257  16.645  0.1074  0.9855 -1.0325
 6873SOL    HW232082   4.090   4.239  16.762  0.5490  1.6692  1.4532
 6874SOL     OW32083   2.250   2.185   7.733 -0.2219 -0.5733  0.5792
 6874SOL    HW132084   2.284   2.107   7.689  1.1717 -1.6282  3.5561
 6874SOL    HW232085   2.157   2.184   7.712 -0.0053  1.9363 -0.5260
 6875SOL     OW32086   2.934   0.082   8.258 -0.2223  0.3630  0.1745
 6875SOL    HW132087   2.866   0.021   8.288 -1.7800  1.7537 -0.4951
 6875SOL    HW232088   3.002   0.071   8.323  0.2956  0.3454 -0.3724
 6876SOL     OW32089   0.461   3.420   5.116  0.1553  0.0911 -0.3592
 6876SOL    HW132090   0.400   3.359   5.157  0.8633 -0.5914 -0.3252
 6876SOL    HW232091   0.544   3.374   5.111 -0.0744 -0.4514  0.9649
 6877SOL     OW32092   4.422   3.554  13.695 -0.0874 -0.1156  0.3697
 6877SOL    HW132093   4.412   3.636  13.744  2.3822  0.8554 -0.7463
 6877SOL    HW232094   4.330   3.526  13.692 -0.2537  0.7166 -2.6471
 6878SOL     OW32095   0.451   4.237   9.215 -0.0466  0.7680  0.4972
 6878SOL    HW132096   0.372   4.202   9.173  2.0015 -0.9463 -1.8758
 6878SOL    HW232097   0.411   4.305   9.270 -0.7860 -0.3724  1.3925
 6879SOL     OW32098   1.720   3.642  13.989  0.1582  0.1040 -0.3042
 6879SOL    HW132099   1.736   3.694  13.910 -0.8319  0.2311 -0.4202
 6879SOL    HW232100   1.812   3.622  14.009  0.1349  0.8308  0.4982
 6880SOL     OW32101   0.823   0.719   4.567 -0.1418 -0.2257  0.0694
 6880SOL    HW132102   0.730   0.714   4.542  0.1525 -2.6233 -0.4977
 6880SOL    HW232103   0.814   0.692   4.658  0.8492  1.9997  0.8488
 6881SOL     OW32104   4.056   1.271   7.516  0.3259 -0.6101  0.1997
 6881SOL    HW132105   4.119   1.223   7.569 -1.1921 -2.1382  0.6325
 6881SOL    HW232106   4.036   1.337   7.583  0.2976 -1.2043  0.7838
 6882SOL     OW32107   3.557   2.457  17.306  0.2063  0.4216  0.3271
 6882SOL    HW132108   3.623   2.426  17.245 -0.5461  0.1155 -0.3333
 6882SOL    HW232109   3.486   2.396  17.288  0.4649  0.3202 -0.3390
 6883SOL     OW32110   3.025   2.453   7.106  0.2123 -0.5816  0.1505
 6883SOL    HW132111   3.071   2.453   7.022 -0.2141 -0.9669 -0.0810
 6883SOL    HW232112   3.008   2.547   7.119  0.9779 -0.7655  2.3862
 6884SOL     OW32113   3.525   4.362   3.458  0.3507  0.0133  0.8366
 6884SOL    HW132114   3.512   4.431   3.393  1.6067  0.4455  1.0509
 6884SOL    HW232115   3.492   4.401   3.539  0.7826  0.9522  0.5692
 6885SOL     OW32116   3.687   4.659   5.752 -0.4768 -0.1604 -0.2711
 6885SOL    HW132117   3.720   4.581   5.708  1.5951  1.2848 -1.2667
 6885SOL    HW232118   3.607   4.671   5.701 -0.3100  1.6592 -0.1112
 6886SOL     OW32119   1.319   0.270   3.094 -0.2705  0.0120  0.2273
 6886SOL    HW132120   1.229   0.291   3.119 -0.6101 -1.8527  0.5556
 6886SOL    HW232121   1.318   0.180   3.126 -0.3279  0.1867  0.7216
 6887SOL     OW32122   3.220   0.597   4.584  0.2600 -0.2293  0.1618
 6887SOL    HW132123   3.149   0.580   4.523 -0.1854  0.8658  0.3868
 6887SOL    HW232124   3.172   0.602   4.666 -0.4161  0.1948 -0.2626
 6888SOL     OW32125   2.033   3.253  15.378  0.0526 -0.2345  0.5453
 6888SOL    HW132126   2.115   3.218  15.344  0.0521  0.9603 -0.6882
 6888SOL    HW232127   2.001   3.183  15.434 -0.7101 -0.2701  0.0596
 6889SOL     OW32128   3.877   2.757   8.127  0.4333  0.1339  0.2076
 6889SOL    HW132129   3.866   2.670   8.087  1.9761 -1.2021  2.6808
 6889SOL    HW232130   3.970   2.753   8.149  0.3377 -1.7297  0.2949
 6890SOL     OW32131   0.736   0.182   5.805 -0.9500  0.0943  0.1639
 6890SOL    HW132132   0.691   0.238   5.868 -0.2981 -1.1729  1.7580
 6890SOL    HW232133   0.679   0.105   5.803 -2.7171  1.4055  0.4309
 6891SOL     OW32134   1.324   4.536   6.417 -0.0301  0.3859 -0.2263
 6891SOL    HW132135   1.396   4.523   6.355  1.0222  1.1527  0.8534
 6891SOL    HW232136   1.278   4.611   6.379 -0.9015  0.2183  0.5174
 6892SOL     OW32137   3.550   1.775  11.817  0.2131 -0.1075  0.2112
 6892SOL    HW132138   3.569   1.745  11.906  1.4393 -0.5761 -0.2117
 6892SOL    HW232139   3.537   1.869  11.828  0.5364 -0.0463  0.0716
 6893SOL     OW32140   4.212   2.064  17.200  0.5834 -0.5251 -0.2791
 6893SOL    HW132141   4.288   2.091  17.252  0.0382 -0.2359  0.3682
 6893SOL    HW232142   4.261   2.050  17.119 -0.9192 -0.4976 -1.1815
 6894SOL     OW32143   3.226   4.002   3.618  0.5905  0.2926  0.1002
 6894SOL    HW132144   3.194   3.922   3.659 -0.1595 -0.4696 -1.9939
 6894SOL    HW232145   3.163   4.059   3.662 -0.0963 -1.0614  0.8511
 6895SOL     OW32146   1.837   4.470   5.229  0.2913  0.0894 -0.5271
 6895SOL    HW132147   1.873   4.502   5.311  0.8600  2.2944 -1.6438
 6895SOL    HW232148   1.908   4.477   5.165 -0.1607  1.7163 -0.8338
 6896SOL     OW32149   3.869   0.062  12.000 -0.4201  0.2529  0.0381
 6896SOL    HW132150   3.781   0.082  12.032 -0.0908 -0.6889  1.5544
 6896SOL    HW232151   3.851   4.717  11.939 -0.7551 -1.4403  2.1411
 6897SOL     OW32152   3.757   3.635  15.660 -0.4982 -0.4324 -0.5105
 6897SOL    HW132153   3.798   3.718  15.637  2.1316 -1.9808 -1.4606
 6897SOL    HW232154   3.832   3.575  15.665  0.7720  1.3393  1.5802
 6898SOL     OW32155   4.301   1.580   5.214 -0.4492  0.0543  0.3158
 6898SOL    HW132156   4.302   1.633   5.134  3.1169  0.6557  0.7824
 6898SOL    HW232157   4.294   1.494   5.173  1.2397  0.5783 -1.0726
 6899SOL     OW32158   3.515   0.876   2.364 -0.4380 -0.4996 -0.1736
 6899SOL    HW132159   3.467   0.878   2.446  0.3737 -2.1705  0.3581
 6899SOL    HW232160   3.459   0.807   2.327 -1.7376  1.1478 -1.2708
 6900SOL     OW32161   4.628   2.442   4.331 -0.1983  0.2861 -0.0907
 6900SOL    HW132162   4.687   2.438   4.255  2.0300  1.0465  1.6022
 6900SOL    HW232163   4.659   2.524   4.370 -0.8305  0.4491  0.0750
 6901SOL     OW32164   1.469   4.707   2.282  0.2028 -0.3394 -0.1959
 6901SOL    HW132165   1.538   4.641   2.293  1.6476  1.2201  0.1330
 6901SOL    HW232166   1.388   4.680   2.325 -0.2545  0.6834 -0.4128
 6902SOL     OW32167   4.368   4.266  16.872 -0.3562 -0.0872 -0.2780
 6902SOL    HW132168   4.280   4.229  16.875  0.1614 -1.3698 -0.7837
 6902SOL    HW232169   4.389   4.264  16.779  1.2471  0.2907  0.0682
 6903SOL     OW32170   0.035   0.158   7.120  0.7037 -0.4920 -0.4369
 6903SOL    HW132171   0.023   0.248   7.090 -3.2694 -1.2496 -1.0452
 6903SOL    HW232172   4.671   0.130   7.126  0.4553  0.6875  1.2575
 6904SOL     OW32173   0.268   1.549  15.123 -0.0792  0.0489  0.2068
 6904SOL    HW132174   0.212   1.595  15.061 -3.7837 -0.4483  3.2575
 6904SOL    HW232175   0.298   1.474  15.072  0.8208  1.2583 -1.0672
 6905SOL     OW32176   4.529   3.238   8.092 -0.1367 -0.0820 -0.9414
 6905SOL    HW132177   4.481   3.320   8.079 -1.8638 -1.3983 -2.9195
 6905SOL    HW232178   4.583   3.234   8.014  1.7876  2.1760  0.2765
 6906SOL     OW32179   2.285   4.570   7.544 -0.5122 -0.7061  0.5395
 6906SOL    HW132180   2.250   4.505   7.483  1.1142 -0.7872 -0.3126
 6906SOL    HW232181   2.208   4.626   7.536 -1.1309 -1.6661 -0.2235
 6907SOL     OW32182   1.262   3.064   9.136  0.6900 -0.2041  0.7772
 6907SOL    HW132183   1.283   3.142   9.187  1.3290  1.0337 -1.3716
 6907SOL    HW232184   1.300   2.996   9.191  0.6128  0.2413  1.3798
 6908SOL     OW32185   3.323   3.718  15.196  0.1248  0.1269 -0.3568
 6908SOL    HW132186   3.287   3.806  15.187 -0.4196 -0.0449  0.1205
 6908SOL    HW232187   3.244   3.665  15.191  0.8789 -1.2948  2.7252
 6909SOL     OW32188   2.331   0.935   8.408 -0.5017 -0.5646 -0.3111
 6909SOL    HW132189   2.366   0.990   8.338  0.4529 -0.8854 -0.0931
 6909SOL    HW232190   2.240   0.962   8.419  0.3373  0.9791  2.9513
 6910SOL     OW32191   3.563   0.002   7.958  0.1218  0.0167 -0.8916
 6910SOL    HW132192   3.636   4.667   7.955  0.9508  0.9443  0.2814
 6910SOL    HW232193   3.492   4.671   7.989  1.4121 -0.4718  1.1664
 6911SOL     OW32194   3.848   3.143   1.078  0.0382 -0.5299  0.1402
 6911SOL    HW132195   3.820   3.234   1.070  0.8600 -0.5048 -2.4395
 6911SOL    HW232196   3.762   3.102   1.074 -0.4811  0.7099 -1.4111
 6912SOL     OW32197   2.009   1.324  14.444 -0.8081 -0.1487 -0.0714
 6912SOL    HW132198   1.929   1.277  14.421  1.0156 -2.7383 -1.0862
 6912SOL    HW232199   1.984   1.352  14.532 -0.8156 -1.6905  0.4054
 6913SOL     OW32200   0.210   0.579   6.424 -0.0328  0.5045 -0.4275
 6913SOL    HW132201   0.204   0.553   6.516  2.2379 -3.3479 -1.3625
 6913SOL    HW232202   0.183   0.668   6.445 -1.0220  0.1134 -0.0626
 6914SOL     OW32203   4.389   2.035   9.158  0.3888 -0.3910  0.2792
 6914SOL    HW132204   4.339   2.060   9.235 -0.1632  0.9715 -0.5209
 6914SOL    HW232205   4.396   2.112   9.101  0.7770 -0.0059  0.8495
 6915SOL     OW32206   4.203   2.695   6.893 -0.5882 -0.0382  0.4896
 6915SOL    HW132207   4.156   2.686   6.976 -0.0086 -2.3960  0.5625
 6915SOL    HW232208   4.258   2.772   6.907 -1.9279  1.2823 -1.4932
 6916SOL     OW32209   1.390   3.081   4.102 -0.2468 -0.3291  0.2285
 6916SOL    HW132210   1.402   3.004   4.046  1.2409  0.1250 -0.0597
 6916SOL    HW232211   1.309   3.104   4.057  0.1328 -0.5008 -0.5501
 6917SOL     OW32212   2.481   0.356   2.216 -0.3264  0.0763 -0.3970
 6917SOL    HW132213   2.476   0.439   2.168 -0.3226  1.2653  1.6672
 6917SOL    HW232214   2.512   0.287   2.157  1.6522 -0.6791  1.5505
 6918SOL     OW32215   2.040   1.959  11.061 -0.6885 -0.1506 -0.4792
 6918SOL    HW132216   2.033   1.867  11.085  0.1136 -0.1157 -0.1342
 6918SOL    HW232217   2.014   2.006  11.140  0.9449  0.2545 -0.1873
 6919SOL     OW32218   2.899   3.226   6.321 -0.5313  0.4726 -0.0705
 6919SOL    HW132219   2.877   3.227   6.414 -1.3280  1.2987 -0.2647
 6919SOL    HW232220   2.888   3.318   6.293 -0.5907  0.1332 -1.1719
 6920SOL     OW32221   2.068   2.986  11.205 -0.2282  0.0257 -0.1753
 6920SOL    HW132222   2.099   2.903  11.169 -0.2674  0.0637 -0.2981
 6920SOL    HW232223   2.004   2.945  11.264  0.1892 -0.9926 -0.4269
 6921SOL     OW32224   4.647   4.077   9.248  0.8501  0.4070  0.3354
 6921SOL    HW132225   4.626   4.039   9.163  2.3136  0.9199 -0.2518
 6921SOL    HW232226   0.016   4.079   9.250  0.8633  1.4194 -1.1978
 6922SOL     OW32227   0.670   1.291   6.447 -0.1316 -0.4646 -0.9188
 6922SOL    HW132228   0.673   1.277   6.352  0.8290 -0.5258 -0.8841
 6922SOL    HW232229   0.761   1.321   6.449  0.6827 -2.9930 -0.7242
 6923SOL     OW32230   2.220   4.391   4.357  0.5419  0.2700  0.2289
 6923SOL    HW132231   2.302   4.392   4.407  1.7788 -1.7458 -1.7911
 6923SOL    HW232232   2.253   4.390   4.267 -1.8163  0.3958 -0.6290
 6924SOL     OW32233   3.411   3.034  14.464  0.3428  0.0540  0.8548
 6924SOL    HW132234   3.482   2.991  14.417 -0.3431  1.6058 -1.5809
 6924SOL    HW232235   3.366   2.957  14.499 -0.0263 -0.0418  0.1623
 6925SOL     OW32236   0.469   4.275  17.453 -0.4119  0.4065  0.0917
 6925SOL    HW132237   0.558   4.279  17.417 -0.1698  1.1496  0.7586
 6925SOL    HW232238   0.446   4.189  17.420  1.5136  0.6898 -1.9670
 6926SOL     OW32239   4.620   3.842  14.684 -0.2127  0.2305  0.6291
 6926SOL    HW132240   4.681   3.911  14.709  3.0120 -2.3456 -0.0458
 6926SOL    HW232241   4.684   3.785  14.641 -0.4307  2.0239 -2.0251
 6927SOL     OW32242   0.780   0.662   7.627 -0.0866  0.3593  0.7147
 6927SOL    HW132243   0.688   0.683   7.641  0.0617  0.9593  0.7880
 6927SOL    HW232244   0.792   0.706   7.542 -0.5269 -0.8581  0.0282
 6928SOL     OW32245   0.419   2.753   7.180  0.1756 -0.0247  0.3075
 6928SOL    HW132246   0.504   2.794   7.161  0.3853 -1.1178 -1.0727
 6928SOL    HW232247   0.421   2.758   7.276  1.0607  0.1382  0.2770
 6929SOL     OW32248   3.636   0.983   7.845 -0.4042  0.0042 -0.0064
 6929SOL    HW132249   3.634   1.066   7.893 -0.0523  0.7923 -1.3311
 6929SOL    HW232250   3.579   0.997   7.769 -1.2374  2.0903  1.0012
 6930SOL     OW32251   1.554   0.712   3.004 -0.2126  0.4907  0.7420
 6930SOL    HW132252   1.510   0.633   2.972  0.2167  0.6930 -0.3628
 6930SOL    HW232253   1.475   0.763   3.023 -0.3139  0.0740  1.4394
 6931SOL     OW32254   0.162   1.082  15.572  0.7053 -0.8099  0.0349
 6931SOL    HW132255   0.159   0.986  15.567  1.2564 -0.8343  0.0878
 6931SOL    HW232256   0.240   1.086  15.628  1.1386  1.7661 -0.7536
 6932SOL     OW32257   1.796   4.233   0.985  0.5389  0.0629  0.1756
 6932SOL    HW132258   1.777   4.224   0.892 -0.1560 -0.4028  0.3668
 6932SOL    HW232259   1.803   4.327   1.003 -1.4395  0.2583 -0.1498
 6933SOL     OW32260   0.779   2.987   1.018 -0.0096 -0.2258 -0.2374
 6933SOL    HW132261   0.834   2.920   0.978  1.4194 -0.5794  2.2769
 6933SOL    HW232262   0.708   2.930   1.047  1.0689 -1.1443  0.5894
 6934SOL     OW32263   3.682   3.421   5.658  0.2612  0.0164  0.4419
 6934SOL    HW132264   3.615   3.487   5.643 -0.7956 -1.1056  0.1872
 6934SOL    HW232265   3.753   3.482   5.676  0.4701  0.3267 -1.4047
 6935SOL     OW32266   0.039   1.119   3.327 -0.6166 -0.6677 -0.1304
 6935SOL    HW132267   0.129   1.088   3.317 -0.4438 -0.2134  0.0119
 6935SOL    HW232268   0.043   1.210   3.356 -1.1045 -0.2886 -1.2309
 6936SOL     OW32269   2.535   4.017   6.665 -0.1945  0.2215  0.8931
 6936SOL    HW132270   2.605   3.999   6.603 -2.1543  1.8188 -1.7334
 6936SOL    HW232271   2.473   3.972   6.608 -0.8042  0.7195  1.1658
 6937SOL     OW32272   1.069   1.942  12.560  0.1204 -0.3762  0.0555
 6937SOL    HW132273   1.099   1.863  12.604 -1.1398 -0.9693 -0.1412
 6937SOL    HW232274   1.146   1.989  12.529 -0.9409  0.7172 -0.9396
 6938SOL     OW32275   4.661   4.348   2.404 -0.0590  0.0584  0.4626
 6938SOL    HW132276   4.607   4.275   2.434  1.1160 -1.2289 -0.5333
 6938SOL    HW232277   4.625   4.413   2.463  0.5732  0.5417  0.3144
 6939SOL     OW32278   1.278   4.246  11.250 -0.1942 -0.0317  0.8677
 6939SOL    HW132279   1.193   4.232  11.292  0.0978 -2.0153  0.8170
 6939SOL    HW232280   1.348   4.236  11.315 -0.1362  1.6626  1.0629
 6940SOL     OW32281   2.217   2.334   8.675  0.0558 -0.3741  0.4375
 6940SOL    HW132282   2.125   2.315   8.656 -0.2850  0.8937  0.7822
 6940SOL    HW232283   2.274   2.266   8.640 -0.2378  0.0472 -0.8665
 6941SOL     OW32284   0.339   4.133   5.559  0.1562  0.0407 -0.7165
 6941SOL    HW132285   0.332   4.119   5.653  0.6174  0.2247 -0.6559
 6941SOL    HW232286   0.280   4.063   5.529  1.0048 -1.5735  1.4041
 6942SOL     OW32287   3.141   3.587   2.216  0.3769 -0.5768 -0.2493
 6942SOL    HW132288   3.136   3.652   2.147  1.3033 -0.0174  0.1976
 6942SOL    HW232289   3.060   3.537   2.212 -0.3373  0.7429 -2.0995
 6943SOL     OW32290   3.272   4.711   7.282 -0.6033 -0.0053  0.6743
 6943SOL    HW132291   3.299   4.651   7.351 -1.3716 -1.0352  0.0813
 6943SOL    HW232292   3.242   4.660   7.207  1.3944  0.7416 -0.6333
 6944SOL     OW32293   0.558   2.476   0.603 -0.0933 -0.7863  0.1768
 6944SOL    HW132294   0.613   2.397   0.604  0.0440 -0.6969 -0.4776
 6944SOL    HW232295   0.590   2.527   0.529 -1.3694  0.0903  0.2308
 6945SOL     OW32296   2.929   1.113   8.296 -0.3571 -0.2474 -0.2891
 6945SOL    HW132297   3.018   1.131   8.266  0.1833 -1.7821  0.3902
 6945SOL    HW232298   2.948   1.063   8.376 -0.0013  0.5573  0.1356
 6946SOL     OW32299   0.689   1.511  10.476 -0.5988 -0.5036  0.4618
 6946SOL    HW132300   0.666   1.429  10.518  0.0771 -0.3270  1.1754
 6946SOL    HW232301   0.650   1.493  10.390  0.0422  2.0431 -0.3659
 6947SOL     OW32302   1.392   2.634   6.662 -0.0928  0.4062  0.3353
 6947SOL    HW132303   1.468   2.584   6.690 -0.9380 -1.1956 -0.2185
 6947SOL    HW232304   1.331   2.624   6.736  0.4735  0.7887  0.8517
 6948SOL     OW32305   3.089   3.283   3.870 -0.1238 -0.5781 -0.1098
 6948SOL    HW132306   3.120   3.351   3.930  0.1867 -0.3340 -0.5460
 6948SOL    HW232307   3.167   3.228   3.871 -0.3521 -0.8877  1.2456
 6949SOL     OW32308   0.892   2.666   3.633 -0.4902 -0.2127  0.5515
 6949SOL    HW132309   0.955   2.631   3.570 -0.2889  1.6651 -0.2677
 6949SOL    HW232310   0.812   2.615   3.618 -0.1763 -1.3632  2.7442
 6950SOL     OW32311   0.962   2.943   7.353  0.1515  0.2166  0.0555
 6950SOL    HW132312   0.929   2.965   7.266 -1.6077  1.6711  1.1007
 6950SOL    HW232313   1.028   2.875   7.340 -1.1718 -1.1565  0.4453
 6951SOL     OW32314   2.896   1.168   9.232 -0.2191 -0.0815 -0.1516
 6951SOL    HW132315   2.872   1.079   9.256  2.5686 -0.6361  0.5995
 6951SOL    HW232316   2.845   1.172   9.151  0.9734 -2.4716 -1.0254
 6952SOL     OW32317   0.240   3.773   8.551 -0.0025  0.4106 -0.4560
 6952SOL    HW132318   0.174   3.710   8.523 -1.7054  0.7665  2.7298
 6952SOL    HW232319   0.305   3.781   8.481 -0.8990  3.5671 -0.8956
 6953SOL     OW32320   2.329   1.549   6.800  0.1969 -1.0143  0.1819
 6953SOL    HW132321   2.373   1.619   6.849  0.6530 -1.4188  0.3437
 6953SOL    HW232322   2.253   1.529   6.855  1.7014 -2.2609  1.7859
 6954SOL     OW32323   1.335   0.700   5.758 -0.4095  0.0067 -0.5464
 6954SOL    HW132324   1.379   0.743   5.831  2.2014 -1.3276 -1.3219
 6954SOL    HW232325   1.347   0.608   5.781 -0.2366 -0.7327 -3.5919
 6955SOL     OW32326   2.157   1.094   4.012 -0.0637  0.6425 -0.0802
 6955SOL    HW132327   2.212   1.171   3.997 -1.1572  1.2696 -0.9202
 6955SOL    HW232328   2.214   1.048   4.074  0.6803 -0.5586 -1.6431
 6956SOL     OW32329   3.962   0.606  15.209 -0.2310 -0.6364  0.3321
 6956SOL    HW132330   3.889   0.549  15.232  0.5569 -1.1225  1.6165
 6956SOL    HW232331   3.918   0.690  15.198  0.3194 -0.5714 -1.3377
 6957SOL     OW32332   1.977   0.300   1.555  0.2052  0.4953 -0.1116
 6957SOL    HW132333   2.012   0.342   1.633 -0.9624  1.4461 -0.0980
 6957SOL    HW232334   2.057   0.312   1.503  0.3898 -0.9773 -0.1603
 6958SOL     OW32335   1.718   0.097   5.720 -0.7955  0.3654  0.2917
 6958SOL    HW132336   1.775   0.146   5.661  1.4977 -0.6678  1.6491
 6958SOL    HW232337   1.636   0.143   5.701 -1.8953 -1.6169  0.2335
 6959SOL     OW32338   2.991   4.035   6.297 -0.5495  0.1528  0.4539
 6959SOL    HW132339   3.079   4.064   6.274 -0.0604 -0.3607  1.6810
 6959SOL    HW232340   3.002   4.010   6.389  2.0818 -1.1487 -0.2130
 6960SOL     OW32341   1.700   2.241  11.954  0.1134  0.6872  0.2519
 6960SOL    HW132342   1.644   2.187  11.898  1.6424  3.1610 -3.6548
 6960SOL    HW232343   1.638   2.312  11.973 -0.9380 -0.0249 -0.5196
 6961SOL     OW32344   0.439   2.185   3.022  0.1100 -0.5578  0.0817
 6961SOL    HW132345   0.501   2.184   2.949 -2.4489  0.4033 -2.0931
 6961SOL    HW232346   0.470   2.255   3.080  0.7344  0.6276 -1.6972
 6962SOL     OW32347   0.949   3.531  14.383 -0.2398  0.2008  0.2483
 6962SOL    HW132348   0.899   3.551  14.304  0.5550  0.5314 -0.1654
 6962SOL    HW232349   0.981   3.447  14.351 -0.2300 -0.2875  1.5315
 6963SOL     OW32350   1.536   3.836  16.292  0.1562 -0.1065 -0.1892
 6963SOL    HW132351   1.489   3.867  16.370  1.6437 -1.5701  1.2992
 6963SOL    HW232352   1.489   3.868  16.216  0.1846 -0.6150 -0.4253
 6964SOL     OW32353   0.468   4.271   4.540  0.2987  0.3298 -0.1898
 6964SOL    HW132354   0.428   4.198   4.588  0.6033 -0.5983 -1.3308
 6964SOL    HW232355   0.555   4.266   4.580 -0.3549  1.0940  1.2992
 6965SOL     OW32356   4.682   4.659   4.965  0.3981  0.4240  0.2071
 6965SOL    HW132357   4.721   4.602   4.899 -1.0383  0.3974 -0.6391
 6965SOL    HW232358   4.680   4.605   5.044  0.0324 -0.0590 -0.1284
 6966SOL     OW32359   1.111   2.150   5.290  0.2615 -0.6754 -0.2041
 6966SOL    HW132360   1.047   2.081   5.308 -0.5297 -0.2645 -1.4293
 6966SOL    HW232361   1.097   2.155   5.195 -1.8566  2.5786  0.3093
 6967SOL     OW32362   3.738   0.505  12.577 -0.1931  0.2766 -0.1706
 6967SOL    HW132363   3.741   0.436  12.643 -0.7550 -0.2642 -0.7207
 6967SOL    HW232364   3.807   0.474  12.518 -0.3570 -1.0829  0.3694
 6968SOL     OW32365   1.071   1.676   4.109 -0.4918  0.2943  0.0667
 6968SOL    HW132366   0.984   1.650   4.138 -0.6943 -1.0780 -1.7420
 6968SOL    HW232367   1.115   1.600   4.147 -1.0948  0.4331  1.0195
 6969SOL     OW32368   4.575   1.279   4.087  0.0489  0.2340 -0.4180
 6969SOL    HW132369   4.652   1.262   4.032  2.0481  2.3492  1.7790
 6969SOL    HW232370   4.562   1.374   4.083  0.7686  0.4826  3.2107
 6970SOL     OW32371   4.647   3.546   4.944 -0.4507 -0.3674  0.2651
 6970SOL    HW132372   4.625   3.493   4.867 -0.1387 -2.3029  1.5158
 6970SOL    HW232373   4.725   3.508   4.985  0.8706  0.6197 -1.3595
 6971SOL     OW32374   4.553   2.602   7.727  0.2001  0.1279 -0.1462
 6971SOL    HW132375   4.534   2.679   7.674  0.6943 -0.2736 -0.9133
 6971SOL    HW232376   4.596   2.643   7.802 -0.6207 -0.8032  0.8338
 6972SOL     OW32377   2.692   3.171   3.725 -0.5079  0.0814  0.2434
 6972SOL    HW132378   2.680   3.234   3.797  0.0233 -1.2218  1.4692
 6972SOL    HW232379   2.698   3.223   3.645 -2.4385  0.2229  0.1992
 6973SOL     OW32380   3.833   2.733   5.541  0.8605  0.5149  0.0467
 6973SOL    HW132381   3.902   2.717   5.476  0.9336  0.9681  0.0137
 6973SOL    HW232382   3.757   2.709   5.488  0.3076 -0.1635  1.1394
 6974SOL     OW32383   4.090   0.477  11.790  0.3497 -0.3984 -0.2121
 6974SOL    HW132384   4.080   0.517  11.704 -0.2767  0.7846  0.4051
 6974SOL    HW232385   4.184   0.463  11.790 -0.1009 -3.5750 -1.3788
 6975SOL     OW32386   0.600   1.317   8.302  0.1470 -0.4133  0.4717
 6975SOL    HW132387   0.687   1.290   8.272 -0.6910  0.3891 -2.7498
 6975SOL    HW232388   0.537   1.250   8.276  0.3749 -0.8328  1.0076
 6976SOL     OW32389   3.725   1.095   7.044  0.3867 -0.5327  0.1431
 6976SOL    HW132390   3.706   1.015   6.996 -0.3890 -1.3519  1.8112
 6976SOL    HW232391   3.696   1.067   7.131 -0.4461  1.6351  0.5604
 6977SOL     OW32392   1.726   3.438   3.718 -0.3741  1.3515 -0.1754
 6977SOL    HW132393   1.696   3.506   3.658  1.2471  0.3535 -2.0842
 6977SOL    HW232394   1.643   3.393   3.734  1.1618 -0.8176  1.6281
 6978SOL     OW32395   0.840   0.054   5.030 -0.3773  0.2256 -0.1313
 6978SOL    HW132396   0.840   4.688   5.054  0.2216  0.3621  0.3876
 6978SOL    HW232397   0.823   0.100   5.112 -0.9168  1.9154 -1.2033
 6979SOL     OW32398   3.036   0.612  16.957 -0.6425 -0.6095  0.9683
 6979SOL    HW132399   2.983   0.651  16.888 -0.2378 -0.6508  0.6318
 6979SOL    HW232400   3.111   0.584  16.905 -1.4648  1.6230 -1.4164
 6980SOL     OW32401   1.230   4.404   6.140  0.6331  0.1202 -0.0943
 6980SOL    HW132402   1.291   4.407   6.213 -0.6894  0.5744  0.9901
 6980SOL    HW232403   1.170   4.478   6.150  0.0504 -0.2566 -0.8265
 6981SOL     OW32404   4.641   3.511   6.244 -0.1643  0.0855 -0.1510
 6981SOL    HW132405   4.623   3.505   6.338 -1.8797 -0.5324 -0.5148
 6981SOL    HW232406   4.551   3.523   6.212 -0.0329  0.3145 -0.4387
 6982SOL     OW32407   0.250   2.589   5.307 -0.3354 -0.5850  0.1464
 6982SOL    HW132408   0.323   2.568   5.366 -0.2117  2.0059  0.9015
 6982SOL    HW232409   0.278   2.527   5.239 -0.3438 -1.2812  0.7714
 6983SOL     OW32410   4.210   4.235   2.643  0.2821  0.1059  0.3595
 6983SOL    HW132411   4.164   4.152   2.652 -2.0303  1.4970  1.2509
 6983SOL    HW232412   4.275   4.227   2.713 -1.9721 -0.9010  2.3079
 6984SOL     OW32413   0.156   0.592   8.723  0.6511 -0.2694 -0.2062
 6984SOL    HW132414   0.100   0.660   8.686  0.7304 -0.9639 -1.5827
 6984SOL    HW232415   0.142   0.609   8.816  2.2562 -1.1342  0.1890
 6985SOL     OW32416   4.439   1.451   8.633  0.1829 -0.0893  0.4685
 6985SOL    HW132417   4.474   1.382   8.577  0.5828 -0.0470  0.6598
 6985SOL    HW232418   4.522   1.494   8.655  0.0442  1.7902 -2.5995
 6986SOL     OW32419   2.513   0.778   8.840  0.6360  0.0564  0.5878
 6986SOL    HW132420   2.479   0.708   8.784 -0.7374 -1.5999  3.5057
 6986SOL    HW232421   2.529   0.847   8.776 -1.8943  0.3265  0.2336
 6987SOL     OW32422   1.035   1.445  10.038  0.4599 -0.1376 -0.4373
 6987SOL    HW132423   1.035   1.535  10.070  2.0055 -0.6268  0.9044
 6987SOL    HW232424   1.119   1.419  10.002 -0.3077 -3.1665 -0.0241
 6988SOL     OW32425   3.576   4.583  12.499  0.5610 -0.6720  0.7158
 6988SOL    HW132426   3.654   4.569  12.553  2.1139 -1.5776 -1.7562
 6988SOL    HW232427   3.571   4.677  12.485  0.4696 -0.7604  0.1479
 6989SOL     OW32428   1.619   3.332   5.155 -0.6694 -0.3780  0.3056
 6989SOL    HW132429   1.648   3.284   5.232 -0.9324 -1.6487 -0.3720
 6989SOL    HW232430   1.582   3.413   5.188 -0.8689 -1.0164  1.6272
 6990SOL     OW32431   3.962   4.703   4.346 -0.4780  0.0825  0.0221
 6990SOL    HW132432   4.032   0.005   4.405 -0.6497  0.7038 -0.0761
 6990SOL    HW232433   4.013   4.643   4.292  0.9570 -0.0693  1.5564
 6991SOL     OW32434   3.514   1.249   5.683  0.1871 -0.1799  0.3468
 6991SOL    HW132435   3.594   1.237   5.632 -0.3033  0.0960 -0.4901
 6991SOL    HW232436   3.543   1.215   5.768 -1.1382 -0.2885  0.7544
 6992SOL     OW32437   1.295   1.883   7.966 -0.1683  0.1264  0.1426
 6992SOL    HW132438   1.286   1.928   8.050  0.1706  0.0612  0.2133
 6992SOL    HW232439   1.316   1.796   8.000 -0.3997  0.0737  0.1500
 6993SOL     OW32440   0.733   3.687   4.706 -0.2875 -0.0001 -0.2682
 6993SOL    HW132441   0.792   3.611   4.714 -0.6796 -0.3020 -0.2213
 6993SOL    HW232442   0.745   3.733   4.789 -3.2280 -1.1091  0.7814
 6994SOL     OW32443   1.361   4.128   8.285 -0.3557 -0.4683  0.2962
 6994SOL    HW132444   1.403   4.120   8.371 -0.7519 -0.6474  0.4738
 6994SOL    HW232445   1.420   4.189   8.240 -0.5253  0.8622  1.8845
 6995SOL     OW32446   3.166   1.969   5.322  0.1545  0.0096  0.0027
 6995SOL    HW132447   3.202   1.910   5.257  1.8807  1.5650 -0.4579
 6995SOL    HW232448   3.088   2.006   5.281  0.1855  1.8415  1.5778
 6996SOL     OW32449   3.265   3.810   6.919  0.1140 -0.2844 -0.5834
 6996SOL    HW132450   3.204   3.883   6.926 -0.6918 -0.9773 -0.2650
 6996SOL    HW232451   3.347   3.854   6.940  0.2227 -0.1392 -1.3019
 6997SOL     OW32452   4.267   3.724   3.922 -0.4867 -0.1773 -0.0529
 6997SOL    HW132453   4.172   3.731   3.923 -0.4129  0.9636 -0.3848
 6997SOL    HW232454   4.286   3.779   3.846  0.4707 -1.4790 -0.7517
 6998SOL     OW32455   4.626   3.817   5.708 -0.0889 -0.1560 -0.0305
 6998SOL    HW132456   4.713   3.782   5.731  0.2992  0.3590 -0.7291
 6998SOL    HW232457   4.628   3.904   5.748  0.1117 -0.3700  0.4329
 6999SOL     OW32458   0.075   3.623  12.117  0.4032  0.0842  0.0334
 6999SOL    HW132459   0.135   3.640  12.190  0.0528  0.7308  0.1762
 6999SOL    HW232460   0.084   3.530  12.097 -0.6454 -0.3693  1.6850
 7000SOL     OW32461   4.625   0.898   7.640 -0.4612  0.2316 -0.1593
 7000SOL    HW132462   4.598   0.989   7.657 -0.5145  0.0304  0.7945
 7000SOL    HW232463   4.647   0.903   7.547  0.0393 -1.0295 -0.0985
 7001SOL     OW32464   1.643   1.477   6.962  0.0379 -0.1353  0.1951
 7001SOL    HW132465   1.609   1.478   7.052 -0.7849  1.6262 -0.1333
 7001SOL    HW232466   1.602   1.394   6.939 -1.8851  1.1312 -1.0715
 7002SOL     OW32467   1.899   1.088   6.664 -0.1070 -0.6000 -0.1442
 7002SOL    HW132468   1.926   1.006   6.705  1.3212  1.4227  2.9846
 7002SOL    HW232469   1.806   1.085   6.687  0.0483 -0.7468  0.4827
 7003SOL     OW32470   2.132   2.540  15.980 -0.3896 -0.2835  0.0663
 7003SOL    HW132471   2.040   2.564  15.967  0.2564  1.8477 -0.6684
 7003SOL    HW232472   2.161   2.631  15.980 -2.1191  0.2799 -3.2997
 7004SOL     OW32473   1.957   2.366  17.077  0.6095 -0.0241  0.1924
 7004SOL    HW132474   2.017   2.342  17.148 -0.0223 -0.2925  0.6264
 7004SOL    HW232475   1.920   2.281  17.055 -0.9455  0.1353  2.2763
 7005SOL     OW32476   3.140   2.554  15.408  0.1696  0.2925 -0.6373
 7005SOL    HW132477   3.085   2.626  15.376  1.0723  0.7665 -1.1251
 7005SOL    HW232478   3.089   2.536  15.488  0.2425  0.7009 -0.4986
 7006SOL     OW32479   2.137   3.248   8.468 -0.0614 -0.0909 -0.1450
 7006SOL    HW132480   2.048   3.234   8.499  0.3618 -0.5163  0.8809
 7006SOL    HW232481   2.145   3.181   8.400  2.1309  0.6485 -0.6181
 7007SOL     OW32482   3.614   2.541  17.024  0.8186 -0.1684 -0.0279
 7007SOL    HW132483   3.604   2.472  16.958  0.3687 -0.2711  0.1452
 7007SOL    HW232484   3.682   2.496  17.073  0.6460 -0.6762 -0.2529
 7008SOL     OW32485   0.661   0.031  12.674  0.0305  0.3803  0.2837
 7008SOL    HW132486   0.647   0.124  12.695  3.1806  1.7842 -3.8209
 7008SOL    HW232487   0.661   4.718  12.761  0.6237  0.3422  0.2678
 7009SOL     OW32488   1.612   1.698   7.219 -0.0623  1.0942  0.2360
 7009SOL    HW132489   1.562   1.620   7.197  4.7182 -1.7210 -0.6273
 7009SOL    HW232490   1.549   1.769   7.204 -2.2604 -0.9732 -0.2771
 7010SOL     OW32491   2.348   0.127   8.631 -0.0362 -0.3986 -0.2754
 7010SOL    HW132492   2.373   0.142   8.540 -0.0917  0.3459 -0.1695
 7010SOL    HW232493   2.331   0.033   8.642  2.1836 -0.7872 -0.1197
 7011SOL     OW32494   2.940   0.286   4.417  0.1445  0.2179 -0.4791
 7011SOL    HW132495   3.019   0.335   4.439 -1.2146  1.1360  2.4425
 7011SOL    HW232496   2.958   0.197   4.447  2.2128  0.7810 -0.0467
 7012SOL     OW32497   1.589   1.324   9.521 -0.0707 -0.0282  0.3105
 7012SOL    HW132498   1.611   1.292   9.609  1.6424  1.5006  0.4251
 7012SOL    HW232499   1.599   1.418   9.531  0.5947 -0.0194 -0.4717
 7013SOL     OW32500   1.790   1.933   1.995  0.1480 -0.4422  0.0085
 7013SOL    HW132501   1.711   1.947   2.047 -0.2013 -1.0682 -0.3449
 7013SOL    HW232502   1.843   1.874   2.047 -0.9466  0.4400  2.1026
 7014SOL     OW32503   1.424   0.148  11.811 -1.1698  0.3149  0.4165
 7014SOL    HW132504   1.479   0.126  11.886  1.5147  0.8503 -1.4177
 7014SOL    HW232505   1.445   0.239  11.792 -0.5137 -0.3258 -1.8756
 7015SOL     OW32506   4.201   1.000   2.658  0.0028  0.6311 -0.1917
 7015SOL    HW132507   4.115   1.031   2.630  0.5226  0.8855 -1.4671
 7015SOL    HW232508   4.191   1.004   2.753  1.4076  0.8341 -0.0427
 7016SOL     OW32509   0.032   4.054   5.329 -0.4039  0.1036 -0.6101
 7016SOL    HW132510   0.039   4.139   5.373  0.6117 -0.1559 -0.2635
 7016SOL    HW232511   0.100   4.010   5.379  2.0869  2.6453 -1.7338
 7017SOL     OW32512   4.557   1.201   5.887  0.4023  0.1656  0.1099
 7017SOL    HW132513   4.533   1.248   5.807  0.1451 -1.2086 -0.6139
 7017SOL    HW232514   4.651   1.217   5.898 -0.1784  2.7777  1.2769
 7018SOL     OW32515   0.425   2.619  11.004 -0.0533  0.2136  0.1140
 7018SOL    HW132516   0.494   2.565  10.965  0.6680  2.1854 -1.3526
 7018SOL    HW232517   0.385   2.668  10.932 -0.7326  0.5308  0.7078
 7019SOL     OW32518   0.477   3.312   6.216 -0.2218  0.5470 -0.2993
 7019SOL    HW132519   0.385   3.304   6.189  0.0110  0.8950 -1.2158
 7019SOL    HW232520   0.507   3.222   6.206  0.3251  0.9021 -1.8355
 7020SOL     OW32521   4.527   3.306   2.571  0.8485  0.0855  0.1611
 7020SOL    HW132522   4.509   3.231   2.627  1.7910 -0.3496 -0.1081
 7020SOL    HW232523   4.438   3.326   2.542  0.2928 -0.3864  1.5424
 7021SOL     OW32524   2.725   4.158   8.948  0.2443 -0.0788 -0.4472
 7021SOL    HW132525   2.673   4.201   8.881  3.0539 -0.0623 -2.6243
 7021SOL    HW232526   2.771   4.234   8.984 -1.0497  0.6252 -0.2767
 7022SOL     OW32527   3.193   0.155   8.077  0.3330  0.3697 -0.2132
 7022SOL    HW132528   3.227   0.220   8.016  2.5556 -0.1406  0.4663
 7022SOL    HW232529   3.099   0.172   8.077  0.4901  1.3303  3.8325
 7023SOL     OW32530   3.599   3.664   5.332  0.0834  0.0897  0.3808
 7023SOL    HW132531   3.536   3.595   5.311  1.2325 -2.4046  4.9585
 7023SOL    HW232532   3.577   3.656   5.425 -0.7468  3.1895  0.4475
 7024SOL     OW32533   2.981   1.381   6.869 -0.3167  0.2981  0.3293
 7024SOL    HW132534   3.064   1.426   6.852 -1.1717  1.8062  0.2199
 7024SOL    HW232535   2.918   1.448   6.845 -0.9707 -0.3970  0.1043
 7025SOL     OW32536   1.071   2.766   9.408  0.3573 -0.2115 -0.1407
 7025SOL    HW132537   1.157   2.807   9.411  0.2085 -0.0851  2.8151
 7025SOL    HW232538   1.021   2.825   9.465  0.5432  0.3235 -0.5331
 7026SOL     OW32539   2.416   1.907  13.712  0.3250 -0.2798 -0.0691
 7026SOL    HW132540   2.468   1.858  13.775  0.4574  1.7260  1.3475
 7026SOL    HW232541   2.325   1.875  13.713  0.6271 -1.0707  1.0660
 7027SOL     OW32542   0.028   2.304   8.328  0.3800 -0.1769 -0.4880
 7027SOL    HW132543   4.697   2.234   8.358  2.3662 -0.8885  1.5811
 7027SOL    HW232544   0.113   2.277   8.363  0.7493 -0.1323 -1.3596
 7028SOL     OW32545   2.973   0.161  12.940  0.0047  0.2804  0.0342
 7028SOL    HW132546   2.917   0.161  12.862 -1.8595  3.0731  1.3802
 7028SOL    HW232547   2.919   0.203  13.007 -0.3462 -0.8241  0.4416
 7029SOL     OW32548   2.798   0.962  16.446  0.8390  0.6720 -0.0055
 7029SOL    HW132549   2.719   0.940  16.495  2.4312 -0.7813  1.9094
 7029SOL    HW232550   2.803   1.050  16.483 -0.9359  1.0894 -0.7471
 7030SOL     OW32551   0.145   1.610   4.048  0.1994 -0.0072  0.0679
 7030SOL    HW132552   0.078   1.672   4.020  0.7922 -0.6432 -2.8087
 7030SOL    HW232553   0.168   1.634   4.137  0.1491  0.3411 -0.0129
 7031SOL     OW32554   0.344   1.780   4.635  0.1156  0.8279 -0.5126
 7031SOL    HW132555   0.317   1.724   4.562  0.5483 -0.5953  0.4248
 7031SOL    HW232556   0.417   1.726   4.666 -0.8668 -1.3238 -1.9564
 7032SOL     OW32557   1.839   3.641   5.155 -0.0929 -0.3683 -0.1001
 7032SOL    HW132558   1.893   3.569   5.189 -0.5083 -1.9542 -2.7853
 7032SOL    HW232559   1.897   3.703   5.112 -0.1933 -0.5080 -0.4440
 7033SOL     OW32560   0.059   1.367  12.930 -0.0603 -0.1728 -0.2111
 7033SOL    HW132561   0.038   1.316  12.852 -1.9480  1.5767 -0.8538
 7033SOL    HW232562   0.067   1.454  12.890 -3.0228 -0.3051 -1.0726
 7034SOL     OW32563   2.303   4.556  16.068 -0.0297  0.1536  0.2509
 7034SOL    HW132564   2.269   4.620  16.006 -0.5094  3.1844  3.6356
 7034SOL    HW232565   2.379   4.597  16.109 -0.5821  0.0739  1.3482
 7035SOL     OW32566   2.971   2.905  16.738 -0.0317  0.1759  0.3748
 7035SOL    HW132567   2.928   2.845  16.677  1.1194 -0.5819  0.3122
 7035SOL    HW232568   3.042   2.938  16.684 -0.1830 -0.6662 -0.3497
 7036SOL     OW32569   3.095   2.079  14.395  0.3016  0.0405  0.3859
 7036SOL    HW132570   3.173   2.062  14.447 -0.5943  0.7318  1.9619
 7036SOL    HW232571   3.083   2.172  14.412  2.8714  0.3005  0.7352
 7037SOL     OW32572   1.976   1.345   2.891  0.6651 -0.2176  0.3918
 7037SOL    HW132573   2.032   1.283   2.939  1.6697 -0.7855 -1.5373
 7037SOL    HW232574   2.029   1.424   2.880  1.1654 -0.7352 -0.9588
 7038SOL     OW32575   1.666   1.461   5.676  0.3608 -0.1315 -0.4062
 7038SOL    HW132576   1.634   1.502   5.596 -1.0633  1.2764  0.8880
 7038SOL    HW232577   1.760   1.471   5.665  0.4853 -0.3902  0.4284
 7039SOL     OW32578   3.658   3.395  15.264  0.1412  0.0737  0.1152
 7039SOL    HW132579   3.648   3.373  15.172  2.3601  0.7675 -0.2779
 7039SOL    HW232580   3.733   3.340  15.285  0.0491 -0.5804 -1.2984
 7040SOL     OW32581   3.136   0.618   2.716 -0.4572  0.7136 -0.3853
 7040SOL    HW132582   3.170   0.539   2.758  0.7745  1.8337  0.7257
 7040SOL    HW232583   3.125   0.598   2.623  2.6538 -1.3972 -0.3180
 7041SOL     OW32584   1.447   1.807   5.950  0.7133  0.9078  0.4422
 7041SOL    HW132585   1.451   1.861   6.029  0.5687  2.1706 -0.4252
 7041SOL    HW232586   1.357   1.776   5.954  0.5384  1.3757  0.0291
 7042SOL     OW32587   2.833   2.618   6.870  0.6036  0.2290  0.3464
 7042SOL    HW132588   2.791   2.656   6.947 -0.4041  0.2053 -0.1889
 7042SOL    HW232589   2.914   2.669   6.865  0.9105 -0.4584 -1.6642
 7043SOL     OW32590   0.291   3.856   6.397  0.4857 -0.4433 -0.2911
 7043SOL    HW132591   0.202   3.845   6.362  1.0608  0.5846 -2.1068
 7043SOL    HW232592   0.269   3.915   6.470 -1.0607 -1.5312  0.1273
 7044SOL     OW32593   3.977   1.748   6.818 -0.1963  0.1352 -0.4181
 7044SOL    HW132594   3.938   1.822   6.772 -0.4353 -0.6230 -1.4426
 7044SOL    HW232595   4.019   1.697   6.749  1.2784  1.8416 -0.7572
 7045SOL     OW32596   3.897   2.988   6.625  0.3522  0.6466 -0.0533
 7045SOL    HW132597   3.842   3.066   6.625 -0.3420  0.1559 -0.8167
 7045SOL    HW232598   3.951   3.006   6.548 -0.5682  1.4570 -0.5113
 7046SOL     OW32599   3.021   2.316   2.861  0.2151 -0.1595  0.3094
 7046SOL    HW132600   3.098   2.299   2.807 -1.9910  1.7431 -3.4413
 7046SOL    HW232601   3.014   2.412   2.856 -1.6720 -0.2752  0.8130
 7047SOL     OW32602   1.250   3.355   6.226 -0.0030  0.1661  0.0561
 7047SOL    HW132603   1.266   3.446   6.252  0.4289 -0.8795  3.4622
 7047SOL    HW232604   1.336   3.316   6.210 -0.1866 -0.0803 -0.3078
 7048SOL     OW32605   2.736   3.300   5.470  0.6136  0.3551 -0.1515
 7048SOL    HW132606   2.692   3.375   5.510  1.5027  1.4180 -1.1666
 7048SOL    HW232607   2.731   3.326   5.378  4.0226  0.0657 -0.4361
 7049SOL     OW32608   4.368   4.485   3.390  0.0695 -0.4935  0.7171
 7049SOL    HW132609   4.290   4.474   3.336 -0.1553  1.3225  0.6502
 7049SOL    HW232610   4.443   4.470   3.333  0.2229 -2.0126  1.3231
 7050SOL     OW32611   4.237   2.636   1.982 -0.3538 -0.1634 -0.0097
 7050SOL    HW132612   4.235   2.689   1.903 -1.3504  0.3427  0.3482
 7050SOL    HW232613   4.147   2.603   1.978 -0.3803 -0.4377  2.7840
 7051SOL     OW32614   3.941   3.573   4.124  0.4783 -0.4997 -0.6106
 7051SOL    HW132615   3.965   3.646   4.067  1.1119  1.2147  1.8895
 7051SOL    HW232616   3.882   3.613   4.188 -0.1416 -1.8416 -0.3434
 7052SOL     OW32617   4.675   2.212   7.666 -0.5682 -0.3686  0.8871
 7052SOL    HW132618   4.653   2.119   7.667 -0.9099 -0.3438 -2.1049
 7052SOL    HW232619   0.015   2.213   7.597 -1.8223 -1.4502 -0.3359
 7053SOL     OW32620   0.248   2.466  17.347  0.1681 -0.1550 -0.3572
 7053SOL    HW132621   0.178   2.433  17.404  0.3503  0.8328  0.4326
 7053SOL    HW232622   0.315   2.398  17.349 -1.2723 -1.5972 -0.9467
 7054SOL     OW32623   2.551   0.278   7.869 -0.1751 -0.3357 -0.6153
 7054SOL    HW132624   2.478   0.301   7.926 -0.4941 -0.9427 -0.7879
 7054SOL    HW232625   2.619   0.342   7.893  0.0251 -0.0204 -1.9696
 7055SOL     OW32626   4.690   2.174   0.972  0.5463 -0.0797  0.7173
 7055SOL    HW132627   4.671   2.129   1.055 -0.9651 -1.0486 -0.1603
 7055SOL    HW232628   4.723   2.261   0.998 -0.8657  0.7586 -0.3163
 7056SOL     OW32629   1.309   2.531   7.910 -0.2877 -0.0767  0.0196
 7056SOL    HW132630   1.311   2.626   7.902  1.1755 -0.0154  1.0340
 7056SOL    HW232631   1.221   2.519   7.946 -0.6034  1.7021 -0.1713
 7057SOL     OW32632   3.668   2.768   5.747  0.2861 -0.5973 -0.6338
 7057SOL    HW132633   3.738   2.753   5.684 -0.4594  1.3469 -1.9306
 7057SOL    HW232634   3.655   2.860   5.722  2.5602  0.3254  1.5464
 7058SOL     OW32635   4.637   0.414   9.374  0.6832 -0.1085  0.3080
 7058SOL    HW132636   4.560   0.465   9.350 -0.0682 -2.4563 -2.3124
 7058SOL    HW232637   4.709   0.465   9.337 -0.7306  1.1404 -0.6897
 7059SOL     OW32638   0.667   0.785   8.489  0.4056  0.2972 -0.1317
 7059SOL    HW132639   0.734   0.811   8.552 -0.1412  2.1799 -0.3238
 7059SOL    HW232640   0.664   0.692   8.513 -1.2036  0.1462 -0.9152
 7060SOL     OW32641   0.202   0.370  13.267  0.3934  0.8662 -0.1663
 7060SOL    HW132642   0.110   0.389  13.252 -0.4063 -2.6901  0.2886
 7060SOL    HW232643   0.204   0.296  13.207 -0.0787  0.1313  0.7393
 7061SOL     OW32644   3.988   1.777  15.284 -0.1906 -0.1539  0.3822
 7061SOL    HW132645   3.910   1.734  15.319 -0.0084 -2.1669 -1.6734
 7061SOL    HW232646   4.045   1.704  15.259 -1.1667 -0.7421 -0.1582
 7062SOL     OW32647   1.062   1.796   1.831  0.1284  0.2684 -0.1539
 7062SOL    HW132648   1.066   1.777   1.925 -2.1691  1.5821  0.1903
 7062SOL    HW232649   1.032   1.886   1.843  0.1605  0.1723  0.6359
 7063SOL     OW32650   1.824   1.377   5.465  0.0134 -0.1549 -0.4484
 7063SOL    HW132651   1.839   1.446   5.400 -0.4200 -0.9675 -1.4109
 7063SOL    HW232652   1.898   1.318   5.448 -0.5288 -0.6667 -1.0087
 7064SOL     OW32653   4.702   0.556  11.302  0.2416  0.2798 -0.4962
 7064SOL    HW132654   0.044   0.496  11.272  1.5688  1.6903 -0.3063
 7064SOL    HW232655   0.014   0.567  11.389 -2.4319  0.6893  0.6276
 7065SOL     OW32656   0.818   0.306  13.585 -0.5911 -0.0004  0.4300
 7065SOL    HW132657   0.823   0.265  13.671  1.2324  0.4190  0.5190
 7065SOL    HW232658   0.888   0.370  13.595 -1.2339  0.4874  1.8480
 7066SOL     OW32659   1.128   1.376   7.628  0.6566 -0.2915  0.3089
 7066SOL    HW132660   1.190   1.445   7.608  0.4139 -0.2340 -0.2382
 7066SOL    HW232661   1.158   1.309   7.567  2.6255  1.2501 -0.3808
 7067SOL     OW32662   3.198   0.668   4.076  0.4130 -0.0782 -0.7018
 7067SOL    HW132663   3.284   0.659   4.118  0.4208 -2.8423 -1.3244
 7067SOL    HW232664   3.203   0.759   4.044  1.5528  0.2685  0.4809
 7068SOL     OW32665   2.826   0.103  12.738 -0.5988  0.2309 -0.4454
 7068SOL    HW132666   2.779   0.144  12.665 -0.6986  1.7681  0.4771
 7068SOL    HW232667   2.868   0.027  12.700 -0.1731  0.8887 -1.2937
 7069SOL     OW32668   2.770   0.751   4.541 -0.0922  0.8800 -0.0883
 7069SOL    HW132669   2.809   0.754   4.454  0.8874 -1.9428  0.2274
 7069SOL    HW232670   2.745   0.841   4.558 -3.9515 -0.5924  1.9111
 7070SOL     OW32671   4.301   0.524   2.990  0.3018 -0.1225 -0.0208
 7070SOL    HW132672   4.293   0.429   2.976  3.7820 -0.4864  0.4922
 7070SOL    HW232673   4.254   0.560   2.915  0.3477  2.6635  1.2973
 7071SOL     OW32674   0.778   0.761  15.210  0.5800 -0.2824 -0.2289
 7071SOL    HW132675   0.750   0.834  15.266 -3.2887 -1.8481 -0.1300
 7071SOL    HW232676   0.776   0.691  15.276  0.6207  0.2633  0.3507
 7072SOL     OW32677   4.119   3.790   5.333 -0.3034  0.4988  0.2856
 7072SOL    HW132678   4.127   3.878   5.371  0.5656  0.6452 -0.2210
 7072SOL    HW232679   4.025   3.785   5.318 -0.2818 -0.3709  0.4106
 7073SOL     OW32680   3.797   1.452   9.158 -0.1366 -0.1665  0.7141
 7073SOL    HW132681   3.871   1.431   9.100 -1.0956  1.1678 -0.9898
 7073SOL    HW232682   3.808   1.382   9.222 -1.8506  0.0155  1.2125
 7074SOL     OW32683   0.540   3.513   1.577 -0.0460 -0.1772 -0.1980
 7074SOL    HW132684   0.450   3.488   1.559 -0.7421  1.0474  1.6110
 7074SOL    HW232685   0.575   3.450   1.640 -0.8205  0.1040  0.5036
 7075SOL     OW32686   3.185   3.622   1.941 -0.4208  0.2691  0.0578
 7075SOL    HW132687   3.220   3.628   1.852 -1.4274 -1.4387 -0.4407
 7075SOL    HW232688   3.237   3.547   1.969  1.2231  1.2738 -0.3094
 7076SOL     OW32689   0.404   3.783   4.745  0.3874 -0.0996 -0.4231
 7076SOL    HW132690   0.457   3.703   4.747 -2.6074 -2.1171 -1.0529
 7076SOL    HW232691   0.316   3.744   4.737 -0.5943  1.9858  0.1627
 7077SOL     OW32692   1.433   0.783   8.481 -0.5533 -0.2443 -0.1066
 7077SOL    HW132693   1.350   0.811   8.442 -2.2671 -2.9748  1.5645
 7077SOL    HW232694   1.452   0.845   8.551  1.3380 -0.7703 -0.1603
 7078SOL     OW32695   3.985   0.567   3.021 -0.6400  0.7315  0.2570
 7078SOL    HW132696   4.066   0.613   3.040 -1.1478  1.6261  0.2515
 7078SOL    HW232697   3.957   0.625   2.950  0.3079 -0.3982 -1.0411
 7079SOL     OW32698   3.114   2.904   7.101 -0.2313  0.0830 -0.1485
 7079SOL    HW132699   3.201   2.891   7.137 -0.8295  0.3611  1.3979
 7079SOL    HW232700   3.083   2.960   7.172  0.5370 -3.2547  2.7874
 7080SOL     OW32701   1.450   3.815   8.966 -0.0454 -0.3364  0.2650
 7080SOL    HW132702   1.385   3.789   8.901  1.8638  0.7027 -2.0559
 7080SOL    HW232703   1.514   3.850   8.904 -0.0595 -3.4466 -1.5231
 7081SOL     OW32704   4.051   0.172   5.246  0.1002  0.0212  0.5784
 7081SOL    HW132705   3.988   0.129   5.305  0.2621 -0.6399  0.2745
 7081SOL    HW232706   4.000   0.177   5.165  1.9646  0.3034 -0.5763
 7082SOL     OW32707   1.182   3.022  10.538  0.4976  0.2995  0.0722
 7082SOL    HW132708   1.244   3.076  10.490  0.1451  0.8196  0.1996
 7082SOL    HW232709   1.219   2.934  10.533 -0.1621  0.0699 -0.8887
 7083SOL     OW32710   2.163   3.114  12.913  0.2404 -0.7454 -0.3861
 7083SOL    HW132711   2.214   3.043  12.951 -0.5333 -0.8836  0.3734
 7083SOL    HW232712   2.178   3.188  12.972  0.2653 -0.6901 -0.4606
 7084SOL     OW32713   1.540   0.020   3.094 -0.0009 -0.0435  0.0034
 7084SOL    HW132714   1.511   4.679   3.033 -0.7705 -0.3028  0.6405
 7084SOL    HW232715   1.469   0.022   3.159 -0.4311  2.1917 -0.5359
 7085SOL     OW32716   1.772   1.434   2.139  0.3803  0.0059  0.2511
 7085SOL    HW132717   1.742   1.375   2.069  0.8361 -0.5061  0.4892
 7085SOL    HW232718   1.716   1.411   2.213  0.0225 -0.4334 -0.1528
 7086SOL     OW32719   3.853   2.528   7.967 -0.0311 -0.3977 -0.3949
 7086SOL    HW132720   3.767   2.548   7.930 -0.0380  1.2739  0.5085
 7086SOL    HW232721   3.889   2.475   7.896 -1.3293 -0.0502 -1.2993
 7087SOL     OW32722   3.630   2.375   9.911 -0.6162  0.2715  0.6741
 7087SOL    HW132723   3.591   2.309   9.854  1.2421 -1.6551  1.6125
 7087SOL    HW232724   3.718   2.384   9.876 -1.6034 -2.1935 -2.4460
 7088SOL     OW32725   1.565   1.105  15.179 -0.3181  0.3503  0.0009
 7088SOL    HW132726   1.554   1.076  15.270  3.6669 -2.7851 -0.4904
 7088SOL    HW232727   1.608   1.187  15.203  1.4734 -0.9364  1.2505
 7089SOL     OW32728   1.777   2.398   6.141  0.0626  0.0498  0.8150
 7089SOL    HW132729   1.707   2.434   6.087 -0.2077 -1.9577 -0.1828
 7089SOL    HW232730   1.836   2.358   6.078  0.0329  0.9876  0.1990
 7090SOL     OW32731   1.286   1.403   3.562  0.4998  0.5027  0.2490
 7090SOL    HW132732   1.236   1.405   3.480  0.2860  1.3282  0.4011
 7090SOL    HW232733   1.289   1.309   3.582  1.9449  1.1705  3.1047
 7091SOL     OW32734   0.497   1.920   4.165  0.1288  0.3590 -0.1715
 7091SOL    HW132735   0.570   1.922   4.104 -1.2516 -2.2036 -1.9324
 7091SOL    HW232736   0.472   2.012   4.159 -0.9617  0.1768  1.3783
 7092SOL     OW32737   0.814   2.181   8.837  0.0553 -0.4266 -0.2891
 7092SOL    HW132738   0.887   2.225   8.880 -0.6631 -0.5937  1.0968
 7092SOL    HW232739   0.769   2.151   8.916  1.3447 -0.4037  0.4359
 7093SOL     OW32740   1.781   0.480   1.356  0.2279 -0.1013  0.1841
 7093SOL    HW132741   1.853   0.543   1.368  1.2050 -1.4177  1.2760
 7093SOL    HW232742   1.811   0.406   1.409 -3.1087  0.3492  2.6734
 7094SOL     OW32743   1.525   2.298   1.992  0.2821 -0.3175 -0.2148
 7094SOL    HW132744   1.483   2.213   2.003  0.7868 -0.5137  0.1940
 7094SOL    HW232745   1.564   2.298   1.904 -1.5997  1.9172 -1.0479
 7095SOL     OW32746   0.694   0.353  11.090 -0.1090 -0.0135  0.3282
 7095SOL    HW132747   0.721   0.261  11.093  1.1607  0.3230 -0.6423
 7095SOL    HW232748   0.765   0.380  11.032 -1.8035  0.1604 -1.6358
 7096SOL     OW32749   0.115   2.669   8.688  0.4162 -0.1769  0.3000
 7096SOL    HW132750   0.153   2.650   8.602  2.3803  0.7581  0.9795
 7096SOL    HW232751   0.170   2.733   8.733  0.7460 -0.1632 -0.1207
 7097SOL     OW32752   1.200   3.921  15.380 -0.7368 -0.3967 -0.0985
 7097SOL    HW132753   1.295   3.915  15.372 -0.5964  1.0777  0.4857
 7097SOL    HW232754   1.199   3.835  15.421  1.0814 -0.0788  0.5932
 7098SOL     OW32755   3.236   0.859  13.021  0.4614 -0.0574 -0.0997
 7098SOL    HW132756   3.220   0.775  13.063 -1.3940  1.5994  2.4925
 7098SOL    HW232757   3.324   0.847  12.984 -0.6246  0.3185 -2.8027
 7099SOL     OW32758   0.720   2.459   2.809 -0.2447  0.2424 -0.4666
 7099SOL    HW132759   0.727   2.364   2.821 -0.2449  0.0968 -1.6368
 7099SOL    HW232760   0.789   2.479   2.746  0.0355 -1.6948 -0.7993
 7100SOL     OW32761   1.115   0.773  10.233 -0.2652  0.0659  0.1928
 7100SOL    HW132762   1.085   0.832  10.164  0.6358 -0.8638 -0.9881
 7100SOL    HW232763   1.032   0.746  10.272  1.9300 -1.1115  4.0841
 7101SOL     OW32764   4.319   2.195  10.927  0.4449  0.4625 -0.1126
 7101SOL    HW132765   4.336   2.105  10.956 -0.2751  0.3676 -0.0008
 7101SOL    HW232766   4.407   2.226  10.949  0.2657  1.2330 -0.4644
 7102SOL     OW32767   0.403   4.075   4.716  0.0253 -0.2917  0.2427
 7102SOL    HW132768   0.432   3.991   4.751 -0.5553 -0.7397 -0.3456
 7102SOL    HW232769   0.354   4.035   4.644 -0.4320  4.5852 -2.1345
 7103SOL     OW32770   2.555   3.384   4.363 -0.5869  0.0985 -0.1707
 7103SOL    HW132771   2.531   3.429   4.282 -0.5306 -0.9092 -0.7445
 7103SOL    HW232772   2.601   3.451   4.413 -0.1054 -1.1410  1.0544
 7104SOL     OW32773   4.536   1.486  12.035 -0.4495 -0.2366  0.1409
 7104SOL    HW132774   4.464   1.429  12.004 -0.6337  0.0020  0.1312
 7104SOL    HW232775   4.602   1.454  11.973 -0.2792  4.2550 -1.9573
 7105SOL     OW32776   1.077   4.392   5.653 -0.0207 -0.4342  0.2484
 7105SOL    HW132777   1.007   4.452   5.627 -1.4786 -2.7147 -1.0483
 7105SOL    HW232778   1.131   4.440   5.716 -2.0003 -1.1147  2.4826
 7106SOL     OW32779   2.241   2.553  14.776 -0.0995  0.0545 -0.0299
 7106SOL    HW132780   2.321   2.520  14.735 -0.5948 -0.7943 -0.3137
 7106SOL    HW232781   2.237   2.645  14.747  1.3147  0.6902  1.8256
 7107SOL     OW32782   4.684   1.035  10.985  0.3660  0.0635 -0.5302
 7107SOL    HW132783   4.664   0.970  11.052  2.0878 -2.6021 -2.6561
 7107SOL    HW232784   4.637   0.989  10.915 -1.4708  0.0720  0.6980
 7108SOL     OW32785   3.401   3.979   3.260  0.6675  0.4211  0.1483
 7108SOL    HW132786   3.399   3.908   3.324  1.9608 -0.0223 -0.3080
 7108SOL    HW232787   3.403   3.923   3.182 -0.5094 -1.0865  1.2034
 7109SOL     OW32788   3.127   3.934  11.424  0.6115 -0.0894  0.2852
 7109SOL    HW132789   3.209   3.907  11.467  2.2821  2.6698 -1.1386
 7109SOL    HW232790   3.158   3.964  11.339 -0.2704 -0.2765 -0.0996
 7110SOL     OW32791   0.269   0.408   5.959 -0.2951 -0.2656 -0.4588
 7110SOL    HW132792   0.174   0.415   5.975 -0.3227 -0.3149 -0.5995
 7110SOL    HW232793   0.314   0.412   6.043  1.8921 -1.7037 -1.5915
 7111SOL     OW32794   3.981   2.965   2.483  0.1534 -0.1538  0.1303
 7111SOL    HW132795   4.012   2.883   2.443  0.3278  1.2433 -2.5685
 7111SOL    HW232796   3.988   2.938   2.575  1.7157  1.3746  0.4770
 7112SOL     OW32797   2.199   0.673   9.719  0.1349  0.4119 -0.2685
 7112SOL    HW132798   2.182   0.591   9.674 -1.0240 -0.0471  0.9891
 7112SOL    HW232799   2.141   0.735   9.676 -3.8917 -1.4239  2.5543
 7113SOL     OW32800   1.564   4.256   7.672  0.0147  0.4863 -0.0721
 7113SOL    HW132801   1.521   4.259   7.757  0.8213 -2.0673  0.4344
 7113SOL    HW232802   1.514   4.317   7.619  2.4250  0.0982 -2.8109
 7114SOL     OW32803   1.574   3.677   6.631 -0.4915  0.3073 -0.0670
 7114SOL    HW132804   1.634   3.635   6.570  0.6294  3.8750 -1.4448
 7114SOL    HW232805   1.536   3.602   6.677  2.3605 -1.1940 -0.1649
 7115SOL     OW32806   4.300   0.108   9.968  0.0764  0.2493 -0.4461
 7115SOL    HW132807   4.325   0.031   9.916  1.3812  1.2489 -1.3022
 7115SOL    HW232808   4.205   0.104   9.962  0.0679 -2.5561  1.3915
 7116SOL     OW32809   1.519   2.261  10.608  0.0985 -0.0589 -0.1620
 7116SOL    HW132810   1.499   2.265  10.515 -0.3863 -2.0407 -0.1425
 7116SOL    HW232811   1.599   2.313  10.602 -0.6099  0.8787 -1.3463
 7117SOL     OW32812   2.630   0.071   5.124  0.4845  0.1220 -0.1307
 7117SOL    HW132813   2.554   0.032   5.166  2.4750 -1.4290  1.9780
 7117SOL    HW232814   2.700   0.011   5.151  0.2710  0.4218  1.0744
 7118SOL     OW32815   4.718   0.598  12.777 -0.2735  0.0937 -0.1819
 7118SOL    HW132816   0.031   0.685  12.778  1.6793 -0.7908 -1.8111
 7118SOL    HW232817   4.693   0.586  12.868  1.8159  1.6029  0.5763
 7119SOL     OW32818   1.449   2.930  12.194  0.1215 -0.1539  0.3971
 7119SOL    HW132819   1.408   2.914  12.109  0.5462 -0.2218  0.2069
 7119SOL    HW232820   1.426   3.022  12.205 -0.3460 -0.3394  0.9974
 7120SOL     OW32821   2.610   3.417   7.585 -0.5047 -0.3615  0.0858
 7120SOL    HW132822   2.577   3.329   7.602 -1.2765 -0.4984 -2.2022
 7120SOL    HW232823   2.609   3.452   7.674  0.9301  1.1333 -0.4896
 7121SOL     OW32824   3.211   0.948  13.702 -0.3715 -0.0396  0.2928
 7121SOL    HW132825   3.155   0.966  13.777 -0.1710 -2.5793  1.0535
 7121SOL    HW232826   3.147   0.900  13.649  1.0543 -0.1739 -1.3353
 7122SOL     OW32827   1.550   0.182   7.454 -0.2194 -0.1656  0.4735
 7122SOL    HW132828   1.612   0.254   7.443  0.0135 -0.4841 -0.2973
 7122SOL    HW232829   1.501   0.179   7.371 -2.9323  0.5882  2.0616
 7123SOL     OW32830   4.604   2.124   3.256  0.2710 -0.1602 -0.5406
 7123SOL    HW132831   4.567   2.120   3.168  1.0077  1.0459 -0.9094
 7123SOL    HW232832   4.631   2.032   3.258 -0.1464 -0.2644  0.4270
 7124SOL     OW32833   3.932   1.078   2.628 -0.2657 -0.3589  0.1482
 7124SOL    HW132834   3.922   1.168   2.598  0.7534 -0.4697 -0.5377
 7124SOL    HW232835   3.868   1.027   2.579  0.6291 -2.9695  1.6589
 7125SOL     OW32836   0.279   2.443  11.195  1.0956  0.5183 -0.2976
 7125SOL    HW132837   0.358   2.389  11.201  0.7956  0.4174  2.7179
 7125SOL    HW232838   0.315   2.521  11.152 -0.3901  2.2315  1.5814
 7126SOL     OW32839   1.274   2.810   2.470 -0.8851 -0.3523 -0.3566
 7126SOL    HW132840   1.285   2.889   2.417  1.4787 -0.5200 -0.1490
 7126SOL    HW232841   1.214   2.847   2.534  0.9240  2.2858 -0.1814
 7127SOL     OW32842   4.360   2.173   8.178  0.0692  0.3955  0.0644
 7127SOL    HW132843   4.332   2.215   8.259 -0.6174 -1.8894  1.0172
 7127SOL    HW232844   4.433   2.233   8.157  1.0727 -0.8331  0.0353
 7128SOL     OW32845   0.930   4.555   3.751 -0.1874 -0.3567 -0.1148
 7128SOL    HW132846   0.930   4.643   3.790  2.1500 -1.0208  1.4044
 7128SOL    HW232847   0.842   4.535   3.781 -0.4157  2.8160  1.3893
 7129SOL     OW32848   0.724   2.065   6.144  0.1458  0.4731 -0.8271
 7129SOL    HW132849   0.647   2.015   6.171  1.1472 -1.0907 -0.8511
 7129SOL    HW232850   0.785   2.028   6.207 -0.4585 -0.4893 -0.8096
 7130SOL     OW32851   4.186   0.474  16.895  0.7469 -0.2499  0.1261
 7130SOL    HW132852   4.190   0.431  16.981  0.7924  0.3609  0.4310
 7130SOL    HW232853   4.090   0.484  16.894  0.6345 -1.5336 -0.7903
 7131SOL     OW32854   3.568   3.267   5.329  0.2860  0.5592  0.4654
 7131SOL    HW132855   3.524   3.340   5.372  0.3291 -0.4628  2.2656
 7131SOL    HW232856   3.659   3.273   5.358  0.0013 -0.0737  1.4889
 7132SOL     OW32857   3.970   2.509   4.104 -0.0775  0.3107  0.2625
 7132SOL    HW132858   3.891   2.562   4.094 -0.4806 -0.4625 -0.5982
 7132SOL    HW232859   4.001   2.543   4.189 -0.1094 -0.1481  0.4560
 7133SOL     OW32860   2.896   4.242   4.529 -0.1956 -0.2162 -0.0316
 7133SOL    HW132861   2.967   4.298   4.498 -0.2230  0.2586  0.7677
 7133SOL    HW232862   2.828   4.309   4.533 -0.5377 -0.6361  1.1912
 7134SOL     OW32863   0.284   4.162   6.794  0.4043  0.0502  0.3906
 7134SOL    HW132864   0.323   4.182   6.879  1.4306  0.5953 -0.2149
 7134SOL    HW232865   0.220   4.233   6.798 -0.1130 -0.4453  0.9806
 7135SOL     OW32866   1.177   4.389   8.922  0.1677 -0.2467 -0.0716
 7135SOL    HW132867   1.260   4.365   8.962  1.3255  0.6639 -1.9057
 7135SOL    HW232868   1.114   4.362   8.988  1.5512  0.1117  1.3778
 7136SOL     OW32869   1.855   2.617  13.131  0.0224 -0.3417 -0.9686
 7136SOL    HW132870   1.801   2.586  13.204 -1.1536  2.8570 -0.4907
 7136SOL    HW232871   1.840   2.712  13.127  0.5061 -0.2528 -0.6541
 7137SOL     OW32872   4.691   1.810   4.130  0.2094  0.4035 -0.1810
 7137SOL    HW132873   4.723   1.901   4.128  1.3479  0.0152  0.0904
 7137SOL    HW232874   4.630   1.815   4.204 -0.4229  0.5424 -0.7155
 7138SOL     OW32875   3.684   2.658   0.851  0.4057 -0.2559  0.0369
 7138SOL    HW132876   3.590   2.648   0.835  0.8937 -1.4157 -2.1650
 7138SOL    HW232877   3.704   2.730   0.791 -3.3878  0.3960 -0.4382
 7139SOL     OW32878   3.742   3.947   5.957  0.4164 -0.3769  0.1585
 7139SOL    HW132879   3.695   3.964   5.875  2.5295 -1.8423 -1.3865
 7139SOL    HW232880   3.677   3.893   6.000 -1.1890  3.9751  3.1629
 7140SOL     OW32881   3.852   3.576  14.297 -0.4367 -0.0859 -0.0757
 7140SOL    HW132882   3.821   3.592  14.386  1.7696  1.4515  0.4165
 7140SOL    HW232883   3.885   3.665  14.280 -1.6391  0.8204  2.4332
 7141SOL     OW32884   3.842   3.974   4.191  0.3837 -0.2364 -0.2111
 7141SOL    HW132885   3.820   3.881   4.199 -0.7460  0.1856  1.4922
 7141SOL    HW232886   3.768   4.010   4.142  0.1874 -1.1697 -0.5990
 7142SOL     OW32887   2.331   2.381   1.819  0.0781 -0.4859  0.1267
 7142SOL    HW132888   2.355   2.338   1.737  0.9388  1.4512 -0.6338
 7142SOL    HW232889   2.422   2.399   1.842  0.8056 -0.5836 -2.6450
 7143SOL     OW32890   2.970   3.991   6.004 -0.1615 -0.3851 -0.3961
 7143SOL    HW132891   3.042   3.929   5.986 -0.8745 -1.1209 -0.7160
 7143SOL    HW232892   2.967   3.988   6.099  0.9920 -1.4056 -0.3821
 7144SOL     OW32893   2.694   1.189   9.026 -0.0795  0.3639  0.5301
 7144SOL    HW132894   2.662   1.267   9.071 -2.1559  0.7697 -1.6470
 7144SOL    HW232895   2.615   1.136   9.018  0.2130  0.1024 -0.6362
 7145SOL     OW32896   4.329   3.042  10.525 -0.3898 -0.3391  0.1769
 7145SOL    HW132897   4.313   2.951  10.499 -0.4233 -0.6902  1.4592
 7145SOL    HW232898   4.419   3.050  10.493 -0.2671  3.0669  1.3261
 7146SOL     OW32899   0.747   0.844   5.280 -0.4206 -0.1375 -0.3107
 7146SOL    HW132900   0.801   0.781   5.231 -0.8149  0.8126 -1.9583
 7146SOL    HW232901   0.770   0.810   5.367 -2.7066 -1.0258 -0.0720
 7147SOL     OW32902   2.832   1.436   9.241 -0.2009  0.1840 -0.0102
 7147SOL    HW132903   2.862   1.345   9.244 -0.2089  0.2493  2.3454
 7147SOL    HW232904   2.768   1.440   9.312  0.0941 -2.8589  0.4342
 7148SOL     OW32905   0.621   1.447   4.984 -0.6629  0.3693 -0.2653
 7148SOL    HW132906   0.534   1.481   4.963 -1.5047  0.3125  3.2539
 7148SOL    HW232907   0.645   1.401   4.903  0.7775 -0.8206  0.8356
 7149SOL     OW32908   0.475   1.412   5.687  0.0218 -0.1494  1.1941
 7149SOL    HW132909   0.553   1.389   5.636 -0.8063 -1.8097  0.6908
 7149SOL    HW232910   0.502   1.393   5.777  0.4559  0.4029  1.1854
 7150SOL     OW32911   1.291   3.241   5.361  0.4981 -0.0264  0.2773
 7150SOL    HW132912   1.277   3.258   5.454  0.4859  1.9581 -0.0822
 7150SOL    HW232913   1.316   3.151   5.381  0.5571 -0.2995 -1.0255
 7151SOL     OW32914   3.587   3.580   7.743 -0.3384  0.8983  0.5459
 7151SOL    HW132915   3.672   3.536   7.746  0.2564  1.8677 -1.6391
 7151SOL    HW232916   3.549   3.552   7.826 -2.0787  4.4583  0.9481
 7152SOL     OW32917   0.282   4.204   9.582 -0.1521  0.5709  0.5168
 7152SOL    HW132918   0.363   4.181   9.629 -0.2487 -2.2720 -0.6886
 7152SOL    HW232919   0.268   4.290   9.620  1.5919  0.9861  0.2287
 7153SOL     OW32920   4.477   0.257   3.221 -0.2238 -0.0403 -0.1247
 7153SOL    HW132921   4.446   0.188   3.161 -0.8009  1.4244 -1.5062
 7153SOL    HW232922   4.405   0.272   3.283  0.5227  1.7492  0.2963
 7154SOL     OW32923   1.539   1.467   7.486  0.2597 -1.1915 -0.2525
 7154SOL    HW132924   1.463   1.503   7.532  0.7161  1.9912 -1.9734
 7154SOL    HW232925   1.517   1.375   7.498  2.1798 -1.5314  0.6659
 7155SOL     OW32926   3.313   0.850   0.751 -0.0318 -0.4177  0.1836
 7155SOL    HW132927   3.353   0.899   0.679 -0.5630 -0.7310 -0.3312
 7155SOL    HW232928   3.220   0.853   0.725  0.6803 -1.9077 -2.5399
 7156SOL     OW32929   3.115   3.619  17.628 -0.0476 -0.1472  0.0868
 7156SOL    HW132930   3.052   3.656  17.566  0.3326  1.4008  0.6194
 7156SOL    HW232931   3.070   3.657  17.703 -0.5335  0.3611 -0.4605
 7157SOL     OW32932   2.879   2.082  11.874 -0.3093  0.2092  0.1125
 7157SOL    HW132933   2.831   1.999  11.877  0.9309 -0.5785 -1.9294
 7157SOL    HW232934   2.818   2.155  11.883 -0.0796  0.6228 -1.6703
 7158SOL     OW32935   4.498   3.152   3.352 -0.2823 -0.0096 -0.4995
 7158SOL    HW132936   4.569   3.158   3.415 -1.6539  2.5258  0.8394
 7158SOL    HW232937   4.459   3.070   3.381 -1.5862  1.1043  0.9257
 7159SOL     OW32938   4.587   1.613   6.786 -0.1323 -0.2400 -0.3872
 7159SOL    HW132939   4.657   1.592   6.725  1.0117  0.2040  0.7720
 7159SOL    HW232940   4.625   1.577   6.866 -1.0551 -0.3645 -0.0051
 7160SOL     OW32941   2.624   1.843  12.323  0.2612 -0.3977 -0.0866
 7160SOL    HW132942   2.624   1.927  12.277 -3.6416  0.8887  2.2479
 7160SOL    HW232943   2.531   1.821  12.325  0.2994 -0.4440  1.5064
 7161SOL     OW32944   3.372   0.716  14.612  0.4926  0.3439  0.0527
 7161SOL    HW132945   3.367   0.766  14.531 -3.6819  1.1748  0.7973
 7161SOL    HW232946   3.353   0.634  14.568 -0.5139 -0.6746  2.4155
 7162SOL     OW32947   3.505   4.618   3.294 -0.3175  0.6267  0.1922
 7162SOL    HW132948   3.525   4.692   3.352 -0.8205  1.4610 -0.7193
 7162SOL    HW232949   3.411   4.623   3.278 -0.2550 -1.0346 -0.6193
 7163SOL     OW32950   3.251   2.773   2.831  0.1868  0.1940  0.0347
 7163SOL    HW132951   3.228   2.864   2.811  1.0219  0.4075  0.0439
 7163SOL    HW232952   3.221   2.732   2.750  1.2861  0.9658 -0.7515
 7164SOL     OW32953   3.824   1.365   9.651  0.2597  0.4484 -0.2184
 7164SOL    HW132954   3.841   1.289   9.596 -0.9372  1.6779 -2.2971
 7164SOL    HW232955   3.813   1.322   9.737  0.7544  1.7315  0.4797
 7165SOL     OW32956   2.843   2.768   6.462 -0.2032  0.0129  0.4412
 7165SOL    HW132957   2.833   2.687   6.412  1.2922  0.6484 -0.9012
 7165SOL    HW232958   2.844   2.830   6.389 -2.5960 -1.6517 -1.0112
 7166SOL     OW32959   2.470   3.421   2.911  0.6568  0.0804  0.0564
 7166SOL    HW132960   2.483   3.343   2.857  0.4071  0.1153 -0.0559
 7166SOL    HW232961   2.554   3.466   2.906  0.4498  0.2091 -2.6105
 7167SOL     OW32962   1.732   1.881   4.325  0.1494  0.3072 -0.2447
 7167SOL    HW132963   1.674   1.952   4.295 -0.3028 -0.4412 -1.1521
 7167SOL    HW232964   1.667   1.829   4.372  1.2769 -0.1797  0.7759
 7168SOL     OW32965   3.580   1.249   2.428 -0.1857 -0.5419  0.2877
 7168SOL    HW132966   3.663   1.225   2.387 -0.3244 -0.4223 -0.0617
 7168SOL    HW232967   3.587   1.201   2.510 -0.8800 -3.2749 -1.2490
 7169SOL     OW32968   1.615   1.643   8.577 -0.0616  0.7582  0.1747
 7169SOL    HW132969   1.530   1.659   8.536  1.1307  0.3757 -2.4490
 7169SOL    HW232970   1.644   1.734   8.580 -1.9750  1.3677  0.1635
 7170SOL     OW32971   3.837   0.319   3.538 -0.5006 -0.0516  0.1667
 7170SOL    HW132972   3.843   0.240   3.591  3.2630 -1.0504 -1.7178
 7170SOL    HW232973   3.867   0.285   3.454  0.8221 -0.5378  0.8364
 7171SOL     OW32974   0.513   2.146   7.493 -0.2887 -0.4312 -0.2197
 7171SOL    HW132975   0.539   2.237   7.504  0.8899 -0.9287  1.0859
 7171SOL    HW232976   0.495   2.143   7.399 -1.4402  1.6603 -0.0825
 7172SOL     OW32977   4.481   4.166   4.604  0.2520  0.0410 -0.2858
 7172SOL    HW132978   4.486   4.255   4.570  2.3759  0.0393 -0.0155
 7172SOL    HW232979   4.554   4.174   4.665 -0.2216 -0.5415  0.3596
 7173SOL     OW32980   0.075   4.318   4.978  0.6192 -0.5061  0.8778
 7173SOL    HW132981   0.160   4.362   4.986  0.6058  0.0509 -1.9772
 7173SOL    HW232982   0.037   4.332   5.065  1.8398  0.6879  1.2263
 7174SOL     OW32983   2.055   1.336   3.915 -0.4814  0.4717 -0.8712
 7174SOL    HW132984   2.007   1.372   3.990  1.3291 -3.4065  2.1545
 7174SOL    HW232985   2.005   1.257   3.896  1.5675 -1.4485  1.7377
 7175SOL     OW32986   1.125   2.439   3.206  0.0067  0.1162  0.8219
 7175SOL    HW132987   1.110   2.439   3.111 -1.3325  2.3417  1.0432
 7175SOL    HW232988   1.172   2.522   3.214  0.7574 -0.2938  0.7168
 7176SOL     OW32989   0.727   2.648  16.350  0.5186  0.3661  0.4584
 7176SOL    HW132990   0.803   2.690  16.308 -0.6676  0.7280 -1.3291
 7176SOL    HW232991   0.740   2.559  16.318  0.7350 -0.2047  2.1252
 7177SOL     OW32992   3.383   2.679   0.895 -0.0293 -0.0363 -0.1546
 7177SOL    HW132993   3.442   2.607   0.917  1.6124  1.8611  1.5548
 7177SOL    HW232994   3.331   2.680   0.975  0.7908  3.2070  0.3163
 7178SOL     OW32995   0.024   1.078   1.855 -0.2255  0.0276 -0.6059
 7178SOL    HW132996   4.713   0.994   1.881 -1.1719  1.2982  2.1318
 7178SOL    HW232997   4.669   1.126   1.851 -0.9168 -1.2149 -1.6684
 7179SOL     OW32998   1.082   2.282  12.874 -0.5453 -0.2387 -0.0685
 7179SOL    HW132999   1.174   2.262  12.857 -0.6187  1.1245 -2.1659
 7179SOL    HW233000   1.033   2.210  12.833  0.4197 -0.5865 -0.5998
 7180SOL     OW33001   2.867   1.169   8.026  0.1883  0.4556 -0.2844
 7180SOL    HW133002   2.841   1.085   7.989  1.8641 -0.1065 -0.1974
 7180SOL    HW233003   2.868   1.143   8.118  1.9084  0.1609 -0.3882
 7181SOL     OW33004   3.868   4.551   0.047  0.2596 -0.4593 -0.6453
 7181SOL    HW133005   3.807   4.611   0.003 -2.1463 -2.0111  0.5565
 7181SOL    HW233006   3.849   4.575   0.138 -0.2177  0.3973 -0.9691
 7182SOL     OW33007   1.058   1.614   3.455  0.0430  0.2859  0.1231
 7182SOL    HW133008   1.082   1.662   3.375 -3.3370  0.4049 -0.8205
 7182SOL    HW233009   1.107   1.656   3.526 -0.1166 -1.9245  1.5244
 7183SOL     OW33010   3.803   2.271   8.094 -0.0626  0.0283  0.5979
 7183SOL    HW133011   3.823   2.351   8.045  0.9267 -1.3637 -1.2715
 7183SOL    HW233012   3.719   2.293   8.136 -1.2200 -2.2603 -0.5687
 7184SOL     OW33013   0.258   0.030   7.206  0.2597 -0.2763  0.3770
 7184SOL    HW133014   0.173   0.052   7.168  1.0156  1.0622 -0.5347
 7184SOL    HW233015   0.299   0.115   7.225  2.8057 -1.3471 -0.4054
 7185SOL     OW33016   1.944   4.504  14.239 -0.5846  0.3139 -0.0347
 7185SOL    HW133017   1.961   4.507  14.145  0.4172  0.8946  0.1725
 7185SOL    HW233018   2.034   4.491  14.270 -0.4971 -0.2881 -0.5382
 7186SOL     OW33019   2.558   1.710   5.178  0.5058  0.0463  0.1920
 7186SOL    HW133020   2.525   1.628   5.214  1.3843  0.4382  1.8790
 7186SOL    HW233021   2.586   1.760   5.255 -1.0612  0.0255  0.7744
 7187SOL     OW33022   2.439   3.621   2.301  0.6205 -0.7113  0.4050
 7187SOL    HW133023   2.393   3.569   2.235  1.9205 -0.4248 -0.7250
 7187SOL    HW233024   2.363   3.673   2.326  2.0444  0.0445  3.1766
 7188SOL     OW33025   3.562   4.465   7.066  0.2552 -0.0281 -0.4854
 7188SOL    HW133026   3.633   4.470   7.129  0.5425 -0.4713 -0.7748
 7188SOL    HW233027   3.574   4.555   7.035 -2.8577  0.4178 -0.4323
 7189SOL     OW33028   0.433   2.181   4.523  0.0070 -0.1790  0.4667
 7189SOL    HW133029   0.399   2.140   4.443  0.3360 -0.1313  0.3009
 7189SOL    HW233030   0.523   2.192   4.493 -0.5301  1.9880 -0.3091
 7190SOL     OW33031   1.929   1.256  11.052 -0.4105 -0.1260  0.2362
 7190SOL    HW133032   1.852   1.265  10.996 -1.2356  1.2186  1.5872
 7190SOL    HW233033   1.963   1.344  11.035 -2.3783  0.6125  0.1535
 7191SOL     OW33034   4.105   2.523   7.265  0.2234 -0.3974 -0.2424
 7191SOL    HW133035   4.154   2.447   7.294  0.3829 -0.0772  0.3372
 7191SOL    HW233036   4.024   2.498   7.310 -0.6197  0.8473 -1.0472
 7192SOL     OW33037   1.081   1.082  16.428  0.4728 -0.0074  0.5035
 7192SOL    HW133038   1.151   1.023  16.398 -0.0322  0.4378 -1.5712
 7192SOL    HW233039   1.068   1.037  16.511 -1.2728  2.3395  1.5044
 7193SOL     OW33040   2.309   1.811  15.569  0.1013  0.5498  0.3836
 7193SOL    HW133041   2.366   1.871  15.520  0.1091  1.3740  1.4231
 7193SOL    HW233042   2.267   1.864  15.636 -0.3438 -0.2417  0.7238
 7194SOL     OW33043   1.757   0.582   5.707 -0.5355  0.2877  0.7413
 7194SOL    HW133044   1.834   0.640   5.712  0.5418 -1.1086  0.1950
 7194SOL    HW233045   1.697   0.630   5.650 -1.1546  0.3392  1.4342
 7195SOL     OW33046   4.648   4.219   3.017  0.2326  0.3264  0.1553
 7195SOL    HW133047   4.592   4.146   2.989  1.8432 -1.2622  1.0459
 7195SOL    HW233048   0.002   4.219   2.966 -1.2944  0.7489 -2.2286
 7196SOL     OW33049   2.162   0.450   6.102 -0.7476  0.3679  0.1750
 7196SOL    HW133050   2.110   0.522   6.067  0.6026  1.1031 -0.3189
 7196SOL    HW233051   2.240   0.502   6.119  0.0607  0.0843 -2.6212
 7197SOL     OW33052   2.709   0.702   3.717 -0.2115 -0.5572 -0.3904
 7197SOL    HW133053   2.625   0.744   3.698 -1.2377 -2.1496  0.6209
 7197SOL    HW233054   2.738   0.654   3.639 -0.2054 -0.8086 -0.2319
 7198SOL     OW33055   4.259   1.042   7.344 -0.4124 -0.2635 -0.2021
 7198SOL    HW133056   4.236   1.126   7.304  0.2539  0.3080  0.6401
 7198SOL    HW233057   4.256   1.077   7.433  0.8436 -0.0426 -0.2473
 7199SOL     OW33058   1.468   0.947   3.391  0.1653  0.4758 -0.3499
 7199SOL    HW133059   1.431   1.016   3.447  1.2227 -0.5762  1.6650
 7199SOL    HW233060   1.440   0.982   3.307  2.2785  0.5913 -1.0099
 7200SOL     OW33061   3.464   1.202   6.449 -0.0660 -0.5490 -0.2048
 7200SOL    HW133062   3.477   1.247   6.532 -0.9386  0.6127 -0.6991
 7200SOL    HW233063   3.392   1.142   6.471 -0.8181  1.2402  2.2084
 7201SOL     OW33064   1.252   3.319   1.846 -0.4404 -0.6464 -0.1883
 7201SOL    HW133065   1.265   3.405   1.887 -0.9185 -0.4915 -0.3633
 7201SOL    HW233066   1.191   3.277   1.906  0.2464 -0.6191  0.5372
 7202SOL     OW33067   3.306   2.968   8.180  0.1944 -0.4427  0.3342
 7202SOL    HW133068   3.221   3.013   8.176  0.8493  0.9512  2.2537
 7202SOL    HW233069   3.306   2.921   8.263  1.0428  1.2705  1.3078
 7203SOL     OW33070   1.488   1.193  10.751  0.4395 -0.2575  0.0180
 7203SOL    HW133071   1.412   1.243  10.782  0.9631  0.5883 -0.0701
 7203SOL    HW233072   1.497   1.128  10.821  0.7289  1.9048  1.9797
 7204SOL     OW33073   4.608   4.001  14.976  1.5250 -0.3733 -0.3369
 7204SOL    HW133074   4.647   4.068  14.919 -1.8940  2.2605  0.4098
 7204SOL    HW233075   4.677   3.935  14.976  1.1134 -0.8053  0.7187
 7205SOL     OW33076   4.540   1.112  14.671  0.5970 -0.5391 -0.4650
 7205SOL    HW133077   4.481   1.078  14.604 -0.5640 -2.1729  1.3883
 7205SOL    HW233078   4.557   1.048  14.740 -2.3414  0.7748  1.4711
 7206SOL     OW33079   0.076   4.367   3.559  0.2008  0.1853 -0.6310
 7206SOL    HW133080   0.122   4.388   3.478 -2.1231 -2.4779 -2.6474
 7206SOL    HW233081   4.727   4.425   3.560 -1.1586 -1.6180  2.0195
 7207SOL     OW33082   2.131   1.147   1.243 -0.6788 -0.1147 -0.0603
 7207SOL    HW133083   2.037   1.150   1.227 -0.7770 -0.2833  0.5032
 7207SOL    HW233084   2.133   1.146   1.339 -2.1499  0.3144 -0.0242
 7208SOL     OW33085   3.218   1.143   7.658  0.8143 -0.3458  0.5550
 7208SOL    HW133086   3.134   1.120   7.618  1.6240  0.6093 -1.6887
 7208SOL    HW233087   3.192   1.178   7.744  1.3785 -0.4994  0.7881
 7209SOL     OW33088   2.655   2.148   1.432 -0.1760  0.3841 -0.2988
 7209SOL    HW133089   2.735   2.134   1.483 -0.7209  1.9133  0.9707
 7209SOL    HW233090   2.668   2.242   1.419 -1.0210  0.4915 -0.3933
 7210SOL     OW33091   2.255   0.674   3.091 -0.4998  0.3426  0.4547
 7210SOL    HW133092   2.333   0.719   3.122  0.8880 -2.6211  1.2734
 7210SOL    HW233093   2.280   0.585   3.114  0.3912  0.5341  0.2209
 7211SOL     OW33094   0.572   4.706   5.820  0.1094 -0.0207 -0.2219
 7211SOL    HW133095   0.483   4.679   5.796 -0.2776  0.1328  1.0699
 7211SOL    HW233096   0.585   4.684   5.912  0.6217  1.7180  0.1072
 7212SOL     OW33097   2.068   2.835   4.428  0.1054 -0.1522  0.8797
 7212SOL    HW133098   2.117   2.753   4.435 -2.9655 -2.1417 -1.2946
 7212SOL    HW233099   2.119   2.909   4.460  1.3703 -0.6944  0.0942
 7213SOL     OW33100   1.715   0.751  17.058 -0.8091 -0.6992  0.2006
 7213SOL    HW133101   1.650   0.681  17.071  2.0172 -2.7957  2.9078
 7213SOL    HW233102   1.757   0.751  17.144 -2.8467 -0.3599  1.2066
 7214SOL     OW33103   2.040   1.822   6.318 -0.0584  0.2349 -0.2604
 7214SOL    HW133104   2.135   1.838   6.319 -0.0400  0.0565  0.3765
 7214SOL    HW233105   2.008   1.896   6.266  0.3803  1.2723  0.9512
 7215SOL     OW33106   0.269   2.097   1.082  0.7540 -0.0103 -0.4513
 7215SOL    HW133107   0.363   2.099   1.062  0.9686  1.7203  0.7279
 7215SOL    HW233108   0.242   2.171   1.028  0.5145  1.8734  2.2446
 7216SOL     OW33109   0.257   3.075   4.585 -0.0297  0.4362  0.3103
 7216SOL    HW133110   0.220   3.087   4.498  0.2845  0.0981  0.1300
 7216SOL    HW233111   0.221   2.991   4.613  0.2466  0.1764 -0.1047
 7217SOL     OW33112   0.549   1.094  17.038  0.5435 -0.1963  0.3573
 7217SOL    HW133113   0.642   1.108  17.022  0.5030  0.2356  0.4836
 7217SOL    HW233114   0.535   1.024  17.102  2.8531  0.1974  1.2760
 7218SOL     OW33115   0.530   1.068   8.880 -0.5625 -0.7240 -0.2975
 7218SOL    HW133116   0.568   1.153   8.902 -0.6786 -1.0833  1.2848
 7218SOL    HW233117   0.438   1.093   8.868 -0.6915  0.9372  3.9697
 7219SOL     OW33118   3.730   0.684   7.299  0.0997  1.1164 -0.2538
 7219SOL    HW133119   3.777   0.653   7.376 -1.1344 -1.7731 -0.6544
 7219SOL    HW233120   3.797   0.678   7.231  0.7849 -0.1837  0.5262
 7220SOL     OW33121   1.500   1.523  11.312 -0.3995 -0.4686 -0.3033
 7220SOL    HW133122   1.478   1.456  11.247  0.7365 -1.3542  0.2212
 7220SOL    HW233123   1.529   1.474  11.389  0.2151 -0.9686 -0.8455
 7221SOL     OW33124   0.428   0.225  16.643  0.0532  0.2568 -0.2287
 7221SOL    HW133125   0.520   0.250  16.643 -0.2982  1.5622  0.6653
 7221SOL    HW233126   0.383   0.251  16.724 -0.0118 -0.2212 -0.1104
 7222SOL     OW33127   4.709   2.465   6.776  0.0457 -0.1669 -0.1668
 7222SOL    HW133128   4.701   2.438   6.685  1.9312  1.3223 -0.7788
 7222SOL    HW233129   4.664   2.396   6.824 -0.6407 -1.2500 -2.3938
 7223SOL     OW33130   2.407   3.293   4.106 -0.1068  0.5548  0.2007
 7223SOL    HW133131   2.425   3.240   4.183 -0.2974 -0.8593 -0.7292
 7223SOL    HW233132   2.349   3.230   4.064 -0.2548  0.7482  0.1133
 7224SOL     OW33133   0.692   1.745   5.543 -0.0638  0.7122  0.0880
 7224SOL    HW133134   0.777   1.721   5.581 -0.1711  1.3159  0.6929
 7224SOL    HW233135   0.643   1.777   5.618  1.9682  0.1323  1.6694
 7225SOL     OW33136   3.618   3.251   3.505  0.2577  0.1095  0.0096
 7225SOL    HW133137   3.575   3.170   3.479  0.8855  0.3339 -1.7673
 7225SOL    HW233138   3.677   3.226   3.576 -0.4726  1.6299  1.1607
 7226SOL     OW33139   4.034   4.351  14.501 -0.0496 -0.0911  0.1929
 7226SOL    HW133140   4.116   4.346  14.550 -0.1167 -0.8107  0.2257
 7226SOL    HW233141   4.049   4.282  14.436 -0.2590  0.1109 -0.0705
 7227SOL     OW33142   0.863   1.840   3.048 -0.6451 -0.5835  0.1782
 7227SOL    HW133143   0.893   1.763   3.098  0.2491  0.3091  1.0120
 7227SOL    HW233144   0.841   1.896   3.122 -0.1008  1.2502 -1.0659
 7228SOL     OW33145   0.408   0.935   2.756 -0.5186 -0.3754 -0.0460
 7228SOL    HW133146   0.384   1.024   2.783 -1.4259  0.1094 -2.3786
 7228SOL    HW233147   0.423   0.943   2.662  0.1378  0.8242  0.1522
 7229SOL     OW33148   2.799   2.185   9.616  0.5612 -0.1100  0.2254
 7229SOL    HW133149   2.805   2.261   9.674  0.1603  1.4235 -1.7181
 7229SOL    HW233150   2.710   2.156   9.631  0.9215 -0.7621  1.0699
 7230SOL     OW33151   4.280   2.699   4.630  0.2556 -0.1392  0.6238
 7230SOL    HW133152   4.309   2.712   4.720  1.6919  0.9609 -0.0028
 7230SOL    HW233153   4.188   2.725   4.627  0.4437  0.5088  0.6847
 7231SOL     OW33154   0.883   0.244   4.828  0.4955  0.2414 -0.9781
 7231SOL    HW133155   0.878   0.152   4.852  1.2958  0.2405 -0.8059
 7231SOL    HW233156   0.926   0.255   4.743  1.7227 -2.9580 -0.7771
 7232SOL     OW33157   0.134   3.862   5.059 -0.2584 -0.2292 -0.2453
 7232SOL    HW133158   0.223   3.841   5.029  0.7401  2.8845  0.5806
 7232SOL    HW233159   0.115   3.795   5.125  1.2774  1.6347  2.1193
 7233SOL     OW33160   1.034   3.278  14.382  0.0683 -0.3796 -0.0312
 7233SOL    HW133161   1.074   3.201  14.343 -1.1723 -0.8485 -0.3843
 7233SOL    HW233162   0.943   3.261  14.358  1.0830 -1.6025 -2.9706
 7234SOL     OW33163   2.352   2.643  12.115  0.4042 -0.1805  0.4235
 7234SOL    HW133164   2.335   2.580  12.186  1.5033  0.3553  1.1598
 7234SOL    HW233165   2.276   2.700  12.128 -1.4062 -1.7617 -3.4315
 7235SOL     OW33166   3.170   2.636  17.372 -0.1672 -0.5074 -0.2244
 7235SOL    HW133167   3.200   2.720  17.338  1.1241 -0.0921  1.9444
 7235SOL    HW233168   3.220   2.570  17.325  0.4486 -0.8942  0.9799
 7236SOL     OW33169   0.705   0.245   3.391  0.0214 -0.0881 -0.5367
 7236SOL    HW133170   0.613   0.261   3.412 -0.1286 -4.1935  2.1207
 7236SOL    HW233171   0.738   0.172   3.445  0.9341 -0.3540 -1.4548
 7237SOL     OW33172   2.916   0.880   5.463  0.2346 -0.2442  0.2925
 7237SOL    HW133173   2.895   0.973   5.452 -1.3816 -0.5416  0.7994
 7237SOL    HW233174   2.925   0.853   5.372  1.7416  0.3053  0.2919
 7238SOL     OW33175   1.731   4.503  17.188 -0.3135 -0.4231  0.6338
 7238SOL    HW133176   1.662   4.451  17.230 -0.3186  0.1171  1.2960
 7238SOL    HW233177   1.701   4.507  17.097 -0.0303  0.3151  0.5774
 7239SOL     OW33178   3.795   2.406   6.376  0.0362  0.1461  0.0826
 7239SOL    HW133179   3.838   2.352   6.443 -1.5965  0.1294  1.1109
 7239SOL    HW233180   3.711   2.412   6.421 -0.1468 -0.5139 -0.1643
 7240SOL     OW33181   2.560   1.488   8.964  0.1160 -0.5645 -0.0188
 7240SOL    HW133182   2.655   1.490   8.967  0.1749 -0.4032 -2.0379
 7240SOL    HW233183   2.521   1.468   9.050  0.7641 -4.1668 -0.5671
 7241SOL     OW33184   3.965   2.241   7.505  0.1953 -0.0687  0.3231
 7241SOL    HW133185   3.984   2.216   7.595  1.8187  2.3594  0.6483
 7241SOL    HW233186   3.909   2.175   7.463  2.8699 -0.5414 -2.5004
 7242SOL     OW33187   0.773   1.875  11.403 -0.3272  0.2990  0.5498
 7242SOL    HW133188   0.842   1.936  11.431 -0.6900  0.9847 -0.0724
 7242SOL    HW233189   0.829   1.819  11.349 -2.5640  0.2069 -1.6264
 7243SOL     OW33190   1.823   0.600   6.738 -0.2943  0.0590 -0.2507
 7243SOL    HW133191   1.814   0.661   6.665 -1.2678 -0.2423 -0.3931
 7243SOL    HW233192   1.881   0.530   6.709  0.9369  1.6197 -1.4988
 7244SOL     OW33193   1.472   3.721   1.671  0.2548  0.2597 -0.7858
 7244SOL    HW133194   1.455   3.705   1.764  2.1003 -1.1090 -0.6776
 7244SOL    HW233195   1.393   3.766   1.643 -0.1272  0.5080  0.6713
 7245SOL     OW33196   2.757   2.970   3.558 -0.2200  0.0595  0.0061
 7245SOL    HW133197   2.699   3.007   3.491 -1.2850  1.4758  1.6918
 7245SOL    HW233198   2.707   3.003   3.632  2.8280  1.5700  1.4013
 7246SOL     OW33199   3.596   0.099   8.361  0.4824  0.4114  0.1295
 7246SOL    HW133200   3.659   0.048   8.310  2.9479 -0.0042  3.6005
 7246SOL    HW233201   3.636   0.185   8.349  1.8448 -0.3441 -0.8661
 7247SOL     OW33202   0.225   2.122   5.712  0.6458  0.0830 -0.1370
 7247SOL    HW133203   0.301   2.162   5.753  1.1024 -2.6352  1.6590
 7247SOL    HW233204   0.254   2.039   5.676 -2.1205  0.1252 -2.4893
 7248SOL     OW33205   0.551   0.994  14.615  0.1497 -0.3805 -0.2385
 7248SOL    HW133206   0.582   1.083  14.599  0.8529 -0.4478  0.7086
 7248SOL    HW233207   0.632   0.969  14.660  1.8280  0.8605 -2.5309
 7249SOL     OW33208   3.867   4.725   2.820  0.1328 -0.6777  0.4435
 7249SOL    HW133209   3.933   0.049   2.773  0.6168 -0.8210  0.9629
 7249SOL    HW233210   3.876   0.018   2.914 -2.9686  0.9096  0.3964
 7250SOL     OW33211   1.317   0.135   8.503  0.7650  0.4761  0.1992
 7250SOL    HW133212   1.236   0.121   8.454  0.2606 -1.2951  1.5718
 7250SOL    HW233213   1.281   0.162   8.587 -1.2129  2.2416 -1.2273
 7251SOL     OW33214   3.172   4.370  16.832  0.3459  0.2608  0.2656
 7251SOL    HW133215   3.180   4.461  16.860 -0.7898 -0.4603  2.9086
 7251SOL    HW233216   3.094   4.388  16.779  0.4401  0.4303  0.1830
 7252SOL     OW33217   2.467   1.770   6.362 -0.7900 -0.6123  0.1462
 7252SOL    HW133218   2.479   1.719   6.443  1.2805 -0.9655 -0.3691
 7252SOL    HW233219   2.440   1.700   6.304  0.1973 -0.4123 -0.5577
 7253SOL     OW33220   1.805   0.908   6.947 -0.0943  0.3593  0.0187
 7253SOL    HW133221   1.719   0.865   6.940 -0.6097  1.5128 -0.7655
 7253SOL    HW233222   1.862   0.848   6.899 -1.6614 -0.7796 -0.4075
 7254SOL     OW33223   0.990   3.701   8.011 -0.1708  0.5306 -0.0596
 7254SOL    HW133224   1.057   3.750   7.963  0.7285 -2.6272 -2.0974
 7254SOL    HW233225   1.051   3.673   8.079 -0.2217 -1.9709 -1.0412
 7255SOL     OW33226   1.183   2.814  17.339  0.0463 -0.1752 -0.1896
 7255SOL    HW133227   1.176   2.759  17.261  3.0454 -0.9766  0.1010
 7255SOL    HW233228   1.206   2.901  17.307  3.8445  0.6162  4.7463
 7256SOL     OW33229   3.930   0.812   8.820  1.3282  0.4744  0.5099
 7256SOL    HW133230   3.990   0.879   8.787  1.1971 -0.7737 -2.1983
 7256SOL    HW233231   3.946   0.739   8.761 -0.6464  0.2041  0.3117
 7257SOL     OW33232   1.919   2.307   0.292  0.5922  0.0866 -0.3336
 7257SOL    HW133233   1.927   2.357   0.374  0.2972  2.4301 -1.7280
 7257SOL    HW233234   2.001   2.341   0.257 -0.6866  1.8530 -1.6008
 7258SOL     OW33235   0.478   1.808   6.584 -0.3644  0.0430 -0.1639
 7258SOL    HW133236   0.385   1.829   6.587  0.0275  1.5952  1.0627
 7258SOL    HW233237   0.471   1.723   6.626 -0.6987 -0.8628 -2.0436
 7259SOL     OW33238   0.807   3.233   3.228  0.2856 -0.3851  0.1338
 7259SOL    HW133239   0.859   3.172   3.176 -2.5355 -0.8961 -2.0629
 7259SOL    HW233240   0.882   3.271   3.274  0.7565 -0.2902 -0.7122
 7260SOL     OW33241   0.411   2.241  16.043 -0.2873 -0.4889 -0.1135
 7260SOL    HW133242   0.399   2.259  15.950 -3.0098 -4.1650 -0.4622
 7260SOL    HW233243   0.318   2.230  16.060 -0.4263  1.6182  0.5033
 7261SOL     OW33244   3.182   4.029   4.984 -0.3210  0.2457  0.4349
 7261SOL    HW133245   3.108   4.084   4.959 -0.6039 -0.8954 -1.3138
 7261SOL    HW233246   3.159   3.948   4.938 -1.7815 -0.0654  1.7128
 7262SOL     OW33247   0.598   1.251   7.946 -0.5076  0.2511  0.0200
 7262SOL    HW133248   0.686   1.288   7.954 -0.6123  0.7489 -1.1375
 7262SOL    HW233249   0.621   1.158   7.940 -0.4868  0.2854 -0.3992
 7263SOL     OW33250   0.009   0.958   3.907  0.4510  0.3625 -0.2275
 7263SOL    HW133251   0.052   0.882   3.947  0.4525  0.3389 -0.2737
 7263SOL    HW233252   0.095   0.999   3.894 -0.0625  1.5221  0.0017
 7264SOL     OW33253   2.567   1.701  14.607  0.5150 -0.3040 -0.5487
 7264SOL    HW133254   2.526   1.764  14.667 -0.0018 -1.1651 -0.0042
 7264SOL    HW233255   2.505   1.692  14.535 -0.6340  1.3402  0.2299
 7265SOL     OW33256   0.499   1.223   1.005 -0.2386 -0.5047 -0.0123
 7265SOL    HW133257   0.554   1.185   1.074  1.1753  1.6657  0.0413
 7265SOL    HW233258   0.428   1.253   1.061  0.3507  0.7987  0.0463
 7266SOL     OW33259   1.733   3.502   8.756 -0.0039  0.7740  0.3754
 7266SOL    HW133260   1.639   3.496   8.770 -0.2720 -0.0296 -1.8206
 7266SOL    HW233261   1.765   3.493   8.846 -0.8552  0.4232  0.6411
 7267SOL     OW33262   2.875   4.459   0.720  0.1057 -0.3890 -0.2198
 7267SOL    HW133263   2.836   4.443   0.805 -0.5819  2.1088 -0.0574
 7267SOL    HW233264   2.969   4.452   0.734 -0.0912  0.1323  1.3548
 7268SOL     OW33265   4.277   4.456   5.818  0.0262 -0.5710 -0.0088
 7268SOL    HW133266   4.185   4.435   5.800 -0.1069 -0.0813  0.1071
 7268SOL    HW233267   4.266   4.522   5.886  0.2928 -1.2624  0.7042
 7269SOL     OW33268   1.381   4.015   3.216 -0.4117  0.1283  0.4174
 7269SOL    HW133269   1.466   4.004   3.173 -0.5092 -1.3318  0.5778
 7269SOL    HW233270   1.334   3.931   3.215 -0.6490  0.2379  2.6107
 7270SOL     OW33271   3.266   2.782   0.173 -0.0720 -0.3475  0.0832
 7270SOL    HW133272   3.262   2.860   0.117  0.5796 -0.4147 -0.0572
 7270SOL    HW233273   3.234   2.713   0.116 -2.5335 -0.6409  1.8313
 7271SOL     OW33274   3.574   2.190  13.864 -0.0965  0.2859 -0.1640
 7271SOL    HW133275   3.542   2.279  13.847 -1.2223  0.5290  3.2736
 7271SOL    HW233276   3.585   2.162  13.773  0.2919  2.0588 -0.6532
 7272SOL     OW33277   3.107   2.440   6.856  0.0429 -0.3467 -0.4990
 7272SOL    HW133278   3.111   2.370   6.792  0.1863 -0.5369 -0.2792
 7272SOL    HW233279   3.032   2.485   6.816  0.3010  1.1187  0.6285
 7273SOL     OW33280   3.186   0.360   2.797  0.3606 -0.3720 -0.2030
 7273SOL    HW133281   3.262   0.388   2.849 -0.4039 -0.3054  0.8821
 7273SOL    HW233282   3.199   0.266   2.805  0.7550 -0.3384 -0.4790
 7274SOL     OW33283   3.312   3.221   0.938  0.2190 -0.5568  0.3598
 7274SOL    HW133284   3.272   3.162   1.002  0.5236  0.5084  1.5357
 7274SOL    HW233285   3.273   3.307   0.952 -1.0998 -1.2890  1.2521
 7275SOL     OW33286   4.368   1.402   9.673  0.0153 -0.1518  0.6212
 7275SOL    HW133287   4.287   1.373   9.714  0.9284 -0.5879  2.1396
 7275SOL    HW233288   4.340   1.486   9.638  0.3175 -0.2920  0.0327
 7276SOL     OW33289   0.919   2.737  13.929 -0.4498 -0.5524 -0.1207
 7276SOL    HW133290   0.829   2.769  13.921 -0.1392  0.6686  1.3578
 7276SOL    HW233291   0.897   2.647  13.906 -0.0190 -0.5477 -0.5395
 7277SOL     OW33292   2.328   1.375   3.850 -0.6349  0.5294 -0.1948
 7277SOL    HW133293   2.232   1.378   3.857 -0.7074  0.5135 -1.2143
 7277SOL    HW233294   2.351   1.443   3.913 -0.8858  0.8089 -0.4049
 7278SOL     OW33295   3.257   4.189  12.359  0.1607 -0.1108  0.3599
 7278SOL    HW133296   3.179   4.145  12.326 -1.7988  1.9737  2.1516
 7278SOL    HW233297   3.216   4.238  12.431  2.2749  2.4837 -0.2099
 7279SOL     OW33298   4.688   2.262   5.228 -0.2492  0.4145  0.0206
 7279SOL    HW133299   4.657   2.349   5.251  1.4007  0.9561  0.2292
 7279SOL    HW233300   0.002   2.227   5.307 -2.3388 -0.1161  0.8565
 7280SOL     OW33301   1.743   3.930   7.907  0.5916  0.3058  0.1458
 7280SOL    HW133302   1.797   3.853   7.928  1.7363  1.2243  0.5473
 7280SOL    HW233303   1.800   4.006   7.916  0.2587  0.7110 -1.1532
 7281SOL     OW33304   3.973   1.860  17.564 -0.2893 -0.0358  0.2420
 7281SOL    HW133305   4.060   1.850  17.601  0.1277  1.0842 -0.4569
 7281SOL    HW233306   3.997   1.918  17.491 -1.7035 -1.7649 -1.6157
 7282SOL     OW33307   2.932   2.229   0.238 -0.2658  0.0250 -0.0502
 7282SOL    HW133308   2.942   2.134   0.232 -0.6061  0.0262 -0.6375
 7282SOL    HW233309   2.966   2.248   0.325 -2.7931  0.4095  0.8569
 7283SOL     OW33310   1.768   2.385   0.774 -0.1242  0.1413  0.0313
 7283SOL    HW133311   1.838   2.352   0.717  1.2462  0.1487  1.7058
 7283SOL    HW233312   1.758   2.477   0.752 -0.5978  0.3005  0.9231
 7284SOL     OW33313   2.686   1.611   7.294  0.0491 -0.1218  0.3664
 7284SOL    HW133314   2.616   1.674   7.272 -1.4409 -1.9781 -0.1910
 7284SOL    HW233315   2.691   1.629   7.388  0.0740  0.5285  0.2404
 7285SOL     OW33316   3.771   4.413   4.325 -0.1956  0.0920 -0.3223
 7285SOL    HW133317   3.826   4.399   4.248 -1.1468 -1.4396 -0.7124
 7285SOL    HW233318   3.791   4.331   4.370 -1.2599 -0.7528 -1.3901
 7286SOL     OW33319   1.861   1.446  11.338  0.7977  0.1538  0.2134
 7286SOL    HW133320   1.917   1.524  11.335  1.8081 -0.5242  1.1938
 7286SOL    HW233321   1.843   1.430  11.246  0.3002  2.3061 -0.0709
 7287SOL     OW33322   1.007   3.771   1.054  0.1307 -0.1963  0.0334
 7287SOL    HW133323   1.020   3.680   1.031  1.4189  0.1132 -0.4511
 7287SOL    HW233324   0.966   3.756   1.139  0.3902  1.1881  0.4048
 7288SOL     OW33325   0.005   2.932   3.847  0.0586  0.0858  0.0466
 7288SOL    HW133326   0.050   2.983   3.779  1.5156 -0.2282  0.7836
 7288SOL    HW233327   4.693   2.866   3.790  1.5042 -0.9037  0.2203
 7289SOL     OW33328   3.597   1.456   2.153 -0.3611  0.6449 -0.0228
 7289SOL    HW133329   3.631   1.407   2.077 -0.5898 -0.2451  0.4430
 7289SOL    HW233330   3.543   1.523   2.112  0.7550  0.7903 -1.2734
 7290SOL     OW33331   0.257   1.162   8.756 -0.1118 -0.2681  0.3128
 7290SOL    HW133332   0.183   1.173   8.697 -0.0805 -0.5693  0.2165
 7290SOL    HW233333   0.321   1.186   8.688  0.1426 -1.6589  0.0542
 7291SOL     OW33334   0.033   2.637   3.167 -0.2253 -0.4508  0.2229
 7291SOL    HW133335   0.058   2.558   3.119  0.5539  0.3047 -0.6159
 7291SOL    HW233336   0.077   2.708   3.121 -1.4201  0.6643  0.7993
 7292SOL     OW33337   2.925   1.392   6.139 -0.1862 -0.4639  0.3345
 7292SOL    HW133338   2.842   1.372   6.183  0.2521 -1.2082  0.8119
 7292SOL    HW233339   2.980   1.331   6.188  0.5897 -0.2202 -0.2348
 7293SOL     OW33340   2.004   0.400   3.979 -0.0949  0.0203  0.0594
 7293SOL    HW133341   2.083   0.419   3.928 -0.6733 -0.3480 -0.9737
 7293SOL    HW233342   2.033   0.400   4.070 -1.2280 -0.6445  0.4198
 7294SOL     OW33343   1.586   1.088  15.464 -0.0102 -0.0861 -0.7955
 7294SOL    HW133344   1.511   1.090  15.524  1.0832 -3.4052  0.7101
 7294SOL    HW233345   1.651   1.048  15.522  1.5017 -0.9540 -3.0999
 7295SOL     OW33346   0.541   3.039   6.182 -0.9011  0.0010 -0.0404
 7295SOL    HW133347   0.627   3.049   6.223 -0.3348 -0.5928 -1.0922
 7295SOL    HW233348   0.513   2.958   6.224  0.7620 -0.4020  0.2761
 7296SOL     OW33349   3.673   3.230   7.678  0.7765 -0.0101  0.3417
 7296SOL    HW133350   3.710   3.157   7.627  1.3441 -0.4625  1.3917
 7296SOL    HW233351   3.581   3.204   7.678  0.6155  0.5777  0.6915
 7297SOL     OW33352   2.675   3.460   6.947  0.3236 -0.0086 -0.1864
 7297SOL    HW133353   2.622   3.513   6.888 -2.5441  1.0034  3.3068
 7297SOL    HW233354   2.662   3.499   7.033  1.1219 -0.7754  0.2769
 7298SOL     OW33355   0.807   2.479   5.630 -0.3407 -0.1950 -0.5761
 7298SOL    HW133356   0.737   2.415   5.619 -0.3389 -0.1965 -0.5784
 7298SOL    HW233357   0.776   2.526   5.707  3.8062 -0.8906  1.5599
 7299SOL     OW33358   1.307   4.038  17.633 -0.0007  0.4060 -0.0101
 7299SOL    HW133359   1.253   4.111  17.664  0.3806  0.7968 -0.2700
 7299SOL    HW233360   1.336   4.073  17.549 -1.9206 -0.1498 -0.9094
 7300SOL     OW33361   2.597   0.600  11.001 -0.0309 -0.2744  0.0700
 7300SOL    HW133362   2.593   0.547  10.921 -2.2834 -1.7043  1.1334
 7300SOL    HW233363   2.653   0.546  11.056 -0.3174 -0.1160  0.5103
 7301SOL     OW33364   3.126   1.037  17.017 -0.3453 -0.4653 -0.4861
 7301SOL    HW133365   3.150   1.014  17.107  0.5549  0.8619 -0.3894
 7301SOL    HW233366   3.032   1.018  17.019 -0.2783 -1.2077 -3.6309
 7302SOL     OW33367   1.733   3.161   7.968 -0.4983  0.4759 -0.1670
 7302SOL    HW133368   1.802   3.203   8.018 -2.1071  0.1998  2.2913
 7302SOL    HW233369   1.737   3.075   8.011 -2.0717 -0.1707 -1.2883
 7303SOL     OW33370   3.130   1.087   4.216  0.4076 -0.2859  0.3407
 7303SOL    HW133371   3.182   1.030   4.273  1.5334  1.9424  1.5668
 7303SOL    HW233372   3.108   1.038   4.137  4.5527 -0.2090 -0.8644
 7304SOL     OW33373   2.420   1.540   3.324  0.2479  0.2071 -0.0783
 7304SOL    HW133374   2.491   1.516   3.265  0.7205  1.4145 -0.0193
 7304SOL    HW233375   2.370   1.606   3.276 -1.5922 -1.4522 -0.3957
 7305SOL     OW33376   1.940   1.626   2.037  0.1866 -0.7518  0.0250
 7305SOL    HW133377   1.883   1.618   1.960 -0.3342 -1.1970  0.4578
 7305SOL    HW233378   1.882   1.578   2.096  0.2795  0.0747  0.7788
 7306SOL     OW33379   0.595   4.228   2.107  0.5324  0.3155 -0.5885
 7306SOL    HW133380   0.634   4.238   2.193 -0.3757  0.3357 -0.1822
 7306SOL    HW233381   0.628   4.142   2.081  1.8337  0.4053  0.7351
 7307SOL     OW33382   3.104   4.692   4.246  0.0090  0.7602 -0.4502
 7307SOL    HW133383   3.141   4.608   4.273 -1.6789 -0.5618 -2.2581
 7307SOL    HW233384   3.052   4.705   4.325  2.2389 -0.5159  1.2182
 7308SOL     OW33385   2.344   1.792   5.012 -0.2310 -0.0251  0.1239
 7308SOL    HW133386   2.406   1.780   5.084 -0.7629 -0.7379  0.4648
 7308SOL    HW233387   2.404   1.826   4.946  0.5149 -1.5849  0.0113
 7309SOL     OW33388   3.212   2.985   4.417 -0.5210  0.0905  0.0630
 7309SOL    HW133389   3.157   3.008   4.342  0.8608  0.0543 -0.9551
 7309SOL    HW233390   3.263   3.066   4.419  0.4923 -0.5036 -1.9172
 7310SOL     OW33391   3.788   0.173   6.742  0.6374  0.0845  0.0726
 7310SOL    HW133392   3.730   0.246   6.765 -0.1062 -0.5727  0.2639
 7310SOL    HW233393   3.833   0.165   6.826 -2.0192  1.0805  1.6025
 7311SOL     OW33394   3.348   3.174   0.212 -0.0058  0.5728 -0.1609
 7311SOL    HW133395   3.288   3.226   0.265  1.2370  0.5513  1.2667
 7311SOL    HW233396   3.429   3.162   0.261  1.1675 -0.1583 -2.2815
 7312SOL     OW33397   1.126   4.427  13.536 -0.1580 -0.1910 -0.1335
 7312SOL    HW133398   1.037   4.460  13.551 -0.0674  1.0279 -2.2656
 7312SOL    HW233399   1.149   4.454  13.447 -1.8870 -0.5845 -0.6952
 7313SOL     OW33400   0.144   2.783   5.810 -0.6833  0.6105  0.6542
 7313SOL    HW133401   0.235   2.797   5.835 -0.2363  0.1200 -0.7031
 7313SOL    HW233402   0.116   2.696   5.838  0.2558 -0.3499 -1.4408
 7314SOL     OW33403   2.246   3.219  11.891  0.3823 -0.3582  0.4741
 7314SOL    HW133404   2.229   3.175  11.974  1.1265 -0.1022  0.7583
 7314SOL    HW233405   2.318   3.281  11.902  0.1425 -0.1298  0.7194
 7315SOL     OW33406   3.206   4.270   1.645 -0.1029 -0.1870  0.1006
 7315SOL    HW133407   3.264   4.346   1.631 -0.1403 -0.2092 -0.1862
 7315SOL    HW233408   3.192   4.294   1.736  0.1229 -1.5962  0.4937
 7316SOL     OW33409   0.665   3.539   3.237  0.2926 -0.3952  0.1550
 7316SOL    HW133410   0.593   3.526   3.298 -0.2290  1.5350 -0.0449
 7316SOL    HW233411   0.630   3.486   3.166 -0.6779  3.4268 -2.2383
 7317SOL     OW33412   0.499   2.901  12.230 -0.7296  0.1958  0.4812
 7317SOL    HW133413   0.495   2.910  12.135  0.9529  2.5491  0.6525
 7317SOL    HW233414   0.479   2.809  12.250 -0.3077  0.1539  0.7294
 7318SOL     OW33415   1.346   2.168  14.361 -0.0537 -0.3277  0.1948
 7318SOL    HW133416   1.314   2.194  14.275  0.7551 -1.2981 -0.4120
 7318SOL    HW233417   1.277   2.188  14.424  1.1467  0.8630  1.1362
 7319SOL     OW33418   3.317   2.296   4.386  0.1748  0.1353 -0.1812
 7319SOL    HW133419   3.300   2.390   4.385  0.2274  0.1568  2.3433
 7319SOL    HW233420   3.294   2.272   4.296  1.5663  1.8097 -0.9835
 7320SOL     OW33421   2.615   2.096   6.971 -0.0587  0.0019  0.3186
 7320SOL    HW133422   2.657   2.176   7.002  2.6637 -1.8741  1.4645
 7320SOL    HW233423   2.536   2.104   7.025 -0.1081 -1.0299  0.4136
 7321SOL     OW33424   3.786   2.095  17.571 -0.0642  0.6791  0.3213
 7321SOL    HW133425   3.827   2.009  17.556  0.8640  0.9916  1.0624
 7321SOL    HW233426   3.757   2.127  17.486 -1.7992 -0.3176  0.5360
 7322SOL     OW33427   2.832   4.323   6.344 -0.2659 -0.1931 -0.7317
 7322SOL    HW133428   2.837   4.413   6.311  1.8271 -0.1930 -0.4199
 7322SOL    HW233429   2.818   4.278   6.261 -0.0179  0.6903 -1.2599
 7323SOL     OW33430   2.726   2.940   1.269 -0.2581  0.0262 -0.2907
 7323SOL    HW133431   2.735   2.869   1.205  0.5867 -1.2793  1.2786
 7323SOL    HW233432   2.799   2.921   1.329 -1.3277 -1.2119  0.6291
 7324SOL     OW33433   3.696   3.348  10.280  0.4079 -0.0606  0.8955
 7324SOL    HW133434   3.623   3.408  10.267  0.6033 -0.3322 -1.4741
 7324SOL    HW233435   3.714   3.322  10.189 -0.9152 -2.8461  1.4188
 7325SOL     OW33436   3.767   0.935   2.461 -0.4471 -0.2040  0.2417
 7325SOL    HW133437   3.679   0.922   2.427 -1.4546  1.4714  2.2014
 7325SOL    HW233438   3.811   0.875   2.401 -1.7891 -1.1116  0.1591
 7326SOL     OW33439   3.669   3.601   6.301  0.5177 -0.8100  0.7270
 7326SOL    HW133440   3.622   3.649   6.370  0.5130 -1.1759  0.9811
 7326SOL    HW233441   3.639   3.513   6.323 -1.2453 -0.8761 -1.9727
 7327SOL     OW33442   0.210   0.661   5.428 -0.1247  0.1650 -0.1029
 7327SOL    HW133443   0.162   0.744   5.430 -1.1957 -0.4519 -0.3217
 7327SOL    HW233444   0.293   0.698   5.397 -0.6895  2.1671  0.7208
 7328SOL     OW33445   4.118   3.762   6.105 -0.3058 -0.1618 -0.2197
 7328SOL    HW133446   4.053   3.801   6.047 -0.0658 -2.3211 -1.9428
 7328SOL    HW233447   4.158   3.835   6.152 -1.3049  1.2545 -1.5657
 7329SOL     OW33448   4.395   3.695   1.522 -0.5481  0.1892  0.3335
 7329SOL    HW133449   4.317   3.640   1.512 -0.0615 -0.8756  2.4968
 7329SOL    HW233450   4.423   3.673   1.611 -1.5591  0.4747  0.7212
 7330SOL     OW33451   1.172   0.102   3.514 -0.1480 -0.6901  0.0175
 7330SOL    HW133452   1.199   0.076   3.602 -0.8364 -0.5829  0.2616
 7330SOL    HW233453   1.113   0.176   3.527 -0.3651 -0.5776 -1.7115
 7331SOL     OW33454   0.571   4.038   7.033  0.2685  0.3723 -0.6599
 7331SOL    HW133455   0.633   3.972   7.063  2.8224  2.3926 -1.5385
 7331SOL    HW233456   0.614   4.121   7.054  0.3543  0.0982  0.2419
 7332SOL     OW33457   2.598   1.238   5.644 -0.2113  0.3567  0.7938
 7332SOL    HW133458   2.649   1.272   5.717  0.4350 -1.4681  1.1819
 7332SOL    HW233459   2.528   1.194   5.692 -0.3209 -0.5178 -0.1836
 7333SOL     OW33460   2.370   2.989   8.759  0.6310 -0.0686 -0.3399
 7333SOL    HW133461   2.276   2.976   8.770  0.2844  1.9525 -0.9083
 7333SOL    HW233462   2.407   2.901   8.752 -0.1847 -0.3961 -0.4804
 7334SOL     OW33463   3.579   2.121  11.316  0.0236  1.1698  0.1835
 7334SOL    HW133464   3.557   2.195  11.372  1.2210  1.4170  0.3238
 7334SOL    HW233465   3.513   2.128  11.247 -0.5246  2.8500  0.8840
 7335SOL     OW33466   3.265   4.087  12.734 -0.2610  0.0197 -0.4232
 7335SOL    HW133467   3.323   4.037  12.793 -1.0877 -1.6730 -1.0359
 7335SOL    HW233468   3.189   4.030  12.726 -0.2325  0.0327 -0.7804
 7336SOL     OW33469   4.171   0.065   4.513 -0.1790 -0.4938  0.4020
 7336SOL    HW133470   4.244   0.012   4.481  0.8085  1.5423 -0.7286
 7336SOL    HW233471   4.203   0.089   4.599 -3.2496 -2.2670  2.0375
 7337SOL     OW33472   0.170   3.418  11.074  0.1786 -0.2541 -0.0781
 7337SOL    HW133473   0.192   3.475  11.148  0.9653  2.2613 -2.2549
 7337SOL    HW233474   0.114   3.352  11.115 -2.7658  3.7669  2.4030
 7338SOL     OW33475   1.335   4.252   7.892 -0.2420  0.0034 -0.7639
 7338SOL    HW133476   1.389   4.236   7.969 -0.3698  1.5763 -0.3390
 7338SOL    HW233477   1.265   4.307   7.928 -0.2138 -0.1426 -0.4840
 7339SOL     OW33478   4.119   2.048   3.035 -0.3219  0.6163 -0.1396
 7339SOL    HW133479   4.062   1.979   3.069 -0.2897  1.1262  0.9471
 7339SOL    HW233480   4.189   1.994   2.996 -0.9525 -0.0225 -0.3842
 7340SOL     OW33481   3.273   3.021  13.706  0.1725  0.7434  0.8322
 7340SOL    HW133482   3.332   2.950  13.684  0.6643  1.4787 -0.2004
 7340SOL    HW233483   3.279   3.024  13.802  2.8676  1.6834  0.6294
 7341SOL     OW33484   1.757   3.586   8.318  0.3312 -0.0113  0.5056
 7341SOL    HW133485   1.680   3.608   8.266  0.7388  1.7304  0.6408
 7341SOL    HW233486   1.753   3.490   8.318  0.0468  0.0009 -0.0710
 7342SOL     OW33487   1.356   4.620  15.000  0.5193  0.3278 -0.1548
 7342SOL    HW133488   1.451   4.604  14.996  0.7581  1.6682  0.1209
 7342SOL    HW233489   1.324   4.548  15.054  0.7489  0.5865  0.3346
 7343SOL     OW33490   3.593   0.221   3.073 -0.6951  0.0945 -0.7795
 7343SOL    HW133491   3.585   0.138   3.024  0.7327 -0.3791 -0.1911
 7343SOL    HW233492   3.674   0.251   3.032 -0.4791 -1.3404 -1.4261
 7344SOL     OW33493   3.733   3.552  14.052  0.2292  0.4959 -0.3818
 7344SOL    HW133494   3.752   3.646  14.055 -2.0393  0.8483  2.6115
 7344SOL    HW233495   3.775   3.532  14.135 -0.2758  0.0042 -0.2419
 7345SOL     OW33496   3.633   2.406   3.873  0.1949 -0.1784 -0.5365
 7345SOL    HW133497   3.689   2.484   3.875  0.8384 -0.7163  2.4577
 7345SOL    HW233498   3.621   2.392   3.779  0.1331 -0.7461 -0.4465
 7346SOL     OW33499   0.973   2.078  13.582 -0.0221 -0.2625  0.1683
 7346SOL    HW133500   0.891   2.087  13.630  0.3272  0.1643  0.6840
 7346SOL    HW233501   1.040   2.097  13.648 -0.2009 -0.2658  0.3495
 7347SOL     OW33502   0.357   2.981   8.252  0.2197  0.1894 -0.0953
 7347SOL    HW133503   0.361   2.892   8.287  0.7351 -0.1871 -1.1203
 7347SOL    HW233504   0.272   3.015   8.281  1.5161  1.9990  1.6321
 7348SOL     OW33505   1.326   0.342   5.211 -0.0345 -0.0494  0.1476
 7348SOL    HW133506   1.255   0.387   5.166 -1.3179 -1.4294  0.7879
 7348SOL    HW233507   1.390   0.331   5.141 -1.0619 -0.7476 -0.6694
 7349SOL     OW33508   2.953   1.592  13.456 -0.0580  0.5400  0.7424
 7349SOL    HW133509   2.887   1.585  13.387  0.4128 -0.5241  0.3976
 7349SOL    HW233510   2.966   1.499  13.476 -3.4243  0.0102  0.5644
 7350SOL     OW33511   0.082   1.578   3.236  0.3643  0.7379  0.0275
 7350SOL    HW133512   0.034   1.512   3.286  2.3268 -0.6785  0.0268
 7350SOL    HW233513   0.087   1.550   3.144  2.2411 -0.4085  0.4813
 7351SOL     OW33514   3.362   2.163   0.443 -0.1343  0.0913 -0.3291
 7351SOL    HW133515   3.317   2.191   0.364  2.7787  0.4881 -1.8405
 7351SOL    HW233516   3.290   2.130   0.498 -1.7797 -1.4752 -3.4383
 7352SOL     OW33517   1.972   2.306  12.779 -0.0763  0.0435 -0.0212
 7352SOL    HW133518   1.922   2.251  12.839 -0.4084  1.9954  1.4967
 7352SOL    HW233519   2.012   2.239  12.724 -0.4410  0.8821 -1.3267
 7353SOL     OW33520   0.361   1.584   0.079  0.0771  0.2960  1.0291
 7353SOL    HW133521   0.393   1.641   0.009  2.1464 -1.5789  0.4323
 7353SOL    HW233522   0.360   1.642   0.155 -3.2009 -1.4442  2.2887
 7354SOL     OW33523   1.519   4.469   6.256 -0.2660  0.6232 -0.4026
 7354SOL    HW133524   1.590   4.526   6.227 -0.9003  2.8715  2.4721
 7354SOL    HW233525   1.549   4.380   6.235 -0.8262  0.2753  0.2642
 7355SOL     OW33526   4.212   3.073   1.749 -0.3707  0.4291  0.0953
 7355SOL    HW133527   4.277   3.053   1.681 -3.0796 -1.7329 -1.8441
 7355SOL    HW233528   4.141   3.016   1.719 -0.5466  1.7971 -2.0789
 7356SOL     OW33529   2.097   1.535   4.960 -0.5127 -0.0087  0.1386
 7356SOL    HW133530   2.134   1.622   4.974  3.0163 -1.4676 -0.2175
 7356SOL    HW233531   2.095   1.515   4.867  0.9181  0.6632 -0.0295
 7357SOL     OW33532   2.542   3.485   1.269  0.3194 -0.5069  0.3291
 7357SOL    HW133533   2.627   3.465   1.229 -0.6752  2.1743 -3.1944
 7357SOL    HW233534   2.512   3.401   1.301  0.7907 -1.0510 -0.6664
 7358SOL     OW33535   1.227   1.474   1.476  0.3925  0.5507  0.0571
 7358SOL    HW133536   1.226   1.485   1.571 -0.5199  2.0774 -0.1284
 7358SOL    HW233537   1.147   1.523   1.456  1.2585  1.5158 -1.0388
 7359SOL     OW33538   0.198   0.257  17.078  0.4254 -0.8620 -0.1129
 7359SOL    HW133539   0.186   0.194  17.149  0.8690  0.1332  0.8498
 7359SOL    HW233540   0.220   0.339  17.123  2.0666 -0.8110 -0.9870
 7360SOL     OW33541   2.699   4.428   5.193 -0.0514  0.4336  0.4272
 7360SOL    HW133542   2.727   4.346   5.234 -1.5264  0.7984  2.1748
 7360SOL    HW233543   2.744   4.413   5.110 -0.6921 -1.0217  0.3473
 7361SOL     OW33544   2.463   0.594   8.316 -0.1993  0.3772  0.3373
 7361SOL    HW133545   2.537   0.639   8.358  0.4304 -0.9366  0.6374
 7361SOL    HW233546   2.386   0.628   8.360 -0.8239 -0.0189 -0.4468
 7362SOL     OW33547   3.645   1.535  11.733 -0.3203 -0.0744  0.3888
 7362SOL    HW133548   3.595   1.616  11.744 -0.6876 -0.0221 -1.6787
 7362SOL    HW233549   3.713   1.545  11.800  0.0090 -0.1505  0.0662
 7363SOL     OW33550   1.813   0.867   8.409 -0.0625 -0.2645 -0.1779
 7363SOL    HW133551   1.771   0.782   8.397  1.2878 -1.2321  1.9093
 7363SOL    HW233552   1.855   0.847   8.493  1.7369 -0.1674 -1.0708
 7364SOL     OW33553   3.787   3.420   7.846 -0.3217 -0.3496 -0.1115
 7364SOL    HW133554   3.794   3.357   7.918 -1.6423 -1.6162 -1.0848
 7364SOL    HW233555   3.773   3.357   7.775  0.6045 -1.2046  0.4603
 7365SOL     OW33556   0.073   1.393   3.024  0.0050  0.0064 -0.1043
 7365SOL    HW133557   0.115   1.438   2.950  0.2342  1.4259  0.8895
 7365SOL    HW233558   0.008   1.351   2.967  0.8552 -0.3479 -0.8034
 7366SOL     OW33559   0.859   2.013   9.308 -0.4378 -0.7371 -0.1859
 7366SOL    HW133560   0.860   2.098   9.352 -0.0423 -0.0098 -1.6070
 7366SOL    HW233561   0.831   2.030   9.218  1.3801  2.0581 -0.2176
 7367SOL     OW33562   4.025   1.281  15.646  0.2919  0.8730 -0.5332
 7367SOL    HW133563   3.984   1.316  15.725  1.1122  2.2125 -0.7027
 7367SOL    HW233564   3.971   1.203  15.633  2.7828 -0.2155 -4.1934
 7368SOL     OW33565   4.325   0.085   7.887  0.2618  0.4109  0.1649
 7368SOL    HW133566   4.331   0.173   7.924  1.2143 -0.1229  1.2921
 7368SOL    HW233567   4.319   0.098   7.793 -1.0778  4.2506  0.7815
 7369SOL     OW33568   3.255   4.348   7.881 -0.0052 -0.2488 -0.0562
 7369SOL    HW133569   3.346   4.330   7.905  0.0663  1.0403  0.6484
 7369SOL    HW233570   3.242   4.430   7.928 -1.3046  0.2131 -1.2367
 7370SOL     OW33571   3.785   0.221   0.300 -0.4042 -0.5218 -0.5678
 7370SOL    HW133572   3.804   0.136   0.341  3.3587  1.8670  2.6646
 7370SOL    HW233573   3.697   0.206   0.266 -0.3622 -2.1536  0.0508
 7371SOL     OW33574   3.560   2.697   7.219  0.2964  0.5759  0.3409
 7371SOL    HW133575   3.633   2.701   7.282  0.2384  1.3327  0.3618
 7371SOL    HW233576   3.614   2.694   7.140 -0.0342  3.5863 -0.0279
 7372SOL     OW33577   3.111   2.340  15.071 -0.3726  0.2296 -0.0882
 7372SOL    HW133578   3.101   2.309  14.980  0.8644  0.5454 -0.3228
 7372SOL    HW233579   3.119   2.433  15.051  0.3838  0.0236 -0.7355
 7373SOL     OW33580   2.950   1.946   0.280 -0.0799  0.2577  0.2721
 7373SOL    HW133581   2.996   1.897   0.211  0.0771 -2.0791  2.0185
 7373SOL    HW233582   2.948   1.888   0.356 -2.4832  2.2034  1.6821
 7374SOL     OW33583   1.324   2.420   1.789 -0.0671  0.0573  0.3090
 7374SOL    HW133584   1.293   2.377   1.709 -2.2976  0.2873  1.0479
 7374SOL    HW233585   1.340   2.353   1.855 -0.6687  0.5048  0.9114
 7375SOL     OW33586   2.015   0.424   6.388  0.0979  0.1503 -0.2989
 7375SOL    HW133587   1.985   0.509   6.420 -0.0779  0.4188 -1.1836
 7375SOL    HW233588   2.081   0.450   6.324  0.4134 -0.3632 -0.1792
 7376SOL     OW33589   4.287   2.965   0.285 -0.3719 -0.5820 -0.9879
 7376SOL    HW133590   4.362   3.007   0.327 -0.4762  0.2283 -1.6285
 7376SOL    HW233591   4.253   3.042   0.241  1.4227  0.1481 -1.0891
 7377SOL     OW33592   0.136   4.300   5.949 -0.2684 -0.0948  0.2946
 7377SOL    HW133593   0.166   4.389   5.930 -3.8565  1.0941  0.3659
 7377SOL    HW233594   0.203   4.273   6.012 -1.0284  1.3700  1.7246
 7378SOL     OW33595   0.203   2.881  12.505  0.2613  0.0825  0.1209
 7378SOL    HW133596   0.112   2.910  12.516  0.3471  0.7297 -0.9464
 7378SOL    HW233597   0.194   2.795  12.548  1.1147 -0.0164  0.0967
 7379SOL     OW33598   0.249   1.578   8.838  0.7130 -0.3165  0.4630
 7379SOL    HW133599   0.283   1.564   8.926  0.2815  0.5210  0.7611
 7379SOL    HW233600   0.165   1.532   8.844  0.5254 -0.0092  0.1769
 7380SOL     OW33601   2.776   0.218   2.882 -0.8115  0.1866  0.2109
 7380SOL    HW133602   2.841   0.288   2.874 -0.8835  0.4317  1.7125
 7380SOL    HW233603   2.730   0.234   2.800 -0.1683 -0.5586 -0.2960
 7381SOL     OW33604   3.542   2.952   6.063 -0.0886  0.4680  0.3354
 7381SOL    HW133605   3.592   3.000   5.996 -0.9867 -2.1495 -2.1953
 7381SOL    HW233606   3.527   2.877   6.006 -0.0954  1.1778 -0.6087
 7382SOL     OW33607   4.334   1.621   4.272 -0.2708  0.1040  0.6423
 7382SOL    HW133608   4.263   1.581   4.221  1.0778  0.2825 -1.3514
 7382SOL    HW233609   4.342   1.706   4.229 -1.6003  0.4639  1.0885
 7383SOL     OW33610   1.168   3.039  14.327 -0.0487 -0.1563 -0.5114
 7383SOL    HW133611   1.215   3.013  14.247 -2.6009  0.5531 -2.2280
 7383SOL    HW233612   1.095   2.978  14.325 -0.2179  0.0977 -2.3941
 7384SOL     OW33613   0.789   1.159   2.078 -0.0246  0.1438 -0.0577
 7384SOL    HW133614   0.770   1.081   2.131  1.5977  0.9766  1.7457
 7384SOL    HW233615   0.763   1.222   2.145 -1.7013  0.7433 -1.2637
 7385SOL     OW33616   2.177   2.190   2.729  0.3325  0.4061  0.3072
 7385SOL    HW133617   2.242   2.171   2.797  0.3796  1.5874  0.5908
 7385SOL    HW233618   2.242   2.212   2.663 -0.9900 -0.6590 -1.3690
 7386SOL     OW33619   4.559   2.594   4.019  0.1230  0.7356 -0.4363
 7386SOL    HW133620   4.563   2.606   3.924  0.7067 -0.6612 -0.5911
 7386SOL    HW233621   4.652   2.582   4.037 -0.7918 -3.5369  1.3400
 7387SOL     OW33622   1.149   2.786   9.030 -0.5658 -0.0388 -0.1325
 7387SOL    HW133623   1.112   2.865   9.071 -0.3371 -0.3601  0.6892
 7387SOL    HW233624   1.071   2.736   9.005  1.1199 -3.7536  2.1787
 7388SOL     OW33625   4.007   1.120   3.498  0.1192  0.5424  0.4962
 7388SOL    HW133626   3.937   1.146   3.439 -0.1313  0.4777  0.7665
 7388SOL    HW233627   4.009   1.025   3.483  2.3106  0.6122  0.2386
 7389SOL     OW33628   1.542   2.036   2.145 -0.5657 -0.2966 -0.1320
 7389SOL    HW133629   1.487   2.036   2.066  0.3287 -1.3711 -0.7506
 7389SOL    HW233630   1.551   1.943   2.168 -1.9971 -0.3382  0.2905
 7390SOL     OW33631   2.954   2.867   0.072 -0.1935  0.5883  0.3620
 7390SOL    HW133632   2.987   2.788   0.116 -0.5667  1.3394  2.0012
 7390SOL    HW233633   3.033   2.921   0.073  0.3277 -0.1493 -2.9064
 7391SOL     OW33634   2.451   0.517   4.304  1.3450 -0.1189 -0.5483
 7391SOL    HW133635   2.506   0.567   4.245  0.6694  0.5245 -0.6435
 7391SOL    HW233636   2.505   0.442   4.325  0.5982 -0.8767 -1.3271
 7392SOL     OW33637   2.052   0.202   2.047 -0.3992 -0.2797 -0.7690
 7392SOL    HW133638   2.122   0.140   2.029  0.0101  0.7492 -2.7439
 7392SOL    HW233639   2.017   0.221   1.960 -1.6528  0.0907 -0.1770
 7393SOL     OW33640   1.173   1.203   5.969 -0.1671 -0.2401 -0.0349
 7393SOL    HW133641   1.148   1.121   5.925  1.0555 -1.2556  1.1222
 7393SOL    HW233642   1.259   1.175   6.000  0.8911  1.5314 -1.3727
 7394SOL     OW33643   0.134   0.557  14.385 -0.3882 -0.0267  0.0009
 7394SOL    HW133644   0.183   0.534  14.463 -0.8919 -1.2771 -0.0622
 7394SOL    HW233645   0.092   0.642  14.397 -0.4811 -0.2311  1.0565
 7395SOL     OW33646   1.458   3.478   9.389 -0.4641  0.4913  0.5941
 7395SOL    HW133647   1.412   3.561   9.401 -1.0017  0.3786 -0.6610
 7395SOL    HW233648   1.545   3.506   9.420 -0.2151 -0.2524  0.5683
 7396SOL     OW33649   3.384   2.932  11.340  0.4010  1.3114  0.0903
 7396SOL    HW133650   3.307   2.969  11.383  0.8549 -0.3886  2.3723
 7396SOL    HW233651   3.366   2.934  11.246  1.8474  0.3800 -0.2168
 7397SOL     OW33652   2.375   1.767  14.399 -0.2103 -0.3522 -0.5557
 7397SOL    HW133653   2.317   1.720  14.459  0.3292  1.4484  1.3831
 7397SOL    HW233654   2.335   1.739  14.317  0.0141 -1.3131 -0.3433
 7398SOL     OW33655   2.877   0.887   5.743 -0.3801  0.5708 -0.8189
 7398SOL    HW133656   2.783   0.905   5.742 -0.5064 -0.0383  0.5908
 7398SOL    HW233657   2.894   0.866   5.651 -3.8434  1.7241 -1.7116
 7399SOL     OW33658   4.021   4.059   1.594 -0.2791  0.0248 -0.3958
 7399SOL    HW133659   4.056   3.972   1.575  1.6059  0.5378  0.7994
 7399SOL    HW233660   4.058   4.086   1.678 -0.3194  0.1329 -0.4129
 7400SOL     OW33661   3.988   1.863   6.484 -0.5030 -0.0349 -0.1930
 7400SOL    HW133662   4.083   1.862   6.491 -0.4314 -1.2556 -1.3768
 7400SOL    HW233663   3.960   1.955   6.476 -0.0372  0.0716 -0.5522
 7401SOL     OW33664   3.339   3.419   7.204  0.0243  0.0934  0.2144
 7401SOL    HW133665   3.364   3.338   7.249 -0.5434  0.0010  0.3710
 7401SOL    HW233666   3.334   3.481   7.277 -0.9857 -1.6350  1.6036
 7402SOL     OW33667   3.602   2.944   8.360 -0.0474  0.0495 -0.4672
 7402SOL    HW133668   3.607   2.888   8.437 -1.4718 -1.9391 -1.8221
 7402SOL    HW233669   3.577   2.880   8.293 -3.9854 -1.3585  2.4216
 7403SOL     OW33670   2.772   2.925   8.025  0.3400 -0.0004 -0.3200
 7403SOL    HW133671   2.763   2.901   8.117 -0.5344  0.4696 -0.2836
 7403SOL    HW233672   2.851   2.879   7.995  0.0037 -0.5635 -0.3482
 7404SOL     OW33673   2.693   2.928   4.733  0.3788 -0.4581 -0.0428
 7404SOL    HW133674   2.662   2.895   4.649  0.6167 -2.1366  0.5320
 7404SOL    HW233675   2.637   2.879   4.794  0.2147 -0.2596 -0.0322
 7405SOL     OW33676   4.192   2.355   6.418  0.5491 -0.1111  0.4687
 7405SOL    HW133677   4.233   2.353   6.332  2.0567 -0.9823  1.2029
 7405SOL    HW233678   4.244   2.283   6.454  0.8293 -0.0444  0.1990
 7406SOL     OW33679   1.979   4.235   2.188  0.0951 -0.4489 -0.5444
 7406SOL    HW133680   1.983   4.269   2.277  2.3815 -0.4358 -0.6553
 7406SOL    HW233681   1.894   4.278   2.178 -0.1713 -1.2704 -1.7340
 7407SOL     OW33682   1.856   1.652   4.688  0.2254  0.2426 -0.6836
 7407SOL    HW133683   1.832   1.741   4.662 -1.3957 -0.2459 -0.8548
 7407SOL    HW233684   1.773   1.630   4.731  1.6972 -2.1865  0.9179
 7408SOL     OW33685   0.244   0.564   4.863 -0.1228 -0.2308 -0.2707
 7408SOL    HW133686   0.337   0.546   4.865 -0.1003 -0.0417  0.3633
 7408SOL    HW233687   0.243   0.660   4.870 -1.3059 -0.3513  1.2904
 7409SOL     OW33688   0.201   4.444  14.987 -0.2711 -0.9775 -0.0234
 7409SOL    HW133689   0.179   4.483  15.072  1.0475 -0.1033 -0.0754
 7409SOL    HW233690   0.287   4.478  14.962  0.5291 -2.5677  0.5882
 7410SOL     OW33691   1.913   3.187   5.068  0.9229  0.1277  0.5428
 7410SOL    HW133692   1.981   3.237   5.114 -0.5433  2.6417 -0.0375
 7410SOL    HW233693   1.875   3.251   5.008  0.3624 -2.0199 -1.3870
 7411SOL     OW33694   4.303   0.910  11.732  0.0431 -0.4084 -0.1607
 7411SOL    HW133695   4.308   0.855  11.654 -1.8135 -0.4714 -0.2240
 7411SOL    HW233696   4.327   0.840  11.793 -0.9297  0.4460  1.2018
 7412SOL     OW33697   0.688   4.285   7.682 -0.3170 -0.3270 -0.2537
 7412SOL    HW133698   0.699   4.252   7.592  2.4700 -0.1985  0.0310
 7412SOL    HW233699   0.740   4.228   7.739 -0.7616 -2.4755 -1.9731
 7413SOL     OW33700   0.705   0.120   9.997 -0.3751 -0.3823  0.3950
 7413SOL    HW133701   0.685   0.078   9.913  0.9824 -1.5038  0.6286
 7413SOL    HW233702   0.800   0.129   9.990 -0.1333 -3.1971  0.0354
 7414SOL     OW33703   4.333   3.210  17.430 -0.2453  0.2852 -0.4961
 7414SOL    HW133704   4.331   3.147  17.503 -0.6094  1.5203  0.5613
 7414SOL    HW233705   4.239   3.219  17.415 -0.2337  0.9369 -0.1656
 7415SOL     OW33706   1.644   1.646   6.075  0.4492  0.3787 -0.5216
 7415SOL    HW133707   1.579   1.713   6.052  0.7864  0.4902 -1.1288
 7415SOL    HW233708   1.726   1.689   6.053  0.1293  2.4077  2.1401
 7416SOL     OW33709   1.704   4.277   0.702  0.0915 -0.0683 -0.9090
 7416SOL    HW133710   1.623   4.232   0.678 -0.6606  2.4300 -3.0546
 7416SOL    HW233711   1.754   4.265   0.622  2.2791 -0.1056  0.4709
 7417SOL     OW33712   4.595   2.769  13.028  0.4164  0.1865 -0.2080
 7417SOL    HW133713   4.607   2.819  13.109  3.7877 -3.5490  1.5977
 7417SOL    HW233714   4.512   2.803  12.996  2.6310  2.8853 -3.0618
 7418SOL     OW33715   3.446   2.951   3.152  0.4592 -0.6511  0.0370
 7418SOL    HW133716   3.490   2.916   3.074  0.1278  1.3849 -1.0601
 7418SOL    HW233717   3.442   3.045   3.137 -0.2792 -0.6752  0.0842
 7419SOL     OW33718   3.591   0.906   3.060  0.2802 -0.0904  0.6533
 7419SOL    HW133719   3.564   0.826   3.106  0.8689 -1.1136 -0.7724
 7419SOL    HW233720   3.573   0.874   2.972  1.4357  1.4191 -0.1193
 7420SOL     OW33721   0.002   3.694   1.940 -0.1792 -0.0534  0.0561
 7420SOL    HW133722   0.083   3.663   1.899  0.8657 -0.7772  2.7275
 7420SOL    HW233723   0.021   3.788   1.944 -1.2933  0.1211  1.0696
 7421SOL     OW33724   4.695   1.531   8.592 -0.1724  1.1227 -0.0927
 7421SOL    HW133725   0.063   1.550   8.592 -0.1753  1.1478  1.1244
 7421SOL    HW233726   4.687   1.567   8.504  0.0606 -1.2798 -1.0730
 7422SOL     OW33727   1.500   0.716  10.591  0.1082 -0.2062 -0.1310
 7422SOL    HW133728   1.421   0.732  10.538  0.1604 -0.0659 -0.1662
 7422SOL    HW233729   1.534   0.631  10.563 -0.2004  0.2313 -1.8800
 7423SOL     OW33730   1.616   1.218   3.755  0.0888  0.3050  0.2684
 7423SOL    HW133731   1.554   1.290   3.758  0.7676  0.7924  2.9888
 7423SOL    HW233732   1.642   1.226   3.663  0.4781  0.1445  0.3636
 7424SOL     OW33733   0.211   2.842  16.635 -0.6053 -0.5183 -0.2702
 7424SOL    HW133734   0.162   2.864  16.714  0.8318 -1.1743  0.7944
 7424SOL    HW233735   0.192   2.922  16.587  0.4425  0.8470  1.5686
 7425SOL     OW33736   0.303   3.264  14.044  0.0515 -0.0252 -0.5423
 7425SOL    HW133737   0.349   3.201  13.988  1.0464  0.1453  0.0916
 7425SOL    HW233738   0.222   3.279  13.996  0.4643 -0.4169 -1.3612
 7426SOL     OW33739   4.258   0.222  10.772  0.1754 -0.3294  0.0108
 7426SOL    HW133740   4.334   0.281  10.767  0.0091 -0.0042  1.2840
 7426SOL    HW233741   4.280   0.176  10.853  2.3397 -2.1475 -1.6073
 7427SOL     OW33742   2.256   0.519   4.117  0.5938 -0.1445  0.6069
 7427SOL    HW133743   2.316   0.539   4.189  2.3651 -1.6092 -0.4865
 7427SOL    HW233744   2.313   0.523   4.041  1.9550 -1.3285  1.5851
 7428SOL     OW33745   1.613   1.188  10.495 -0.3477 -0.2025  0.4589
 7428SOL    HW133746   1.555   1.162  10.567  0.5051 -1.9095  0.5351
 7428SOL    HW233747   1.559   1.186  10.416  0.9220  0.6575 -0.4177
 7429SOL     OW33748   2.036   0.037   5.141 -0.3470 -0.1115 -0.5409
 7429SOL    HW133749   2.011   4.683   5.096 -0.3441 -0.2825 -0.2411
 7429SOL    HW233750   1.960   0.092   5.125 -0.8227 -1.0416 -1.4234
 7430SOL     OW33751   2.824   1.007   1.600 -0.2408 -0.3776  0.0071
 7430SOL    HW133752   2.825   1.048   1.514 -1.7262  0.6769  0.4946
 7430SOL    HW233753   2.890   1.055   1.650 -1.1623  0.3580  0.5137
 7431SOL     OW33754   3.221   3.372   0.014 -0.0561 -0.1065  0.0097
 7431SOL    HW133755   3.156   3.355   0.082  1.6737  0.0050  1.7033
 7431SOL    HW233756   3.189   3.453  17.682  0.5043  0.6292  1.0822
 7432SOL     OW33757   2.606   3.937  14.140  0.4055  0.0611 -0.1102
 7432SOL    HW133758   2.584   3.975  14.225  1.4307 -0.3255  0.3279
 7432SOL    HW233759   2.678   3.994  14.112  1.0256  0.0226  1.3773
 7433SOL     OW33760   2.260   4.627   7.066 -0.2284 -0.2597  0.2557
 7433SOL    HW133761   2.309   4.668   7.137  0.1244 -0.6987  0.2637
 7433SOL    HW233762   2.300   4.670   6.991 -1.5228  1.2535  0.4394
 7434SOL     OW33763   2.673   1.317  15.912  0.1677 -0.6760  0.0838
 7434SOL    HW133764   2.653   1.238  15.963 -0.5235  0.5228  1.6853
 7434SOL    HW233765   2.596   1.370  15.931  0.5526 -0.2022  0.3588
 7435SOL     OW33766   4.616   0.379   6.970  0.3616 -0.2976 -0.0843
 7435SOL    HW133767   4.555   0.333   6.912 -2.6688  0.0321  2.8495
 7435SOL    HW233768   4.562   0.451   7.003  0.2875  0.0096 -0.8668
 7436SOL     OW33769   1.658   1.654  15.070 -0.0900 -0.2614 -0.6864
 7436SOL    HW133770   1.601   1.703  15.010 -0.3825 -0.0974 -0.2740
 7436SOL    HW233771   1.669   1.720  15.139  0.2456  0.4605 -1.4254
 7437SOL     OW33772   3.517   0.223   7.291 -0.0449  0.3791 -0.5052
 7437SOL    HW133773   3.575   0.290   7.327  0.9943 -1.2959  0.9558
 7437SOL    HW233774   3.499   0.167   7.366 -1.0889 -0.8081 -1.6411
 7438SOL     OW33775   2.654   2.213   5.773 -0.2419  0.5451  0.0184
 7438SOL    HW133776   2.623   2.181   5.689  0.6602  1.7288 -0.7599
 7438SOL    HW233777   2.742   2.247   5.755 -0.2087  0.6016  0.2821
 7439SOL     OW33778   4.498   3.602   1.780 -0.3138  0.1457  0.6312
 7439SOL    HW133779   4.576   3.594   1.834  0.9398 -1.9833 -1.5185
 7439SOL    HW233780   4.476   3.510   1.765  0.7379  0.4256 -2.4921
 7440SOL     OW33781   3.894   1.174  14.201  0.5208 -0.5136 -1.1074
 7440SOL    HW133782   3.848   1.255  14.180 -0.3895 -0.9357 -0.7828
 7440SOL    HW233783   3.878   1.123  14.121 -1.2229 -0.5760 -0.7372
 7441SOL     OW33784   2.001   2.588   3.448  0.3774 -0.1035  0.2259
 7441SOL    HW133785   2.092   2.568   3.423 -0.7861 -3.8681 -0.9977
 7441SOL    HW233786   1.963   2.505   3.420  0.8379 -0.0738 -0.4803
 7442SOL     OW33787   0.689   4.260   2.391  0.2591 -0.1094 -0.6045
 7442SOL    HW133788   0.694   4.189   2.456  0.5079 -0.3297 -0.8633
 7442SOL    HW233789   0.774   4.302   2.400  0.6824 -0.8542 -1.1120
 7443SOL     OW33790   0.020   3.326   2.187  0.3358  0.0893  0.1922
 7443SOL    HW133791   4.674   3.273   2.219  0.7854  1.4588  3.4455
 7443SOL    HW233792   4.720   3.402   2.239 -3.0563  0.3038 -1.8590
 7444SOL     OW33793   4.074   0.109  10.291  0.3617 -0.6873  0.7841
 7444SOL    HW133794   3.988   0.071  10.307  0.9726 -1.3797  2.3756
 7444SOL    HW233795   4.065   0.189  10.342 -1.6625 -1.0261  0.9697
 7445SOL     OW33796   0.195   4.626   1.174  0.2945  0.0339 -0.2683
 7445SOL    HW133797   0.127   4.682   1.136  1.8177  2.2715  0.3245
 7445SOL    HW233798   0.149   4.594   1.251 -0.5924 -0.4328 -0.9799
 7446SOL     OW33799   0.238   3.713   4.104 -0.9127  0.3470 -0.2570
 7446SOL    HW133800   0.323   3.726   4.146 -1.1145 -2.8556  1.1331
 7446SOL    HW233801   0.189   3.699   4.184  0.6328 -0.6761  0.5120
 7447SOL     OW33802   3.804   3.760   3.368  0.1667 -0.1343 -0.3062
 7447SOL    HW133803   3.881   3.708   3.390  1.0813  0.7595 -1.3654
 7447SOL    HW233804   3.760   3.701   3.307 -2.6607 -0.9379  2.5690
 7448SOL     OW33805   4.700   3.007   5.804  0.0604 -0.6898 -0.9942
 7448SOL    HW133806   4.650   2.948   5.861 -0.9987  1.7491  0.6067
 7448SOL    HW233807   0.046   2.946   5.795  0.4584 -0.7254  2.4833
 7449SOL     OW33808   2.995   1.825  12.050  0.2979 -0.2067 -0.3292
 7449SOL    HW133809   3.042   1.908  12.040  0.3999 -0.0182  1.7494
 7449SOL    HW233810   3.039   1.790  12.127  1.2030  1.6490 -0.0046
 7450SOL     OW33811   3.250   3.374   7.594  0.6415  0.1528 -0.7090
 7450SOL    HW133812   3.253   3.446   7.531 -0.8769  1.5069  0.7675
 7450SOL    HW233813   3.261   3.420   7.677  0.7963 -1.9828  0.4443
 7451SOL     OW33814   4.386   2.483   0.421  0.0756  0.5229 -0.3671
 7451SOL    HW133815   4.450   2.541   0.463  0.4122  0.6522 -1.0595
 7451SOL    HW233816   4.346   2.552   0.368  0.9336  1.3696  0.0757
 7452SOL     OW33817   0.678   1.317  12.122 -0.8290  0.6753 -0.3422
 7452SOL    HW133818   0.696   1.329  12.029  0.7811 -0.9335 -0.2391
 7452SOL    HW233819   0.705   1.225  12.124 -0.5566  0.7137 -1.8689
 7453SOL     OW33820   3.759   4.601   6.830  0.2661  0.7390 -0.2353
 7453SOL    HW133821   3.673   4.643   6.836  0.5676  1.0174  2.2786
 7453SOL    HW233822   3.815   4.677   6.847  1.8945 -0.3103 -0.9392
 7454SOL     OW33823   4.248   0.553   5.511 -0.1361 -0.3031  0.6602
 7454SOL    HW133824   4.254   0.603   5.593  0.2578 -1.4420  1.3153
 7454SOL    HW233825   4.334   0.554   5.468 -1.2833  1.0190 -1.6390
 7455SOL     OW33826   0.630   0.153   0.714 -0.2282 -0.6295  0.2361
 7455SOL    HW133827   0.643   0.070   0.667  0.6827 -0.7248  0.6635
 7455SOL    HW233828   0.646   0.122   0.803  1.0893  0.2140  0.2776
 7456SOL     OW33829   3.015   3.266   4.722 -0.3214 -0.2333 -0.1393
 7456SOL    HW133830   3.027   3.285   4.630 -0.0087  2.0459  0.3819
 7456SOL    HW233831   3.107   3.249   4.741 -0.2382 -0.1571 -0.4770
 7457SOL     OW33832   2.133   1.362  16.064 -0.0946 -0.2021 -0.1232
 7457SOL    HW133833   2.180   1.445  16.052  0.7018 -0.4678  1.1170
 7457SOL    HW233834   2.132   1.356  16.160 -1.4320 -4.0154 -0.3573
 7458SOL     OW33835   0.762   0.834   8.207 -0.4370 -0.4733 -0.0241
 7458SOL    HW133836   0.724   0.830   8.295 -0.2592  2.2155  0.1821
 7458SOL    HW233837   0.800   0.922   8.216  0.2240 -0.5379 -2.0980
 7459SOL     OW33838   2.104   3.669   4.116  0.1675  0.4388  0.2488
 7459SOL    HW133839   2.032   3.613   4.085 -0.9530  0.5591  2.5940
 7459SOL    HW233840   2.180   3.612   4.117 -1.3755 -1.6420 -0.3729
 7460SOL     OW33841   0.394   1.192  11.257 -0.3937  0.1309 -0.1000
 7460SOL    HW133842   0.461   1.150  11.202  0.5524  1.4527  0.0669
 7460SOL    HW233843   0.320   1.210  11.199 -0.7258 -1.5356 -0.2067
 7461SOL     OW33844   0.016   2.686   4.361 -0.5231  0.0808 -0.2330
 7461SOL    HW133845   0.013   2.731   4.277  0.1005  2.3382  0.9492
 7461SOL    HW233846   0.110   2.674   4.372 -0.4272  1.4490  0.4320
 7462SOL     OW33847   3.259   1.110   2.689  0.2839  0.0182 -0.0264
 7462SOL    HW133848   3.296   1.131   2.603 -1.6905  1.0316 -0.6299
 7462SOL    HW233849   3.312   1.161   2.750  1.4470 -2.0242  0.6727
 7463SOL     OW33850   1.391   4.389   8.542 -0.7257 -0.1060  0.8776
 7463SOL    HW133851   1.360   4.452   8.477 -2.0719 -1.1351  0.5105
 7463SOL    HW233852   1.308   4.376   8.589 -1.7589  1.2765 -0.5609
 7464SOL     OW33853   0.115   4.712   0.281  0.1969  0.4660  0.2987
 7464SOL    HW133854   0.200   0.006   0.243  1.3939  0.2043  2.7931
 7464SOL    HW233855   0.145   4.685   0.368  0.9220  3.0188  0.8335
 7465SOL     OW33856   3.311   0.938   2.979  0.9796  0.3446  0.1747
 7465SOL    HW133857   3.308   0.846   3.006  1.0897  0.6235  1.1325
 7465SOL    HW233858   3.238   0.936   2.917  0.0821 -2.6969  1.3253
 7466SOL     OW33859   0.378   1.832   8.663 -0.4079 -0.5989 -0.7910
 7466SOL    HW133860   0.325   1.765   8.706 -0.7854  0.2767  0.1292
 7466SOL    HW233861   0.401   1.805   8.575  0.0540 -0.5270 -0.6954
 7467SOL     OW33862   3.830   0.263  10.096 -0.2578 -0.3978 -0.0483
 7467SOL    HW133863   3.742   0.225  10.093  0.4050 -1.5006 -4.4637
 7467SOL    HW233864   3.843   0.272  10.191  0.4382 -0.2379 -0.1618
 7468SOL     OW33865   2.167   0.831  12.116 -0.2829  0.3827 -0.0459
 7468SOL    HW133866   2.172   0.815  12.022  1.8228  1.1474 -0.0736
 7468SOL    HW233867   2.255   0.805  12.144  0.2527 -0.0597 -2.1360
 7469SOL     OW33868   2.832   2.513   1.690  0.3501 -0.0560  0.1495
 7469SOL    HW133869   2.891   2.519   1.765  1.2587  0.4890 -0.6107
 7469SOL    HW233870   2.876   2.577   1.633  2.8399  1.2776  3.6093
 7470SOL     OW33871   0.975   3.083   9.102  0.2356  0.0347  0.1314
 7470SOL    HW133872   0.956   3.126   9.018  1.9730  1.2605  0.3647
 7470SOL    HW233873   1.071   3.080   9.105  0.2637 -0.2562 -1.1136
 7471SOL     OW33874   1.614   3.667   7.098 -0.0856  0.2640  0.5491
 7471SOL    HW133875   1.558   3.590   7.095 -0.4826  0.5580  0.2916
 7471SOL    HW233876   1.588   3.708   7.180  1.9460 -0.9321  1.7760
 7472SOL     OW33877   0.547   1.291   6.674  0.1987  0.6907  0.3985
 7472SOL    HW133878   0.615   1.265   6.736  0.9549 -0.4886 -0.9269
 7472SOL    HW233879   0.587   1.276   6.589 -1.6036  3.6878 -0.9645
 7473SOL     OW33880   0.936   3.488  13.825 -0.5898  0.4977 -0.5537
 7473SOL    HW133881   1.010   3.439  13.789  0.3103  0.7901  0.8737
 7473SOL    HW233882   0.962   3.580  13.822  3.4881 -0.7603 -2.9176
 7474SOL     OW33883   3.834   3.276   6.870  0.1295 -0.0133  0.5376
 7474SOL    HW133884   3.812   3.364   6.841 -0.4459  0.8665  3.6772
 7474SOL    HW233885   3.751   3.267   6.917 -0.3019  3.0719  0.3693
 7475SOL     OW33886   1.008   3.710   1.541  0.4190  0.0922 -0.4734
 7475SOL    HW133887   1.033   3.621   1.565 -0.0727 -0.8166 -3.2970
 7475SOL    HW233888   1.086   3.765   1.547  1.1768 -0.8922 -1.1372
 7476SOL     OW33889   1.049   0.537  15.262  0.4326  0.1751 -0.1131
 7476SOL    HW133890   0.977   0.496  15.215 -1.1987  1.9574  0.8600
 7476SOL    HW233891   1.070   0.618  15.215  0.9273  0.1308  0.0221
 7477SOL     OW33892   1.739   0.799   3.951  0.6998 -0.3857 -0.3581
 7477SOL    HW133893   1.824   0.835   3.976  0.8046 -0.5234 -0.5125
 7477SOL    HW233894   1.769   0.758   3.870 -0.3727 -0.3001 -0.7877
 7478SOL     OW33895   0.262   1.200   4.075 -0.2686 -0.3380  0.0142
 7478SOL    HW133896   0.350   1.220   4.044 -0.6502  0.2168 -0.7157
 7478SOL    HW233897   0.269   1.117   4.123  0.7565  0.4595  1.2300
 7479SOL     OW33898   1.729   4.679  10.623  0.2464 -0.2120 -0.1065
 7479SOL    HW133899   1.747   0.008  10.547  0.0427  1.2187  0.9078
 7479SOL    HW233900   1.634   4.673  10.634  0.3940 -0.9578  0.7547
 7480SOL     OW33901   1.687   3.788  14.214  0.0383  0.0993  0.1299
 7480SOL    HW133902   1.611   3.841  14.189 -1.3243 -0.7391  2.4823
 7480SOL    HW233903   1.707   3.733  14.138  1.3130  0.0163  0.5254
 7481SOL     OW33904   1.688   2.957  11.042 -0.5887 -0.5326 -0.2297
 7481SOL    HW133905   1.756   3.025  11.045  0.7871 -1.9997  1.6315
 7481SOL    HW233906   1.635   2.988  11.116 -0.3359 -0.3858 -0.1106
 7482SOL     OW33907   4.716   4.661  14.931 -0.5132  0.2884 -0.0378
 7482SOL    HW133908   4.654   4.695  14.865  1.6007  0.7265 -1.7984
 7482SOL    HW233909   0.069   4.649  14.880 -0.2495 -0.8307  0.6632
 7483SOL     OW33910   2.353   0.204   1.715  0.7824 -0.1531 -0.1750
 7483SOL    HW133911   2.369   0.297   1.728 -0.2511  0.0911 -0.6489
 7483SOL    HW233912   2.269   0.205   1.670  1.9477  0.0139 -2.3781
 7484SOL     OW33913   1.426   3.528   8.567 -0.1028 -0.0849 -0.8237
 7484SOL    HW133914   1.389   3.456   8.618 -0.7613 -0.0052 -1.1855
 7484SOL    HW233915   1.382   3.502   8.486  1.4137 -0.2884 -1.5790
 7485SOL     OW33916   1.593   3.492   8.099 -0.0734  0.1655  0.2648
 7485SOL    HW133917   1.527   3.551   8.063 -0.2806  0.9479  1.9576
 7485SOL    HW233918   1.630   3.452   8.020  0.1867  1.4468 -0.2645
 7486SOL     OW33919   0.378   0.684   2.861  0.1053 -0.0301  0.0782
 7486SOL    HW133920   0.411   0.764   2.821 -2.9711  0.8214 -0.7736
 7486SOL    HW233921   0.326   0.650   2.788 -0.2275  0.4329  0.1039
 7487SOL     OW33922   3.867   3.026   4.013  0.2144  0.0645  0.2020
 7487SOL    HW133923   3.956   2.992   4.005 -0.7687 -2.1461 -1.2131
 7487SOL    HW233924   3.834   2.981   4.092 -1.2592  1.7341  0.5426
 7488SOL     OW33925   3.593   1.976   2.892 -0.2704 -0.0685 -0.1643
 7488SOL    HW133926   3.619   2.052   2.943  1.5923  0.8635 -2.5012
 7488SOL    HW233927   3.672   1.933   2.860 -1.5367 -1.8745 -0.8716
 7489SOL     OW33928   3.576   4.578   1.076 -0.6217 -0.2126  0.3400
 7489SOL    HW133929   3.566   4.503   1.018 -1.2760  0.1781 -0.0485
 7489SOL    HW233930   3.551   4.651   1.019  0.2656 -2.2462 -2.6028
 7490SOL     OW33931   2.452   4.244  14.551  0.2541 -0.2385 -0.0965
 7490SOL    HW133932   2.482   4.332  14.574 -1.0513  0.2007 -0.0700
 7490SOL    HW233933   2.428   4.206  14.636  1.6494  0.5803  0.6509
 7491SOL     OW33934   3.140   0.070   4.931 -0.1293  0.3102 -0.2278
 7491SOL    HW133935   3.076   0.074   5.002  2.0276 -0.1604  1.7256
 7491SOL    HW233936   3.133   4.704   4.910  0.7696  0.4661 -1.2266
 7492SOL     OW33937   4.445   2.008  15.341 -0.4351  0.4324  0.5030
 7492SOL    HW133938   4.428   2.074  15.274  0.8866  0.2745  0.0166
 7492SOL    HW233939   4.386   1.940  15.306 -0.6613  0.6245  0.5154
 7493SOL     OW33940   4.252   3.260   8.363  0.0004 -1.0837 -0.9189
 7493SOL    HW133941   4.158   3.247   8.349 -0.1846 -0.8988  0.1167
 7493SOL    HW233942   4.280   3.261   8.272  0.5078  0.1268 -0.7364
 7494SOL     OW33943   1.844   2.007   8.158 -0.0523  0.5416  0.0446
 7494SOL    HW133944   1.797   1.930   8.189 -0.9955  0.3129 -1.9858
 7494SOL    HW233945   1.792   2.079   8.195  0.3441 -1.0171  3.7125
 7495SOL     OW33946   0.143   3.805  12.965  0.1566 -0.3875  0.3335
 7495SOL    HW133947   0.114   3.714  12.959 -1.8035  0.2716 -0.2460
 7495SOL    HW233948   0.136   3.827  13.059 -1.1979 -1.3421  0.4476
 7496SOL     OW33949   2.124   2.268  13.233  0.2803  0.2491  0.7963
 7496SOL    HW133950   2.033   2.272  13.262 -0.0400  0.7758 -0.2679
 7496SOL    HW233951   2.147   2.360  13.241  1.2978  0.0762 -0.2172
 7497SOL     OW33952   1.604   2.062   6.809  0.8629  0.2581 -0.1919
 7497SOL    HW133953   1.695   2.072   6.781  1.5809 -2.5777  1.1392
 7497SOL    HW233954   1.604   1.967   6.823 -0.1655  0.2356 -0.3033
 7498SOL     OW33955   2.661   1.307   6.997 -0.0034  0.0120 -0.3358
 7498SOL    HW133956   2.582   1.311   6.944 -1.7848 -0.0988  2.3313
 7498SOL    HW233957   2.729   1.276   6.936  0.5964  1.8579 -0.5879
 7499SOL     OW33958   1.296   0.109   4.405  0.0085  0.1938  0.3928
 7499SOL    HW133959   1.281   0.173   4.335 -1.8696 -1.2686 -0.5385
 7499SOL    HW233960   1.391   0.116   4.409  0.2243 -1.7019 -1.3815
 7500SOL     OW33961   2.413   0.080  10.974  0.8140  0.1296  0.0901
 7500SOL    HW133962   2.383   0.133  10.899 -1.0601  0.4055  1.0532
 7500SOL    HW233963   2.330   0.058  11.015  0.2953  0.8353 -0.5619
 7501SOL     OW33964   4.061   3.288  14.222 -1.0166  0.0743  0.7537
 7501SOL    HW133965   4.084   3.348  14.293  0.2693  1.4686 -0.8618
 7501SOL    HW233966   3.974   3.257  14.249 -0.6068 -0.2696  1.6933
 7502SOL     OW33967   1.403   1.384   5.035 -0.3414  0.2151 -0.0523
 7502SOL    HW133968   1.399   1.409   5.127  1.4385  0.6407 -0.0977
 7502SOL    HW233969   1.328   1.431   4.999 -0.3850 -0.2584 -0.5738
 7503SOL     OW33970   2.276   0.541   7.998  0.0117  0.1604 -0.1594
 7503SOL    HW133971   2.237   0.569   8.081  1.0700  0.0654  0.3728
 7503SOL    HW233972   2.366   0.540   8.031  0.5206  0.8057 -1.5614
 7504SOL     OW33973   1.450   1.132  14.927  0.3221  0.3382  0.0827
 7504SOL    HW133974   1.475   1.090  15.010 -0.0399 -1.0284 -0.5084
 7504SOL    HW233975   1.497   1.214  14.938 -0.0075  0.5387 -0.0188
 7505SOL     OW33976   2.035   0.517   0.817  0.1241  0.2049 -0.0880
 7505SOL    HW133977   2.071   0.580   0.878 -0.5587  1.1702 -0.6796
 7505SOL    HW233978   2.058   0.553   0.731  0.4464  0.1283 -0.0355
 7506SOL     OW33979   2.837   0.352   3.622  0.4199  0.0252 -0.1800
 7506SOL    HW133980   2.831   0.270   3.573  1.5728 -0.4126  0.4161
 7506SOL    HW233981   2.801   0.422   3.567  0.6407 -0.4340 -0.9015
 7507SOL     OW33982   4.280   4.195   5.639  0.3189 -0.0635  0.1800
 7507SOL    HW133983   4.197   4.208   5.684 -0.7855  0.0623 -1.8739
 7507SOL    HW233984   4.327   4.252   5.699  0.5052  1.0528 -1.0051
 7508SOL     OW33985   0.789   4.634   6.203  0.2615  0.5138 -0.6529
 7508SOL    HW133986   0.809   4.719   6.244 -2.1034  1.4180 -1.4133
 7508SOL    HW233987   0.697   4.641   6.180  0.2184  0.9936 -0.3400
 7509SOL     OW33988   1.647   0.315   5.132 -0.2883  0.2258  0.0901
 7509SOL    HW133989   1.654   0.290   5.224 -2.8436 -3.5866 -0.7497
 7509SOL    HW233990   1.699   0.252   5.081  0.3103  0.7578  0.0388
 7510SOL     OW33991   1.350   4.094   8.763  0.0437  0.6057  0.0266
 7510SOL    HW133992   1.340   4.132   8.850  0.1031  0.9545 -0.1169
 7510SOL    HW233993   1.315   4.008   8.788  1.3708 -0.1270 -0.6121
 7511SOL     OW33994   4.117   4.689  12.544  0.1712  0.1419  0.6900
 7511SOL    HW133995   4.062   4.681  12.621 -2.0859 -1.4055 -1.0809
 7511SOL    HW233996   4.187   4.623  12.547  0.3587  0.3336  0.5871
 7512SOL     OW33997   3.965   3.278   6.038  0.2271  0.1544  0.4842
 7512SOL    HW133998   3.934   3.364   6.067  0.6156  1.0732 -1.7813
 7512SOL    HW233999   3.896   3.248   5.978  0.4551 -0.4504  0.5315
 7513SOL     OW34000   3.567   3.267  16.733  0.2347  0.4419  0.1855
 7513SOL    HW134001   3.557   3.362  16.747  0.8305  0.5796 -0.3735
 7513SOL    HW234002   3.586   3.257  16.640  1.1889 -3.1349  0.7973
 7514SOL     OW34003   4.164   3.903   2.281 -0.1023 -0.3890  0.2357
 7514SOL    HW134004   4.091   3.910   2.343  1.2454  3.1383  1.4381
 7514SOL    HW234005   4.127   3.892   2.193 -2.3971 -0.6351  1.2282
 7515SOL     OW34006   2.097   0.181  13.531 -0.2242  0.2132  0.7986
 7515SOL    HW134007   2.073   0.125  13.457  0.7166  1.3627 -0.3972
 7515SOL    HW234008   2.179   0.215  13.495 -0.0553 -0.0096  0.9764
 7516SOL     OW34009   1.835   0.809   7.219 -0.5507  0.3179  0.0401
 7516SOL    HW134010   1.793   0.758   7.288 -0.9378 -0.1898 -0.5858
 7516SOL    HW234011   1.787   0.789   7.139  2.3398 -2.3475 -1.0249
 7517SOL     OW34012   2.049   1.564   7.710  0.4432  0.1398 -0.2810
 7517SOL    HW134013   2.112   1.628   7.745  1.3550 -0.8633 -0.0817
 7517SOL    HW234014   2.009   1.535   7.793  0.2253  0.9645 -0.0977
 7518SOL     OW34015   2.643   0.573   7.197  0.0364 -0.6829 -0.5535
 7518SOL    HW134016   2.650   0.651   7.142 -3.8030 -1.0906 -1.6218
 7518SOL    HW234017   2.692   0.518   7.136  0.6993 -0.3374 -0.3307
 7519SOL     OW34018   2.096   3.760   6.583  0.7192 -1.1851 -0.1891
 7519SOL    HW134019   2.048   3.708   6.648 -2.3299 -1.7466 -2.9120
 7519SOL    HW234020   2.048   3.738   6.503  0.6309 -1.2846 -0.1095
 7520SOL     OW34021   1.140   4.188   3.232  0.0786  0.0569  0.4255
 7520SOL    HW134022   1.217   4.131   3.235  1.5994  2.1823  1.0609
 7520SOL    HW234023   1.119   4.180   3.138  0.5470  1.4893  0.2056
 7521SOL     OW34024   2.103   2.987   2.693  0.1690 -0.1891 -1.2136
 7521SOL    HW134025   2.070   2.909   2.647 -4.7664  0.5763  0.9828
 7521SOL    HW234026   2.087   2.964   2.785 -2.0007  0.7881 -1.3339
 7522SOL     OW34027   1.662   2.906   7.259  0.1415 -0.3688 -0.8939
 7522SOL    HW134028   1.666   3.001   7.272 -0.0667 -0.9121  2.9300
 7522SOL    HW234029   1.604   2.883   7.331 -0.8384  0.4440 -1.4310
 7523SOL     OW34030   0.535   2.573   5.082 -0.4039 -0.1417  0.4901
 7523SOL    HW134031   0.516   2.482   5.063 -0.8196 -0.2015  1.2163
 7523SOL    HW234032   0.627   2.570   5.108 -0.2175 -0.3128 -0.1845
 7524SOL     OW34033   3.597   3.878  10.403 -0.0628  0.2435  0.1331
 7524SOL    HW134034   3.525   3.940  10.417  1.7210  2.3019  0.2610
 7524SOL    HW234035   3.592   3.876  10.308 -0.3660 -0.4980  0.1645
 7525SOL     OW34036   2.723   1.546   0.666  0.2790 -0.1439  0.3208
 7525SOL    HW134037   2.641   1.593   0.651  0.5156 -0.4653 -1.9963
 7525SOL    HW234038   2.771   1.602   0.727  0.9743 -0.2659 -0.1061
 7526SOL     OW34039   2.159   3.120   7.217 -0.1257  1.0648  0.0074
 7526SOL    HW134040   2.076   3.093   7.179 -0.3034  1.1763  0.3187
 7526SOL    HW234041   2.158   3.072   7.300 -0.4979 -0.8168 -1.0848
 7527SOL     OW34042   1.905   2.731  16.286 -0.4769 -0.1357 -0.1874
 7527SOL    HW134043   1.898   2.808  16.230 -0.3635  0.1154  0.1422
 7527SOL    HW234044   1.894   2.657  16.226 -1.7578  1.1953 -1.5999
 7528SOL     OW34045   4.148   2.616  14.899 -0.4587  0.6872 -0.0037
 7528SOL    HW134046   4.085   2.556  14.859 -1.2629  1.8229 -0.4335
 7528SOL    HW234047   4.093   2.653  14.968  1.7101  0.8745  1.6073
 7529SOL     OW34048   1.365   2.611   8.369  0.0361  0.9460 -0.1626
 7529SOL    HW134049   1.270   2.603   8.376  0.2022 -0.1441  0.9037
 7529SOL    HW234050   1.389   2.563   8.449 -1.6451  2.6890  1.3851
 7530SOL     OW34051   2.175   1.703   3.228  0.0248 -0.5239  0.1992
 7530SOL    HW134052   2.113   1.730   3.296  1.0930 -2.1272  1.8208
 7530SOL    HW234053   2.230   1.781   3.219 -0.2343 -0.5993 -1.9782
 7531SOL     OW34054   2.288   2.833   6.645 -0.3037  0.1871  0.2971
 7531SOL    HW134055   2.208   2.780   6.647 -0.7285  0.8182 -0.1607
 7531SOL    HW234056   2.359   2.772   6.664  1.4667  2.1230 -0.1763
 7532SOL     OW34057   1.604   0.251   1.445  0.4919  0.1035  0.0133
 7532SOL    HW134058   1.510   0.243   1.426  0.5393  1.7493 -0.9133
 7532SOL    HW234059   1.651   0.224   1.366  1.3296 -0.7017  0.7780
 7533SOL     OW34060   3.379   2.742   7.981  0.4724  0.5171 -1.3426
 7533SOL    HW134061   3.335   2.662   8.010  1.1459  1.3531  1.9817
 7533SOL    HW234062   3.310   2.806   7.963 -1.8992 -1.2937  1.2654
 7534SOL     OW34063   4.600   2.900   6.590 -0.4777  0.6202  0.4674
 7534SOL    HW134064   4.555   2.907   6.505 -2.5528  1.3685  1.6452
 7534SOL    HW234065   4.605   2.991   6.617  1.1459  0.6489  0.0439
 7535SOL     OW34066   2.832   3.223   0.760 -0.1627  0.3246  0.3097
 7535SOL    HW134067   2.904   3.218   0.697 -1.0610 -0.4512 -0.6625
 7535SOL    HW234068   2.799   3.134   0.751  0.4328 -0.2039  3.4084
 7536SOL     OW34069   1.260   1.353   3.235  0.1545 -0.3375  0.0780
 7536SOL    HW134070   1.321   1.340   3.163 -0.6394  0.1776 -0.6908
 7536SOL    HW234071   1.180   1.384   3.193 -0.7095 -1.8652  0.6006
 7537SOL     OW34072   2.048   0.033   7.866 -0.4187  0.0250  0.2355
 7537SOL    HW134073   2.053   4.677   7.818  1.7643  0.6508 -0.5949
 7537SOL    HW234074   2.109   0.020   7.938  0.7939 -0.0487 -0.8116
 7538SOL     OW34075   1.471   0.029   6.720 -0.3107  0.3180  0.0176
 7538SOL    HW134076   1.380   0.054   6.732  0.1248  0.8314  2.1682
 7538SOL    HW234077   1.489   4.672   6.763 -0.1855 -1.0674 -2.7046
 7539SOL     OW34078   2.188   3.666  15.728 -0.0233  0.0689 -0.4230
 7539SOL    HW134079   2.231   3.749  15.752  1.6516 -0.6329 -1.0565
 7539SOL    HW234080   2.246   3.639  15.657 -2.2015 -1.2083 -1.7026
 7540SOL     OW34081   3.802   1.812  10.741  0.2601  0.4996  0.0981
 7540SOL    HW134082   3.791   1.869  10.817 -0.4620 -0.4698  0.7158
 7540SOL    HW234083   3.887   1.838  10.703 -1.0409  3.2677 -0.9551
 7541SOL     OW34084   1.911   1.491   1.392 -0.2316 -0.0820  0.5371
 7541SOL    HW134085   1.924   1.401   1.421  0.6045  0.3607  1.4989
 7541SOL    HW234086   1.934   1.541   1.470  1.7075  1.3850 -0.9813
 7542SOL     OW34087   4.652   4.541   9.571 -0.0212  0.3954 -0.4366
 7542SOL    HW134088   4.593   4.476   9.534  1.6312 -1.4122  0.1425
 7542SOL    HW234089   4.634   4.611   9.508  1.6294 -0.8382 -2.2551
 7543SOL     OW34090   0.537   0.780  13.352  0.1466  0.1458 -0.0250
 7543SOL    HW134091   0.472   0.783  13.281  1.0730 -0.3338 -0.9033
 7543SOL    HW234092   0.496   0.844  13.410 -0.9877 -0.0292 -0.6123
 7544SOL     OW34093   0.557   2.407  10.864 -0.0005  0.0114  0.4270
 7544SOL    HW134094   0.545   2.407  10.769 -1.2072 -1.1295  0.5696
 7544SOL    HW234095   0.642   2.363  10.869 -0.5698 -1.1208  0.2199
 7545SOL     OW34096   2.982   0.527   7.269  0.2855  0.4344  0.1014
 7545SOL    HW134097   3.031   0.486   7.197 -0.4247  0.5977 -0.4676
 7545SOL    HW234098   3.030   0.487   7.342  0.1007 -0.1505 -0.0952
 7546SOL     OW34099   0.077   1.712  13.192 -1.1112 -0.0103  0.1302
 7546SOL    HW134100   0.130   1.756  13.258 -1.1693  1.1866 -0.6149
 7546SOL    HW234101   0.052   1.782  13.132  0.1971 -0.1761 -0.6023
 7547SOL     OW34102   3.667   2.048   7.457  0.0412 -0.7859 -0.1270
 7547SOL    HW134103   3.686   1.977   7.396 -1.2496 -2.0113  0.8926
 7547SOL    HW234104   3.583   2.068   7.417  0.7685 -1.2687 -1.8913
 7548SOL     OW34105   3.272   4.022   4.134  0.0295 -0.5230  0.2948
 7548SOL    HW134106   3.282   4.046   4.042 -0.1680  0.7714  0.6030
 7548SOL    HW234107   3.179   4.033   4.151  0.2443 -0.8162  1.6397
 7549SOL     OW34108   4.281   4.359  14.687  0.2942 -0.1846 -0.4394
 7549SOL    HW134109   4.352   4.379  14.747 -2.3307 -0.4000  2.7095
 7549SOL    HW234110   4.208   4.358  14.748  1.1787  0.0209  0.6264
 7550SOL     OW34111   3.453   1.034  13.234  0.3294 -0.0278 -0.1893
 7550SOL    HW134112   3.433   1.086  13.155 -0.7014  1.1271  0.8206
 7550SOL    HW234113   3.368   1.033  13.278 -0.2286  3.1037 -1.1782
 7551SOL     OW34114   2.273   3.346   6.432 -0.1790  0.4482  0.3635
 7551SOL    HW134115   2.208   3.298   6.381  2.0394 -1.1575 -0.9527
 7551SOL    HW234116   2.353   3.327   6.383 -0.4499  1.3386 -0.4181
 7552SOL     OW34117   2.733   4.664   2.643 -0.3701 -0.5184  0.1702
 7552SOL    HW134118   2.661   4.625   2.594 -0.1371 -0.5099 -0.1825
 7552SOL    HW234119   2.781   4.696   2.566  2.0229  0.9276  2.2689
 7553SOL     OW34120   0.962   3.112   6.913 -0.6318  0.4925  0.1337
 7553SOL    HW134121   0.950   3.201   6.879 -2.2138  0.1185 -0.2859
 7553SOL    HW234122   1.052   3.098   6.884 -0.7110 -0.1710  0.2053
 7554SOL     OW34123   4.603   1.771   6.031 -0.1273  1.2157 -0.0774
 7554SOL    HW134124   4.658   1.756   5.954  0.0078  0.5335  0.1547
 7554SOL    HW234125   4.659   1.830   6.082  1.2677 -1.8482  1.9454
 7555SOL     OW34126   2.828   2.799   9.719 -0.0453 -0.3531 -0.6808
 7555SOL    HW134127   2.899   2.758   9.767 -0.8740  0.0595  0.8877
 7555SOL    HW234128   2.864   2.799   9.630 -1.2350 -0.7084 -1.1631
 7556SOL     OW34129   0.852   1.746  13.040  0.0141  0.0608  0.3567
 7556SOL    HW134130   0.817   1.700  13.116 -4.0262  1.4569 -0.6768
 7556SOL    HW234131   0.802   1.827  13.047 -0.6480 -0.4114  1.0764
 7557SOL     OW34132   4.283   3.620   5.798  0.2871 -0.3046 -0.3693
 7557SOL    HW134133   4.256   3.543   5.847  1.9921 -0.8881 -0.3410
 7557SOL    HW234134   4.206   3.628   5.742 -0.3324 -0.4412  0.4578
 7558SOL     OW34135   0.132   2.777   6.579  0.1049  0.0816  0.7465
 7558SOL    HW134136   0.047   2.816   6.559  1.0151  1.2241 -0.9305
 7558SOL    HW234137   0.169   2.851   6.628 -0.7743  1.0163 -0.0058
 7559SOL     OW34138   3.069   2.234  14.827 -0.3784  0.2226 -0.1058
 7559SOL    HW134139   3.119   2.183  14.762 -0.1391  2.3041 -1.5492
 7559SOL    HW234140   2.987   2.186  14.821 -0.9457  1.2057 -0.1071
 7560SOL     OW34141   1.185   2.901   2.930 -0.1439 -0.5331  0.0215
 7560SOL    HW134142   1.229   2.857   3.002  0.3549  1.5487  0.9865
 7560SOL    HW234143   1.132   2.831   2.891  0.6683 -1.7778  1.1860
 7561SOL     OW34144   2.957   3.570   5.292  0.3748 -0.1641  0.5407
 7561SOL    HW134145   2.869   3.537   5.279  0.9337 -1.0471 -1.0158
 7561SOL    HW234146   2.962   3.653   5.244  3.8277  0.5903  2.1872
 7562SOL     OW34147   2.219   2.416  12.873 -0.3492 -0.1979 -0.3498
 7562SOL    HW134148   2.146   2.360  12.848 -0.8961 -0.4932  1.8433
 7562SOL    HW234149   2.170   2.490  12.908 -0.8418 -0.7999  0.2585
 7563SOL     OW34150   3.916   0.456  12.364 -0.4361  0.3213  0.2235
 7563SOL    HW134151   3.860   0.481  12.291 -3.2544  1.6269  2.8367
 7563SOL    HW234152   3.999   0.492  12.331 -0.3792 -1.6791 -1.8331
 7564SOL     OW34153   2.540   0.715   3.154  0.1212 -0.0392  0.0330
 7564SOL    HW134154   2.551   0.631   3.109  3.9102  0.7145 -0.3898
 7564SOL    HW234155   2.631   0.731   3.176  0.4825 -0.4245 -1.1511
 7565SOL     OW34156   3.401   0.267  16.468  0.0965 -0.6691  0.0201
 7565SOL    HW134157   3.389   0.211  16.545 -0.0312 -0.6251  0.0313
 7565SOL    HW234158   3.349   0.344  16.493 -1.5067 -2.1213  1.1717
 7566SOL     OW34159   1.702   4.565  16.906 -0.2588  0.3798  0.2013
 7566SOL    HW134160   1.710   4.569  16.810 -0.6129  1.4098  0.2178
 7566SOL    HW234161   1.755   4.640  16.933  0.3937  0.4616 -1.2808
 7567SOL     OW34162   0.398   2.760   4.648  0.4626  0.3209 -0.6305
 7567SOL    HW134163   0.435   2.683   4.692  1.4487  1.3160  0.2966
 7567SOL    HW234164   0.476   2.798   4.608  2.1506 -2.7048 -0.2154
 7568SOL     OW34165   3.711   3.896   1.229 -0.3836  0.2332 -0.4661
 7568SOL    HW134166   3.721   3.985   1.196  0.0005  0.7314  1.0077
 7568SOL    HW234167   3.737   3.901   1.320 -0.3236  2.8336 -0.6396
 7569SOL     OW34168   4.014   3.173   2.775  0.1529 -0.6675  0.3924
 7569SOL    HW134169   3.998   3.080   2.762 -0.3758 -0.7357  1.5277
 7569SOL    HW234170   4.017   3.175   2.871 -1.3619 -2.0086  0.4572
 7570SOL     OW34171   3.556   4.152   4.145 -0.0819 -0.6169 -0.2275
 7570SOL    HW134172   3.509   4.194   4.073  1.8364  1.9391 -0.0296
 7570SOL    HW234173   3.496   4.177   4.215 -2.6253 -1.7610 -2.0451
 7571SOL     OW34174   4.177   4.045   5.414 -0.1753 -0.6482  0.3894
 7571SOL    HW134175   4.178   4.104   5.339 -0.6579  0.7511  1.4788
 7571SOL    HW234176   4.237   4.101   5.463  0.4962 -1.5399  0.5836
 7572SOL     OW34177   1.843   0.920   1.917 -0.3902 -0.9386 -0.3071
 7572SOL    HW134178   1.925   0.918   1.966 -1.3609  0.0270  1.3896
 7572SOL    HW234179   1.783   0.869   1.971  0.5543 -0.9690  0.7143
 7573SOL     OW34180   1.206   4.268  13.093 -0.4239 -1.0093 -0.2191
 7573SOL    HW134181   1.174   4.180  13.112 -2.7901  0.2644  1.6659
 7573SOL    HW234182   1.137   4.321  13.133  0.5980  0.5465 -0.4922
 7574SOL     OW34183   1.872   3.956   6.922  0.2250  0.3086 -0.9574
 7574SOL    HW134184   1.824   4.039   6.917 -3.0190 -1.4505  1.2498
 7574SOL    HW234185   1.840   3.918   6.841  2.0375 -0.9654 -1.0767
 7575SOL     OW34186   4.044   4.662   8.115 -0.1087 -0.1825  0.0816
 7575SOL    HW134187   4.078   4.709   8.038 -2.8979  1.5733 -0.0780
 7575SOL    HW234188   4.086   4.578   8.095  0.8920  0.1782  0.6400
 7576SOL     OW34189   1.506   4.051   7.440 -0.2623 -0.3669  0.4216
 7576SOL    HW134190   1.493   4.065   7.533 -0.6348  1.3059  0.1255
 7576SOL    HW234191   1.597   4.022   7.433  0.0421  0.9398 -1.0566
 7577SOL     OW34192   2.541   0.930   4.137 -0.3006  0.3024  0.8826
 7577SOL    HW134193   2.610   0.976   4.184  2.2356 -2.2549 -0.3485
 7577SOL    HW234194   2.588   0.847   4.127 -1.4803  0.0251 -2.4624
 7578SOL     OW34195   2.144   2.110   7.340 -0.0983 -0.0477  0.2961
 7578SOL    HW134196   2.087   2.135   7.413 -1.1494 -1.1211 -0.1587
 7578SOL    HW234197   2.119   2.020   7.319  2.0748 -0.5251 -0.2674
 7579SOL     OW34198   0.521   1.396   6.146 -0.1946  0.8337  0.2643
 7579SOL    HW134199   0.582   1.323   6.148 -1.4910 -0.2416  0.2078
 7579SOL    HW234200   0.582   1.470   6.149  2.3314 -1.1717 -2.0470
 7580SOL     OW34201   1.081   4.557   1.041 -0.4269 -0.3149  0.2753
 7580SOL    HW134202   1.003   4.598   1.079 -1.3961  0.7622 -2.8446
 7580SOL    HW234203   1.143   4.612   1.089 -0.0839  0.3978 -0.9703
 7581SOL     OW34204   4.100   0.684  12.337  0.4914  0.0089 -0.1739
 7581SOL    HW134205   4.193   0.709  12.337  0.7682 -1.0203  0.2618
 7581SOL    HW234206   4.109   0.646  12.250 -2.4535 -1.1270  0.0332
 7582SOL     OW34207   1.120   4.043  13.224  0.5171  0.9165  0.2216
 7582SOL    HW134208   1.027   4.048  13.243  0.1694 -0.7566 -1.0247
 7582SOL    HW234209   1.117   3.988  13.146  1.8585 -1.7563  2.0657
 7583SOL     OW34210   3.122   2.585  16.539 -0.1935 -0.5623 -0.1707
 7583SOL    HW134211   3.140   2.608  16.630 -0.5469  0.4682 -0.3561
 7583SOL    HW234212   3.054   2.519  16.553 -0.8570  0.1793  0.1166
 7584SOL     OW34213   3.343   4.046   0.876  0.6607  0.1551 -0.4421
 7584SOL    HW134214   3.371   3.956   0.891  2.0506  0.9282  1.6059
 7584SOL    HW234215   3.423   4.082   0.836  1.0922  0.4382  0.6843
 7585SOL     OW34216   4.532   2.750   8.201  0.3633  0.2250  0.0897
 7585SOL    HW134217   4.526   2.830   8.149 -0.8733  0.6937  0.9617
 7585SOL    HW234218   4.480   2.692   8.144  1.5321  1.1346 -1.9085
 7586SOL     OW34219   4.319   2.464   6.179  0.1828 -0.3300 -0.0167
 7586SOL    HW134220   4.401   2.509   6.198 -0.2626  0.2027  0.6704
 7586SOL    HW234221   4.258   2.538   6.180 -2.6656 -2.6244 -1.2911
 7587SOL     OW34222   4.485   3.349   1.623  0.3708 -0.7199  0.1683
 7587SOL    HW134223   4.454   3.270   1.580  0.2390 -0.1813 -0.7383
 7587SOL    HW234224   4.468   3.413   1.553  2.5603  2.4565  2.5520
 7588SOL     OW34225   0.071   2.604   4.964  0.2431  1.0566 -0.1675
 7588SOL    HW134226   0.024   2.541   4.910  1.7426 -0.8405  0.7417
 7588SOL    HW234227   0.104   2.664   4.898 -2.1202  1.0744 -1.3410
 7589SOL     OW34228   1.282   0.297  14.210 -0.1255 -0.2339  0.3337
 7589SOL    HW134229   1.354   0.236  14.197 -1.1883 -1.4742  0.1680
 7589SOL    HW234230   1.321   0.369  14.161 -1.6755  0.6828  0.4520
 7590SOL     OW34231   4.307   3.551   6.943 -0.2037  0.2745  0.1503
 7590SOL    HW134232   4.295   3.456   6.944 -2.1884  0.5489  2.0986
 7590SOL    HW234233   4.296   3.564   6.849 -1.0800 -1.8382 -0.0421
 7591SOL     OW34234   1.162   4.072   1.787  0.7713 -0.6359 -0.4739
 7591SOL    HW134235   1.206   4.128   1.850 -2.0781  1.0125  0.0231
 7591SOL    HW234236   1.109   4.136   1.739  1.3585 -1.4661 -2.2558
 7592SOL     OW34237   4.425   4.537   7.537 -0.1238  0.4363 -0.1485
 7592SOL    HW134238   4.384   4.478   7.473  1.1377 -0.2624 -0.2980
 7592SOL    HW234239   4.492   4.484   7.580  0.1232  0.3368 -0.6537
 7593SOL     OW34240   4.231   3.823   0.559  0.2906 -0.2334  0.0091
 7593SOL    HW134241   4.172   3.760   0.599 -0.1287  0.8988  1.1942
 7593SOL    HW234242   4.303   3.818   0.622  1.4462 -0.1999 -1.3097
 7594SOL     OW34243   0.520   2.678  14.515  0.7002  0.3531  0.5802
 7594SOL    HW134244   0.486   2.765  14.492  1.8105  0.5554 -0.2518
 7594SOL    HW234245   0.485   2.661  14.603  2.0851  0.2865  1.1236
 7595SOL     OW34246   2.310   4.612   9.052 -0.3021  0.6921 -0.0559
 7595SOL    HW134247   2.331   4.703   9.031 -0.8074  0.9935  0.7160
 7595SOL    HW234248   2.377   4.568   9.001  0.1648  0.8000  0.4587
 7596SOL     OW34249   1.451   2.182   7.028 -0.1065  0.4957 -0.1773
 7596SOL    HW134250   1.379   2.220   6.978 -0.0668  0.2079 -0.4528
 7596SOL    HW234251   1.517   2.180   6.959 -0.0070 -2.9786  0.0117
 7597SOL     OW34252   1.394   0.479   4.463  0.5446  0.2720  0.4181
 7597SOL    HW134253   1.393   0.431   4.381 -0.3360 -1.1379  1.2667
 7597SOL    HW234254   1.462   0.431   4.511  0.2983  0.7505  1.2507
 7598SOL     OW34255   1.798   2.805   0.290 -0.3471 -0.0506  0.4196
 7598SOL    HW134256   1.752   2.734   0.246  0.8725  1.0179 -2.5616
 7598SOL    HW234257   1.773   2.798   0.382  1.3834  2.8207  1.0934
 7599SOL     OW34258   2.691   0.714   8.097  0.4836 -0.3894 -0.0092
 7599SOL    HW134259   2.645   0.630   8.092 -2.2286  1.0382  1.0492
 7599SOL    HW234260   2.615   0.770   8.114  0.7862  0.1804 -0.5343
 7600SOL     OW34261   4.629   2.539   2.897  0.2989 -0.0822  0.3673
 7600SOL    HW134262   4.680   2.496   2.965 -0.5737  0.6952  1.4948
 7600SOL    HW234263   4.541   2.506   2.915 -0.5497  0.7474 -2.1238
 7601SOL     OW34264   0.912   1.654   7.281  0.1625 -0.3074 -0.0924
 7601SOL    HW134265   0.870   1.624   7.200  2.2928  2.2490 -2.1437
 7601SOL    HW234266   0.866   1.736   7.299 -3.4350 -1.3841 -4.3008
 7602SOL     OW34267   1.147   0.349   2.493 -0.7024 -0.9239  0.2101
 7602SOL    HW134268   1.125   0.256   2.491 -1.6261 -0.7045  0.0761
 7602SOL    HW234269   1.211   0.368   2.424 -0.6711  0.1509  0.5338
 7603SOL     OW34270   2.741   4.308   5.718  0.3954 -0.3517  0.3262
 7603SOL    HW134271   2.831   4.277   5.713 -0.2973 -2.1512 -1.2388
 7603SOL    HW234272   2.699   4.246   5.657  0.8248 -0.1239 -0.2054
 7604SOL     OW34273   0.415   3.811   5.340 -0.1268 -0.2382  0.4050
 7604SOL    HW134274   0.425   3.815   5.245 -2.5872 -2.4760  0.0311
 7604SOL    HW234275   0.456   3.727   5.360 -0.1221 -0.2529  0.3317
 7605SOL     OW34276   4.630   3.083  13.038 -0.3290  0.7371 -0.0855
 7605SOL    HW134277   4.682   3.056  13.114 -0.9518 -0.9799 -0.2821
 7605SOL    HW234278   4.567   3.136  13.087  0.5429  3.4241 -1.8715
 7606SOL     OW34279   2.335   1.681   5.755  0.8538  0.2421  0.0021
 7606SOL    HW134280   2.280   1.728   5.692  1.6186  0.3121 -0.6229
 7606SOL    HW234281   2.352   1.743   5.826  0.0967  0.4416  0.0048
 7607SOL     OW34282   0.798   4.695   7.032  0.0162  0.0596  0.0449
 7607SOL    HW134283   0.876   4.667   7.079 -0.0670  1.0811  0.7879
 7607SOL    HW234284   0.730   4.645   7.077 -2.6831  1.9149 -1.9675
 7608SOL     OW34285   1.650   3.817   3.975  0.3547 -0.3312 -0.2583
 7608SOL    HW134286   1.691   3.902   3.995 -1.5803 -0.1063  2.7055
 7608SOL    HW234287   1.632   3.792   4.065  0.7161  0.6591  0.0888
 7609SOL     OW34288   3.632   4.411   2.181 -0.3617  0.0163 -0.1486
 7609SOL    HW134289   3.708   4.422   2.239  0.1878 -0.9456 -0.6700
 7609SOL    HW234290   3.667   4.385   2.096  0.0575  1.7129 -0.4894
 7610SOL     OW34291   0.427   4.525   8.353 -0.8176 -0.5804 -0.6712
 7610SOL    HW134292   0.402   4.586   8.284 -1.5824 -0.3983 -0.2312
 7610SOL    HW234293   0.521   4.526   8.335 -0.5951 -1.8957  0.3460
 7611SOL     OW34294   4.025   2.743  11.529 -0.8525  0.5360 -0.3886
 7611SOL    HW134295   4.060   2.762  11.442  0.9583 -1.5057 -0.1070
 7611SOL    HW234296   4.049   2.652  11.547  3.0502  1.5711 -0.4381
 7612SOL     OW34297   1.012   2.478  13.049  0.3644 -0.0869  0.1271
 7612SOL    HW134298   1.018   2.403  12.991  0.7117  0.6450 -0.7849
 7612SOL    HW234299   1.063   2.457  13.127  1.6759  0.2164 -0.6559
 7613SOL     OW34300   3.953   1.374  10.124  0.0316 -0.0999  0.0525
 7613SOL    HW134301   3.883   1.361  10.060  0.7073  1.6538 -1.0392
 7613SOL    HW234302   3.917   1.316  10.191  1.4645 -0.9325  0.1107
 7614SOL     OW34303   1.742   0.996  16.917  0.6519 -0.6140 -0.2728
 7614SOL    HW134304   1.671   1.039  16.965 -0.0331  0.2070 -2.0480
 7614SOL    HW234305   1.750   0.918  16.972  0.2812 -1.6930 -1.7349
 7615SOL     OW34306   0.850   3.417   1.841  0.0810 -0.3158 -0.0313
 7615SOL    HW134307   0.782   3.353   1.818 -0.9747  0.4181  1.0698
 7615SOL    HW234308   0.902   3.370   1.906 -0.5323 -0.3758  0.4198
 7616SOL     OW34309   3.287   3.400   5.792 -0.5052  0.2757  0.0999
 7616SOL    HW134310   3.260   3.425   5.880 -2.3736  1.2409 -0.7544
 7616SOL    HW234311   3.257   3.477   5.744  2.1801 -0.2860 -2.5189
 7617SOL     OW34312   2.568   4.029   4.180 -0.4854 -0.3806 -0.0707
 7617SOL    HW134313   2.499   4.035   4.247 -1.7976 -0.2813 -1.4303
 7617SOL    HW234314   2.588   4.122   4.165  1.4064 -0.8516 -0.3841
 7618SOL     OW34315   2.236   4.230   6.632 -0.5086  0.3301  0.3015
 7618SOL    HW134316   2.260   4.198   6.545  1.8117  1.7142  0.4095
 7618SOL    HW234317   2.296   4.186   6.693  0.7394 -0.1379 -1.2611
 7619SOL     OW34318   2.346   4.030  14.734  0.7142 -0.0914 -0.4853
 7619SOL    HW134319   2.439   4.011  14.740  0.3533 -1.9495 -0.6466
 7619SOL    HW234320   2.315   3.967  14.799 -0.0316  1.0560  0.2708
 7620SOL     OW34321   0.114   1.457   0.025  0.4645  0.0191 -0.5954
 7620SOL    HW134322   0.172   1.529   0.050  1.1854 -0.0906 -1.9246
 7620SOL    HW234323   0.068   1.440   0.107  0.2750  1.5409 -0.3941
 7621SOL     OW34324   2.218   2.271  16.543  0.3023 -0.2372 -0.3320
 7621SOL    HW134325   2.288   2.209  16.518  0.7753  0.8079 -1.5954
 7621SOL    HW234326   2.206   2.310  16.456  0.3188  1.1985  0.3166
 7622SOL     OW34327   3.750   0.144   4.517 -0.0221 -0.4062 -0.4444
 7622SOL    HW134328   3.780   0.082   4.451  2.5201 -2.0239  2.1945
 7622SOL    HW234329   3.787   0.107   4.598 -3.1737  1.1143  1.6914
 7623SOL     OW34330   2.378   3.790   6.636 -0.0275  0.6470  0.3935
 7623SOL    HW134331   2.392   3.757   6.547  1.7050 -0.1386  0.9722
 7623SOL    HW234332   2.283   3.783   6.629 -0.0205 -0.4883  1.4194
 7624SOL     OW34333   0.192   2.828   4.801 -0.7589 -0.0364 -0.0831
 7624SOL    HW134334   0.275   2.808   4.757 -2.1516 -3.1348 -1.2306
 7624SOL    HW234335   0.228   2.849   4.887  0.9779  2.5746 -1.4416
 7625SOL     OW34336   2.945   1.497  11.909  0.3071  0.1196  0.2170
 7625SOL    HW134337   2.989   1.437  11.969 -0.3481  0.4750  1.0480
 7625SOL    HW234338   3.017   1.514  11.848  1.0040 -0.3953  0.9014
 7626SOL     OW34339   0.521   2.521   0.844  0.0335 -0.2045 -0.2528
 7626SOL    HW134340   0.552   2.498   0.757 -0.1906  1.1020 -0.6847
 7626SOL    HW234341   0.599   2.552   0.890  0.4684  1.1705 -1.9438
 7627SOL     OW34342   2.463   2.854   1.762 -0.8848  0.0425 -0.2488
 7627SOL    HW134343   2.485   2.847   1.669  1.4133 -0.4811  0.3183
 7627SOL    HW234344   2.368   2.845   1.757 -0.6869 -1.3844 -1.3689
 7628SOL     OW34345   0.926   1.254   8.231  0.4473 -0.1273 -0.0581
 7628SOL    HW134346   0.875   1.180   8.264 -0.3950  0.2364 -0.5237
 7628SOL    HW234347   1.003   1.256   8.288  0.7991  0.0396 -0.5378
 7629SOL     OW34348   3.639   1.802   4.578 -0.6608 -0.3290  0.4608
 7629SOL    HW134349   3.670   1.757   4.500 -1.7355  0.2980 -0.3377
 7629SOL    HW234350   3.565   1.856   4.548  0.9584 -0.3187 -3.5457
 7630SOL     OW34351   3.735   0.020   1.563 -0.3660 -0.1663  0.3852
 7630SOL    HW134352   3.640   0.021   1.551 -0.2547 -0.5062 -0.5953
 7630SOL    HW234353   3.752   4.683   1.493  1.4225 -1.0907  1.6339
 7631SOL     OW34354   2.725   0.531   4.672 -0.2398  0.3844  0.5465
 7631SOL    HW134355   2.752   0.611   4.627 -1.0052  0.7383  0.7115
 7631SOL    HW234356   2.811   0.515   4.712 -0.5464 -2.4093  0.1431
 7632SOL     OW34357   0.671   0.591  13.477 -0.0779  0.3013 -0.1178
 7632SOL    HW134358   0.601   0.525  13.482 -1.1593  1.2361 -2.6662
 7632SOL    HW234359   0.629   0.663  13.429  1.7741  0.6516 -1.2205
 7633SOL     OW34360   4.464   0.079   9.588  0.5137  0.3279 -0.0790
 7633SOL    HW134361   4.449   0.116   9.674 -0.8181  1.0821 -0.6265
 7633SOL    HW234362   4.531   0.142   9.563 -1.2380  2.5018  0.6802
 7634SOL     OW34363   4.182   3.203   2.139  0.5339 -0.2817 -0.9583
 7634SOL    HW134364   4.088   3.195   2.122  0.4214 -1.5356  0.2956
 7634SOL    HW234365   4.202   3.112   2.157 -0.2819 -0.4524 -0.9101
 7635SOL     OW34366   2.327   1.594   4.024 -0.2122 -0.3966 -0.1724
 7635SOL    HW134367   2.377   1.655   3.969 -2.3003 -0.3178 -1.9930
 7635SOL    HW234368   2.248   1.644   4.044 -1.0328 -0.7290 -2.4762
 7636SOL     OW34369   1.097   1.098  16.934 -0.1922  0.7942 -0.5551
 7636SOL    HW134370   1.096   1.024  16.995  1.5545  0.7285 -0.6275
 7636SOL    HW234371   1.161   1.157  16.972  0.2225  0.6469 -1.0180
 7637SOL     OW34372   1.589   2.466   5.974  0.3899 -0.4277  0.4820
 7637SOL    HW134373   1.537   2.397   5.934  2.2052 -1.1236 -0.6831
 7637SOL    HW234374   1.588   2.523   5.898 -1.0289 -0.5971  0.3776
 7638SOL     OW34375   1.546   0.202   3.625  0.1466  0.0038 -0.1366
 7638SOL    HW134376   1.510   0.114   3.612 -0.0686 -0.1145  1.2613
 7638SOL    HW234377   1.525   0.236   3.538  2.2101 -2.4563 -1.6065
 7639SOL     OW34378   3.337   4.055   1.547  0.1632  0.1245 -0.0673
 7639SOL    HW134379   3.290   4.128   1.588  3.3645  1.7994  0.6877
 7639SOL    HW234380   3.312   4.066   1.455 -0.5629 -0.9558 -0.0062
 7640SOL     OW34381   3.420   1.383   8.675 -0.2347  0.2850  0.2952
 7640SOL    HW134382   3.334   1.353   8.705 -0.1321 -0.2448  0.0621
 7640SOL    HW234383   3.416   1.332   8.594 -0.0704  2.3593 -1.0132
 7641SOL     OW34384   3.805   4.544   6.259 -0.7860 -0.4777  0.0901
 7641SOL    HW134385   3.798   4.481   6.331 -0.2319  0.1527  0.6865
 7641SOL    HW234386   3.808   4.629   6.303 -1.3656 -0.7321  0.6287
 7642SOL     OW34387   1.199   1.718   5.887 -0.4577 -0.0535  0.5932
 7642SOL    HW134388   1.198   1.623   5.898 -1.5761 -0.0808  0.2238
 7642SOL    HW234389   1.123   1.753   5.933 -0.5394  0.3231  0.1738
 7643SOL     OW34390   4.103   3.339   3.996  0.0771  0.4334 -0.1942
 7643SOL    HW134391   4.142   3.252   4.008 -2.5310 -0.8898 -1.3623
 7643SOL    HW234392   4.159   3.396   4.049 -0.0862 -0.0193  0.4645
 7644SOL     OW34393   0.078   2.703  10.878 -0.0718 -0.2189  0.4562
 7644SOL    HW134394   4.724   2.705  10.826 -0.1336  2.0352  0.6613
 7644SOL    HW234395   0.057   2.766  10.947  0.5465  0.7558 -0.2488
 7645SOL     OW34396   3.816   0.179  12.274  0.0379  0.1372  0.0193
 7645SOL    HW134397   3.733   0.201  12.232 -0.2196 -1.7546 -0.4895
 7645SOL    HW234398   3.845   0.246  12.335  2.3842 -0.5965 -0.2614
 7646SOL     OW34399   1.649   0.591   8.998  0.2006  0.1799  0.0962
 7646SOL    HW134400   1.731   0.579   9.045  0.4474  0.2309 -0.3226
 7646SOL    HW234401   1.626   0.502   8.973  0.7289 -0.1629  0.8509
 7647SOL     OW34402   1.062   4.245   9.181 -1.0951  0.0719  0.7860
 7647SOL    HW134403   1.039   4.338   9.181 -0.5129  0.2158  0.0793
 7647SOL    HW234404   1.063   4.228   9.275 -1.9007  1.8391  1.1127
 7648SOL     OW34405   1.374   2.800  14.228 -0.0833  0.2532  0.1177
 7648SOL    HW134406   1.417   2.823  14.146 -0.0314  0.2801  0.1521
 7648SOL    HW234407   1.296   2.753  14.200  1.2510 -0.9379 -1.5455
 7649SOL     OW34408   2.080   2.357  14.910 -0.5031  0.2143  0.9598
 7649SOL    HW134409   2.014   2.402  14.857 -0.8507 -0.2699  0.9871
 7649SOL    HW234410   2.158   2.407  14.886 -0.5163 -0.4766 -0.5084
 7650SOL     OW34411   4.701   0.285   1.846  0.0429 -0.1857 -0.4638
 7650SOL    HW134412   4.706   0.295   1.751 -0.3195  0.0446 -0.4583
 7650SOL    HW234413   4.606   0.273   1.851 -0.0381  0.8093  0.4742
 7651SOL     OW34414   0.148   1.424  10.481  0.0228  0.1247 -0.1823
 7651SOL    HW134415   0.183   1.459  10.563 -2.3067  1.5070  0.2229
 7651SOL    HW234416   0.083   1.491  10.459  0.6360  0.5305 -0.7422
 7652SOL     OW34417   2.053   3.684   8.361 -0.2781  0.4770 -0.0743
 7652SOL    HW134418   2.102   3.765   8.381 -1.8782  1.8304 -1.7003
 7652SOL    HW234419   2.075   3.641   8.443  0.7137  0.0307 -0.5740
 7653SOL     OW34420   1.832   0.556  10.607 -0.3202 -0.0328  0.6035
 7653SOL    HW134421   1.868   0.468  10.610 -0.9293 -0.3604 -1.2072
 7653SOL    HW234422   1.744   0.532  10.578  0.0464 -2.5924  1.5599
 7654SOL     OW34423   3.423   0.825   4.742 -0.5818 -0.0988  0.5567
 7654SOL    HW134424   3.480   0.900   4.762 -0.7012  0.7470 -2.2527
 7654SOL    HW234425   3.431   0.824   4.647  3.1989  0.4523  0.8488
 7655SOL     OW34426   4.582   3.734   2.931 -0.3689  0.3886  0.0156
 7655SOL    HW134427   4.522   3.692   2.869 -0.2841 -0.6163  0.6160
 7655SOL    HW234428   4.557   3.694   3.014  2.2577 -0.9288  0.1674
 7656SOL     OW34429   4.382   0.225   3.819  0.6250  0.0445  0.0129
 7656SOL    HW134430   4.372   0.157   3.886  0.5409 -0.0957 -0.1412
 7656SOL    HW234431   4.459   0.270   3.854  0.2360  1.5652 -1.0913
 7657SOL     OW34432   4.482   4.586   6.290 -0.2483  0.1035  0.1575
 7657SOL    HW134433   4.411   4.574   6.353  1.9381  1.6787  2.8891
 7657SOL    HW234434   4.567   4.577   6.333 -0.0232  2.3763  0.1981
 7658SOL     OW34435   4.501   1.286   8.891 -0.5640  0.6072 -0.0391
 7658SOL    HW134436   4.438   1.279   8.962 -2.6197  1.9479 -1.6955
 7658SOL    HW234437   4.442   1.262   8.819 -0.7952 -0.3151  0.4582
 7659SOL     OW34438   0.340   3.987  12.942 -0.3830  0.3769 -0.3503
 7659SOL    HW134439   0.269   3.923  12.946  0.9306 -1.2273 -2.7036
 7659SOL    HW234440   0.358   4.001  12.849  2.0845  2.3562  0.4397
 7660SOL     OW34441   4.413   2.263   9.029  0.6576 -0.1722  0.4164
 7660SOL    HW134442   4.389   2.355   9.021 -1.3831 -0.9518 -2.3426
 7660SOL    HW234443   4.496   2.261   8.982 -0.1807 -0.9085 -1.0463
 7661SOL     OW34444   4.002   2.036   5.145  0.1859 -0.1168 -0.0395
 7661SOL    HW134445   4.093   2.041   5.117  0.0616  2.6737  0.0434
 7661SOL    HW234446   3.972   1.953   5.107 -0.5731 -0.9255  2.3408
 7662SOL     OW34447   2.939   2.356   7.498 -0.3610 -0.9285  0.4946
 7662SOL    HW134448   2.938   2.292   7.426 -1.6683  1.7063 -1.8159
 7662SOL    HW234449   2.962   2.296   7.569  0.5893  1.7566  2.4313
 7663SOL     OW34450   0.736   1.037   4.637  0.7772  0.2601 -0.1283
 7663SOL    HW134451   0.821   1.004   4.666  0.0110 -0.0022  1.8396
 7663SOL    HW234452   0.741   1.011   4.545 -1.3455 -2.7468  0.6251
 7664SOL     OW34453   1.628   2.871  14.844  0.6510  0.1253  0.1885
 7664SOL    HW134454   1.672   2.843  14.924  0.3766  1.6341  0.8655
 7664SOL    HW234455   1.546   2.908  14.876  0.5829  1.3761 -1.3762
 7665SOL     OW34456   2.437   2.359  13.040 -0.3087  0.0664 -0.2051
 7665SOL    HW134457   2.358   2.377  12.990 -1.8370  0.8758  2.5336
 7665SOL    HW234458   2.513   2.402  12.999 -1.5497  1.6230 -0.9046
 7666SOL     OW34459   4.016   1.027   5.507 -0.4842 -0.4962  0.1363
 7666SOL    HW134460   4.009   0.957   5.573  2.0166 -1.0235 -0.1413
 7666SOL    HW234461   4.016   1.106   5.561  3.0204  0.5480 -1.3618
 7667SOL     OW34462   2.793   1.998   5.086 -0.5334  0.1637  0.4405
 7667SOL    HW134463   2.710   2.034   5.053 -0.0474  1.7054  0.9286
 7667SOL    HW234464   2.829   1.963   5.004 -2.3339  0.8658 -0.6530
 7668SOL     OW34465   4.570   2.621   2.356  0.2291  0.2944  0.7612
 7668SOL    HW134466   4.544   2.603   2.266  0.0768  1.1987  0.6199
 7668SOL    HW234467   4.655   2.577   2.352 -0.6277 -1.3297  0.5378
 7669SOL     OW34468   2.538   1.813   3.205  0.4165  0.0774  0.5087
 7669SOL    HW134469   2.615   1.869   3.204 -0.4750  1.2922 -0.6353
 7669SOL    HW234470   2.579   1.727   3.200  1.7626  0.7129  0.7718
 7670SOL     OW34471   2.343   1.239  12.259 -0.0069 -0.3165 -0.5747
 7670SOL    HW134472   2.405   1.196  12.317  3.0775  1.9074 -2.2256
 7670SOL    HW234473   2.292   1.287  12.325  0.4862 -1.1202  0.3907
 7671SOL     OW34474   3.967   3.575   3.497 -0.6912 -0.0422  0.2310
 7671SOL    HW134475   4.001   3.540   3.579  2.9669  0.3235 -1.1326
 7671SOL    HW234476   3.966   3.494   3.447 -2.2399 -1.0865  1.9600
 7672SOL     OW34477   3.923   2.963  16.418 -0.0260  0.5989  0.5894
 7672SOL    HW134478   4.006   3.007  16.438  1.4346 -0.9487 -2.1232
 7672SOL    HW234479   3.936   2.879  16.462 -0.6646 -0.2647 -0.8636
 7673SOL     OW34480   2.315   0.482   7.173 -0.3077  0.2668 -0.3403
 7673SOL    HW134481   2.347   0.539   7.103  3.1372 -0.8031  0.3819
 7673SOL    HW234482   2.233   0.524   7.200  0.8737  0.9650  2.1125
 7674SOL     OW34483   0.583   3.010   7.041 -0.2931  0.4516  0.6628
 7674SOL    HW134484   0.580   3.093   6.994 -0.8155 -0.2817 -0.6263
 7674SOL    HW234485   0.657   3.018   7.100 -0.6986 -0.0123  1.2329
 7675SOL     OW34486   1.220   4.373  11.007 -0.3100  0.1089  0.1018
 7675SOL    HW134487   1.247   4.308  11.072 -1.3160 -0.6127 -0.1966
 7675SOL    HW234488   1.308   4.390  10.972  0.3578  1.1195  2.2851
 7676SOL     OW34489   4.554   2.964   4.190 -0.2410 -0.5602 -0.6784
 7676SOL    HW134490   4.628   2.906   4.173  1.3213  1.1381  0.3319
 7676SOL    HW234491   4.574   3.041   4.136  1.2391  0.6693  1.5975
 7677SOL     OW34492   2.307   4.184   9.037 -0.1662  0.3926 -0.6713
 7677SOL    HW134493   2.287   4.117   9.103  0.8297  1.8647  1.1367
 7677SOL    HW234494   2.331   4.257   9.094  0.9757 -0.1225 -0.4988
 7678SOL     OW34495   0.976   2.814  14.311  0.1119  0.4533 -0.3102
 7678SOL    HW134496   0.908   2.846  14.251 -0.7329  1.1441  1.0163
 7678SOL    HW234497   1.008   2.732  14.274  0.7145  1.3114 -1.6816
 7679SOL     OW34498   0.223   4.680   4.412 -0.6230  0.3260 -0.3671
 7679SOL    HW134499   0.251   4.590   4.395 -0.4496  0.5717 -1.3921
 7679SOL    HW234500   0.135   4.657   4.442  0.4609 -0.3332  2.3052
 7680SOL     OW34501   4.632   2.757   7.105 -0.1120  0.6574  0.0940
 7680SOL    HW134502   4.683   2.826   7.062 -0.6230 -0.7816 -2.8663
 7680SOL    HW234503   4.570   2.746   7.033 -0.6186 -2.1514  0.9735
 7681SOL     OW34504   0.849   1.129  15.685  0.2343 -0.4160 -0.2312
 7681SOL    HW134505   0.916   1.152  15.621 -1.0260  2.8176 -0.3849
 7681SOL    HW234506   0.815   1.215  15.710  2.3005  0.3261 -0.0082
 7682SOL     OW34507   1.594   3.011   6.701  0.2389  0.7153  0.0137
 7682SOL    HW134508   1.631   3.050   6.621 -2.3191  1.5050 -0.7970
 7682SOL    HW234509   1.635   2.925   6.696 -2.1044 -0.4919  2.2222
 7683SOL     OW34510   0.348   2.941   3.814  0.0535 -0.4843  0.1472
 7683SOL    HW134511   0.339   2.998   3.890 -0.5189  0.3759 -0.5651
 7683SOL    HW234512   0.429   2.980   3.781 -0.2192  1.2580  1.5389
 7684SOL     OW34513   1.359   3.204   7.834  0.2905 -0.3042 -0.2601
 7684SOL    HW134514   1.287   3.218   7.772  0.1297  1.5453  0.3339
 7684SOL    HW234515   1.315   3.175   7.914  0.5855 -0.6571 -0.2288
 7685SOL     OW34516   3.271   0.906   3.455 -0.4664  0.2039 -0.0421
 7685SOL    HW134517   3.237   0.850   3.525 -1.8755  0.4881 -0.4899
 7685SOL    HW234518   3.314   0.837   3.403 -0.7164 -1.9620  2.6273
 7686SOL     OW34519   4.272   1.961  13.431 -0.5989  0.7203 -0.5293
 7686SOL    HW134520   4.299   2.033  13.488 -3.4005 -0.0527  1.7559
 7686SOL    HW234521   4.272   1.997  13.343  1.7966  1.7528 -0.1024
 7687SOL     OW34522   2.354   0.041   4.725 -0.8230  0.5753  0.3304
 7687SOL    HW134523   2.300   0.118   4.742  1.4413  2.4819 -0.9900
 7687SOL    HW234524   2.426   0.081   4.676  0.4706 -1.5434  0.5078
 7688SOL     OW34525   4.598   1.402   9.537  0.0364  0.2765 -0.2955
 7688SOL    HW134526   4.536   1.396   9.610  0.7203 -0.2741  0.2398
 7688SOL    HW234527   4.596   1.491   9.501  3.6056  0.4264 -0.0703
 7689SOL     OW34528   3.342   2.586   2.988  0.5416  0.0933 -0.3411
 7689SOL    HW134529   3.366   2.510   2.935  0.0286  0.1592 -0.6707
 7689SOL    HW234530   3.307   2.649   2.925 -0.7606 -0.6912 -0.3952
 7690SOL     OW34531   4.247   3.293   0.365 -0.2650 -0.3762 -0.2552
 7690SOL    HW134532   4.341   3.276   0.358  0.1906  1.8030  0.3084
 7690SOL    HW234533   4.218   3.261   0.280  2.1069  1.1320 -1.6477
 7691SOL     OW34534   4.723   3.830  17.334  0.4663  0.9318  0.7738
 7691SOL    HW134535   4.717   3.857  17.425  2.0095  0.4674  1.0047
 7691SOL    HW234536   0.073   3.773  17.338  0.9810  1.3173 -3.6617
 7692SOL     OW34537   1.943   2.621  17.200  0.2337  0.1575 -0.4762
 7692SOL    HW134538   1.961   2.544  17.146  2.0236  0.6143 -0.5283
 7692SOL    HW234539   1.974   2.594  17.287 -1.8832  0.3522  0.3307
 7693SOL     OW34540   1.513   1.511   6.673 -0.0791  0.4825  0.5932
 7693SOL    HW134541   1.598   1.472   6.691 -1.2515 -2.0466  0.5364
 7693SOL    HW234542   1.480   1.506   6.763  1.0909 -0.4388  0.9657
 7694SOL     OW34543   0.191   2.215   1.463  0.4152 -0.4246  0.0718
 7694SOL    HW134544   0.284   2.219   1.482  0.3648 -1.7385  0.6471
 7694SOL    HW234545   0.191   2.129   1.419 -0.3977 -0.4911  0.1923
 7695SOL     OW34546   1.188   0.268   5.957 -0.2803 -0.1158  0.8549
 7695SOL    HW134547   1.224   0.259   6.045 -0.0970 -0.5003  0.7410
 7695SOL    HW234548   1.252   0.218   5.906 -1.1634 -0.9897  0.5985
 7696SOL     OW34549   1.182   2.656   7.130  0.1304  0.0290  0.6647
 7696SOL    HW134550   1.199   2.712   7.206 -3.1556 -1.6652  2.6720
 7696SOL    HW234551   1.253   2.688   7.074  0.4698 -0.7646  0.6454
 7697SOL     OW34552   2.585   3.143   4.499  0.2332 -0.5963  0.2282
 7697SOL    HW134553   2.649   3.140   4.571  1.6756  0.2654 -1.0090
 7697SOL    HW234554   2.575   3.234   4.471  1.3435 -0.3642  0.5905
 7698SOL     OW34555   2.292   1.111   7.476  0.0790  0.0608 -0.4316
 7698SOL    HW134556   2.292   1.195   7.431  1.0122  0.1884 -0.2046
 7698SOL    HW234557   2.385   1.089   7.482 -0.5334 -2.1364  0.9185
 7699SOL     OW34558   3.965   1.342   3.219 -0.3246 -0.2816 -0.1890
 7699SOL    HW134559   3.872   1.343   3.198 -0.7521  0.7363  1.7341
 7699SOL    HW234560   4.001   1.298   3.142  1.2731 -1.6658  1.3545
 7700SOL     OW34561   1.503   2.557  10.760 -0.4029  0.3494 -0.2375
 7700SOL    HW134562   1.551   2.499  10.701  4.4554  3.0101  1.0840
 7700SOL    HW234563   1.567   2.628  10.769 -0.2268  0.2333 -0.5479
 7701SOL     OW34564   2.495   0.854   9.896  0.5844  0.0384  0.2657
 7701SOL    HW134565   2.463   0.944   9.893 -0.5449 -0.3774  0.0783
 7701SOL    HW234566   2.585   0.869   9.925  1.1046  0.7556 -1.7457
 7702SOL     OW34567   2.366   1.673   4.751  0.4575 -0.2388 -0.2936
 7702SOL    HW134568   2.284   1.655   4.705 -0.1247  0.2322  0.5600
 7702SOL    HW234569   2.330   1.682   4.839  2.1202 -0.2315  0.3962
 7703SOL     OW34570   2.924   1.331   1.877 -0.3867  0.1338 -0.1231
 7703SOL    HW134571   3.014   1.343   1.848 -0.1333 -0.8298  0.2654
 7703SOL    HW234572   2.910   1.237   1.865 -0.0007  0.0015  0.4779
 7704SOL     OW34573   1.984   3.655   9.445  0.4150  0.0633  0.0373
 7704SOL    HW134574   1.909   3.673   9.389 -0.3722 -0.8936  0.7622
 7704SOL    HW234575   2.024   3.584   9.395  0.7561 -1.2544  2.1584
 7705SOL     OW34576   3.340   0.852   2.611  0.3257 -0.5003  0.0524
 7705SOL    HW134577   3.280   0.785   2.645  1.9028 -0.9609  1.8705
 7705SOL    HW234578   3.292   0.927   2.648  2.5674  1.6646 -1.4619
 7706SOL     OW34579   2.405   0.613  16.979  0.3810 -0.2838 -0.1591
 7706SOL    HW134580   2.475   0.623  16.914  0.7776  2.2748  0.6806
 7706SOL    HW234581   2.407   0.701  17.014 -0.7172 -0.9810  1.6260
 7707SOL     OW34582   1.729   0.494   6.071  0.4370  0.5064  0.0002
 7707SOL    HW134583   1.649   0.545   6.056 -0.1065  0.0782  1.5303
 7707SOL    HW234584   1.791   0.567   6.063  0.1450  0.7246 -0.3118
 7708SOL     OW34585   2.760   4.233   7.092  0.3096 -0.1121  0.2453
 7708SOL    HW134586   2.712   4.315   7.080 -1.5500 -1.1123  0.8144
 7708SOL    HW234587   2.767   4.202   7.002 -2.0176 -0.2814  0.1207
 7709SOL     OW34588   1.162   4.582   7.897 -0.2772 -0.0769 -0.4837
 7709SOL    HW134589   1.134   4.491   7.904  0.0830 -0.0439  1.2931
 7709SOL    HW234590   1.249   4.573   7.937 -1.5776 -0.7343  2.1899
 7710SOL     OW34591   3.015   4.293  14.695  0.2137  0.1208  0.0415
 7710SOL    HW134592   3.045   4.202  14.696  1.2952  0.4907  1.1788
 7710SOL    HW234593   3.095   4.344  14.693 -1.1846  2.1277 -3.8293
 7711SOL     OW34594   1.232   0.685   0.401 -0.5975 -0.2469 -0.4565
 7711SOL    HW134595   1.140   0.683   0.376 -0.8708  1.8963  0.3592
 7711SOL    HW234596   1.241   0.592   0.423 -1.7718 -0.8970 -2.7908
 7712SOL     OW34597   1.025   0.565   1.958  0.5545  0.7393 -0.4186
 7712SOL    HW134598   0.991   0.602   1.877 -0.6901  0.7618  0.1026
 7712SOL    HW234599   0.951   0.530   2.008  1.1177 -0.4685 -0.4307
 7713SOL     OW34600   3.437   3.992   6.962  0.5462 -0.2023 -0.6833
 7713SOL    HW134601   3.494   3.983   7.038 -1.0190  1.6509  0.7296
 7713SOL    HW234602   3.470   4.073   6.922 -3.3092  0.8150 -1.8349
 7714SOL     OW34603   1.793   4.235   7.510 -0.0108  0.0325  0.3589
 7714SOL    HW134604   1.849   4.172   7.554 -0.3715 -1.6422 -1.6002
 7714SOL    HW234605   1.701   4.226   7.535  0.4603  0.6940  2.2927
 7715SOL     OW34606   2.602   3.886   2.990 -0.2124  0.0042  0.6331
 7715SOL    HW134607   2.659   3.963   2.980  1.2583 -0.9738  1.6310
 7715SOL    HW234608   2.538   3.904   2.921  1.9998  0.1053 -1.3640
 7716SOL     OW34609   4.326   2.895   3.669 -0.1883  0.4201  0.2774
 7716SOL    HW134610   4.412   2.932   3.650 -0.0958  0.2332  0.3259
 7716SOL    HW234611   4.322   2.815   3.616 -1.5459  1.5483 -1.3023
 7717SOL     OW34612   0.919   0.737   8.929  0.5328  0.2432  0.2196
 7717SOL    HW134613   0.983   0.667   8.938 -1.2373 -1.2216  1.2518
 7717SOL    HW234614   0.900   0.757   9.020  4.5506  0.1473  1.0829
 7718SOL     OW34615   3.478   0.903  12.884  0.0219  0.4243  0.5013
 7718SOL    HW134616   3.526   0.968  12.936 -1.9536  1.8018  0.5580
 7718SOL    HW234617   3.547   0.839  12.864 -1.4930 -0.7027 -1.0883
 7719SOL     OW34618   4.502   1.823  13.415  0.3344  0.4981 -0.3129
 7719SOL    HW134619   4.527   1.832  13.324  2.4762  1.5412  0.3840
 7719SOL    HW234620   4.409   1.844  13.399  0.3406  0.5054 -0.3387
 7720SOL     OW34621   1.110   2.128   8.411  0.5376  0.6731 -0.1622
 7720SOL    HW134622   1.107   2.206   8.466 -0.3344  1.4895 -1.3964
 7720SOL    HW234623   1.094   2.062   8.479 -0.4056  1.1016  0.0244
 7721SOL     OW34624   1.702   0.257   5.394 -0.0015  0.0409 -0.2414
 7721SOL    HW134625   1.681   0.348   5.412 -0.3211  0.1422 -1.1465
 7721SOL    HW234626   1.784   0.246   5.442 -0.6039  1.7778  1.1674
 7722SOL     OW34627   3.450   0.323  12.412  0.0767  0.1443  0.5657
 7722SOL    HW134628   3.504   0.336  12.334 -0.3051 -0.7341  0.1619
 7722SOL    HW234629   3.426   0.414  12.429  1.7157  0.7883 -0.4589
 7723SOL     OW34630   3.852   3.580   0.352 -0.4790  0.8589 -0.0382
 7723SOL    HW134631   3.803   3.607   0.275  1.6091 -1.8985 -2.3096
 7723SOL    HW234632   3.945   3.595   0.337 -0.0644 -1.6597  0.0048
 7724SOL     OW34633   1.794   3.848   8.478  0.3095 -0.3592  0.0195
 7724SOL    HW134634   1.851   3.793   8.424 -0.6817 -0.6767 -0.7043
 7724SOL    HW234635   1.709   3.805   8.476  0.2118 -0.1409 -0.6360
 7725SOL     OW34636   0.282   2.246   7.272  0.3683 -0.0293  0.0593
 7725SOL    HW134637   0.315   2.332   7.245  2.3669 -0.9025 -0.2598
 7725SOL    HW234638   0.344   2.181   7.239  0.8418  1.6368 -2.3003
 7726SOL     OW34639   3.555   2.022   4.229  0.8495 -0.0878 -0.0716
 7726SOL    HW134640   3.529   2.094   4.172  0.3405  0.8620  1.3602
 7726SOL    HW234641   3.647   2.042   4.248  0.7630 -0.6448  0.9123
 7727SOL     OW34642   0.161   1.374   7.440  0.4780 -0.3704  0.9109
 7727SOL    HW134643   0.070   1.371   7.472 -0.2306 -1.1993 -1.1934
 7727SOL    HW234644   0.199   1.430   7.508 -0.7568 -0.5625  1.7741
 7728SOL     OW34645   1.955   3.827  10.692  0.2618 -0.0999 -0.2441
 7728SOL    HW134646   1.986   3.885  10.762 -1.6069  0.0413  0.4464
 7728SOL    HW234647   2.039   3.783  10.676  1.2857  1.9544 -0.5534
 7729SOL     OW34648   3.734   3.360  10.011 -0.1962  0.5288  0.1010
 7729SOL    HW134649   3.739   3.423   9.939  0.0610  0.3202 -0.0644
 7729SOL    HW234650   3.797   3.292   9.988 -0.8763  0.4271 -1.4195
 7730SOL     OW34651   3.795   0.972  12.436  0.1316  0.0956  0.0683
 7730SOL    HW134652   3.875   1.023  12.444  0.6102 -0.7378  0.5649
 7730SOL    HW234653   3.742   1.003  12.509 -1.2392  1.0891 -1.3470
 7731SOL     OW34654   0.768   0.002  16.919  0.3903  0.1463 -0.1122
 7731SOL    HW134655   0.799   4.686  16.999 -0.0045 -1.4135 -0.7806
 7731SOL    HW234656   0.688   0.046  16.946 -0.4937  0.1599 -2.7043
 7732SOL     OW34657   2.961   0.149  11.156 -0.1136 -0.3957  0.5397
 7732SOL    HW134658   2.997   0.237  11.142  0.5137 -0.7147  0.1239
 7732SOL    HW234659   2.947   0.149  11.251 -0.7279 -1.1354  0.4437
 7733SOL     OW34660   3.351   1.171   2.054 -0.7040 -0.3867  0.4638
 7733SOL    HW134661   3.267   1.128   2.038 -1.6820  2.8658 -3.2066
 7733SOL    HW234662   3.377   1.206   1.968 -0.0297 -0.6906  0.5479
 7734SOL     OW34663   0.887   0.704   5.084 -0.0899 -0.1793  0.9581
 7734SOL    HW134664   0.867   0.616   5.052  0.1950  0.4299 -0.8882
 7734SOL    HW234665   0.823   0.761   5.041  2.0860 -0.2197 -2.3316
 7735SOL     OW34666   2.590   3.930  11.639  0.3448 -0.0052  0.3756
 7735SOL    HW134667   2.627   3.966  11.719 -0.8781  0.5336  0.7037
 7735SOL    HW234668   2.500   3.944  11.670 -0.5130  0.4962 -2.3322
 7736SOL     OW34669   2.546   4.183   2.305 -0.3621  0.4173  0.0461
 7736SOL    HW134670   2.464   4.139   2.284 -2.1031  2.8345  1.8574
 7736SOL    HW234671   2.599   4.147   2.234 -1.8391  1.6899 -1.7237
 7737SOL     OW34672   3.265   1.380  17.095 -0.0522  0.4063 -0.7751
 7737SOL    HW134673   3.198   1.329  17.049 -2.8910  3.0773  0.3535
 7737SOL    HW234674   3.254   1.344  17.183  1.4737 -0.3052 -0.8803
 7738SOL     OW34675   2.607   3.452  11.593  0.0827  0.1184  0.3344
 7738SOL    HW134676   2.597   3.516  11.523 -1.0016  1.4074  1.6593
 7738SOL    HW234677   2.687   3.481  11.636  1.6438 -3.1537 -0.3459
 7739SOL     OW34678   0.835   4.503  16.411  0.1743  0.1869  0.2151
 7739SOL    HW134679   0.860   4.413  16.434 -0.2879  0.5473  2.0854
 7739SOL    HW234680   0.865   4.511  16.320 -0.1534 -0.8024  0.0170
 7740SOL     OW34681   2.222   2.302  10.754  0.4880 -0.5380 -0.0187
 7740SOL    HW134682   2.308   2.269  10.727  1.5447  3.2671 -1.3637
 7740SOL    HW234683   2.188   2.315  10.665  0.3457  1.1714  0.2806
 7741SOL     OW34684   3.399   1.310   7.499  0.1043  0.1093 -0.7284
 7741SOL    HW134685   3.341   1.377   7.462 -1.2277  0.6114  2.2729
 7741SOL    HW234686   3.343   1.256   7.555  1.3315 -0.2097  0.1927
 7742SOL     OW34687   0.533   0.498   2.992 -0.4321 -0.4049  0.7107
 7742SOL    HW134688   0.472   0.571   2.998 -0.0707 -0.0057 -0.3800
 7742SOL    HW234689   0.583   0.521   3.071 -1.5243 -0.0775  1.3008
 7743SOL     OW34690   1.045   2.142   7.731 -0.1546  0.0084 -0.2175
 7743SOL    HW134691   1.033   2.172   7.641  1.3754 -2.1768 -1.1650
 7743SOL    HW234692   1.124   2.091   7.716  1.3242  1.8601  1.3387
 7744SOL     OW34693   2.420   1.367   4.539 -0.3997 -0.1669 -0.5689
 7744SOL    HW134694   2.345   1.395   4.486 -0.0421  1.3991 -0.2382
 7744SOL    HW234695   2.429   1.436   4.606  1.9407 -0.3144 -0.7538
 7745SOL     OW34696   1.898   1.065  16.685  0.0978 -0.2326  0.2451
 7745SOL    HW134697   1.828   1.031  16.742  0.5081 -1.5754 -0.0491
 7745SOL    HW234698   1.885   1.009  16.608  0.0987 -0.4061  0.3718
 7746SOL     OW34699   3.362   0.349  14.032 -0.4516 -0.5160 -0.4571
 7746SOL    HW134700   3.417   0.389  13.964  2.0371 -0.4819  1.5852
 7746SOL    HW234701   3.365   0.404  14.110  2.2365 -1.4180  0.0886
 7747SOL     OW34702   1.069   4.008   0.885  0.0755  0.3067  0.0469
 7747SOL    HW134703   1.080   3.937   0.823  1.6075  1.8618 -1.4588
 7747SOL    HW234704   1.031   3.965   0.961  0.2161 -1.4485 -0.8895
 7748SOL     OW34705   3.659   2.026   0.942 -0.5538 -0.0817  0.0401
 7748SOL    HW134706   3.663   2.121   0.952 -2.0167 -0.0333  0.0707
 7748SOL    HW234707   3.627   2.007   0.854  0.6035  2.8645 -1.0144
 7749SOL     OW34708   0.394   2.741   9.135 -0.6296  0.0325  0.3861
 7749SOL    HW134709   0.307   2.776   9.154  0.0366  1.3776  0.9570
 7749SOL    HW234710   0.447   2.821   9.129 -0.2862 -0.3641 -1.7277
 7750SOL     OW34711   4.082   1.769   9.584  0.0902 -0.4219  0.0484
 7750SOL    HW134712   4.082   1.673   9.582  1.0909 -0.4617  1.3342
 7750SOL    HW234713   4.008   1.783   9.643  1.0291  1.2670  0.8427
 7751SOL     OW34714   0.391   0.072   6.753 -0.2628  0.4977  0.0444
 7751SOL    HW134715   0.330   0.115   6.813 -0.2682 -0.4267  0.6925
 7751SOL    HW234716   0.394   0.136   6.681 -0.6382  2.0207  1.3844
 7752SOL     OW34717   0.873   1.218   3.021  0.5044 -0.3689  0.3988
 7752SOL    HW134718   0.938   1.284   3.044  1.6619 -0.8965 -1.4388
 7752SOL    HW234719   0.810   1.229   3.093  1.6873  1.8939  1.1052
 7753SOL     OW34720   1.844   0.165   5.013  0.2144 -0.1810  0.0520
 7753SOL    HW134721   1.790   0.101   4.966  1.1724 -0.7669 -0.2520
 7753SOL    HW234722   1.892   0.201   4.938  0.5751  0.4212  0.5697
 7754SOL     OW34723   4.289   0.489  16.470 -0.2316 -0.2837 -0.1269
 7754SOL    HW134724   4.368   0.541  16.486  0.6336 -1.2808 -1.1496
 7754SOL    HW234725   4.220   0.554  16.480 -0.5838 -0.8383  1.0381
 7755SOL     OW34726   0.159   3.067   9.417 -0.3061  0.0203 -0.3867
 7755SOL    HW134727   0.147   3.161   9.403 -1.7977 -0.1131  0.0513
 7755SOL    HW234728   0.147   3.023   9.333  1.3871 -0.1244 -0.5564
 7756SOL     OW34729   2.026   3.366   6.070 -0.0691 -0.1952 -0.1996
 7756SOL    HW134730   1.983   3.423   6.007 -0.9476 -0.9395 -0.2758
 7756SOL    HW234731   1.952   3.332   6.120  1.0283 -2.8753 -0.4072
 7757SOL     OW34732   2.211   0.295   1.428  0.6967 -0.3010  0.1932
 7757SOL    HW134733   2.271   0.369   1.430  2.3751 -1.6542 -0.4380
 7757SOL    HW234734   2.267   0.225   1.395  1.2597 -0.1932  0.9228
 7758SOL     OW34735   1.271   3.217   5.647  0.5454 -0.6311  0.7402
 7758SOL    HW134736   1.276   3.238   5.741 -0.1683 -1.7277  1.0225
 7758SOL    HW234737   1.264   3.122   5.647  0.0909 -0.5877 -1.7300
 7759SOL     OW34738   2.861   4.308   7.875 -0.1363 -0.0797  0.4705
 7759SOL    HW134739   2.826   4.290   7.788  1.6054  0.2185 -0.2935
 7759SOL    HW234740   2.827   4.396   7.888  0.5299  0.0764  1.1725
 7760SOL     OW34741   2.433   0.428   6.853 -0.5509 -0.0273  0.2635
 7760SOL    HW134742   2.388   0.512   6.867  1.6553  1.5298 -2.0326
 7760SOL    HW234743   2.459   0.428   6.761  2.6642  0.2567  1.1589
 7761SOL     OW34744   1.289   2.259   9.660 -0.4759 -0.2166  0.4064
 7761SOL    HW134745   1.353   2.270   9.590 -1.5020  1.9783 -0.1957
 7761SOL    HW234746   1.252   2.175   9.634 -2.0787  0.8382 -0.6904
 7762SOL     OW34747   0.324   2.879   2.030  0.4535  0.0662 -0.0937
 7762SOL    HW134748   0.233   2.870   2.002 -0.4463 -0.5946  3.0405
 7762SOL    HW234749   0.333   2.801   2.084 -1.6449 -2.4361 -3.3778
 7763SOL     OW34750   0.260   4.421   1.015  0.1165  0.3465  0.3988
 7763SOL    HW134751   0.247   4.495   1.073  0.8255  0.2727  0.6511
 7763SOL    HW234752   0.208   4.452   0.941  1.9378 -0.1707 -1.1145
 7764SOL     OW34753   0.432   2.206   8.059 -0.1638 -0.8481  0.1415
 7764SOL    HW134754   0.482   2.130   8.029 -0.7131 -0.7990 -0.9067
 7764SOL    HW234755   0.343   2.186   8.031 -0.2399  0.9695 -0.8968
 7765SOL     OW34756   3.073   3.845   5.428  0.3601  0.0092  0.2434
 7765SOL    HW134757   3.008   3.801   5.483  0.4013 -0.9561 -0.4830
 7765SOL    HW234758   3.042   3.827   5.339  0.4539  0.1084  0.1916
 7766SOL     OW34759   2.111   2.027  17.153  0.3832  0.2706  0.4367
 7766SOL    HW134760   2.153   1.943  17.171 -0.2199 -0.5708 -2.0683
 7766SOL    HW234761   2.018   2.012  17.169  0.7414 -0.4763  1.7680
 7767SOL     OW34762   1.568   1.777   6.615 -0.3552  0.3280  0.1845
 7767SOL    HW134763   1.522   1.772   6.699 -0.2913 -1.8873  0.0963
 7767SOL    HW234764   1.618   1.695   6.614 -0.8151  0.0374  0.7809
 7768SOL     OW34765   3.294   1.291   9.937 -0.6147  0.2244 -0.2691
 7768SOL    HW134766   3.265   1.201   9.947  2.9920 -1.0080 -0.8520
 7768SOL    HW234767   3.345   1.291   9.856 -0.7286 -0.8129 -0.3437
 7769SOL     OW34768   4.589   2.299   3.659  0.2744 -0.2689 -0.2773
 7769SOL    HW134769   4.586   2.205   3.678 -1.4169 -0.5883 -2.1384
 7769SOL    HW234770   4.565   2.304   3.567  0.2589  0.4627 -0.2269
 7770SOL     OW34771   1.645   0.950   6.100 -0.6494 -0.0680  0.1156
 7770SOL    HW134772   1.733   0.985   6.082 -1.3283  2.0138  0.8388
 7770SOL    HW234773   1.610   1.033   6.133  0.0516  1.2247 -2.3944
 7771SOL     OW34774   2.193   3.548   4.707  0.1734 -0.4450 -0.0641
 7771SOL    HW134775   2.169   3.460   4.738  1.8296 -0.5466  0.9092
 7771SOL    HW234776   2.206   3.531   4.614  0.6445  1.5828 -0.3717
 7772SOL     OW34777   0.515   0.252   5.581 -0.3143  0.0329  0.3537
 7772SOL    HW134778   0.552   0.305   5.510  1.8581  0.3275  1.7278
 7772SOL    HW234779   0.591   0.199   5.602  1.0042  0.8237 -2.4186
 7773SOL     OW34780   1.367   2.091   1.934  0.5116  0.3245  0.4109
 7773SOL    HW134781   1.287   2.091   1.986  0.2573  0.8242  0.0205
 7773SOL    HW234782   1.330   2.079   1.846  2.1572 -0.6396 -0.1485
 7774SOL     OW34783   0.539   1.184   5.061 -0.1749 -0.6241  0.5038
 7774SOL    HW134784   0.486   1.219   5.133 -0.7540 -0.9022  0.2147
 7774SOL    HW234785   0.562   1.265   5.016  0.0781 -1.8587 -1.5653
 7775SOL     OW34786   2.282   2.492   6.313  0.0956 -0.2884  0.2736
 7775SOL    HW134787   2.322   2.575   6.340 -2.4675  0.9574  0.2050
 7775SOL    HW234788   2.346   2.465   6.247 -0.6514  0.7490 -0.8756
 7776SOL     OW34789   2.482   2.750   8.826 -0.1844  0.3083  0.4669
 7776SOL    HW134790   2.493   2.655   8.837  3.2000  0.6117 -0.0563
 7776SOL    HW234791   2.567   2.783   8.796  0.3800  0.8534  2.6290
 7777SOL     OW34792   2.841   0.956   3.326  0.2169 -0.1790  0.0823
 7777SOL    HW134793   2.831   0.983   3.234  0.9146 -1.0449 -0.2514
 7777SOL    HW234794   2.929   0.990   3.346  0.1059  0.2567 -0.1676
 7778SOL     OW34795   4.671   3.447   3.725 -0.1295 -0.1133  0.4855
 7778SOL    HW134796   4.691   3.518   3.663  1.0142  0.1286  1.1322
 7778SOL    HW234797   4.586   3.474   3.759 -0.4134  1.0577 -1.1394
 7779SOL     OW34798   0.949   0.353  16.777  0.2790  0.0724  0.3430
 7779SOL    HW134799   0.897   0.399  16.843  0.1776  0.3225  0.0902
 7779SOL    HW234800   1.024   0.411  16.762  0.5015  0.0814  1.4987
 7780SOL     OW34801   0.545   1.042   0.331  0.2821  0.1565  0.2817
 7780SOL    HW134802   0.469   1.058   0.386 -0.0453  0.1956 -0.1808
 7780SOL    HW234803   0.618   1.043   0.393  0.5323  1.2471 -0.0219
 7781SOL     OW34804   0.504   3.573   2.374 -0.2210  0.0385 -0.0346
 7781SOL    HW134805   0.479   3.567   2.282  0.4923  1.9696 -0.3690
 7781SOL    HW234806   0.536   3.662   2.389 -1.4666  0.4241  0.3558
 7782SOL     OW34807   1.615   4.494   8.273  0.0111 -0.3651  0.3453
 7782SOL    HW134808   1.544   4.555   8.254 -0.0552 -0.3256  0.7105
 7782SOL    HW234809   1.632   4.513   8.365  0.1905 -2.4041  0.7360
 7783SOL     OW34810   1.558   0.094   4.523 -0.3776 -0.0320  0.5655
 7783SOL    HW134811   1.562   0.025   4.589 -1.7754 -0.5821  0.0912
 7783SOL    HW234812   1.629   0.068   4.464  0.7440  1.1349  1.4230
 7784SOL     OW34813   3.889   1.480   4.382 -0.7132  0.0195 -0.4027
 7784SOL    HW134814   3.964   1.427   4.357  0.1144  0.0425  1.9761
 7784SOL    HW234815   3.844   1.492   4.299  1.1486 -1.9867 -1.7024
 7785SOL     OW34816   4.708   0.387   9.966  0.2280  0.4249  0.4136
 7785SOL    HW134817   4.678   0.428   9.885 -0.6092  2.0577  1.5499
 7785SOL    HW234818   0.060   0.342   9.935  0.4236  1.5656 -0.7408
 7786SOL     OW34819   4.483   2.177   4.101 -0.3574  0.2068 -0.0793
 7786SOL    HW134820   4.452   2.128   4.025 -4.2413  1.3615  0.7381
 7786SOL    HW234821   4.403   2.231   4.101 -0.9571 -0.6920 -2.9594
 7787SOL     OW34822   2.227   1.078   3.580 -0.1117 -0.2016 -0.1725
 7787SOL    HW134823   2.298   1.131   3.616  2.7590 -3.4343 -1.0436
 7787SOL    HW234824   2.235   1.095   3.486 -0.1001  0.7793  0.0015
 7788SOL     OW34825   1.325   0.676  10.373  0.0295  0.2820 -0.3522
 7788SOL    HW134826   1.251   0.721  10.332  0.4756  1.6520  0.3676
 7788SOL    HW234827   1.404   0.698  10.323 -0.7682 -1.1011 -2.2262
 7789SOL     OW34828   0.649   1.360   1.241  0.3118  0.2722  0.0959
 7789SOL    HW134829   0.691   1.281   1.207  1.3256  0.1336  1.6669
 7789SOL    HW234830   0.594   1.378   1.165  0.3540  0.2875  0.0691
 7790SOL     OW34831   3.454   3.638  13.422 -0.1630 -0.6448  0.2807
 7790SOL    HW134832   3.366   3.634  13.385 -0.4192 -0.8882  0.9134
 7790SOL    HW234833   3.438   3.669  13.511 -0.4587  0.4694 -0.1674
 7791SOL     OW34834   0.919   4.200   2.080 -0.1933 -0.0153 -0.5729
 7791SOL    HW134835   1.000   4.235   2.044 -0.1464  2.0402  1.5236
 7791SOL    HW234836   0.879   4.276   2.123 -0.0208  0.6885 -1.6760
 7792SOL     OW34837   3.303   3.312   2.644 -0.6175 -0.5226  0.3910
 7792SOL    HW134838   3.230   3.363   2.609  1.4822  0.3375 -2.7383
 7792SOL    HW234839   3.362   3.317   2.568 -2.0390  0.7678 -0.6111
 7793SOL     OW34840   0.325   1.308   3.164  0.3949 -0.3994  0.2067
 7793SOL    HW134841   0.373   1.375   3.115 -0.6015 -0.4401 -0.8214
 7793SOL    HW234842   0.233   1.330   3.147  0.0190 -1.7302  0.5157
 7794SOL     OW34843   3.006   0.086   3.324 -0.3928 -0.1291 -0.2862
 7794SOL    HW134844   2.957   0.090   3.242 -0.3995 -0.0180 -0.2775
 7794SOL    HW234845   3.048   0.172   3.314 -0.6813 -0.1360 -1.6030
 7795SOL     OW34846   4.074   3.162  10.522 -0.7285 -0.1251 -0.4116
 7795SOL    HW134847   4.158   3.118  10.520  0.6059  2.4129  0.4869
 7795SOL    HW234848   4.008   3.098  10.493 -1.6578  0.5512  0.2102
 7796SOL     OW34849   1.769   3.998   3.524  0.5105 -0.3409 -0.1616
 7796SOL    HW134850   1.682   3.970   3.495  0.4682  1.7292 -2.0524
 7796SOL    HW234851   1.802   3.927   3.579 -1.0240  0.7151  2.1174
 7797SOL     OW34852   3.399   0.201   5.270  0.3790  0.0476 -0.3774
 7797SOL    HW134853   3.487   0.228   5.293  0.1378 -0.0341  0.6350
 7797SOL    HW234854   3.414   0.124   5.216  0.7795  0.0151 -0.2193
 7798SOL     OW34855   3.214   1.900  10.408  0.2650  0.4712 -0.4914
 7798SOL    HW134856   3.264   1.943  10.339  0.6738 -2.1147 -1.7785
 7798SOL    HW234857   3.284   1.851  10.451  0.5067  1.6802  0.5016
 7799SOL     OW34858   1.139   2.704  11.908  0.2542 -0.3779  0.1818
 7799SOL    HW134859   1.113   2.718  11.817  0.6927 -1.0782 -0.0534
 7799SOL    HW234860   1.091   2.774  11.952 -0.2244  0.5618 -1.8087
 7800SOL     OW34861   0.633   1.897   5.307  0.8211  0.0346 -0.0057
 7800SOL    HW134862   0.655   1.845   5.384  1.0995  0.2049  0.0278
 7800SOL    HW234863   0.550   1.860   5.278  0.1398  1.6044 -0.0855
 7801SOL     OW34864   2.640   1.774  13.865  0.9532  0.0918 -0.2520
 7801SOL    HW134865   2.588   1.720  13.924  0.1394 -0.0286 -1.0842
 7801SOL    HW234866   2.712   1.717  13.838  1.3877  0.3673  0.3109
 7802SOL     OW34867   0.113   3.429   2.803 -0.1924  0.5108 -0.2298
 7802SOL    HW134868   0.075   3.499   2.855 -0.3936  1.8726 -2.2236
 7802SOL    HW234869   0.061   3.417   2.724 -0.2133  0.7599 -0.2522
 7803SOL     OW34870   3.139   2.595   4.375 -0.4538  0.2951 -0.6055
 7803SOL    HW134871   3.098   2.673   4.337 -0.0275  0.6436 -0.3681
 7803SOL    HW234872   3.231   2.622   4.383 -0.3262 -0.3791  0.1903
 7804SOL     OW34873   3.233   4.516   7.061 -0.0690 -0.0936  0.3246
 7804SOL    HW134874   3.230   4.487   6.970 -0.8585  1.4810 -0.1535
 7804SOL    HW234875   3.323   4.495   7.085  1.1713  3.8313 -0.8368
 7805SOL     OW34876   1.006   2.913   2.218 -0.9970  0.2941 -0.1507
 7805SOL    HW134877   1.051   2.829   2.219  0.1206  0.8962  0.0964
 7805SOL    HW234878   1.073   2.971   2.181 -0.7245 -0.4855 -0.8781
 7806SOL     OW34879   0.839   0.458   7.401 -0.2790 -0.7109  0.2584
 7806SOL    HW134880   0.846   0.487   7.492  0.6952 -1.1929  0.3396
 7806SOL    HW234881   0.750   0.488   7.384 -0.1530  0.2553  1.3062
 7807SOL     OW34882   2.983   0.116   3.051  0.2342  0.6247 -0.5795
 7807SOL    HW134883   2.904   0.116   2.998  0.5940  2.8635 -1.1265
 7807SOL    HW234884   3.044   0.115   2.977  0.7414 -2.9889 -0.0777
 7808SOL     OW34885   2.767   0.574   3.451  0.2567 -0.0887 -0.0667
 7808SOL    HW134886   2.719   0.505   3.406 -0.7820  0.3337  0.4077
 7808SOL    HW234887   2.776   0.641   3.383 -2.1124 -0.6177 -0.9072
 7809SOL     OW34888   2.448   0.599   6.133 -0.2547 -0.2091 -0.0427
 7809SOL    HW134889   2.539   0.618   6.110  0.8164 -3.0239  1.8349
 7809SOL    HW234890   2.410   0.686   6.139  0.0066 -0.1918  1.2818
 7810SOL     OW34891   4.551   2.128   5.879 -0.4367 -0.2997 -0.5310
 7810SOL    HW134892   4.520   2.074   5.807  0.3125 -2.5752  0.8448
 7810SOL    HW234893   4.508   2.076   5.947  2.1410  0.0658  1.3628
 7811SOL     OW34894   3.978   1.511   2.046  0.6865 -0.4855 -0.5348
 7811SOL    HW134895   3.980   1.555   2.131  1.4715 -0.1060 -0.7486
 7811SOL    HW234896   3.919   1.570   1.999  0.7294  0.5159  0.6563
 7812SOL     OW34897   3.762   2.725   3.238 -0.2597  0.0085  0.1674
 7812SOL    HW134898   3.824   2.793   3.212 -0.0643 -1.2141 -2.5776
 7812SOL    HW234899   3.725   2.724   3.150  3.4776 -1.5651 -1.3867
 7813SOL     OW34900   0.810   1.563   1.308  0.2185  0.0107 -0.1317
 7813SOL    HW134901   0.765   1.481   1.286 -0.1005  0.6855 -2.0761
 7813SOL    HW234902   0.737   1.620   1.333  0.4558  0.1991  0.1291
 7814SOL     OW34903   0.607   2.276   9.295 -0.1326  0.2875  0.4686
 7814SOL    HW134904   0.545   2.345   9.316  0.6960  0.7532  1.4001
 7814SOL    HW234905   0.558   2.195   9.304  0.2757  0.0720  0.7481
 7815SOL     OW34906   2.517   1.844  15.336  0.0703  0.2408  0.0024
 7815SOL    HW134907   2.501   1.753  15.311 -1.7771  0.6173 -0.1854
 7815SOL    HW234908   2.444   1.887  15.291  0.5212  1.6618  0.6078
 7816SOL     OW34909   1.637   2.990  16.914  0.3435 -0.6240 -0.2426
 7816SOL    HW134910   1.696   2.957  16.846  1.0343  0.0512  0.0197
 7816SOL    HW234911   1.597   3.067  16.872 -1.3991  0.5943  3.6257
 7817SOL     OW34912   2.422   1.813  15.930  0.7215 -0.1734 -0.0915
 7817SOL    HW134913   2.422   1.786  16.022 -0.9028 -1.4083 -0.4498
 7817SOL    HW234914   2.489   1.882  15.936 -0.6328  1.2010 -0.6724
 7818SOL     OW34915   0.625   0.185   8.437 -0.2212  0.1730  0.1604
 7818SOL    HW134916   0.710   0.192   8.395 -0.8772  0.3928 -1.1276
 7818SOL    HW234917   0.609   0.275   8.464 -2.8091  0.4102 -2.0932
 7819SOL     OW34918   3.177   0.971  10.431  0.7531  0.6306 -0.3308
 7819SOL    HW134919   3.095   0.982  10.383  0.2015  0.2618  0.5250
 7819SOL    HW234920   3.147   0.902  10.490  1.2384  0.9016  0.2250
 7820SOL     OW34921   3.416   1.505  16.876 -0.4940 -0.9929 -0.0298
 7820SOL    HW134922   3.398   1.441  16.946 -0.6263 -0.1077  0.7545
 7820SOL    HW234923   3.499   1.546  16.901 -0.3755 -1.4541  0.3315
 7821SOL     OW34924   1.152   1.431   5.559 -0.3900 -0.2181 -0.2100
 7821SOL    HW134925   1.231   1.417   5.611  0.3529  1.6801 -0.8171
 7821SOL    HW234926   1.090   1.469   5.622 -0.7789 -2.1472  0.5674
 7822SOL     OW34927   0.806   2.537  11.195  0.1784  0.5550  0.3034
 7822SOL    HW134928   0.781   2.584  11.116  1.7358 -0.4070 -0.7619
 7822SOL    HW234929   0.829   2.451  11.159 -1.5394  0.4460 -0.5287
 7823SOL     OW34930   4.387   2.742   2.904 -0.1338 -0.0104 -0.0595
 7823SOL    HW134931   4.404   2.782   2.818  0.0513 -3.5510 -1.6587
 7823SOL    HW234932   4.297   2.713   2.893 -0.4080  1.3052 -1.2609
 7824SOL     OW34933   1.665   4.210   8.841  0.0783  0.1426  0.1576
 7824SOL    HW134934   1.587   4.265   8.833 -0.0712  0.1482  1.7180
 7824SOL    HW234935   1.636   4.120   8.829  1.8960 -0.3976 -0.0592
 7825SOL     OW34936   4.641   2.025   3.631  0.1961  0.1082 -0.5725
 7825SOL    HW134937   4.592   1.948   3.604  0.3023 -0.9408  2.2128
 7825SOL    HW234938   4.682   2.045   3.547 -0.8614 -1.3303 -1.4255
 7826SOL     OW34939   1.829   3.624  15.173  0.8499  0.0088 -0.3113
 7826SOL    HW134940   1.858   3.584  15.091  0.8948  0.9665 -0.7661
 7826SOL    HW234941   1.900   3.591  15.226 -0.6855  0.7760  2.2156
 7827SOL     OW34942   4.704   1.467   6.364  0.2798 -0.1794  0.2447
 7827SOL    HW134943   4.694   1.445   6.457 -0.7953  1.2925  0.4846
 7827SOL    HW234944   4.616   1.458   6.328 -0.9030  3.2556  2.1961
 7828SOL     OW34945   3.423   1.872  13.856 -0.1734  0.7245 -0.5303
 7828SOL    HW134946   3.506   1.881  13.902 -1.4873 -1.2399  2.2027
 7828SOL    HW234947   3.363   1.858  13.929 -0.5995  3.0515 -0.4319
 7829SOL     OW34948   3.298   2.791   3.785 -0.2684  0.7196 -0.4259
 7829SOL    HW134949   3.344   2.746   3.714 -1.5446 -1.6246  0.2364
 7829SOL    HW234950   3.213   2.749   3.788  0.7407 -1.3587 -1.2385
 7830SOL     OW34951   2.243   1.213   7.985  0.4720 -0.2212 -0.2705
 7830SOL    HW134952   2.182   1.227   7.913 -1.1177 -1.0215  0.9084
 7830SOL    HW234953   2.238   1.299   8.026  0.6126 -0.5998  0.5625
 7831SOL     OW34954   0.808   4.390   6.278  0.1358 -0.6405 -0.3226
 7831SOL    HW134955   0.715   4.382   6.297 -0.3579  3.0026 -1.1598
 7831SOL    HW234956   0.819   4.484   6.263  0.6284 -0.5292  0.7402
 7832SOL     OW34957   0.137   0.735   4.029 -0.0137  0.7832 -0.2361
 7832SOL    HW134958   0.224   0.735   3.989  0.6669  1.3051  1.2441
 7832SOL    HW234959   0.155   0.654   4.077 -3.0631  2.5059  3.7455
 7833SOL     OW34960   2.207   1.101   6.434 -0.3100 -0.3070  0.0726
 7833SOL    HW134961   2.115   1.095   6.409 -0.9170 -1.0727  2.4703
 7833SOL    HW234962   2.245   1.112   6.348 -1.5240  1.0204 -0.3028
 7834SOL     OW34963   4.381   0.379   9.544  0.0088 -0.1111 -0.0530
 7834SOL    HW134964   4.355   0.389   9.452 -1.3155 -2.1973  0.1058
 7834SOL    HW234965   4.299   0.340   9.573  0.4401 -0.5435  0.5573
 7835SOL     OW34966   2.836   3.057   5.986 -0.0599 -0.1330 -0.1683
 7835SOL    HW134967   2.868   3.110   5.914 -1.9357 -1.5456 -2.0367
 7835SOL    HW234968   2.847   2.967   5.955  0.8645  0.4184 -1.4256
 7836SOL     OW34969   2.456   1.465  16.040  0.0957 -0.8604 -0.1742
 7836SOL    HW134970   2.410   1.461  16.124 -0.4682  1.7534 -0.3490
 7836SOL    HW234971   2.388   1.487  15.975  0.7988  3.0633  0.4302
 7837SOL     OW34972   1.532   1.502  13.174 -0.0923 -0.1414  0.0743
 7837SOL    HW134973   1.621   1.521  13.203 -1.0829  3.4097  0.7779
 7837SOL    HW234974   1.535   1.528  13.082  1.9078  0.4298  0.3186
 7838SOL     OW34975   0.131   2.677  14.970 -0.2680 -0.5424  0.0775
 7838SOL    HW134976   0.224   2.692  14.985  0.1813 -2.3197 -0.9529
 7838SOL    HW234977   0.101   2.768  14.978 -1.1263 -0.8259  0.0232
 7839SOL     OW34978   1.964   3.747   1.853  0.3568 -0.2077  0.7467
 7839SOL    HW134979   1.875   3.731   1.822  1.2607 -1.2289 -1.3078
 7839SOL    HW234980   1.992   3.814   1.790  0.5354 -1.5659 -0.6072
 7840SOL     OW34981   4.408   2.967   0.586 -0.6779 -0.2909 -0.2663
 7840SOL    HW134982   4.476   2.989   0.650 -0.2625  0.7699 -1.0680
 7840SOL    HW234983   4.394   3.057   0.558  1.4805  0.2266  0.2776
 7841SOL     OW34984   3.234   2.762   2.002 -0.0245 -0.3194 -0.2252
 7841SOL    HW134985   3.174   2.758   2.076 -1.1350 -1.7820 -1.2155
 7841SOL    HW234986   3.312   2.803   2.041 -0.3900  1.0449 -0.9181
 7842SOL     OW34987   3.180   2.830   2.561  0.6554  0.1568 -0.6419
 7842SOL    HW134988   3.183   2.919   2.597  0.0922  0.7795 -2.1418
 7842SOL    HW234989   3.250   2.834   2.496 -1.1580 -1.2520 -2.6561
 7843SOL     OW34990   2.762   4.050   5.171  0.0211  0.6726 -0.0674
 7843SOL    HW134991   2.700   3.977   5.172  0.6239  0.1755  0.8503
 7843SOL    HW234992   2.784   4.057   5.078  1.1593  0.8843  0.2248
 7844SOL     OW34993   1.081   3.824   3.011 -0.3629 -0.8196 -0.1509
 7844SOL    HW134994   1.155   3.826   3.072 -1.8158  0.1653  1.5424
 7844SOL    HW234995   1.008   3.808   3.069 -0.5007  0.0760 -0.0691
 7845SOL     OW34996   3.421   0.582  12.306 -0.6178  0.3110  0.0581
 7845SOL    HW134997   3.480   0.649  12.340 -0.6576  1.2004 -1.6597
 7845SOL    HW234998   3.339   0.630  12.292 -0.4631  0.0794 -1.5856
 7846SOL     OW34999   4.021   4.276   3.009 -0.0480 -0.1772  0.0390
 7846SOL    HW135000   4.001   4.335   2.937 -0.2887  0.9617  1.0331
 7846SOL    HW235001   3.949   4.295   3.070  0.3782 -0.6355  0.6859
 7847SOL     OW35002   1.737   4.237   3.252 -0.4595 -0.7544 -0.2138
 7847SOL    HW135003   1.743   4.199   3.164 -0.8363 -0.6985 -0.2656
 7847SOL    HW235004   1.825   4.221   3.284 -0.8340  0.0360  1.2345
 7848SOL     OW35005   3.519   2.053   3.478 -0.1670  0.2913  0.2807
 7848SOL    HW135006   3.494   1.965   3.505 -0.6232 -0.0085 -1.1386
 7848SOL    HW235007   3.574   2.034   3.402 -1.3227  1.6821 -0.9017
 7849SOL     OW35008   2.026   4.063  16.551 -0.5994 -0.7077  0.2050
 7849SOL    HW135009   2.059   4.153  16.548  0.7055 -1.1083  2.4402
 7849SOL    HW235010   2.102   4.013  16.581  1.1179  0.2671 -2.5661
 7850SOL     OW35011   2.534   1.801   5.971  0.4265  0.0418  0.5156
 7850SOL    HW135012   2.583   1.812   6.053  0.8114 -1.5117  0.4865
 7850SOL    HW235013   2.453   1.849   5.990 -1.8596 -3.8934  0.7092
 7851SOL     OW35014   1.094   0.883  14.795  0.8100  0.6210  0.2165
 7851SOL    HW135015   1.029   0.921  14.854  0.7669  1.3176 -0.2713
 7851SOL    HW235016   1.141   0.817  14.845  2.5856  2.9876  1.7256
 7852SOL     OW35017   1.058   1.311   6.194  0.6934  0.1918 -0.4356
 7852SOL    HW135018   1.006   1.231   6.198 -1.6061  1.6848 -0.4984
 7852SOL    HW235019   1.093   1.304   6.105  4.2846  0.2387  0.9436
 7853SOL     OW35020   4.649   1.144   7.529  0.1159  0.0436  0.1065
 7853SOL    HW135021   4.602   1.213   7.480 -0.4885 -0.5613 -0.1702
 7853SOL    HW235022   4.659   1.177   7.618  1.4103 -1.0341  0.3585
 7854SOL     OW35023   2.971   1.647   3.870 -0.3581 -0.3894 -0.0006
 7854SOL    HW135024   2.879   1.646   3.897 -0.2665 -1.0663  0.3059
 7854SOL    HW235025   2.975   1.732   3.827 -1.3893 -1.0895 -1.4616
 7855SOL     OW35026   3.605   2.053   3.797  0.0723 -0.2796  0.5599
 7855SOL    HW135027   3.529   2.043   3.854 -1.5862  1.0015 -1.4397
 7855SOL    HW235028   3.679   2.059   3.857 -1.7730  0.9914  2.7180
 7856SOL     OW35029   1.240   2.880   5.183  0.4444 -0.2689 -0.2966
 7856SOL    HW135030   1.309   2.898   5.246 -0.7375  2.4758  0.2318
 7856SOL    HW235031   1.161   2.881   5.238  2.4668  1.4497  2.5873
 7857SOL     OW35032   3.769   3.118   2.264 -0.1899 -0.4454  0.0738
 7857SOL    HW135033   3.769   3.030   2.225 -1.2510 -1.1694  1.6949
 7857SOL    HW235034   3.699   3.100   2.327 -1.3399 -1.1820 -1.4084
 7858SOL     OW35035   2.331   1.314  13.657  0.1258  0.3035 -0.2969
 7858SOL    HW135036   2.301   1.404  13.671  0.6547  0.3422  0.6251
 7858SOL    HW235037   2.400   1.339  13.595 -0.5505  2.2087 -0.2929
 7859SOL     OW35038   1.511   0.471  13.698  0.0534 -0.3537 -0.3676
 7859SOL    HW135039   1.436   0.522  13.728  0.7585 -0.0640  0.9133
 7859SOL    HW235040   1.563   0.542  13.661 -2.0510  2.5404  2.1859
 7860SOL     OW35041   0.464   1.512   2.297  0.2172  0.1768  0.0902
 7860SOL    HW135042   0.466   1.524   2.392  1.6631 -1.0126  0.2275
 7860SOL    HW235043   0.462   1.604   2.272  1.1853  0.1173 -0.2335
 7861SOL     OW35044   0.807   2.990  12.215  0.1085  0.2941  0.0456
 7861SOL    HW135045   0.726   2.982  12.265  0.3914 -0.3928  0.3961
 7861SOL    HW235046   0.834   3.082  12.220 -0.9423  0.7402 -2.2970
 7862SOL     OW35047   3.947   4.631   7.099  0.3677  0.5446 -0.7384
 7862SOL    HW135048   4.009   4.623   7.172  0.9020 -2.6070 -1.5462
 7862SOL    HW235049   3.874   4.576   7.128  0.2081  0.3026 -1.6011
 7863SOL     OW35050   3.088   3.179   7.491 -0.2965 -0.4425 -0.5824
 7863SOL    HW135051   3.156   3.240   7.520 -1.4436  0.1012  0.9727
 7863SOL    HW235052   3.015   3.233   7.522  0.7422  0.3107  0.5574
 7864SOL     OW35053   2.349   0.159   6.895 -0.3013  0.1413 -0.6835
 7864SOL    HW135054   2.392   0.244   6.897 -0.1389  0.0385  0.0021
 7864SOL    HW235055   2.426   0.105   6.876  0.7497  1.5473 -0.4685
 7865SOL     OW35056   3.217   2.282   4.114  0.4047 -0.1261  0.1588
 7865SOL    HW135057   3.159   2.358   4.119  0.1360 -0.3248  0.0707
 7865SOL    HW235058   3.156   2.220   4.073 -0.7616 -0.3141  2.1708
 7866SOL     OW35059   0.422   4.132  12.362  0.2624 -0.4592 -0.0264
 7866SOL    HW135060   0.369   4.054  12.377 -1.9127  0.4425 -2.9781
 7866SOL    HW235061   0.505   4.090  12.339  1.1076  1.1494  0.0948
 7867SOL     OW35062   0.105   4.521   4.748  0.3109  0.2500 -0.1969
 7867SOL    HW135063   0.163   4.552   4.679 -0.5606  1.7172 -0.2940
 7867SOL    HW235064   0.140   4.435   4.767  1.8366  0.7217 -0.9098
 7868SOL     OW35065   2.302   0.093   3.564 -0.6764 -0.4942 -0.2738
 7868SOL    HW135066   2.300   0.022   3.500  0.1147 -1.1886  0.4719
 7868SOL    HW235067   2.384   0.080   3.611  0.4249  2.2065 -1.4259
 7869SOL     OW35068   2.853   4.036   8.646  0.4769  0.0227  0.0566
 7869SOL    HW135069   2.806   4.006   8.569  0.4777  1.0705 -0.3560
 7869SOL    HW235070   2.823   3.972   8.711 -1.5500  0.7388 -0.1567
 7870SOL     OW35071   3.985   1.429   3.661 -0.2798  0.2715  0.5461
 7870SOL    HW135072   3.996   1.405   3.753  1.4787  1.1897  0.5785
 7870SOL    HW235073   3.998   1.523   3.664  1.0997  0.1098 -0.2329
 7871SOL     OW35074   0.011   4.011   3.248  0.0920 -0.2363  1.0146
 7871SOL    HW135075   4.714   4.053   3.330 -1.8034 -1.1783  0.9429
 7871SOL    HW235076   4.706   4.077   3.187 -0.4307 -0.5488  0.9576
 7872SOL     OW35077   1.653   3.984   9.424 -0.2783 -0.8383  0.5198
 7872SOL    HW135078   1.596   3.955   9.495 -3.6034  1.2059 -1.3060
 7872SOL    HW235079   1.626   3.932   9.348 -2.2534 -0.1315  0.7316
 7873SOL     OW35080   3.643   2.446   6.042 -0.0912  0.5102  0.3243
 7873SOL    HW135081   3.604   2.401   6.116  0.9037 -2.2857 -0.8684
 7873SOL    HW235082   3.618   2.391   5.968  0.2027  3.4032 -1.9301
 7874SOL     OW35083   2.807   3.262   6.569 -0.0538 -0.2766 -0.1462
 7874SOL    HW135084   2.732   3.314   6.597 -1.0442 -1.3457 -0.7974
 7874SOL    HW235085   2.806   3.201   6.643 -2.7844 -0.9891 -0.7943
 7875SOL     OW35086   3.938   3.168   0.341 -0.0219 -0.1527 -0.0407
 7875SOL    HW135087   3.964   3.076   0.354  1.7491 -0.0554 -2.7668
 7875SOL    HW235088   3.926   3.169   0.246 -0.1945 -1.9858 -0.0516
 7876SOL     OW35089   1.585   0.895   7.548  0.2955  0.3827  0.0766
 7876SOL    HW135090   1.597   0.936   7.634  1.1555 -0.3078  0.2827
 7876SOL    HW235091   1.664   0.841   7.552 -0.6882 -1.0348  0.5183
 7877SOL     OW35092   1.777   4.479  11.094 -0.3093 -0.0234 -0.0882
 7877SOL    HW135093   1.747   4.561  11.133  0.2297 -0.0324  0.3496
 7877SOL    HW235094   1.739   4.416  11.155  0.8548  0.1451  0.8142
 7878SOL     OW35095   2.449   1.410   9.211 -0.5040 -0.0768 -0.0439
 7878SOL    HW135096   2.436   1.321   9.242  1.2951 -0.2115  0.3371
 7878SOL    HW235097   2.392   1.455   9.274 -0.0602 -0.0442  0.3378
 7879SOL     OW35098   4.516   0.812   4.404  0.9310  0.1520 -0.1378
 7879SOL    HW135099   4.493   0.901   4.431  1.1577  0.0555  0.3783
 7879SOL    HW235100   4.599   0.833   4.360  2.2280 -0.3412  2.0765
 7880SOL     OW35101   1.545   4.177  17.091  0.2335 -0.0596  0.9638
 7880SOL    HW135102   1.615   4.112  17.091 -0.9560 -1.3266 -2.3717
 7880SOL    HW235103   1.553   4.211  17.181 -0.5070  1.5096  0.4489
 7881SOL     OW35104   0.739   1.128  17.375 -0.1537  0.4209 -0.0398
 7881SOL    HW135105   0.782   1.188  17.314  2.7998  0.3263  1.9335
 7881SOL    HW235106   0.713   1.188  17.444 -2.0055 -0.3257 -0.0900
 7882SOL     OW35107   1.748   0.105   8.259 -0.2167  0.1957 -0.3216
 7882SOL    HW135108   1.664   0.084   8.299 -0.1564 -2.4923 -1.6520
 7882SOL    HW235109   1.743   0.070   8.170 -1.4192 -0.2987 -0.0576
 7883SOL     OW35110   0.846   2.552   0.111 -0.5317 -0.0764 -0.2313
 7883SOL    HW135111   0.848   2.561   0.015  0.6539  2.6077  0.0339
 7883SOL    HW235112   0.807   2.466   0.124  2.2928 -1.2767  0.3185
 7884SOL     OW35113   1.474   0.447  11.985  0.0393  0.1161  0.4801
 7884SOL    HW135114   1.378   0.441  11.979  0.0253 -0.3917  1.1744
 7884SOL    HW235115   1.488   0.532  12.028  0.4061  0.4249 -0.2606
 7885SOL     OW35116   1.563   1.750   2.185 -0.3240 -0.2444  0.0075
 7885SOL    HW135117   1.540   1.706   2.267  2.1240 -1.4030  0.0580
 7885SOL    HW235118   1.589   1.674   2.133  1.8874  1.0495 -0.7758
 7886SOL     OW35119   1.822   3.803   8.742 -0.4014  0.5548  0.2223
 7886SOL    HW135120   1.793   3.713   8.759  0.3272  0.0625 -1.1265
 7886SOL    HW235121   1.820   3.799   8.646  0.8603 -3.2749  0.3703
 7887SOL     OW35122   2.569   4.191   5.470 -0.0971 -0.3524  0.9948
 7887SOL    HW135123   2.659   4.187   5.437  0.0555  4.9974  0.6972
 7887SOL    HW235124   2.515   4.174   5.393 -1.4475  1.7569  1.4559
 7888SOL     OW35125   3.120   3.228  17.276  0.3178 -0.1546 -0.0742
 7888SOL    HW135126   3.214   3.225  17.261  0.2996  3.1230 -0.9027
 7888SOL    HW235127   3.101   3.313  17.236 -0.5039 -1.2556 -2.0574
 7889SOL     OW35128   4.082   3.686   6.608 -0.8389  0.3934 -0.4300
 7889SOL    HW135129   4.001   3.638   6.624  0.1147  0.1968  3.6993
 7889SOL    HW235130   4.051   3.749   6.542 -0.9700 -0.6464 -1.3654
 7890SOL     OW35131   0.759   4.110   7.457  0.5443 -0.3354  0.1453
 7890SOL    HW135132   0.691   4.064   7.507  1.2595 -1.7230 -0.1591
 7890SOL    HW235133   0.707   4.138   7.381  0.2095 -2.4146 -0.3922
 7891SOL     OW35134   2.320   4.527   1.728  0.4652  0.1887 -0.2389
 7891SOL    HW135135   2.398   4.582   1.729  0.4114  0.2112  2.6340
 7891SOL    HW235136   2.243   4.584   1.721  1.2238  1.2118 -0.2345
 7892SOL     OW35137   1.458   2.990   1.287  0.5665  0.3297 -0.4323
 7892SOL    HW135138   1.397   2.971   1.358  1.0676  0.1262 -0.0555
 7892SOL    HW235139   1.416   2.984   1.201  1.3568  0.7865 -0.8490
 7893SOL     OW35140   3.529   3.681   2.147  0.2837 -0.3608  0.3214
 7893SOL    HW135141   3.516   3.744   2.076 -2.6385  0.9599  2.0433
 7893SOL    HW235142   3.516   3.597   2.102  0.2098  0.1886 -0.6731
 7894SOL     OW35143   0.324   0.269  16.384 -0.3678  0.2258  0.0595
 7894SOL    HW135144   0.273   0.191  16.363  0.8283 -0.6480  0.4025
 7894SOL    HW235145   0.354   0.254  16.474 -0.6386  2.9391  0.6215
 7895SOL     OW35146   3.348   3.688   5.071  0.7054  0.1073 -0.5863
 7895SOL    HW135147   3.353   3.599   5.106  0.7899  0.9017  1.4294
 7895SOL    HW235148   3.405   3.682   4.994  1.7417 -0.7333  0.2519
 7896SOL     OW35149   2.943   3.817   7.751 -0.1525  0.0754  0.1196
 7896SOL    HW135150   2.936   3.741   7.694 -0.4715 -0.9730  1.5738
 7896SOL    HW235151   2.965   3.883   7.685 -0.0017  2.6375  2.7335
 7897SOL     OW35152   3.995   1.087   4.580 -0.1035  0.3004  0.5054
 7897SOL    HW135153   4.027   1.017   4.523  0.2568  0.3220  0.6825
 7897SOL    HW235154   4.040   1.058   4.660  0.6125  0.2959  0.0963
 7898SOL     OW35155   2.231   0.293   2.734  0.3896 -0.2973 -0.4858
 7898SOL    HW135156   2.231   0.231   2.660  2.9693 -1.2812  0.3324
 7898SOL    HW235157   2.139   0.294   2.760 -0.4007  1.5884 -3.2842
 7899SOL     OW35158   2.513   4.445   8.239 -0.6027 -0.2931 -0.2976
 7899SOL    HW135159   2.523   4.361   8.283  0.9424  0.7334  1.3511
 7899SOL    HW235160   2.436   4.477   8.286 -1.1177 -1.1365 -0.5655
 7900SOL     OW35161   1.235   0.730   6.588 -0.1762  0.6178 -0.0380
 7900SOL    HW135162   1.226   0.783   6.668  1.7715  1.6932 -0.5120
 7900SOL    HW235163   1.232   0.642   6.625 -0.0485  0.3126 -0.7644
 7901SOL     OW35164   1.672   4.124   9.929  0.5088  0.3615  0.1762
 7901SOL    HW135165   1.642   4.162   9.846  0.4874 -1.1364 -0.4908
 7901SOL    HW235166   1.767   4.132   9.919  0.7376 -0.4957  1.7885
 7902SOL     OW35167   0.634   3.529   6.152 -0.3749  0.0717  0.0695
 7902SOL    HW135168   0.588   3.450   6.180  0.4452  0.3096  2.0788
 7902SOL    HW235169   0.680   3.554   6.232  2.1229  1.3134 -1.7378
 7903SOL     OW35170   0.684   0.018   4.024 -0.3852 -0.1313 -0.0977
 7903SOL    HW135171   0.590   0.002   4.018 -0.5192 -0.0303  1.5542
 7903SOL    HW235172   0.709   4.662   4.065  0.9748  0.5883  0.5238
 7904SOL     OW35173   3.632   3.253   2.893  0.3727  0.3198  0.3517
 7904SOL    HW135174   3.660   3.306   2.819 -1.0805 -1.3905 -1.4061
 7904SOL    HW235175   3.678   3.306   2.958  3.2998 -0.0326 -1.4419
 7905SOL     OW35176   3.380   2.451   7.822 -0.1428 -0.1473 -0.6288
 7905SOL    HW135177   3.398   2.404   7.903  0.8515 -2.1101 -1.9862
 7905SOL    HW235178   3.369   2.374   7.766  1.6129 -0.5627 -0.3986
 7906SOL     OW35179   2.929   3.294  10.235 -0.7740  0.0487  0.1465
 7906SOL    HW135180   2.936   3.374  10.183  1.5564 -0.0948  0.2172
 7906SOL    HW235181   2.986   3.231  10.191  1.1704  1.0078  1.2623
 7907SOL     OW35182   2.056   3.210   7.784  0.0861  0.0065 -0.4124
 7907SOL    HW135183   2.145   3.183   7.807  0.2442  0.9989  0.1271
 7907SOL    HW235184   2.032   3.129   7.739  0.5314 -0.0196 -0.6104
 7908SOL     OW35185   0.852   4.463   7.208 -0.0937 -0.5673  0.6567
 7908SOL    HW135186   0.932   4.485   7.159 -0.0390  0.7770  1.3326
 7908SOL    HW235187   0.886   4.443   7.295 -0.8746 -0.1542  1.0602
 7909SOL     OW35188   3.672   2.881   1.081 -0.1088  0.2444  0.3864
 7909SOL    HW135189   3.701   2.813   1.019 -1.3557 -0.9032  1.0585
 7909SOL    HW235190   3.619   2.937   1.025 -1.5081 -0.5998  0.8725
 7910SOL     OW35191   0.237   2.375   4.563 -0.2562  0.1111 -0.1150
 7910SOL    HW135192   0.313   2.320   4.540 -0.4566 -0.3095  0.2237
 7910SOL    HW235193   0.260   2.402   4.652  1.9631 -1.8671 -0.0722
 7911SOL     OW35194   4.071   1.607   5.387 -0.6538 -0.7733  0.7288
 7911SOL    HW135195   4.070   1.684   5.443  0.8244 -0.0780 -0.2208
 7911SOL    HW235196   4.131   1.625   5.315 -0.2179 -0.7617  1.1007
 7912SOL     OW35197   0.940   0.481  13.359  0.1589  0.6349  0.3376
 7912SOL    HW135198   0.878   0.502  13.429 -1.0302  1.8881 -1.1179
 7912SOL    HW235199   0.979   0.568  13.350 -1.4899  1.2183 -1.0788
 7913SOL     OW35200   3.511   0.931   6.717 -0.3360 -0.5339  1.1382
 7913SOL    HW135201   3.434   0.983   6.697 -1.9152 -3.5521 -0.6513
 7913SOL    HW235202   3.487   0.912   6.807 -1.7722 -0.4366  0.7648
 7914SOL     OW35203   1.855   3.969  13.997 -0.3866  0.3517 -0.3349
 7914SOL    HW135204   1.846   3.986  14.091  0.0720  2.4825 -0.6879
 7914SOL    HW235205   1.796   4.035  13.962 -1.4378 -0.2797  0.2397
 7915SOL     OW35206   0.057   2.375   3.094  0.5262  0.1752 -0.0854
 7915SOL    HW135207   0.096   2.318   3.161 -1.4912 -1.2759 -0.1429
 7915SOL    HW235208   0.069   2.313   3.022 -0.6299 -0.6320  0.4243
 7916SOL     OW35209   3.610   0.450   9.906  0.2910 -0.2453 -0.1002
 7916SOL    HW135210   3.571   0.416   9.825  2.8849 -1.3062 -0.9098
 7916SOL    HW235211   3.554   0.404   9.968  0.7293 -0.9999 -0.2623
 7917SOL     OW35212   0.931   4.134   9.865 -0.3103  0.6766  0.2273
 7917SOL    HW135213   1.016   4.106   9.899  0.6908  0.5025 -2.4666
 7917SOL    HW235214   0.950   4.123   9.772  0.1682 -0.2567  0.4430
 7918SOL     OW35215   3.012   0.963   6.908 -0.1734  0.0558 -0.0294
 7918SOL    HW135216   3.039   0.909   6.833 -0.6887  2.1329 -1.6920
 7918SOL    HW235217   2.937   1.014   6.877 -0.6093 -1.1770 -1.0111
 7919SOL     OW35218   4.187   4.515   3.173 -0.2880 -0.1176 -0.4068
 7919SOL    HW135219   4.236   4.438   3.144 -1.0158  0.3229 -2.7798
 7919SOL    HW235220   4.099   4.479   3.163  0.2303 -1.4720 -0.1139
 7920SOL     OW35221   0.031   3.732   3.286  0.8060 -0.6633 -0.0035
 7920SOL    HW135222   0.010   3.825   3.278  0.2683 -0.8163 -0.3661
 7920SOL    HW235223   4.685   3.695   3.236  0.4255  0.2240 -0.0965
 7921SOL     OW35224   0.802   2.036   3.610  0.0754  0.2683 -0.7385
 7921SOL    HW135225   0.727   2.042   3.552  0.8758  1.7439 -1.6119
 7921SOL    HW235226   0.796   2.123   3.650  1.5096 -0.1442  0.4166
 7922SOL     OW35227   1.610   2.985   5.134 -0.8466  0.2277 -0.5267
 7922SOL    HW135228   1.529   3.034   5.149 -0.8920  0.1615 -0.5547
 7922SOL    HW235229   1.639   3.005   5.044 -0.6065  2.6236  0.0931
 7923SOL     OW35230   4.174   3.639   0.912 -0.8148 -0.0357 -0.0740
 7923SOL    HW135231   4.224   3.601   0.840  1.5538 -0.8743  2.0072
 7923SOL    HW235232   4.088   3.648   0.872 -0.5215  0.7793 -0.5245
 7924SOL     OW35233   1.997   3.197   1.400  0.1135  0.6162 -0.6285
 7924SOL    HW135234   2.012   3.271   1.341  3.3118  0.4987  0.0174
 7924SOL    HW235235   1.918   3.231   1.442  0.5212 -0.5753  1.1030
 7925SOL     OW35236   0.850   0.306   2.954  0.9018  0.9341 -0.6701
 7925SOL    HW135237   0.795   0.329   3.029  1.3386 -0.6248  0.1232
 7925SOL    HW235238   0.790   0.280   2.884 -1.7967 -0.1919  2.0896
 7926SOL     OW35239   1.865   3.857  10.424  0.4587 -0.5673 -0.0200
 7926SOL    HW135240   1.874   3.849  10.519  0.3957 -0.3739  0.0026
 7926SOL    HW235241   1.934   3.921  10.406  0.8131 -1.1400 -0.7299
 7927SOL     OW35242   3.849   2.143   1.998 -0.0381  0.2247 -0.4001
 7927SOL    HW135243   3.831   2.081   2.068 -1.0487 -0.1220 -0.9622
 7927SOL    HW235244   3.895   2.089   1.934  0.9586  0.5206  0.0691
 7928SOL     OW35245   3.512   4.242   6.886 -0.1454  0.4302 -0.0314
 7928SOL    HW135246   3.591   4.285   6.853  1.0902 -0.7164  1.4071
 7928SOL    HW235247   3.483   4.310   6.946  1.5670 -0.7873  2.1924
 7929SOL     OW35248   3.587   2.038  12.735  1.1959  0.2496 -0.0825
 7929SOL    HW135249   3.675   2.023  12.701  1.5201  1.2736  0.3087
 7929SOL    HW235250   3.592   2.133  12.737 -0.1839  0.3324 -0.6609
 7930SOL     OW35251   2.384   1.907   2.497  0.3954  0.9030  0.4145
 7930SOL    HW135252   2.418   1.929   2.584 -2.0366  1.1169  1.3081
 7930SOL    HW235253   2.424   1.976   2.444  2.7510 -0.4519  0.4154
 7931SOL     OW35254   2.029   0.908   9.315  0.0300 -0.5129  0.5260
 7931SOL    HW135255   1.999   0.930   9.228  2.8651 -0.5351 -0.4665
 7931SOL    HW235256   2.090   0.838   9.291 -0.3414  0.1525 -2.3410
 7932SOL     OW35257   0.333   2.658   0.721  0.2416  0.4567 -0.0130
 7932SOL    HW135258   0.376   2.589   0.772  0.9548 -0.2923 -1.6509
 7932SOL    HW235259   0.382   2.731   0.758 -0.1093  1.0262 -0.6861
 7933SOL     OW35260   4.202   2.294   2.888  0.3434  0.2143  0.0172
 7933SOL    HW135261   4.241   2.373   2.925 -2.2343  2.3358 -1.7566
 7933SOL    HW235262   4.166   2.257   2.969 -0.2335 -0.0686 -0.3643
 7934SOL     OW35263   2.880   4.274   1.994 -1.1712 -0.2224 -0.0967
 7934SOL    HW135264   2.792   4.312   1.989 -2.3762 -2.9706  0.0147
 7934SOL    HW235265   2.875   4.227   1.911 -2.2190  1.1190 -0.7850
 7935SOL     OW35266   2.631   3.935  14.709 -0.3638 -0.2394  0.0083
 7935SOL    HW135267   2.700   3.951  14.774 -0.3835 -0.9635  0.2026
 7935SOL    HW235268   2.599   3.849  14.737 -2.4964  0.3400 -0.6701
 7936SOL     OW35269   0.420   0.452   2.451  0.5138 -0.5570  0.1782
 7936SOL    HW135270   0.386   0.375   2.497 -0.4278  0.9341  1.9607
 7936SOL    HW235271   0.504   0.420   2.418  1.9530  2.7802  0.6144
 7937SOL     OW35272   3.932   3.540   2.162 -0.3952 -0.0258 -0.0914
 7937SOL    HW135273   4.027   3.536   2.161 -0.3438  0.6626  1.4023
 7937SOL    HW235274   3.920   3.632   2.188 -0.7627 -0.4596  1.3013
 7938SOL     OW35275   2.127   1.796   7.012  0.4845  0.1976 -0.1979
 7938SOL    HW135276   2.136   1.701   7.004 -1.4776  0.0148 -0.2007
 7938SOL    HW235277   2.060   1.818   6.948 -1.4468 -1.4130  1.2255
 7939SOL     OW35278   1.621   1.509   0.006 -0.1785 -0.2751  0.3430
 7939SOL    HW135279   1.559   1.450   0.049 -1.0173 -0.4140 -1.0476
 7939SOL    HW235280   1.668   1.537   0.085  1.4602 -0.0881 -0.7036
 7940SOL     OW35281   4.706   1.102   2.176 -0.2123 -0.6497  0.0922
 7940SOL    HW135282   4.686   1.088   2.083  1.9273 -0.3155 -0.4207
 7940SOL    HW235283   4.679   1.020   2.216  0.4930 -1.1846 -0.5246
 7941SOL     OW35284   1.379   1.062  10.999  0.1181 -0.1378 -0.5088
 7941SOL    HW135285   1.409   0.988  11.051 -0.9005  0.0149  0.3015
 7941SOL    HW235286   1.291   1.031  10.976  0.0130 -0.1151 -0.1339
 7942SOL     OW35287   1.140   4.680   1.802  0.3334  0.2225 -0.4152
 7942SOL    HW135288   1.150   0.043   1.834 -0.2746 -0.3087  1.2675
 7942SOL    HW235289   1.062   4.649   1.849 -0.4281 -1.3721 -2.7145
 7943SOL     OW35290   3.121   1.336  13.497 -0.7703 -0.0141  0.2655
 7943SOL    HW135291   3.178   1.269  13.534 -1.8689 -1.3666 -0.4889
 7943SOL    HW235292   3.137   1.409  13.556  1.4738  1.4530 -2.1406
 7944SOL     OW35293   3.385   0.997   5.533  0.3756 -0.3187  0.5284
 7944SOL    HW135294   3.466   1.011   5.581  0.3798 -1.8025  0.9512
 7944SOL    HW235295   3.331   0.959   5.602 -2.0576 -0.6185 -1.5156
 7945SOL     OW35296   3.666   0.162  16.433 -0.4422  0.1288  0.2452
 7945SOL    HW135297   3.580   0.201  16.443 -0.4384  0.3950 -0.7317
 7945SOL    HW235298   3.641   0.086  16.380 -1.0957 -0.1580  0.9660
 7946SOL     OW35299   0.497   2.719   0.294  0.1501 -0.1518 -0.2995
 7946SOL    HW135300   0.440   2.653   0.255  0.3336 -1.0915  1.0483
 7946SOL    HW235301   0.576   2.667   0.306 -0.4184 -1.1168 -0.8158
 7947SOL     OW35302   2.940   0.037   7.696  0.2710  0.3622 -0.3804
 7947SOL    HW135303   2.967   0.049   7.605  0.6986 -3.4084 -0.7583
 7947SOL    HW235304   2.846   0.056   7.699  0.2527  0.4977 -1.4752
 7948SOL     OW35305   3.604   3.768   7.337  0.6408  0.4145  0.3936
 7948SOL    HW135306   3.624   3.844   7.282 -1.3989 -0.8103 -2.0559
 7948SOL    HW235307   3.664   3.704   7.300  1.1489  0.7248  0.6836
 7949SOL     OW35308   1.571   1.727   3.797  0.3441 -0.5597  0.5037
 7949SOL    HW135309   1.539   1.785   3.728  2.1238  0.2765  0.3623
 7949SOL    HW235310   1.510   1.727   3.871 -0.0762 -4.3027  0.1533
 7950SOL     OW35311   3.094   3.349   9.475  0.3823  0.1401  0.1320
 7950SOL    HW135312   3.099   3.253   9.470  0.4509  0.1067  0.9343
 7950SOL    HW235313   3.105   3.377   9.566  0.7047 -1.0546  0.4644
 7951SOL     OW35314   1.738   4.585   1.091  0.5091  0.5311  0.9818
 7951SOL    HW135315   1.721   4.651   1.024  2.6007  0.5343  0.4787
 7951SOL    HW235316   1.652   4.543   1.096  0.2848  0.8322 -0.5080
 7952SOL     OW35317   0.618   3.271   1.810 -0.4276  0.3250 -0.1131
 7952SOL    HW135318   0.550   3.213   1.844 -0.3066  0.0927 -0.2702
 7952SOL    HW235319   0.658   3.210   1.748  0.4476  0.5770  0.2103
 7953SOL     OW35320   3.406   1.170   3.130  0.3018  0.0845  0.6108
 7953SOL    HW135321   3.491   1.128   3.123  0.7094  0.9921  0.1424
 7953SOL    HW235322   3.353   1.098   3.097  1.4510 -0.6424  0.3525
 7954SOL     OW35323   4.223   3.468   8.881  0.1048 -0.4697  0.1744
 7954SOL    HW135324   4.233   3.386   8.834  2.7358  0.3948 -0.7425
 7954SOL    HW235325   4.309   3.509   8.870 -0.7085  1.0442 -0.6360
 7955SOL     OW35326   0.537   1.384   7.711 -0.0821 -0.4488  0.0227
 7955SOL    HW135327   0.516   1.301   7.668  0.9711 -0.4000 -0.5729
 7955SOL    HW235328   0.553   1.351   7.800  1.0522  0.4888  0.1661
 7956SOL     OW35329   2.725   0.127   4.876  0.4711  0.2562  0.0821
 7956SOL    HW135330   2.664   0.200   4.866  0.7265  0.5177  0.4454
 7956SOL    HW235331   2.714   0.118   4.971  2.0560  2.2957  0.4514
 7957SOL     OW35332   3.913   3.575   5.072  0.1437  0.7341  0.4360
 7957SOL    HW135333   3.927   3.585   4.978 -1.5228  2.3101  0.3626
 7957SOL    HW235334   3.854   3.649   5.082 -1.4533 -0.8349  2.4699
 7958SOL     OW35335   3.216   1.948  15.155 -0.9357  0.4010 -0.1052
 7958SOL    HW135336   3.268   2.027  15.138  1.2941 -0.8900  0.6903
 7958SOL    HW235337   3.137   1.965  15.207 -1.2368  0.7882 -0.6982
 7959SOL     OW35338   3.273   0.089  10.101 -0.4887 -0.3075  0.2324
 7959SOL    HW135339   3.292   0.163  10.159  0.3905 -0.1631 -0.2330
 7959SOL    HW235340   3.258   0.009  10.150  3.0185 -1.5761 -0.7225
 7960SOL     OW35341   1.967   4.706   5.844 -0.8967 -0.1181 -0.1575
 7960SOL    HW135342   2.021   0.029   5.905 -0.5487 -1.5293  0.7023
 7960SOL    HW235343   1.913   0.044   5.799 -0.5862 -0.8565 -1.5875
 7961SOL     OW35344   4.680   0.722   6.203 -0.5844  0.1421 -0.5869
 7961SOL    HW135345   4.641   0.810   6.198 -2.7885 -0.6958  1.7317
 7961SOL    HW235346   4.720   0.732   6.290 -3.6374  0.6432  0.7701
 7962SOL     OW35347   1.298   4.035  12.984 -0.4573  0.1774 -0.2910
 7962SOL    HW135348   1.261   4.052  12.897  0.3118 -0.2378 -0.6899
 7962SOL    HW235349   1.316   4.124  13.016  1.7682  0.2958 -1.8786
 7963SOL     OW35350   1.515   1.890   1.810 -0.7211 -0.7254 -0.0585
 7963SOL    HW135351   1.477   1.956   1.867  0.0841  0.6645 -1.1338
 7963SOL    HW235352   1.583   1.946   1.771 -0.3166 -0.0809  1.5828
 7964SOL     OW35353   4.327   1.367  11.959  0.2542 -0.0760 -0.5944
 7964SOL    HW135354   4.315   1.304  11.888  0.1982 -0.3060 -0.3818
 7964SOL    HW235355   4.242   1.362  12.004  1.7129  0.5803  2.2051
 7965SOL     OW35356   4.524   1.532   9.187  0.0948  0.3379 -0.0690
 7965SOL    HW135357   4.456   1.585   9.228  0.9809  0.2919  1.4559
 7965SOL    HW235358   4.492   1.441   9.184 -0.3378  0.5185 -0.9707
 7966SOL     OW35359   1.928   4.513  10.665  0.3045 -0.6095 -0.0805
 7966SOL    HW135360   1.855   4.573  10.647  0.1238 -0.8583 -0.1656
 7966SOL    HW235361   1.891   4.453  10.729 -0.4319  0.5976  0.6297
 7967SOL     OW35362   0.319   2.912   7.838 -0.1378  0.1084 -0.3199
 7967SOL    HW135363   0.377   2.988   7.838  0.1782 -0.1400  1.4083
 7967SOL    HW235364   0.237   2.942   7.877 -0.9804  1.2483 -2.9565
 7968SOL     OW35365   0.202   3.915   7.406 -0.1196  0.1433  0.1506
 7968SOL    HW135366   0.250   3.913   7.323 -1.9533 -0.3269 -0.8881
 7968SOL    HW235367   0.113   3.890   7.384 -0.4972  0.6637  1.0869
 7969SOL     OW35368   3.339   2.194  14.164 -0.4999 -0.7380  0.1130
 7969SOL    HW135369   3.433   2.213  14.170 -0.7564 -0.0416  2.0426
 7969SOL    HW235370   3.321   2.256  14.235 -1.8601  0.9086 -1.7081
 7970SOL     OW35371   4.326   2.463   3.091  0.0800 -0.0632  0.0527
 7970SOL    HW135372   4.382   2.539   3.108  1.7227 -1.3034  0.1169
 7970SOL    HW235373   4.307   2.423   3.176 -0.9015  0.3866  0.0440
 7971SOL     OW35374   2.196   3.348   2.177  0.2769  0.5137 -0.5155
 7971SOL    HW135375   2.272   3.379   2.128 -1.5351  2.8071 -1.8569
 7971SOL    HW235376   2.167   3.426   2.223  2.4534 -0.0690  1.8533
 7972SOL     OW35377   1.391   2.305  10.866  0.5016  0.3347 -0.4694
 7972SOL    HW135378   1.465   2.330  10.810  1.8916 -0.1063  1.1391
 7972SOL    HW235379   1.336   2.383  10.868 -2.3574 -1.7010 -0.6786
 7973SOL     OW35380   3.386   3.482   5.341 -0.0390 -0.6084 -0.3673
 7973SOL    HW135381   3.300   3.473   5.383 -0.2577 -1.4777 -1.0019
 7973SOL    HW235382   3.366   3.453   5.252  0.4412  1.9520 -1.3130
 7974SOL     OW35383   2.304   3.718   7.441 -0.4555  0.1040  0.2892
 7974SOL    HW135384   2.270   3.771   7.369  0.5662  0.1043 -0.1872
 7974SOL    HW235385   2.353   3.783   7.491  2.8683 -0.6315 -1.9990
 7975SOL     OW35386   1.075   1.258  11.870  1.1176 -0.3394 -0.5552
 7975SOL    HW135387   0.996   1.301  11.903  0.9340  0.3226 -1.8516
 7975SOL    HW235388   1.129   1.241  11.947  0.6296  0.1766 -0.0979
 7976SOL     OW35389   0.961   3.313   6.203 -0.1733  0.2849 -0.0487
 7976SOL    HW135390   1.052   3.335   6.224 -0.3336 -0.8573  1.8822
 7976SOL    HW235391   0.915   3.351   6.278 -0.6025 -0.1914 -0.0739
 7977SOL     OW35392   2.102   4.471   8.695 -0.4006  0.4896 -0.7867
 7977SOL    HW135393   2.013   4.434   8.692 -0.3918  0.6846 -3.5009
 7977SOL    HW235394   2.095   4.517   8.779  3.2513  0.3195 -0.4142
 7978SOL     OW35395   1.463   1.539   3.352 -0.1480  0.2807 -0.0212
 7978SOL    HW135396   1.427   1.453   3.331  0.8079 -0.3407  0.8597
 7978SOL    HW235397   1.408   1.557   3.428 -0.1816 -0.5719  0.1536
 7979SOL     OW35398   2.130   3.465  10.953  0.1111 -0.0677  0.1106
 7979SOL    HW135399   2.221   3.449  10.977 -0.3071 -1.4471  0.7576
 7979SOL    HW235400   2.107   3.537  11.012 -0.4691 -1.2617  1.3454
 7980SOL     OW35401   3.244   1.488   7.396  0.6028  0.3351  0.0902
 7980SOL    HW135402   3.252   1.574   7.437 -2.4374  0.6316  0.0160
 7980SOL    HW235403   3.271   1.497   7.304  1.5331 -0.2506  0.3017
 7981SOL     OW35404   3.485   4.307   5.486  0.0691 -0.8245 -0.5466
 7981SOL    HW135405   3.485   4.213   5.503 -2.4391 -0.4867  1.3038
 7981SOL    HW235406   3.395   4.331   5.509  1.3221  4.1825 -0.6866
 7982SOL     OW35407   3.465   0.562  10.753 -0.1039  0.0490 -0.0238
 7982SOL    HW135408   3.496   0.527  10.837  1.4846  0.0238 -0.6271
 7982SOL    HW235409   3.409   0.637  10.772  2.3012  1.6383  0.8010
 7983SOL     OW35410   4.375   0.307   6.826 -0.4948 -0.2791 -0.1473
 7983SOL    HW135411   4.325   0.238   6.782  0.2892 -0.8015 -0.2129
 7983SOL    HW235412   4.304   0.332   6.886  1.1809 -1.5316  2.3617
 7984SOL     OW35413   3.018   4.475   8.085  0.6984 -0.4704  0.4624
 7984SOL    HW135414   3.011   4.380   8.075  1.0434 -0.4860  0.3827
 7984SOL    HW235415   2.932   4.499   8.120  0.2579 -0.0846 -0.8573
 7985SOL     OW35416   1.669   0.857   8.937  0.0346  0.1029 -0.4325
 7985SOL    HW135417   1.668   0.762   8.942 -2.2774 -0.0374 -3.7871
 7985SOL    HW235418   1.633   0.876   9.024  1.5584 -0.6213  0.3505
 7986SOL     OW35419   2.547   4.642  10.380  0.4614  0.8124  0.1512
 7986SOL    HW135420   2.622   4.676  10.332 -0.0845  1.2204 -0.4194
 7986SOL    HW235421   2.567   4.548  10.383 -0.5985  0.6311  1.5664
 7987SOL     OW35422   2.723   2.780   4.194 -0.0639  0.4638 -0.1284
 7987SOL    HW135423   2.650   2.722   4.215  0.6791 -0.4632 -0.1456
 7987SOL    HW235424   2.677   2.852   4.151  0.8080  0.7293 -0.6273
 7988SOL     OW35425   3.108   2.358   0.881 -0.1120 -0.6427 -0.3012
 7988SOL    HW135426   3.136   2.380   0.970 -3.4539  1.0230  0.3386
 7988SOL    HW235427   3.188   2.379   0.833 -0.9421  2.8537 -0.1686
 7989SOL     OW35428   2.267   1.895   5.937  0.2312  0.2088 -0.4960
 7989SOL    HW135429   2.183   1.911   5.895  0.1376  0.7292 -0.1005
 7989SOL    HW235430   2.259   1.964   6.003 -0.7389  1.8981 -2.3657
 7990SOL     OW35431   0.927   0.341   5.710  0.6541  0.3471  0.6897
 7990SOL    HW135432   0.863   0.292   5.762  0.0789  1.7018  1.2384
 7990SOL    HW235433   0.964   0.395   5.779  2.4177 -0.6326  0.5267
 7991SOL     OW35434   4.529   3.712  12.194 -0.4258  0.2068 -0.6412
 7991SOL    HW135435   4.624   3.699  12.196 -0.2494  1.2673 -1.7067
 7991SOL    HW235436   4.515   3.779  12.127  1.6944  1.2422 -0.0764
 7992SOL     OW35437   0.211   4.184   9.120  0.0368  0.2326 -0.2014
 7992SOL    HW135438   0.229   4.133   9.041 -1.6603  0.4883 -0.7485
 7992SOL    HW235439   0.137   4.237   9.092  1.0237  1.1885 -1.0280
 7993SOL     OW35440   3.716   3.701   0.699 -0.2598  0.3946 -0.5060
 7993SOL    HW135441   3.688   3.704   0.790  1.7893  1.0485  0.1073
 7993SOL    HW235442   3.682   3.619   0.662  1.2158 -1.0527  1.3181
 7994SOL     OW35443   3.614   2.270   5.842  0.2150  0.1147  0.4127
 7994SOL    HW135444   3.574   2.187   5.817  1.5204 -0.6598  0.9184
 7994SOL    HW235445   3.686   2.276   5.779 -1.7302  0.7502 -1.7684
 7995SOL     OW35446   3.537   0.099   5.910 -0.4599 -0.0808  0.6708
 7995SOL    HW135447   3.587   0.059   5.838 -0.8675  1.2620 -0.3630
 7995SOL    HW235448   3.512   0.180   5.866  2.1971  0.3187 -0.1007
 7996SOL     OW35449   1.723   1.337   1.717  0.4572  0.3137  0.0736
 7996SOL    HW135450   1.818   1.338   1.708  0.5238  0.7344  0.8382
 7996SOL    HW235451   1.698   1.426   1.695  0.0280  0.2179  0.1636
 7997SOL     OW35452   3.985   0.243   7.931 -0.0213  0.6774  0.1878
 7997SOL    HW135453   4.057   0.300   7.905  0.9886  0.5137  2.6786
 7997SOL    HW235454   4.002   0.213   8.020 -2.4709 -2.8342 -0.5241
 7998SOL     OW35455   1.335   4.446  13.333 -0.2697  0.4460 -0.1696
 7998SOL    HW135456   1.394   4.396  13.277 -0.6149  0.3177 -0.4149
 7998SOL    HW235457   1.338   4.534  13.294  0.2065  0.6087  0.2314
 7999SOL     OW35458   2.943   3.761   0.994  0.1234  0.3626 -0.0574
 7999SOL    HW135459   2.954   3.803   1.079  0.2830  0.7200 -0.2575
 7999SOL    HW235460   3.017   3.798   0.945  0.2624  0.7849  0.4762
 8000SOL     OW35461   1.546   3.351   7.511  0.6512  0.3890 -0.2391
 8000SOL    HW135462   1.627   3.400   7.500 -0.4401  2.4697  1.0788
 8000SOL    HW235463   1.517   3.351   7.602  0.8877  1.0896 -0.1675
 8001SOL     OW35464   4.285   2.722   5.950  0.1587 -0.0460 -0.1361
 8001SOL    HW135465   4.280   2.646   5.891  0.1472 -1.3712  1.5732
 8001SOL    HW235466   4.192   2.742   5.947  0.4339  0.9577 -2.5281
 8002SOL     OW35467   0.754   4.250   4.603 -0.0219  0.4055 -0.0663
 8002SOL    HW135468   0.831   4.302   4.624 -0.9643  1.4175  0.8886
 8002SOL    HW235469   0.768   4.177   4.663  0.3123  0.7652  0.2886
 8003SOL     OW35470   1.765   0.983   8.007 -0.2124 -0.6511 -0.4088
 8003SOL    HW135471   1.722   0.978   8.092  2.2047  1.2366  0.9237
 8003SOL    HW235472   1.767   0.890   7.984  0.2406 -1.3500  2.4489
 8004SOL     OW35473   3.224   0.800   5.648 -0.3641  0.4776 -0.3516
 8004SOL    HW135474   3.181   0.809   5.734  0.9662  1.2802  0.2327
 8004SOL    HW235475   3.175   0.724   5.617  1.2381  0.0012 -1.6930
 8005SOL     OW35476   2.836   2.459   3.285  0.7985 -0.0083  0.4734
 8005SOL    HW135477   2.926   2.454   3.252  0.7900  1.2358  0.2667
 8005SOL    HW235478   2.804   2.537   3.239  0.0348  0.7443  2.2938
 8006SOL     OW35479   3.980   0.518   3.905  0.0462  0.0659  0.9618
 8006SOL    HW135480   4.056   0.473   3.941 -2.6388 -2.8448  2.9548
 8006SOL    HW235481   3.909   0.501   3.967  1.1348  0.1991  2.2208
 8007SOL     OW35482   0.986   4.049  11.842  0.1348  0.5859 -0.5323
 8007SOL    HW135483   1.063   4.018  11.889  0.7761  1.4071 -1.0551
 8007SOL    HW235484   0.951   4.119  11.898 -0.6928  0.0074 -0.3169
 8008SOL     OW35485   0.164   4.604  10.009 -0.6299 -0.3998 -0.2664
 8008SOL    HW135486   0.115   4.617   9.928 -0.9194  0.9527  0.1161
 8008SOL    HW235487   0.252   4.604   9.970 -1.2587 -0.6318 -1.6861
 8009SOL     OW35488   2.009   0.624   3.383  0.2891  0.3995  0.2778
 8009SOL    HW135489   1.978   0.652   3.297 -0.3061  0.5685  0.5507
 8009SOL    HW235490   2.080   0.683   3.411  0.2673  0.3966  0.3387
 8010SOL     OW35491   4.721   1.655   5.348 -0.3273 -0.5613 -0.0051
 8010SOL    HW135492   4.665   1.620   5.279 -1.6709  1.7402 -0.0971
 8010SOL    HW235493   4.683   1.742   5.362  1.2549  0.4838 -2.2810
 8011SOL     OW35494   1.891   4.279   8.700 -0.1770 -0.6200  0.0630
 8011SOL    HW135495   1.920   4.190   8.678 -2.5848 -1.4715  0.3203
 8011SOL    HW235496   1.817   4.266   8.759  0.2396  1.4039  1.0425
 8012SOL     OW35497   1.446   3.150  12.647 -0.3457 -0.3579 -0.1158
 8012SOL    HW135498   1.401   3.220  12.694 -0.5549 -0.1151 -0.6792
 8012SOL    HW235499   1.532   3.186  12.623 -0.9111  1.0814  0.0562
 8013SOL     OW35500   4.295   4.551   7.943 -0.1684  0.1769  0.0016
 8013SOL    HW135501   4.384   4.529   7.968  0.0134  0.7079 -0.1857
 8013SOL    HW235502   4.298   4.645   7.931 -0.6239  0.2920  0.7663
 8014SOL     OW35503   2.731   0.954  10.011 -0.1821  0.7403  0.1614
 8014SOL    HW135504   2.808   0.988   9.965 -0.2016  1.1223  0.4184
 8014SOL    HW235505   2.715   1.014  10.083  1.9461  0.9713  0.4531
 8015SOL     OW35506   4.654   2.859   2.466 -0.5668  0.0671  0.1448
 8015SOL    HW135507   4.670   2.802   2.541 -2.7483 -1.1713 -0.3495
 8015SOL    HW235508   4.588   2.813   2.414  0.2294 -0.1160 -0.7068
 8016SOL     OW35509   2.206   4.084   7.614 -0.3095 -0.0196  0.3044
 8016SOL    HW135510   2.297   4.101   7.590  0.7140  0.5934  4.7477
 8016SOL    HW235511   2.203   4.008   7.672  0.3943 -1.5816 -1.6776
 8017SOL     OW35512   0.748   2.646  10.944 -0.6394  0.2919 -0.3372
 8017SOL    HW135513   0.753   2.741  10.953 -0.3198  0.2849 -0.4473
 8017SOL    HW235514   0.780   2.634  10.854  1.9441 -2.5580  0.9807
 8018SOL     OW35515   3.831   2.000  15.817 -0.5288 -0.1472 -0.4129
 8018SOL    HW135516   3.879   2.065  15.766  1.7160 -1.2365  0.3389
 8018SOL    HW235517   3.827   1.927  15.755  1.6280  1.9627 -3.0322
 8019SOL     OW35518   3.634   0.590   3.113  0.3466 -0.4910  0.0796
 8019SOL    HW135519   3.694   0.642   3.165  1.2517 -0.9290 -0.5329
 8019SOL    HW235520   3.640   0.509   3.163  1.8251 -0.6183 -0.3182
 8020SOL     OW35521   0.249   1.797   2.916 -0.7011  0.5363  0.3567
 8020SOL    HW135522   0.293   1.757   2.991  0.7820 -0.8262 -1.2561
 8020SOL    HW235523   0.213   1.716   2.880 -1.4068  1.5621 -1.2561
 8021SOL     OW35524   1.606   2.846   2.983  0.3878  0.5097 -0.1299
 8021SOL    HW135525   1.684   2.888   3.018  2.8020 -2.4982 -1.8291
 8021SOL    HW235526   1.611   2.880   2.893  0.9149  1.5414  0.2842
 8022SOL     OW35527   0.197   0.551  14.010 -0.1139 -0.2488  0.8010
 8022SOL    HW135528   0.120   0.608  14.002  0.2569 -0.1612 -2.2064
 8022SOL    HW235529   0.251   0.605  14.067  1.4056  1.5652 -2.3774
 8023SOL     OW35530   4.246   2.633   7.790  0.3787 -0.3295  0.8148
 8023SOL    HW135531   4.284   2.545   7.800  1.9967 -0.0333 -2.8594
 8023SOL    HW235532   4.296   2.672   7.862 -0.6456  0.0227  1.3330
 8024SOL     OW35533   3.603   2.366   8.275  0.2411 -0.0993  0.1800
 8024SOL    HW135534   3.615   2.283   8.321 -1.2197 -0.3399  0.1111
 8024SOL    HW235535   3.548   2.421   8.330 -1.1719 -0.8534 -0.4839
 8025SOL     OW35536   4.542   0.129  14.357  0.1408  0.2412  0.3856
 8025SOL    HW135537   4.495   0.212  14.364  1.8024  1.0721  1.5052
 8025SOL    HW235538   4.476   0.071  14.396  0.4336 -1.0907 -1.0663
 8026SOL     OW35539   2.606   1.936   2.662  0.2412  0.3448  0.6109
 8026SOL    HW135540   2.619   1.911   2.754  2.0081 -0.1248  0.2180
 8026SOL    HW235541   2.657   1.873   2.611  0.9192  2.0891 -0.8528
 8027SOL     OW35542   1.812   3.442   2.678 -0.2207 -0.1970 -0.1327
 8027SOL    HW135543   1.874   3.514   2.692 -0.4580 -0.3072  1.5232
 8027SOL    HW235544   1.852   3.390   2.609 -3.0173  0.8068 -2.4850
 8028SOL     OW35545   2.217   3.933   4.925  1.2403  0.0366 -0.4626
 8028SOL    HW135546   2.223   4.015   4.973  0.5410  0.4836 -1.1270
 8028SOL    HW235547   2.245   3.972   4.842  0.1562 -1.1496 -1.3901
 8029SOL     OW35548   4.228   3.405   6.400 -0.2155  0.0921  0.3574
 8029SOL    HW135549   4.266   3.465   6.335  1.2679  1.2488  2.2744
 8029SOL    HW235550   4.138   3.394   6.370 -1.4117  0.7301  3.7696
 8030SOL     OW35551   1.731   1.664  12.714  0.7847 -0.9738  0.1779
 8030SOL    HW135552   1.670   1.608  12.761  0.0495  1.4190  2.0645
 8030SOL    HW235553   1.711   1.754  12.739 -0.9531 -1.2018 -0.4011
 8031SOL     OW35554   3.399   4.697  16.347  0.3673 -0.1069  0.0569
 8031SOL    HW135555   3.332   4.688  16.279  1.5103 -1.3730 -0.9030
 8031SOL    HW235556   3.357   0.023  16.415  2.0973 -0.2037  1.2061
 8032SOL     OW35557   1.530   1.169  11.700  0.7046  0.2450 -0.0944
 8032SOL    HW135558   1.600   1.158  11.764  0.9572  1.3575 -0.1816
 8032SOL    HW235559   1.461   1.113  11.737  1.2184  0.7884  1.6958
 8033SOL     OW35560   0.123   1.291   5.956 -0.8413  0.0536 -0.2496
 8033SOL    HW135561   0.162   1.211   5.920 -0.3029  0.5985 -0.8865
 8033SOL    HW235562   0.135   1.355   5.885 -0.6708 -2.5338 -2.5576
 8034SOL     OW35563   4.176   2.720   1.744  0.0302 -0.3832  0.5231
 8034SOL    HW135564   4.210   2.652   1.687  2.0565 -0.3274  1.6349
 8034SOL    HW235565   4.112   2.778   1.703 -0.7509 -1.2051  0.5932
 8035SOL     OW35566   4.221   0.678   4.015  0.1425 -0.0440 -0.2008
 8035SOL    HW135567   4.188   0.719   4.095  0.3931 -0.6783  0.2252
 8035SOL    HW235568   4.225   0.585   4.036 -2.7037 -0.3891 -1.2592
 8036SOL     OW35569   1.237   3.162  10.079  0.3395  0.5263 -0.1951
 8036SOL    HW135570   1.309   3.157  10.016  1.3709 -1.1796  1.1125
 8036SOL    HW235571   1.199   3.249  10.073  0.5004  0.5602 -0.6727
 8037SOL     OW35572   4.463   0.921   2.554 -0.1981 -0.3709 -0.6009
 8037SOL    HW135573   4.378   0.950   2.588  0.1077  0.9957 -0.9793
 8037SOL    HW235574   4.445   0.917   2.460  1.7917 -1.6412 -0.9378
 8038SOL     OW35575   4.277   3.134   4.531 -0.1838 -0.3765 -0.5520
 8038SOL    HW135576   4.226   3.127   4.450 -1.1308 -3.7466  0.3412
 8038SOL    HW235577   4.334   3.059   4.519 -0.9221 -0.9818 -0.2436
 8039SOL     OW35578   2.629   2.918  10.026  0.0364 -0.2497  0.7454
 8039SOL    HW135579   2.654   2.828  10.049  0.4045 -0.7742 -1.7074
 8039SOL    HW235580   2.623   2.955  10.114  2.5758  1.6632  0.1044
 8040SOL     OW35581   0.555   3.693  17.183  0.1406 -0.3966  0.0661
 8040SOL    HW135582   0.648   3.708  17.200  0.0279 -0.8437  1.0731
 8040SOL    HW235583   0.538   3.635  17.257  0.1158  1.9609  1.9142
 8041SOL     OW35584   2.790   3.357   8.301 -0.0790 -0.1658 -0.0296
 8041SOL    HW135585   2.830   3.441   8.280  0.1686  0.1174  1.5984
 8041SOL    HW235586   2.831   3.342   8.386  0.2624  2.0038  0.1794
 8042SOL     OW35587   1.986   0.232   4.366 -0.1661 -0.2694  0.8341
 8042SOL    HW135588   2.061   0.229   4.306 -1.1909 -0.8880 -0.4123
 8042SOL    HW235589   1.970   0.327   4.362 -0.2589 -0.2923  0.6571
 8043SOL     OW35590   3.875   1.249   6.592 -0.2618 -0.1414 -0.4729
 8043SOL    HW135591   3.949   1.308   6.606 -0.0700 -0.4730 -0.0750
 8043SOL    HW235592   3.868   1.260   6.497  2.3644 -2.0391 -0.9057
 8044SOL     OW35593   2.323   2.572   0.669  0.5226  0.1449 -0.4803
 8044SOL    HW135594   2.358   2.485   0.687 -2.6181 -1.6277 -2.8584
 8044SOL    HW235595   2.372   2.582   0.587  1.1778  0.2711 -0.0751
 8045SOL     OW35596   2.916   2.482   5.200 -0.0493  0.1765 -0.2409
 8045SOL    HW135597   2.987   2.452   5.256  0.6680 -1.4245 -1.9835
 8045SOL    HW235598   2.861   2.519   5.269 -0.1635  0.0311 -0.2541
 8046SOL     OW35599   2.879   0.779  11.228 -0.3562  0.3141  0.7403
 8046SOL    HW135600   2.800   0.799  11.178  0.0870 -0.8294 -0.4337
 8046SOL    HW235601   2.867   0.842  11.299 -2.4431  0.3303  0.3718
 8047SOL     OW35602   2.426   2.390  16.697  0.3311  0.1004  0.0655
 8047SOL    HW135603   2.359   2.340  16.650 -0.1959  1.3673 -0.5090
 8047SOL    HW235604   2.385   2.474  16.717 -1.5810 -1.3359  2.1313
 8048SOL     OW35605   2.892   0.192   8.008 -0.2293  0.3239 -0.0524
 8048SOL    HW135606   2.904   0.158   8.096 -1.3857 -1.8228 -0.7135
 8048SOL    HW235607   2.818   0.135   7.986 -1.4834  1.7330  0.4613
 8049SOL     OW35608   0.722   2.982   8.417 -0.5485  0.6217 -0.3154
 8049SOL    HW135609   0.766   3.063   8.391 -2.6941  1.0986 -2.4595
 8049SOL    HW235610   0.642   3.020   8.452 -0.8952  0.2703 -0.7335
 8050SOL     OW35611   1.413   1.144  11.367 -0.1772 -0.2835 -0.1890
 8050SOL    HW135612   1.470   1.171  11.438  0.3380  1.4904 -1.2735
 8050SOL    HW235613   1.430   1.207  11.297  0.2538  0.5620  0.6868
 8051SOL     OW35614   0.395   1.660   4.172  0.0356 -0.6656  0.0428
 8051SOL    HW135615   0.475   1.627   4.132 -0.1974 -1.8365  0.5605
 8051SOL    HW235616   0.416   1.754   4.168  0.7208 -0.7406  1.9775
 8052SOL     OW35617   3.563   1.655   4.286 -0.0434 -0.0310  0.2065
 8052SOL    HW135618   3.511   1.586   4.329 -0.3050  1.4474  2.2641
 8052SOL    HW235619   3.633   1.624   4.229 -1.2232  0.2661 -1.3971
 8053SOL     OW35620   2.564   0.653   6.642 -0.3125 -0.3819 -0.4918
 8053SOL    HW135621   2.619   0.583   6.609 -0.3429 -0.8318  0.4135
 8053SOL    HW235622   2.476   0.615   6.631  0.2274 -2.0377  0.9496
 8054SOL     OW35623   1.326   4.471  13.719 -0.7226  0.6873  0.2515
 8054SOL    HW135624   1.357   4.561  13.717 -0.1480  0.4602 -1.5093
 8054SOL    HW235625   1.254   4.479  13.657  0.5323  1.4821 -1.0964
 8055SOL     OW35626   4.585   4.031   6.790 -0.2332  0.0252 -0.3814
 8055SOL    HW135627   4.589   4.061   6.699 -1.9671 -0.5400 -0.6384
 8055SOL    HW235628   4.656   3.966   6.791  0.0230  0.3649  3.1761
 8056SOL     OW35629   3.212   1.543  16.145 -0.5024  0.1266 -0.3446
 8056SOL    HW135630   3.287   1.591  16.181 -0.4721  0.4375 -0.8213
 8056SOL    HW235631   3.199   1.491  16.224  0.5673  0.8781  0.3346
 8057SOL     OW35632   0.436   1.425   8.708 -0.1980  0.3680 -0.4512
 8057SOL    HW135633   0.516   1.465   8.741 -0.0427 -0.0828 -0.2743
 8057SOL    HW235634   0.370   1.480   8.750 -0.2465  1.3048 -1.7489
 8058SOL     OW35635   4.224   1.932   2.363  0.0511  0.5833 -0.2614
 8058SOL    HW135636   4.220   1.934   2.268  0.9904  0.2552 -0.3090
 8058SOL    HW235637   4.131   1.932   2.383  0.0703 -0.7626 -0.1900
 8059SOL     OW35638   3.575   2.754   8.191  0.0698  0.3294 -0.7122
 8059SOL    HW135639   3.524   2.750   8.110 -0.4815 -0.5609 -0.3181
 8059SOL    HW235640   3.665   2.731   8.169 -0.2618  0.0494 -1.7551
 8060SOL     OW35641   3.559   2.959   1.381 -0.5391 -1.0139 -0.3731
 8060SOL    HW135642   3.592   2.903   1.452  2.2550  0.0124 -0.8834
 8060SOL    HW235643   3.555   2.902   1.304  0.6952 -1.6484  0.0308
 8061SOL     OW35644   2.214   0.595   5.659  0.4136 -0.5032  0.1935
 8061SOL    HW135645   2.287   0.657   5.652  0.3285 -0.3542  0.5890
 8061SOL    HW235646   2.241   0.522   5.603 -2.7373  0.6459 -2.8503
 8062SOL     OW35647   2.325   0.773  10.153  0.2595  0.0772 -0.1448
 8062SOL    HW135648   2.303   0.861  10.184 -0.2608  0.8984 -2.7952
 8062SOL    HW235649   2.308   0.717  10.228  3.8312  0.9800  1.3627
 8063SOL     OW35650   4.508   1.945   6.712 -0.1818 -0.0769 -0.2725
 8063SOL    HW135651   4.558   1.864   6.725 -0.5157 -0.5103 -1.7248
 8063SOL    HW235652   4.478   1.963   6.801  0.9786 -0.4328  0.2006
 8064SOL     OW35653   2.945   1.939  10.064  0.4766  0.1197  0.0451
 8064SOL    HW135654   2.972   1.944  10.155 -0.2428 -2.6834  0.4169
 8064SOL    HW235655   2.859   1.981  10.065  0.0930 -0.6955  0.8043
 8065SOL     OW35656   3.932   2.878  12.418  0.9281  0.4372 -0.3072
 8065SOL    HW135657   3.930   2.963  12.462  0.5352  0.1826  0.1613
 8065SOL    HW235658   4.022   2.859  12.393  0.0810 -3.5219 -0.3033
 8066SOL     OW35659   1.725   1.399   7.858  0.0025 -0.1455  0.1153
 8066SOL    HW135660   1.647   1.447   7.828 -0.4242 -0.7048  0.3191
 8066SOL    HW235661   1.771   1.376   7.777 -1.2288  0.8299 -0.8732
 8067SOL     OW35662   0.133   1.142   6.293  0.6155 -0.4669 -0.6852
 8067SOL    HW135663   0.209   1.093   6.325  0.1584 -1.7232 -1.5514
 8067SOL    HW235664   0.173   1.229   6.286 -2.5157  1.1145  1.0846
 8068SOL     OW35665   2.305   3.884  11.740  0.0224  0.2556 -0.0902
 8068SOL    HW135666   2.374   3.856  11.800 -0.3151  1.7706  1.0167
 8068SOL    HW235667   2.259   3.802  11.723  1.1717 -0.3068 -0.4426
 8069SOL     OW35668   3.050   2.870   0.609  0.2649 -0.0538 -0.1875
 8069SOL    HW135669   3.110   2.941   0.630  1.2815 -0.4286 -1.8252
 8069SOL    HW235670   3.092   2.829   0.533  2.1883 -0.2496  0.9834
 8070SOL     OW35671   2.017   2.486   4.589 -0.2500 -0.3237 -0.5410
 8070SOL    HW135672   1.928   2.506   4.561 -0.0583  1.1381 -0.1084
 8070SOL    HW235673   2.019   2.390   4.582 -2.3520 -0.4626  0.7317
 8071SOL     OW35674   3.658   2.327   7.299 -0.1101  0.2587  0.3532
 8071SOL    HW135675   3.668   2.306   7.206  1.5697 -0.5471  0.7207
 8071SOL    HW235676   3.563   2.327   7.312  0.3257  2.0348  3.5796
 8072SOL     OW35677   3.676   1.083  12.982  0.7293  0.1388  0.4882
 8072SOL    HW135678   3.739   1.083  13.055  1.1805  0.7266  0.1031
 8072SOL    HW235679   3.703   1.168  12.946  0.2954  0.6154  1.2795
 8073SOL     OW35680   0.258   2.248   0.676 -0.7675 -0.7933 -0.3778
 8073SOL    HW135681   0.263   2.321   0.614  0.2035 -1.2184 -0.8055
 8073SOL    HW235682   0.166   2.237   0.700 -1.4104  1.5026 -1.7517
 8074SOL     OW35683   0.718   2.763   6.505 -0.2526  0.2428 -0.0737
 8074SOL    HW135684   0.800   2.733   6.543 -0.3539 -1.7237 -1.4183
 8074SOL    HW235685   0.757   2.812   6.433 -0.9513  1.4877  0.3946
 8075SOL     OW35686   1.189   4.206   4.902 -0.5565  0.4632  0.0926
 8075SOL    HW135687   1.209   4.113   4.899 -2.4609 -0.0084  2.7712
 8075SOL    HW235688   1.247   4.238   4.832 -1.7266  2.6069  0.0983
 8076SOL     OW35689   1.071   1.067   3.717 -0.1149 -0.1770  0.2533
 8076SOL    HW135690   1.073   1.073   3.812  0.3364 -1.2790  0.3147
 8076SOL    HW235691   1.010   1.139   3.701  0.0957 -0.2428 -0.8687
 8077SOL     OW35692   4.583   1.255   0.118  0.0032 -0.1570  0.5074
 8077SOL    HW135693   4.577   1.301   0.202  0.4009 -1.2294  1.1295
 8077SOL    HW235694   4.635   1.181   0.151 -0.9352 -0.2407  1.7986
 8078SOL     OW35695   0.969   2.068   1.832  0.0077  0.5007  0.0339
 8078SOL    HW135696   0.917   2.083   1.753 -0.5856  1.3877  0.5947
 8078SOL    HW235697   0.930   2.135   1.887 -0.8210  1.2289 -1.4323
 8079SOL     OW35698   4.356   4.226  16.591  0.3460 -0.2103 -0.2621
 8079SOL    HW135699   4.404   4.164  16.536 -2.1351 -0.0142 -2.6145
 8079SOL    HW235700   4.351   4.302  16.533  0.8265 -0.5055 -0.6856
 8080SOL     OW35701   0.082   1.691   2.578  0.0234  0.3761  1.3359
 8080SOL    HW135702   0.085   1.646   2.663 -0.8060 -1.4526  0.3944
 8080SOL    HW235703   0.154   1.754   2.583 -0.9219  1.6630 -1.5470
 8081SOL     OW35704   1.894   0.986   9.041 -0.0545  0.4077 -0.0261
 8081SOL    HW135705   1.830   0.969   8.972  1.0861  1.1068 -1.2470
 8081SOL    HW235706   1.851   1.043   9.104  0.8295  1.7681 -0.6571
 8082SOL     OW35707   0.541   2.381  11.843  0.2643 -0.0927  0.2167
 8082SOL    HW135708   0.538   2.381  11.747 -0.6618 -2.1792  0.2258
 8082SOL    HW235709   0.635   2.394  11.852  0.1465  0.7879  0.0956
 8083SOL     OW35710   4.332   3.296   7.695  0.1632 -0.3643 -0.0584
 8083SOL    HW135711   4.247   3.265   7.725 -0.5937  0.6028 -1.2171
 8083SOL    HW235712   4.337   3.384   7.732  1.1499 -0.0209 -1.0062
 8084SOL     OW35713   1.423   1.383   3.014 -0.0518  0.4487 -0.1182
 8084SOL    HW135714   1.394   1.377   2.922 -2.4649  0.2778  0.6417
 8084SOL    HW235715   1.518   1.392   3.007 -0.0315  1.4698  1.5026
 8085SOL     OW35716   2.405   3.084   8.025 -0.5921  0.4072  0.1824
 8085SOL    HW135717   2.438   3.103   7.937  0.7851  0.2275  0.6555
 8085SOL    HW235718   2.472   3.125   8.078 -0.9167  1.9410 -0.6023
 8086SOL     OW35719   0.868   0.127  13.816  0.4755  0.1681 -0.2153
 8086SOL    HW135720   0.815   0.167  13.886 -0.9554  1.4238 -2.0198
 8086SOL    HW235721   0.888   0.038  13.846  0.9563  0.0201 -1.0003
 8087SOL     OW35722   1.076   0.708   4.760  0.1737  0.0035 -0.0917
 8087SOL    HW135723   0.988   0.678   4.778 -0.2119  1.9195  1.1683
 8087SOL    HW235724   1.099   0.632   4.705 -1.2579  0.1506 -0.8892
 8088SOL     OW35725   1.260   0.467  12.201 -0.5006 -0.2879  0.7479
 8088SOL    HW135726   1.230   0.417  12.276 -0.4573 -0.3970  0.6918
 8088SOL    HW235727   1.182   0.472  12.145  0.6243  0.2281 -0.8053
 8089SOL     OW35728   3.600   3.380  15.581 -0.1444  0.3080 -0.2522
 8089SOL    HW135729   3.624   3.359  15.672 -1.7981 -1.2606 -0.1746
 8089SOL    HW235730   3.594   3.288  15.556 -0.8290  0.1733  0.4002
 8090SOL     OW35731   4.522   3.593  15.530 -0.0886  0.0311  0.2058
 8090SOL    HW135732   4.611   3.558  15.521 -0.1142  0.9265 -3.6095
 8090SOL    HW235733   4.527   3.585  15.625 -0.5034  1.1571  0.3234
 8091SOL     OW35734   0.796   0.601   4.813 -0.0178  0.6184 -0.1294
 8091SOL    HW135735   0.811   0.550   4.892 -1.0286 -1.1155 -1.0382
 8091SOL    HW235736   0.727   0.554   4.766  1.5255 -0.8527 -0.9598
 8092SOL     OW35737   1.077   0.600   2.585  0.3003 -0.2151 -0.4261
 8092SOL    HW135738   0.997   0.566   2.623 -0.0555  0.6367 -0.4132
 8092SOL    HW235739   1.108   0.523   2.537 -1.9435 -2.0631  1.1087
 8093SOL     OW35740   0.256   4.639   7.858  0.2709  0.7460 -0.0818
 8093SOL    HW135741   0.337   4.651   7.907 -1.4850  1.1549  2.7452
 8093SOL    HW235742   0.291   4.650   7.770 -0.9561 -1.1709 -0.8233
 8094SOL     OW35743   1.923   0.262   5.590  0.3017  0.3727  0.4657
 8094SOL    HW135744   1.945   0.284   5.680 -2.7462  0.1159  1.2575
 8094SOL    HW235745   2.005   0.290   5.548  1.7855 -1.0207  2.4529
 8095SOL     OW35746   0.926   2.153   5.963 -0.0438 -0.0778  0.7334
 8095SOL    HW135747   0.890   2.129   6.049  0.4619 -0.4280  0.8476
 8095SOL    HW235748   0.927   2.248   5.970  1.1546 -0.1745  1.8704
 8096SOL     OW35749   1.835   2.654   5.327 -0.1217 -0.0747 -0.4634
 8096SOL    HW135750   1.842   2.737   5.280 -1.8618  1.2961  1.6875
 8096SOL    HW235751   1.869   2.668   5.415 -0.6395  1.1641 -0.4597
 8097SOL     OW35752   0.004   0.246   0.338  0.2159  0.8974  0.2953
 8097SOL    HW135753   0.050   0.256   0.421  0.6040  0.7273  0.0990
 8097SOL    HW235754   0.014   0.151   0.331 -0.8234  0.8170 -0.1715
 8098SOL     OW35755   1.638   1.700   5.496 -0.0650  0.5360  0.1366
 8098SOL    HW135756   1.637   1.753   5.575 -3.0627 -0.5394  0.8490
 8098SOL    HW235757   1.549   1.713   5.464 -0.5362 -2.4510  0.2431
 8099SOL     OW35758   1.688   2.913   8.581 -0.0717  0.2953 -0.2007
 8099SOL    HW135759   1.615   2.952   8.533  0.6278  1.1442 -0.5624
 8099SOL    HW235760   1.649   2.828   8.603  0.0695  0.1379 -0.5591
 8100SOL     OW35761   3.145   3.868   0.766  0.3844  0.0172 -0.0195
 8100SOL    HW135762   3.114   3.913   0.687  1.0773 -2.1170 -1.5123
 8100SOL    HW235763   3.198   3.943   0.795 -0.1142  0.1043  0.6524
 8101SOL     OW35764   1.179   4.497  16.042 -0.0126 -0.3455 -0.5513
 8101SOL    HW135765   1.085   4.516  16.049 -0.0631 -0.8199  0.0464
 8101SOL    HW235766   1.208   4.467  16.129  1.9313 -0.1755 -1.1402
 8102SOL     OW35767   1.577   0.317  12.209 -0.1836 -0.3838  0.0339
 8102SOL    HW135768   1.663   0.340  12.175  0.3954 -0.6128  1.3404
 8102SOL    HW235769   1.525   0.327  12.129 -2.4884 -0.5505  1.5324
 8103SOL     OW35770   3.035   0.472   2.137 -0.2140  0.0771  0.2179
 8103SOL    HW135771   3.093   0.406   2.099  1.2030  1.0969  0.6031
 8103SOL    HW235772   3.004   0.430   2.217 -0.0976 -1.4249 -0.5244
 8104SOL     OW35773   0.555   2.092  12.908  0.1422 -0.6796 -0.3892
 8104SOL    HW135774   0.547   2.183  12.880  1.1143 -0.5617 -0.2770
 8104SOL    HW235775   0.602   2.058  12.832  1.1857 -0.6663  0.2530
 8105SOL     OW35776   0.572   1.160   0.066 -0.3663  0.0754  0.1967
 8105SOL    HW135777   0.621   1.235   0.101 -0.1325 -1.0240  2.2352
 8105SOL    HW235778   0.552   1.117   0.150 -1.1637  0.8187  0.3865
 8106SOL     OW35779   1.226   2.003  16.530  0.0554 -0.7617  0.4339
 8106SOL    HW135780   1.142   2.038  16.502  0.8777  1.7606  1.1418
 8106SOL    HW235781   1.191   1.947  16.599  1.0013 -0.2870  1.3137
 8107SOL     OW35782   0.889   0.386   9.196 -0.0149  0.0646 -0.3397
 8107SOL    HW135783   0.880   0.481   9.200  0.6653  0.0652  1.2768
 8107SOL    HW235784   0.869   0.366   9.288  0.2961 -0.1550 -0.3208
 8108SOL     OW35785   3.635   1.847   6.363  0.0326 -0.3069 -0.1147
 8108SOL    HW135786   3.690   1.923   6.385 -0.6752  0.6539 -1.6677
 8108SOL    HW235787   3.700   1.777   6.364 -0.7993 -1.0749 -0.9005
 8109SOL     OW35788   3.479   2.057   8.796 -0.1049 -0.0635 -0.0467
 8109SOL    HW135789   3.515   2.087   8.880 -0.5410 -0.3539  0.2509
 8109SOL    HW235790   3.520   1.970   8.796  1.5398  0.7200  0.3525
 8110SOL     OW35791   3.981   2.879   3.132 -0.0304  0.5317 -0.1718
 8110SOL    HW135792   4.075   2.890   3.115 -0.1517  0.3699 -0.9824
 8110SOL    HW235793   3.949   2.961   3.094 -0.6136 -0.2789 -1.4457
 8111SOL     OW35794   0.126   2.094   1.984  0.2925  0.2191  0.2203
 8111SOL    HW135795   0.039   2.127   2.005 -0.1078  0.3714 -1.6487
 8111SOL    HW235796   0.164   2.055   2.063 -0.0923 -0.7764 -0.0978
 8112SOL     OW35797   0.345   3.461  14.746  0.1859  0.4295 -0.1902
 8112SOL    HW135798   0.288   3.395  14.785 -0.5541  0.6750 -0.8475
 8112SOL    HW235799   0.425   3.446  14.797  0.6388  0.9023 -0.7576
 8113SOL     OW35800   0.431   2.428  14.830  0.0437 -0.0774  0.6154
 8113SOL    HW135801   0.422   2.523  14.822 -1.2705 -0.3058 -0.6839
 8113SOL    HW235802   0.365   2.396  14.768  1.7418 -0.1748 -1.1340
 8114SOL     OW35803   1.192   1.950   1.463 -0.3577 -0.5062  0.2244
 8114SOL    HW135804   1.099   1.968   1.476 -0.8283 -3.4733  0.8029
 8114SOL    HW235805   1.222   2.008   1.393  3.7683 -1.6366  1.0068
 8115SOL     OW35806   0.325   1.050   5.907 -0.6129 -0.2998 -0.6572
 8115SOL    HW135807   0.277   0.992   5.966  0.5607  0.3374  0.9022
 8115SOL    HW235808   0.290   1.024   5.822 -0.7474  1.6150 -1.1992
 8116SOL     OW35809   1.921   2.496   0.480 -0.2546  0.0007 -0.0191
 8116SOL    HW135810   1.868   2.559   0.530 -0.9649 -0.0678 -0.6682
 8116SOL    HW235811   1.940   2.552   0.404  0.2137 -0.1657 -0.0241
 8117SOL     OW35812   2.435   4.247   7.630 -0.3753 -0.3335 -0.1318
 8117SOL    HW135813   2.444   4.341   7.616  1.5969 -0.3892  0.6455
 8117SOL    HW235814   2.438   4.213   7.541 -0.4931 -0.3707 -0.1205
 8118SOL     OW35815   2.059   1.842   2.155  0.0906  0.0055  0.1253
 8118SOL    HW135816   2.154   1.830   2.147 -0.1404 -1.9290  0.2599
 8118SOL    HW235817   2.033   1.758   2.117 -2.8717  0.6521  0.7251
 8119SOL     OW35818   3.238   2.239   1.884  0.2205 -0.5021  0.7591
 8119SOL    HW135819   3.193   2.167   1.929 -0.0545 -1.3312 -0.8557
 8119SOL    HW235820   3.197   2.316   1.925 -1.2164 -1.9995  2.1033
 8120SOL     OW35821   1.481   1.442   7.200 -0.1165 -0.0517 -0.5036
 8120SOL    HW135822   1.456   1.350   7.206  1.6314 -0.6164 -2.0678
 8120SOL    HW235823   1.498   1.452   7.294 -0.2753  1.7228 -0.6604
 8121SOL     OW35824   3.553   1.619  17.663 -0.4403  0.9577 -0.0368
 8121SOL    HW135825   3.642   1.651  17.676 -0.0105 -0.9903  1.8783
 8121SOL    HW235826   3.512   1.621   0.042  0.2410 -0.9488  0.3378
 8122SOL     OW35827   0.430   4.074   1.289  0.3014  0.0415  0.0149
 8122SOL    HW135828   0.362   4.131   1.254 -0.4934 -1.2250 -0.5195
 8122SOL    HW235829   0.495   4.077   1.219  0.3113  1.0608  0.0674
 8123SOL     OW35830   2.442   3.615   0.448 -0.3313 -0.1131 -0.1806
 8123SOL    HW135831   2.507   3.607   0.379  2.7251  0.2508  2.6552
 8123SOL    HW235832   2.366   3.573   0.408 -0.5067 -0.5867  0.6511
 8124SOL     OW35833   2.457   2.264   3.466 -0.1780 -0.0367  0.1149
 8124SOL    HW135834   2.424   2.187   3.421 -0.1824 -0.7176  1.2975
 8124SOL    HW235835   2.534   2.279   3.411  0.2569  2.1398  1.2915
 8125SOL     OW35836   2.347   0.736  15.700 -0.5953  0.4282  0.0503
 8125SOL    HW135837   2.419   0.779  15.746 -0.1976 -1.8127  1.5313
 8125SOL    HW235838   2.285   0.702  15.765  0.8530 -1.8324  0.2563
 8126SOL     OW35839   1.304   2.184   5.474 -0.0520 -0.3954  0.2109
 8126SOL    HW135840   1.295   2.130   5.553  0.9279  0.5709  0.9819
 8126SOL    HW235841   1.230   2.151   5.424  1.6595 -0.8241 -2.0485
 8127SOL     OW35842   1.407   1.079   7.723  0.3183  0.3754  0.4688
 8127SOL    HW135843   1.402   1.144   7.794  2.6200  0.7716  0.2722
 8127SOL    HW235844   1.501   1.060   7.722 -0.1315 -1.8109  0.2189
 8128SOL     OW35845   0.044   0.183   4.475 -0.2467 -0.2915 -0.4340
 8128SOL    HW135846   0.118   0.122   4.486 -0.5482 -0.7059 -0.7210
 8128SOL    HW235847   0.009   0.184   4.564  2.9882 -1.7975  0.8775
 8129SOL     OW35848   0.861   0.867   3.538  0.1307 -0.0670 -0.1771
 8129SOL    HW135849   0.809   0.946   3.523  0.8386  0.0876 -1.7599
 8129SOL    HW235850   0.940   0.888   3.489  0.0848 -1.9027 -1.0414
 8130SOL     OW35851   3.549   4.042   6.684 -0.4574 -0.0773 -0.0045
 8130SOL    HW135852   3.537   4.120   6.738 -0.3109  0.4492 -0.7502
 8130SOL    HW235853   3.593   4.081   6.609 -0.6051  1.1673  0.5536
 8131SOL     OW35854   3.801   4.178   9.846 -0.3853  0.0856 -0.4376
 8131SOL    HW135855   3.772   4.251   9.900 -0.7743 -0.8458  0.5988
 8131SOL    HW235856   3.873   4.221   9.800  0.1310 -0.8994 -0.5652
 8132SOL     OW35857   2.181   1.597   1.869  0.4863 -0.3341  0.6414
 8132SOL    HW135858   2.110   1.577   1.930 -0.8281 -0.0707 -0.7791
 8132SOL    HW235859   2.226   1.513   1.880  1.1948  0.0572  0.6815
 8133SOL     OW35860   3.077   3.571   8.622  0.2255  0.5379  0.0143
 8133SOL    HW135861   3.161   3.585   8.666  0.0094 -1.0919  0.9533
 8133SOL    HW235862   3.095   3.616   8.539  0.6582  0.2511 -0.0511
 8134SOL     OW35863   1.354   1.231   7.500  0.2213 -0.7178  0.4321
 8134SOL    HW135864   1.352   1.145   7.460 -0.8572 -0.0698 -0.8627
 8134SOL    HW235865   1.344   1.203   7.591  0.2541 -1.8154  0.0981
 8135SOL     OW35866   4.253   0.431   5.118  0.2189  0.0168  0.4030
 8135SOL    HW135867   4.322   0.401   5.177  0.2701 -0.9572 -0.1637
 8135SOL    HW235868   4.229   0.514   5.160 -2.5200 -0.0942 -0.9305
 8136SOL     OW35869   0.867   4.664   1.131 -0.9028  0.0454 -0.4086
 8136SOL    HW135870   0.799   4.610   1.090 -1.8772  2.1105 -1.5652
 8136SOL    HW235871   0.810   4.726   1.176 -0.1091 -0.8425  1.8013
 8137SOL     OW35872   1.357   0.142   4.934 -0.0607 -0.0313 -0.0471
 8137SOL    HW135873   1.324   0.228   4.910  2.3004  0.4764 -1.4415
 8137SOL    HW235874   1.286   0.100   4.982  0.0952  0.4562  0.6148
 8138SOL     OW35875   1.026   3.802  16.610  0.1521 -0.4275  0.3416
 8138SOL    HW135876   1.089   3.765  16.673  2.0863  0.5010 -1.0441
 8138SOL    HW235877   0.957   3.736  16.611 -0.0102 -0.2782 -0.9133
 8139SOL     OW35878   3.220   3.023   3.949 -0.2997 -0.1297 -0.0375
 8139SOL    HW135879   3.258   2.936   3.943 -1.4063 -0.5649 -0.8037
 8139SOL    HW235880   3.282   3.063   4.010  0.6242  0.4164 -1.3201
 8140SOL     OW35881   3.850   2.935  11.650  0.5471 -0.2257  0.2436
 8140SOL    HW135882   3.768   2.897  11.618  0.4774  0.6335 -0.5860
 8140SOL    HW235883   3.919   2.894  11.597  0.2839 -0.0469 -0.2426
 8141SOL     OW35884   2.931   4.647   3.647 -0.1590  0.0106 -0.0999
 8141SOL    HW135885   3.022   4.665   3.622 -0.3249 -0.8879 -1.3450
 8141SOL    HW235886   2.941   4.653   3.742 -2.4748  2.7574 -0.0176
 8142SOL     OW35887   1.402   2.842   5.969 -0.0504 -0.2034 -0.4053
 8142SOL    HW135888   1.356   2.760   5.988  0.4782 -0.0156  1.7043
 8142SOL    HW235889   1.462   2.817   5.899  2.1977 -1.5205  1.9732
 8143SOL     OW35890   3.464   0.994   7.651 -0.1459 -0.6122  0.5431
 8143SOL    HW135891   3.390   1.055   7.647  0.8740  0.7848  2.9689
 8143SOL    HW235892   3.480   0.998   7.557  0.4308 -1.3108  0.6060
 8144SOL     OW35893   3.269   3.562   4.613 -0.0574  0.1606 -0.3383
 8144SOL    HW135894   3.325   3.615   4.669 -3.2928  2.5294  0.6666
 8144SOL    HW235895   3.186   3.564   4.659  0.7819 -0.1543  1.1865
 8145SOL     OW35896   3.517   3.544   0.919  0.4820  0.3275  0.1757
 8145SOL    HW135897   3.551   3.625   0.957 -1.2626  0.2113  1.9948
 8145SOL    HW235898   3.457   3.512   0.987 -1.1099  0.9862 -0.9179
 8146SOL     OW35899   4.245   3.446   4.415  0.0798 -1.1113  0.5102
 8146SOL    HW135900   4.250   3.440   4.320  4.0243 -3.3847  0.8402
 8146SOL    HW235901   4.228   3.355   4.442 -0.2678 -0.7316  1.5565
 8147SOL     OW35902   0.555   1.131   4.276  0.4786  0.3137  0.5501
 8147SOL    HW135903   0.637   1.085   4.297  0.6260 -0.3470 -1.4393
 8147SOL    HW235904   0.560   1.123   4.180 -1.9098  0.8711  0.3955
 8148SOL     OW35905   0.953   3.239   3.472 -0.3935  0.3639  0.1693
 8148SOL    HW135906   0.901   3.166   3.506 -1.2007  0.2882 -1.2145
 8148SOL    HW235907   0.898   3.316   3.487  0.5901  1.1813 -0.4572
 8149SOL     OW35908   3.200   4.554   3.942  0.0257  0.2708  0.3143
 8149SOL    HW135909   3.256   4.538   4.018  0.6295 -0.3811 -0.2646
 8149SOL    HW235910   3.240   4.635   3.910 -3.1261  1.9644  0.6638
 8150SOL     OW35911   0.830   2.187   4.305 -0.5965 -0.2814 -0.1003
 8150SOL    HW135912   0.765   2.196   4.235 -1.0857 -1.7156  0.1603
 8150SOL    HW235913   0.911   2.202   4.257  0.0962  1.1457  1.5318
 8151SOL     OW35914   3.576   0.127  10.053  0.1457 -0.2016 -0.6810
 8151SOL    HW135915   3.568   0.032  10.065 -1.4000 -0.0523 -0.5889
 8151SOL    HW235916   3.488   0.145  10.021 -0.4014 -1.2117  0.2764
 8152SOL     OW35917   3.783   3.944   9.675 -0.6963 -0.4576 -0.5904
 8152SOL    HW135918   3.820   3.881   9.736 -1.5421  1.5260  1.9492
 8152SOL    HW235919   3.770   4.027   9.720  1.4015 -0.3888 -0.0953
 8153SOL     OW35920   1.345   0.429   2.263 -0.2913  0.2670  0.0024
 8153SOL    HW135921   1.348   0.356   2.200  3.7532  0.5940 -0.1543
 8153SOL    HW235922   1.328   0.491   2.192 -3.8469 -0.8707 -0.1552
 8154SOL     OW35923   0.144   2.967   5.155  0.2375 -0.1377 -0.1307
 8154SOL    HW135924   0.152   2.929   5.243 -1.1228 -0.8836 -0.3223
 8154SOL    HW235925   0.213   2.914   5.116  2.6690  1.3099  2.2618
 8155SOL     OW35926   4.674   2.590   5.354 -0.1110  0.8250  0.1068
 8155SOL    HW135927   0.042   2.572   5.350 -0.4839 -1.2023  0.4527
 8155SOL    HW235928   4.673   2.666   5.412 -1.5499  1.9547 -1.4080
 8156SOL     OW35929   4.388   2.010   4.867  0.5004 -0.3907 -0.8384
 8156SOL    HW135930   4.445   1.947   4.822  0.1651 -0.5616 -1.0230
 8156SOL    HW235931   4.334   2.030   4.790  0.6215  1.2808 -0.5011
 8157SOL     OW35932   3.610   4.308   5.949 -0.5913 -0.0537  0.3464
 8157SOL    HW135933   3.632   4.294   5.857 -2.5131  0.9352 -0.2593
 8157SOL    HW235934   3.574   4.396   5.946  0.9661  0.5502 -1.1881
 8158SOL     OW35935   2.959   0.354   5.960  0.8547  0.7237  0.2674
 8158SOL    HW135936   2.918   0.405   5.891  0.7231  2.7736  1.8613
 8158SOL    HW235937   2.978   0.425   6.022 -1.1961  1.1551  0.3888
 8159SOL     OW35938   0.271   1.402   6.865  0.1665  0.2703 -0.2601
 8159SOL    HW135939   0.179   1.377   6.867  0.2960 -0.0913  1.3194
 8159SOL    HW235940   0.305   1.398   6.954  2.7704 -0.8844 -1.2816
 8160SOL     OW35941   3.156   0.570  13.817  0.1143 -0.9005 -0.1363
 8160SOL    HW135942   3.081   0.612  13.860  1.9211 -0.6812  2.8581
 8160SOL    HW235943   3.180   0.506  13.884 -0.9360 -0.3260  0.8018
 8161SOL     OW35944   4.179   0.202  17.371 -0.7611 -0.2461  0.8372
 8161SOL    HW135945   4.228   0.261  17.429  0.9380 -1.4760  0.6546
 8161SOL    HW235946   4.169   0.125  17.427 -1.0294 -1.4386 -0.8597
 8162SOL     OW35947   0.205   2.709   0.412 -0.4810 -0.1599  0.7357
 8162SOL    HW135948   0.294   2.735   0.387 -0.9685  0.8657  0.0808
 8162SOL    HW235949   0.162   2.794   0.418 -0.7745  0.0494 -4.4562
 8163SOL     OW35950   0.716   0.025   9.677 -0.5606  0.0330 -0.0941
 8163SOL    HW135951   0.808   0.003   9.690 -0.7392 -0.6765 -0.0396
 8163SOL    HW235952   0.715   0.120   9.663  1.4694 -0.0966 -1.2161
 8164SOL     OW35953   1.911   3.034   5.547  0.3451  0.1266 -0.3681
 8164SOL    HW135954   1.995   3.078   5.550  0.1132  0.5200  0.3832
 8164SOL    HW235955   1.877   3.065   5.631  1.7516 -0.0976  0.2800
 8165SOL     OW35956   3.754   4.534   7.970 -0.2812  0.7177  0.2671
 8165SOL    HW135957   3.810   4.528   7.893 -0.2523 -2.5098  0.5481
 8165SOL    HW235958   3.744   4.455   8.023 -0.5958 -0.2376 -1.2163
 8166SOL     OW35959   2.301   2.435   8.363 -0.6864  0.7748  0.1380
 8166SOL    HW135960   2.355   2.473   8.293 -0.4058 -2.1568 -1.2411
 8166SOL    HW235961   2.285   2.348   8.327 -0.3041  1.4109 -1.6032
 8167SOL     OW35962   4.680   1.482   7.001  0.0922  0.1462  0.5061
 8167SOL    HW135963   0.028   1.434   7.038  1.2013 -0.1329 -2.0699
 8167SOL    HW235964   4.686   1.558   7.059  1.3972  0.4932 -0.0813
 8168SOL     OW35965   2.943   4.664   3.930 -0.5330 -0.5262 -0.1227
 8168SOL    HW135966   3.004   4.600   3.965 -0.0788 -0.4175 -0.7211
 8168SOL    HW235967   2.988   0.014   3.966 -1.8188 -1.3866  3.3162
 8169SOL     OW35968   1.644   4.500   3.360 -0.3394  0.0557 -0.0651
 8169SOL    HW135969   1.630   4.424   3.417 -1.7628  0.1556 -0.2845
 8169SOL    HW235970   1.681   4.457   3.282 -0.2351  1.2131 -0.6569
 8170SOL     OW35971   1.551   2.918   7.497  0.8431  0.1593 -0.3307
 8170SOL    HW135972   1.572   2.969   7.575 -0.2293  2.6790 -1.6751
 8170SOL    HW235973   1.536   2.833   7.539 -1.3298  2.5434  3.6820
 8171SOL     OW35974   4.399   3.043   2.399 -0.0925 -0.3754  0.0549
 8171SOL    HW135975   4.467   2.980   2.421 -0.2197  0.2005  2.0951
 8171SOL    HW235976   4.427   3.094   2.322 -0.2159 -0.4243 -0.0206
 8172SOL     OW35977   1.716   1.842  10.520 -0.2177 -0.1690  0.5275
 8172SOL    HW135978   1.679   1.887  10.444  0.6309  0.0859  0.2660
 8172SOL    HW235979   1.695   1.898  10.594  0.4477  0.0056  0.5881
 8173SOL     OW35980   3.478   3.396  11.760 -0.1459  0.3692  0.2668
 8173SOL    HW135981   3.448   3.392  11.670 -1.0602 -3.5239  0.7617
 8173SOL    HW235982   3.400   3.428  11.806 -0.6149  0.7057 -0.7540
 8174SOL     OW35983   4.535   1.883  16.831 -0.3726  0.1863 -0.4142
 8174SOL    HW135984   4.495   1.937  16.899 -0.3841  0.0883 -0.3432
 8174SOL    HW235985   4.484   1.926  16.761  0.0388 -0.3105 -1.0190
 8175SOL     OW35986   1.771   2.483   2.418 -0.1272 -1.1029  0.4383
 8175SOL    HW135987   1.713   2.488   2.342 -0.2225  0.8420  0.6483
 8175SOL    HW235988   1.768   2.391   2.444 -1.0831 -1.1114  0.3053
 8176SOL     OW35989   1.818   0.688  15.791  0.1043 -0.2966 -0.5118
 8176SOL    HW135990   1.744   0.677  15.851 -1.7285  1.7950 -2.3570
 8176SOL    HW235991   1.799   0.763  15.735  1.6979  0.4742 -0.0134
 8177SOL     OW35992   3.804   4.028   2.121  0.7608  0.3947  0.1311
 8177SOL    HW135993   3.769   4.007   2.035  0.7160 -3.2678  1.0148
 8177SOL    HW235994   3.895   4.001   2.112 -0.2315 -3.0600  0.5056
 8178SOL     OW35995   0.574   4.100   1.752  0.0885  0.3712  0.2336
 8178SOL    HW135996   0.619   4.042   1.813  0.7631  0.1199 -0.4994
 8178SOL    HW235997   0.635   4.105   1.678 -1.1528  0.9126 -0.7471
 8179SOL     OW35998   2.013   2.109   3.766  0.2347 -0.2524  0.1600
 8179SOL    HW135999   2.009   2.018   3.796  0.5735  0.1056  1.2663
 8179SOL    HW236000   1.917   2.115   3.759  0.1277 -1.8622  0.1828
 8180SOL     OW36001   0.315   0.855   9.176  0.1924  0.1274  0.6137
 8180SOL    HW136002   0.224   0.864   9.206 -0.2809  1.1398 -1.1258
 8180SOL    HW236003   0.313   0.900   9.091  0.8757 -1.1262 -0.0636
 8181SOL     OW36004   1.733   1.626  13.813 -0.4128  0.2126 -0.3930
 8181SOL    HW136005   1.744   1.640  13.907  2.3429 -0.6090 -0.5911
 8181SOL    HW236006   1.639   1.629  13.796 -0.5759 -0.0793  0.4571
 8182SOL     OW36007   4.235   0.736   5.213  0.2358  0.3434  0.4471
 8182SOL    HW136008   4.168   0.707   5.275  1.5394 -0.2646  1.5530
 8182SOL    HW236009   4.243   0.830   5.226 -0.1866  0.8543 -2.8761
 8183SOL     OW36010   2.985   0.477   3.837 -0.2049  0.6852 -0.3127
 8183SOL    HW136011   2.946   0.462   3.751 -1.1990 -0.5910  0.3655
 8183SOL    HW236012   3.078   0.474   3.813 -0.1975  0.4581 -0.2571
 8184SOL     OW36013   3.946   1.716   7.361  0.0769 -0.1435  0.7058
 8184SOL    HW136014   3.855   1.739   7.342 -0.1056 -0.6571  0.9665
 8184SOL    HW236015   3.934   1.649   7.428 -2.1607  0.2091  0.6546
 8185SOL     OW36016   2.734   4.707   4.354  0.1808  0.0740 -0.2505
 8185SOL    HW136017   2.802   0.039   4.386 -0.1925  0.5187 -0.2648
 8185SOL    HW236018   2.726   4.726   4.260 -1.5023  0.4141 -0.0406
 8186SOL     OW36019   4.632   0.844   2.205  0.4136 -0.0325  0.1326
 8186SOL    HW136020   4.606   0.809   2.120 -0.6933 -0.9635  0.8549
 8186SOL    HW236021   4.548   0.872   2.241  0.4116  0.0421  0.0702
 8187SOL     OW36022   0.801   2.862   9.052 -0.0747 -1.0426 -0.0837
 8187SOL    HW136023   0.806   2.954   9.026 -0.4877 -1.1221 -0.4436
 8187SOL    HW236024   0.752   2.869   9.133 -1.7731  0.6021 -1.2594
 8188SOL     OW36025   3.801   3.134   8.023  0.6415  0.2122  0.3821
 8188SOL    HW136026   3.788   3.222   8.059 -0.6677 -0.1294  0.7545
 8188SOL    HW236027   3.717   3.101   8.056 -0.2765  1.0198 -1.1052
 8189SOL     OW36028   3.173   1.618  13.960  0.4550  0.2166  0.1667
 8189SOL    HW136029   3.129   1.674  13.896 -0.0030 -0.2666  0.0552
 8189SOL    HW236030   3.260   1.657  13.964  0.3889  0.5827 -2.6971
 8190SOL     OW36031   3.133   2.172   8.796  0.1161  0.1764  0.0426
 8190SOL    HW136032   3.106   2.089   8.757 -0.4967  1.0612 -1.4338
 8190SOL    HW236033   3.227   2.162   8.806  0.0509  1.1171  1.6127
 8191SOL     OW36034   2.346   4.065   4.337 -0.4427 -0.1460 -0.5132
 8191SOL    HW136035   2.294   3.987   4.360 -2.0377  1.0416 -0.1095
 8191SOL    HW236036   2.346   4.117   4.417  0.8612  0.7183 -1.0699
 8192SOL     OW36037   4.394   2.326  16.701 -0.4020  0.3270 -0.2472
 8192SOL    HW136038   4.422   2.359  16.616 -2.5535  0.8261 -0.7672
 8192SOL    HW236039   4.464   2.356  16.758 -1.9926  1.5279  1.0587
 8193SOL     OW36040   2.541   0.986  10.786  0.4233  0.4188 -0.0281
 8193SOL    HW136041   2.446   0.973  10.793  0.4846  0.5398  0.9854
 8193SOL    HW236042   2.556   1.079  10.799 -0.7866  0.7819 -1.1284
 8194SOL     OW36043   3.505   4.345   7.477 -0.0682  0.0989  0.5851
 8194SOL    HW136044   3.435   4.409   7.469 -0.1742 -0.3138 -1.5836
 8194SOL    HW236045   3.470   4.294   7.404 -2.1223  0.8000  1.1102
 8195SOL     OW36046   3.004   0.411   5.036 -0.2581 -0.4168  0.3184
 8195SOL    HW136047   3.093   0.433   5.065 -0.1679  0.9239 -0.9474
 8195SOL    HW236048   2.999   0.329   5.085 -1.2249 -0.3832  0.2594
 8196SOL     OW36049   1.489   2.107   0.246  0.2475 -0.0430 -0.3488
 8196SOL    HW136050   1.536   2.138   0.324  2.4858  1.7567 -2.3856
 8196SOL    HW236051   1.417   2.168   0.230 -1.0905 -1.1104  1.7010
 8197SOL     OW36052   2.258   1.134  10.592  0.0144 -0.3826  0.0533
 8197SOL    HW136053   2.218   1.136  10.505  1.2094  1.1378 -0.4563
 8197SOL    HW236054   2.302   1.219  10.588 -0.3676 -0.2194 -0.7363
 8198SOL     OW36055   2.694   4.445   3.854  0.2841 -0.4059 -0.4948
 8198SOL    HW136056   2.715   4.383   3.784  0.6332 -0.1179 -0.6412
 8198SOL    HW236057   2.601   4.426   3.866  0.4858  0.3083  2.2227
 8199SOL     OW36058   1.576   3.037  10.496  0.5083  0.1273 -0.5545
 8199SOL    HW136059   1.602   3.107  10.436 -1.6968  1.2694 -0.1937
 8199SOL    HW236060   1.582   3.079  10.582 -2.5870  0.7887 -0.6691
 8200SOL     OW36061   1.999   2.529  12.467  0.1642  1.1945  0.4845
 8200SOL    HW136062   2.024   2.574  12.386  0.5897  0.6248  0.2923
 8200SOL    HW236063   2.088   2.504  12.494  0.8327  0.9007 -2.0110
 8201SOL     OW36064   0.396   1.822   1.553 -0.1097 -0.2981  0.1495
 8201SOL    HW136065   0.478   1.871   1.565 -0.5636  0.3608  0.5737
 8201SOL    HW236066   0.328   1.889   1.546  1.3432  1.2531  0.6733
 8202SOL     OW36067   0.629   1.665   3.953  0.4448  0.5943  0.2086
 8202SOL    HW136068   0.551   1.688   3.904 -0.4948 -0.5834  1.1571
 8202SOL    HW236069   0.673   1.743   3.986  2.9943  0.1469 -2.1155
 8203SOL     OW36070   2.852   1.920   6.878  0.7312  0.4159 -0.4454
 8203SOL    HW136071   2.809   2.006   6.874  1.6485  0.8465 -1.1945
 8203SOL    HW236072   2.785   1.858   6.906 -1.4037  3.2426  0.6640
 8204SOL     OW36073   0.752   2.966  14.154 -0.9040  0.1194  0.0059
 8204SOL    HW136074   0.793   3.033  14.209 -2.1082 -0.2705  1.4120
 8204SOL    HW236075   0.662   2.997  14.165 -0.4129  1.2027  0.9831
 8205SOL     OW36076   2.369   0.344   8.381 -0.2555 -0.0335 -0.3004
 8205SOL    HW136077   2.424   0.365   8.456  1.6262  1.1867 -2.0650
 8205SOL    HW236078   2.306   0.415   8.392  1.4696  1.7383 -2.1434
 8206SOL     OW36079   3.094   0.397   7.474 -0.3404 -0.6619  0.7892
 8206SOL    HW136080   3.084   0.443   7.557  0.4330  0.3292  0.3329
 8206SOL    HW236081   3.037   0.322   7.488  1.4917 -1.6313  3.0880
 8207SOL     OW36082   2.961   3.800   4.406  0.1124  0.5663 -0.2918
 8207SOL    HW136083   2.975   3.769   4.316 -1.0777 -2.0608  0.4463
 8207SOL    HW236084   2.913   3.881   4.387 -0.4304 -0.1767 -2.1250
 8208SOL     OW36085   0.068   3.215   3.759 -0.0057 -0.0491 -0.6263
 8208SOL    HW136086   0.146   3.255   3.798  0.1621 -0.8131 -0.1574
 8208SOL    HW236087   0.010   3.290   3.748  0.2943  0.2105 -0.4439
 8209SOL     OW36088   1.984   1.110   7.921 -0.0142  0.0155  0.4184
 8209SOL    HW136089   1.950   1.151   7.842  0.3626  0.0239  0.2627
 8209SOL    HW236090   1.905   1.063   7.949  0.5081  0.0174  1.8962
 8210SOL     OW36091   0.282   1.931   8.086  0.1114  0.4338 -0.6615
 8210SOL    HW136092   0.313   1.840   8.086 -1.8295 -0.2179 -1.6555
 8210SOL    HW236093   0.220   1.932   8.159  2.0029  1.6628  0.9437
 8211SOL     OW36094   3.636   0.809   8.725  0.0975 -0.0865  0.3478
 8211SOL    HW136095   3.731   0.808   8.718  0.0782 -0.0940  0.1045
 8211SOL    HW236096   3.619   0.751   8.799 -1.4777 -0.6222 -0.4355
 8212SOL     OW36097   2.710   2.740   0.826  0.3317  0.1106 -0.2548
 8212SOL    HW136098   2.657   2.662   0.842  3.1580 -2.0533 -1.4980
 8212SOL    HW236099   2.704   2.784   0.911  0.0621 -2.3433  1.0181
 8213SOL     OW36100   3.243   1.035   6.141  0.0762 -0.1837 -0.2694
 8213SOL    HW136101   3.228   1.060   6.049 -2.2517 -1.2910 -0.1856
 8213SOL    HW236102   3.335   1.056   6.157  0.7337 -1.4375 -2.3905
 8214SOL     OW36103   3.057   3.710  11.682  0.0419  0.5113 -0.5199
 8214SOL    HW136104   3.046   3.781  11.745  0.0103 -0.3041  0.3902
 8214SOL    HW236105   3.152   3.696  11.678  0.1471  1.2300 -0.5481
 8215SOL     OW36106   0.811   2.997   2.042 -0.6224  0.3966 -0.0426
 8215SOL    HW136107   0.849   3.015   2.128 -0.5340  2.5353 -0.5161
 8215SOL    HW236108   0.864   3.051   1.982 -1.4639 -0.4950 -1.5761
 8216SOL     OW36109   0.802   3.408   2.495  0.2206  0.6699  0.2050
 8216SOL    HW136110   0.722   3.367   2.529  0.0752  1.3518  0.6876
 8216SOL    HW236111   0.773   3.420   2.405  2.9230  2.2742 -0.4423
 8217SOL     OW36112   0.576   3.130   5.666 -0.3449 -0.4184  0.2029
 8217SOL    HW136113   0.664   3.092   5.669  0.3713  1.2191 -0.4708
 8217SOL    HW236114   0.547   3.109   5.755 -1.8612  1.1005  0.0573
 8218SOL     OW36115   0.970   0.102  12.813  0.4725  0.0779 -0.3068
 8218SOL    HW136116   1.021   0.150  12.747 -0.3429  1.6492  0.1969
 8218SOL    HW236117   0.908   0.053  12.759  0.4965 -0.9647  0.6237
 8219SOL     OW36118   3.484   3.626   4.859  0.0553  0.2315  0.1601
 8219SOL    HW136119   3.520   3.629   4.771 -0.4260 -2.1139 -0.1099
 8219SOL    HW236120   3.478   3.533   4.882  0.9377 -0.1744 -1.2977
 8220SOL     OW36121   4.460   1.435  17.641  0.4599  0.3766 -0.0690
 8220SOL    HW136122   4.413   1.384  17.575  0.6907  0.6805 -0.4609
 8220SOL    HW236123   4.501   1.359  17.681  0.3978  0.2778 -0.1941
 8221SOL     OW36124   2.156   4.428   4.074  0.0009 -0.1974  0.0518
 8221SOL    HW136125   2.061   4.438   4.082  0.1433  1.0111  0.1297
 8221SOL    HW236126   2.170   4.333   4.082  0.5304  0.0357  1.8874
 8222SOL     OW36127   3.063   0.947   3.113 -0.5905  0.1375 -0.0934
 8222SOL    HW136128   3.148   0.904   3.115 -0.4724  0.2349 -2.5811
 8222SOL    HW236129   3.030   0.921   3.027 -0.2076  0.6787 -0.4021
 8223SOL     OW36130   2.779   3.897   0.380 -0.3670  0.0604  0.3247
 8223SOL    HW136131   2.748   3.946   0.457  0.7889  0.0119  0.8138
 8223SOL    HW236132   2.731   3.815   0.382  1.8183 -1.2139  0.5160
 8224SOL     OW36133   2.749   1.877   0.463  0.4828 -0.1122  0.6306
 8224SOL    HW136134   2.715   1.950   0.411  0.2775  0.5761  1.7549
 8224SOL    HW236135   2.719   1.800   0.414  0.5348  0.1956  0.1124
 8225SOL     OW36136   1.140   4.260  10.635 -0.2004  0.3966 -0.1751
 8225SOL    HW136137   1.118   4.169  10.619  1.8407 -0.3804  1.4875
 8225SOL    HW236138   1.055   4.304  10.642  0.0724  1.2139 -2.0935
 8226SOL     OW36139   3.564   0.822   5.345 -0.3908 -0.2958 -0.4834
 8226SOL    HW136140   3.541   0.775   5.426  1.3792  0.1155  0.2732
 8226SOL    HW236141   3.586   0.745   5.292 -3.5849 -0.7361 -1.1563
 8227SOL     OW36142   0.782   3.161   2.271 -0.4554 -0.1106  0.0592
 8227SOL    HW136143   0.709   3.118   2.227  0.7586  1.1969 -3.2016
 8227SOL    HW236144   0.756   3.253   2.262  0.8141  0.2845  0.5037
 8228SOL     OW36145   2.859   0.627   2.470 -0.4926 -0.5313 -0.6208
 8228SOL    HW136146   2.926   0.694   2.459  0.8044 -1.6171  0.7057
 8228SOL    HW236147   2.804   0.658   2.541  0.5807  2.9812 -1.3295
 8229SOL     OW36148   3.463   0.364  10.117  0.4162  0.1514  0.1092
 8229SOL    HW136149   3.500   0.294  10.170 -0.0767  1.4680  2.2180
 8229SOL    HW236150   3.380   0.380  10.162 -0.5727  0.2428 -1.7676
 8230SOL     OW36151   0.874   3.732   1.277 -0.1361  0.4853 -0.2856
 8230SOL    HW136152   0.911   3.736   1.365 -4.2259  0.8395  1.4159
 8230SOL    HW236153   0.787   3.703   1.303  0.3472 -0.2870  0.4947
 8231SOL     OW36154   3.760   4.308   4.016 -0.1975 -0.0560  0.4325
 8231SOL    HW136155   3.733   4.284   3.928 -0.9767 -0.3783  0.7528
 8231SOL    HW236156   3.689   4.270   4.070 -0.6797  3.1295  2.0523
 8232SOL     OW36157   3.543   2.450   8.917  0.4912 -0.1077  0.1051
 8232SOL    HW136158   3.598   2.483   8.989  0.8724 -0.8506  0.1558
 8232SOL    HW236159   3.545   2.358   8.947  1.8139 -1.6642 -4.7789
 8233SOL     OW36160   2.125   0.873   9.948 -0.9952 -0.1149  0.0254
 8233SOL    HW136161   2.130   0.922  10.030 -3.9891  0.0605  0.0819
 8233SOL    HW236162   2.134   0.952   9.893  0.2923  0.8677  1.6425
 8234SOL     OW36163   2.269   0.274   9.696 -0.1972  0.4384 -0.0493
 8234SOL    HW136164   2.307   0.189   9.720  0.8984  1.1977  0.8718
 8234SOL    HW236165   2.347   0.325   9.715 -0.9394  1.8432 -0.7445
 8235SOL     OW36166   4.712   0.968   3.108 -0.1735 -0.5630 -0.0779
 8235SOL    HW136167   4.716   0.874   3.127  1.5683 -0.3827  0.5054
 8235SOL    HW236168   0.014   0.985   3.198 -1.5123 -1.2859  0.4822
 8236SOL     OW36169   2.188   2.902   2.047 -0.2405  0.0807 -0.7240
 8236SOL    HW136170   2.096   2.891   2.071  0.3528 -2.3746  0.3908
 8236SOL    HW236171   2.180   2.894   1.952  1.2326 -0.9784 -0.7517
 8237SOL     OW36172   0.883   0.458   6.868 -0.1419  0.4133 -0.2429
 8237SOL    HW136173   0.799   0.465   6.913  0.4816  1.5230  0.7529
 8237SOL    HW236174   0.908   0.550   6.880  0.4078  0.3563 -0.9803
 8238SOL     OW36175   3.116   0.998  17.331 -0.0742 -0.7450  0.1331
 8238SOL    HW136176   3.115   0.940  17.407 -1.0347  1.8973  2.1644
 8238SOL    HW236177   3.042   1.052  17.360  0.1310 -0.5788  0.3528
 8239SOL     OW36178   2.739   2.719  14.429 -0.5621 -0.3301  0.2695
 8239SOL    HW136179   2.800   2.787  14.458 -0.1307 -2.0203  3.3416
 8239SOL    HW236180   2.662   2.769  14.455 -0.5398  0.4456 -1.1529
 8240SOL     OW36181   1.206   0.853   8.854 -0.2777 -0.0154  0.3147
 8240SOL    HW136182   1.167   0.935   8.883 -1.6540 -0.0379 -1.4369
 8240SOL    HW236183   1.126   0.802   8.841  0.4065 -0.7739 -0.8800
 8241SOL     OW36184   1.495   2.015   3.375 -0.8164  0.2774 -0.1323
 8241SOL    HW136185   1.485   2.107   3.349  2.9624  0.3473 -1.3690
 8241SOL    HW236186   1.497   1.980   3.286 -1.1499 -0.4403  0.1391
 8242SOL     OW36187   3.875   2.551   6.143 -0.1023  0.1690 -0.2727
 8242SOL    HW136188   3.803   2.518   6.088 -0.2436 -2.2151  1.3225
 8242SOL    HW236189   3.873   2.494   6.220  0.2777  2.1187  1.1673
 8243SOL     OW36190   2.996   3.065   3.557  0.1686 -0.1915 -0.0499
 8243SOL    HW136191   3.006   3.049   3.651  0.3790 -1.2127 -0.2449
 8243SOL    HW236192   2.902   3.052   3.542  0.4764 -0.5811 -1.6538
 8244SOL     OW36193   4.724   2.916  15.002  0.1810 -1.0012  0.1986
 8244SOL    HW136194   4.657   2.881  15.061  0.4750 -2.1009 -0.1269
 8244SOL    HW236195   0.058   2.954  15.066  0.0776 -0.3796 -0.0738
 8245SOL     OW36196   2.815   3.032   2.696  0.5897  0.8581  0.0875
 8245SOL    HW136197   2.795   2.982   2.775 -1.2298 -0.1052 -1.0211
 8245SOL    HW236198   2.837   2.968   2.629 -1.1266  1.9838 -1.5120
 8246SOL     OW36199   2.566   2.623   7.490 -0.1420 -0.2921 -0.0707
 8246SOL    HW136200   2.505   2.617   7.563  1.3041  1.0331  1.2398
 8246SOL    HW236201   2.615   2.705   7.497 -0.8886  0.2028 -0.5328
 8247SOL     OW36202   2.293   4.076  17.075 -0.2397 -0.3037 -0.5275
 8247SOL    HW136203   2.386   4.096  17.088 -0.2772 -1.1987  1.0782
 8247SOL    HW236204   2.251   4.161  17.063  2.4120  0.7239 -2.4750
 8248SOL     OW36205   4.096   4.459   5.299  0.3115  0.4907 -0.8440
 8248SOL    HW136206   4.026   4.462   5.364  2.1227  0.4373  1.1091
 8248SOL    HW236207   4.049   4.512   5.234 -0.4731 -0.2609 -0.8922
 8249SOL     OW36208   1.131   0.887   7.821  0.7392  0.1024 -0.2482
 8249SOL    HW136209   1.111   0.980   7.808  1.9706  0.6404  1.8347
 8249SOL    HW236210   1.203   0.884   7.757  1.6348 -1.7247  0.8635
 8250SOL     OW36211   1.804   2.539   1.053  0.3034 -0.1358  0.7479
 8250SOL    HW136212   1.858   2.578   0.985 -0.4282  1.8419  1.2822
 8250SOL    HW236213   1.807   2.449   1.019  1.1847 -0.2691  1.1854
 8251SOL     OW36214   2.217   0.237  10.021  0.4998 -0.0734  0.1542
 8251SOL    HW136215   2.307   0.205  10.010  0.6297  0.5401 -0.5757
 8251SOL    HW236216   2.241   0.326  10.048  1.4513 -0.2993  0.0434
 8252SOL     OW36217   3.674   0.439  16.575  0.0349  0.3105  0.2062
 8252SOL    HW136218   3.647   0.530  16.582  1.7914  0.8224  0.3306
 8252SOL    HW236219   3.589   0.394  16.577  0.3721 -0.2538  1.3515
 8253SOL     OW36220   4.091   3.173  16.559 -0.8585  0.0258  0.1032
 8253SOL    HW136221   4.161   3.128  16.510 -0.1531 -0.3069  1.4237
 8253SOL    HW236222   4.085   3.257  16.514 -2.1991  1.1396  2.3985
 8254SOL     OW36223   0.486   3.988   2.522 -0.0699  0.7417 -0.7755
 8254SOL    HW136224   0.518   4.027   2.603  1.4964  1.1981 -1.6158
 8254SOL    HW236225   0.395   4.019   2.516  0.4754  2.6657  0.7301
 8255SOL     OW36226   2.973   2.123   3.081  0.0233  0.2754  0.1455
 8255SOL    HW136227   2.981   2.193   3.017  1.9222 -0.2718 -0.1915
 8255SOL    HW236228   3.038   2.157   3.143 -0.1198 -1.2074  1.1145
 8256SOL     OW36229   2.374   2.578   7.740 -0.4993 -0.0391  0.0850
 8256SOL    HW136230   2.315   2.575   7.815 -0.6050 -3.3632 -0.1303
 8256SOL    HW236231   2.457   2.607   7.776 -0.4785  0.8233 -0.6618
 8257SOL     OW36232   2.817   3.576   5.710 -0.3619  0.5678  0.3169
 8257SOL    HW136233   2.750   3.561   5.642 -0.8808  1.4264  0.6432
 8257SOL    HW236234   2.805   3.496   5.760  2.4061  0.6839  1.1226
 8258SOL     OW36235   4.389   4.687  14.556  0.2457 -0.3709  0.1217
 8258SOL    HW136236   4.449   0.007  14.614  0.6082 -1.9791  1.0586
 8258SOL    HW236237   4.435   4.603  14.555  0.5642 -0.1851 -0.5769
 8259SOL     OW36238   1.329   3.136  14.538  0.6656 -0.1460 -0.5974
 8259SOL    HW136239   1.392   3.066  14.553 -1.4814 -1.8041  0.8152
 8259SOL    HW236240   1.277   3.103  14.465 -1.4313  0.0971  0.7858
 8260SOL     OW36241   1.626   3.736   7.403 -0.0413  0.0159 -0.3577
 8260SOL    HW136242   1.661   3.823   7.384  0.1732 -0.1883 -0.8947
 8260SOL    HW236243   1.698   3.714   7.463  0.7999  0.0549 -1.3573
 8261SOL     OW36244   3.521   1.706   7.082 -0.5587  0.3010  0.1768
 8261SOL    HW136245   3.517   1.769   7.010 -0.5373 -1.2725 -1.1878
 8261SOL    HW236246   3.574   1.637   7.043  0.1297  1.2554 -0.5891
 8262SOL     OW36247   0.966   0.142   8.820  0.4028 -0.4469  0.2670
 8262SOL    HW136248   0.890   0.104   8.863  0.0722 -2.4125 -2.1126
 8262SOL    HW236249   1.021   0.177   8.890 -1.8020  1.4575  1.0354
 8263SOL     OW36250   2.242   2.218  17.009  0.5443 -0.0859 -0.3511
 8263SOL    HW136251   2.211   2.132  17.035 -0.0796  0.0908 -0.4983
 8263SOL    HW236252   2.198   2.232  16.925 -0.8589  1.5607  0.6470
 8264SOL     OW36253   1.942   1.329  13.733  0.8473 -0.4127 -0.1688
 8264SOL    HW136254   1.938   1.404  13.673 -0.5055 -1.9213 -1.9207
 8264SOL    HW236255   1.863   1.283  13.708  0.9102  0.7145 -2.4979
 8265SOL     OW36256   0.176   0.119  13.131 -0.4520  0.5975  0.0818
 8265SOL    HW136257   0.094   0.073  13.115  0.0165 -0.2579  0.1246
 8265SOL    HW236258   0.231   0.049  13.166 -0.2613  1.0468  0.6879
 8266SOL     OW36259   2.837   4.581  17.384  0.1133 -1.0363  0.2495
 8266SOL    HW136260   2.817   4.667  17.346  1.2831 -1.2415 -0.8485
 8266SOL    HW236261   2.826   4.607  17.475 -0.3325  1.9463 -0.6259
 8267SOL     OW36262   4.146   0.590  10.034  0.7062 -0.0351 -0.1110
 8267SOL    HW136263   4.059   0.557  10.054  0.3867  0.2046 -1.0774
 8267SOL    HW236264   4.194   0.515  10.068  0.2106  0.4608  1.6904
 8268SOL     OW36265   2.971   3.301   0.496 -0.3533  0.0450  0.1324
 8268SOL    HW136266   3.051   3.249   0.484  0.8149  2.3452 -1.9490
 8268SOL    HW236267   2.984   3.383   0.449 -1.0101  0.9826  1.5735
 8269SOL     OW36268   2.697   4.318   0.585 -0.0083 -0.6802  0.0208
 8269SOL    HW136269   2.642   4.330   0.663  1.0063  1.0480  0.4669
 8269SOL    HW236270   2.771   4.371   0.613 -1.5973  0.8612  1.2978
 8270SOL     OW36271   2.888   1.557   2.432 -0.1807  0.4862 -0.3575
 8270SOL    HW136272   2.828   1.488   2.405  2.3928 -1.8665 -0.1189
 8270SOL    HW236273   2.961   1.502   2.463 -0.2982 -0.4803 -1.8261
 8271SOL     OW36274   2.951   1.990   2.200 -0.0099  0.0347  0.3625
 8271SOL    HW136275   3.002   1.910   2.186  0.4588  0.5482 -0.9098
 8271SOL    HW236276   2.974   2.044   2.125 -1.5965  0.4780  0.2023
 8272SOL     OW36277   1.257   3.405   4.397 -0.0542 -0.3142 -0.2021
 8272SOL    HW136278   1.263   3.463   4.321  3.0576  0.0982  0.3512
 8272SOL    HW236279   1.347   3.402   4.430  0.0042 -0.6160 -0.3947
 8273SOL     OW36280   2.581   3.040   0.494  0.2191  0.4522 -0.8014
 8273SOL    HW136281   2.574   3.092   0.574 -3.5081  0.7669 -1.3219
 8273SOL    HW236282   2.642   3.081   0.433  2.4047 -1.1732  0.2939
 8274SOL     OW36283   3.721   0.012   3.733 -0.2901  0.1268  0.2247
 8274SOL    HW136284   3.634   4.715   3.766 -0.6509  1.7235  0.4435
 8274SOL    HW236285   3.746   0.090   3.782  0.8495  0.1297 -0.3651
 8275SOL     OW36286   2.782   3.024  15.598  0.2541  0.2864  0.2679
 8275SOL    HW136287   2.832   3.015  15.517 -1.1026  1.1416 -0.6507
 8275SOL    HW236288   2.833   2.970  15.658 -0.4004 -2.6378 -1.8190
 8276SOL     OW36289   0.807   3.227  14.250 -0.2125  0.5662  0.0594
 8276SOL    HW136290   0.810   3.280  14.171  0.7317 -1.1242 -1.0436
 8276SOL    HW236291   0.729   3.261  14.295  0.8173  3.6540 -0.5456
 8277SOL     OW36292   0.305   0.210   2.529 -0.4180  0.8336 -0.0370
 8277SOL    HW136293   0.324   0.125   2.489 -0.8082  0.4765  0.5291
 8277SOL    HW236294   0.262   0.180   2.610  1.3556  1.7824  1.2640
 8278SOL     OW36295   3.537   1.864   1.463 -0.0183 -0.3870  0.1618
 8278SOL    HW136296   3.519   1.771   1.474  4.0606 -1.2326 -0.4571
 8278SOL    HW236297   3.506   1.872   1.372 -0.2628  0.7180  0.3327
 8279SOL     OW36298   2.316   2.440   7.328 -0.5965 -0.4512 -0.0374
 8279SOL    HW136299   2.258   2.393   7.268 -0.4558 -0.0484 -0.4955
 8279SOL    HW236300   2.390   2.380   7.323  0.1409  0.6693 -2.8154
 8280SOL     OW36301   3.570   0.103   3.452 -0.5030 -0.2633  0.3881
 8280SOL    HW136302   3.634   0.077   3.519  0.3846  0.5985 -0.1150
 8280SOL    HW236303   3.523   0.167   3.505 -0.7230  0.0856 -0.2263
 8281SOL     OW36304   0.882   4.684   3.119 -0.2338  0.1262  0.8426
 8281SOL    HW136305   0.808   4.709   3.174  0.8521  1.6017  1.6799
 8281SOL    HW236306   0.961   4.700   3.172 -0.5786  0.4409  1.2614
 8282SOL     OW36307   2.158   3.799   2.072 -0.0299 -0.7299 -0.3508
 8282SOL    HW136308   2.116   3.759   1.996  1.1443  2.0059 -2.4331
 8282SOL    HW236309   2.114   3.883   2.074 -0.2070 -0.8526  0.9616
 8283SOL     OW36310   0.366   4.655   0.635 -0.2092 -0.6145 -0.0821
 8283SOL    HW136311   0.281   4.630   0.599 -0.3924 -0.5854  0.3253
 8283SOL    HW236312   0.379   4.580   0.693  0.8519 -1.3346 -1.2607
 8284SOL     OW36313   2.228   1.151   3.027  0.0499 -0.7139 -0.7534
 8284SOL    HW136314   2.296   1.219   3.034 -0.1614 -0.6699  0.8240
 8284SOL    HW236315   2.252   1.109   2.945  2.9964  2.3356 -1.4664
 8285SOL     OW36316   1.614   4.567  12.441  0.0485  0.2385  0.0431
 8285SOL    HW136317   1.700   4.560  12.483  0.6189 -1.4733 -1.3984
 8285SOL    HW236318   1.568   4.578  12.524 -1.6868 -0.7513 -0.7861
 8286SOL     OW36319   4.340   0.642   5.751  0.5168 -0.3999  0.5662
 8286SOL    HW136320   4.431   0.613   5.748  0.2010 -1.3433  0.3505
 8286SOL    HW236321   4.312   0.567   5.803 -3.7448 -0.4951 -1.8513
 8287SOL     OW36322   0.037   1.603   1.335 -0.3495 -0.0505 -0.3713
 8287SOL    HW136323   0.096   1.537   1.372  1.0312 -0.2687 -2.9643
 8287SOL    HW236324   4.706   1.545   1.285  1.1195 -1.9623  0.1182
 8288SOL     OW36325   2.447   1.448   5.158  0.3066  0.3948 -0.2086
 8288SOL    HW136326   2.358   1.426   5.131  1.4272 -2.1045 -1.9325
 8288SOL    HW236327   2.498   1.416   5.083  0.4568  1.0018 -0.3708
 8289SOL     OW36328   2.986   2.348   0.495 -0.3016  0.2490  0.8092
 8289SOL    HW136329   3.042   2.298   0.554  4.1395  2.6783 -1.3296
 8289SOL    HW236330   2.914   2.364   0.556  0.6987  1.2815  1.7170
 8290SOL     OW36331   0.378   3.791   8.269 -0.1833 -0.2120  0.9787
 8290SOL    HW136332   0.456   3.737   8.264  1.2656  2.2819 -3.2441
 8290SOL    HW236333   0.398   3.864   8.211 -0.0316 -1.4110 -0.4702
 8291SOL     OW36334   4.093   1.693   6.219 -0.1214  0.5534  0.2535
 8291SOL    HW136335   4.104   1.787   6.205 -1.9683  0.5384 -1.2667
 8291SOL    HW236336   4.168   1.683   6.277  0.2269  2.3627  0.1328
 8292SOL     OW36337   2.934   2.833  10.066 -0.4880 -0.5569 -0.0560
 8292SOL    HW136338   2.975   2.805   9.985  0.6149  0.8317  0.0313
 8292SOL    HW236339   2.842   2.816  10.046 -0.6244 -1.0223  0.9503
 8293SOL     OW36340   0.778   3.079   6.335 -0.2352 -0.3136  0.0425
 8293SOL    HW136341   0.732   3.084   6.420  0.6197 -1.4162  0.5789
 8293SOL    HW236342   0.823   3.163   6.341  2.3930 -1.8887  2.1673
 8294SOL     OW36343   1.239   2.889   4.876  0.2820 -0.1931  0.2506
 8294SOL    HW136344   1.241   2.984   4.867 -1.5500 -0.1580  0.2376
 8294SOL    HW236345   1.228   2.881   4.970 -0.6335  0.6305  0.2084
 8295SOL     OW36346   2.098   1.476  10.214 -0.2330  0.1356  0.7350
 8295SOL    HW136347   2.088   1.564  10.178  1.2771  0.2610  0.6256
 8295SOL    HW236348   2.174   1.456  10.159  0.1009 -0.4176  1.4020
 8296SOL     OW36349   4.111   2.969  12.008 -0.1140  0.0264 -0.2037
 8296SOL    HW136350   4.158   2.898  11.964 -1.1499  0.7441 -2.4814
 8296SOL    HW236351   4.093   3.018  11.928 -1.6190 -0.7068 -0.3119
 8297SOL     OW36352   3.525   3.487  11.116  0.6699  0.2535  0.1070
 8297SOL    HW136353   3.492   3.423  11.179  0.1927 -0.7098 -1.1389
 8297SOL    HW236354   3.530   3.430  11.040  1.2836 -1.4986  1.4541
 8298SOL     OW36355   4.492   4.395  14.894  0.3866  0.3642  0.3480
 8298SOL    HW136356   4.484   4.355  14.980  1.2461  0.1088  0.3124
 8298SOL    HW236357   4.472   4.488  14.903 -0.8729 -0.0279  1.4761
 8299SOL     OW36358   2.606   1.742   1.481 -0.7132 -0.5401 -0.5407
 8299SOL    HW136359   2.642   1.677   1.541 -2.7652  0.6067  1.9096
 8299SOL    HW236360   2.678   1.752   1.418  1.2894 -1.4539  1.5959
 8300SOL     OW36361   2.120   4.196   2.839 -0.5068 -0.3405  0.1212
 8300SOL    HW136362   2.106   4.112   2.796 -2.2513 -0.2357  0.4792
 8300SOL    HW236363   2.058   4.240   2.781 -1.7969  0.4082  2.0813
 8301SOL     OW36364   1.807   1.475  13.170 -1.0914 -0.1193  0.2729
 8301SOL    HW136365   1.866   1.446  13.101 -3.1976 -0.8077 -1.2721
 8301SOL    HW236366   1.860   1.549  13.198 -1.8861  0.6562 -0.2548
 8302SOL     OW36367   3.614   4.393   4.553 -0.1290 -0.1905  0.3420
 8302SOL    HW136368   3.677   4.400   4.625 -0.0316  0.0623  0.2319
 8302SOL    HW236369   3.675   4.391   4.479  1.7334 -2.0311  1.9176
 8303SOL     OW36370   1.161   3.126  11.867 -0.1177  0.7206 -0.1329
 8303SOL    HW136371   1.098   3.058  11.888  0.5788  0.0077 -0.3520
 8303SOL    HW236372   1.154   3.179  11.947  1.4926 -0.3868  0.7315
 8304SOL     OW36373   0.870   1.241   7.956 -0.2354 -0.0493 -0.0599
 8304SOL    HW136374   0.868   1.332   7.926 -3.9223 -0.2809 -0.5953
 8304SOL    HW236375   0.895   1.253   8.048  1.5582  0.6307 -0.6436
 8305SOL     OW36376   2.918   3.739   7.051 -0.0774 -0.0825  0.5649
 8305SOL    HW136377   2.849   3.793   7.090  1.4733 -0.0748  3.3076
 8305SOL    HW236378   2.927   3.681   7.127  3.2546 -0.3030  0.0193
 8306SOL     OW36379   0.187   1.277   9.460  0.5449 -0.7940 -0.1588
 8306SOL    HW136380   0.164   1.331   9.384 -0.0881 -0.8320  0.0056
 8306SOL    HW236381   0.266   1.228   9.435  2.1089  1.5293  0.2227
 8307SOL     OW36382   2.537   2.456   1.547  0.5014  0.0776  0.0458
 8307SOL    HW136383   2.616   2.449   1.493  0.6345 -1.7462  0.4746
 8307SOL    HW236384   2.485   2.377   1.531  1.3556 -0.3376 -0.6416
 8308SOL     OW36385   4.417   3.940   6.487 -0.8488  0.1404 -0.0805
 8308SOL    HW136386   4.421   3.867   6.549  0.0239  0.1842 -0.0861
 8308SOL    HW236387   4.447   3.894   6.408 -0.0142 -0.8985  0.8275
 8309SOL     OW36388   1.207   2.254   6.924 -0.1962 -0.2597  0.1784
 8309SOL    HW136389   1.160   2.319   6.976  1.4793  0.8334  0.3147
 8309SOL    HW236390   1.137   2.200   6.887 -1.3355  0.6714  0.9925
 8310SOL     OW36391   3.657   1.580  13.087  0.6605  0.0457 -0.1624
 8310SOL    HW136392   3.585   1.632  13.123  1.1530 -0.4435  1.5718
 8310SOL    HW236393   3.627   1.531  13.011 -2.0922 -0.0744  0.9872
 8311SOL     OW36394   2.479   0.954   6.374  0.3450 -0.0641  0.2929
 8311SOL    HW136395   2.534   1.001   6.311 -1.1072  0.2397 -0.7560
 8311SOL    HW236396   2.521   0.992   6.451  0.1921 -0.1246  0.4064
 8312SOL     OW36397   2.057   3.615  14.185 -0.1388 -0.3441 -0.7519
 8312SOL    HW136398   1.994   3.566  14.132 -0.9173 -1.4134  1.1689
 8312SOL    HW236399   2.079   3.558  14.258 -4.2741  0.7621  1.3501
 8313SOL     OW36400   0.192   1.055   4.961  0.0418 -0.3826  0.0232
 8313SOL    HW136401   0.236   1.085   4.882 -3.7746 -1.4048 -2.4813
 8313SOL    HW236402   0.272   1.012   4.990 -0.7449 -1.9941 -0.2386
 8314SOL     OW36403   3.059   4.659   6.930  0.0035  0.7011 -0.4674
 8314SOL    HW136404   3.040   4.714   7.005  2.9324 -0.1267  0.8642
 8314SOL    HW236405   3.113   4.587   6.963 -1.6982 -0.4453 -0.1368
 8315SOL     OW36406   0.362   1.530   5.966 -0.0470 -0.2398  0.4918
 8315SOL    HW136407   0.386   1.484   6.046 -0.2065  2.4472  2.0727
 8315SOL    HW236408   0.295   1.470   5.931 -1.1806  1.3202  0.0005
 8316SOL     OW36409   2.863   2.252   8.805 -0.0739 -0.5698 -0.4901
 8316SOL    HW136410   2.947   2.256   8.850  0.1800 -1.4897 -0.8787
 8316SOL    HW236411   2.855   2.345   8.784 -0.4584 -0.3132  0.7883
 8317SOL     OW36412   0.036   2.348  11.674  0.0537 -0.2024  0.0451
 8317SOL    HW136413   0.046   2.273  11.615 -0.7972 -2.0614  2.2608
 8317SOL    HW236414   0.110   2.400  11.642 -0.3930  0.8241  0.6655
 8318SOL     OW36415   1.226   3.542  10.137 -0.1335  0.4956  0.3252
 8318SOL    HW136416   1.162   3.613  10.145 -0.6908  0.0944 -0.5887
 8318SOL    HW236417   1.231   3.536  10.041 -0.7381 -0.7032  0.3744
 8319SOL     OW36418   1.075   4.064   7.109  0.2498 -0.1932  0.6758
 8319SOL    HW136419   1.085   4.159   7.102 -1.7397 -0.0011  0.4475
 8319SOL    HW236420   1.164   4.031   7.101  0.0434 -1.1287  2.2352
 8320SOL     OW36421   4.639   1.699   8.070  0.0593  0.1403  0.2865
 8320SOL    HW136422   4.606   1.787   8.087  1.0690  0.1739  2.1206
 8320SOL    HW236423   4.706   1.723   8.006  1.4424  1.3825  2.1917
 8321SOL     OW36424   4.403   1.623  11.813 -0.2023 -0.3102 -0.3699
 8321SOL    HW136425   4.381   1.559  11.881 -0.3127 -0.0072 -0.1227
 8321SOL    HW236426   4.396   1.573  11.732 -2.1312 -2.1072  0.8946
 8322SOL     OW36427   2.869   3.817   2.622  0.0956 -0.4126  0.0647
 8322SOL    HW136428   2.808   3.746   2.644 -0.1286  0.5656  2.5581
 8322SOL    HW236429   2.835   3.847   2.538  0.8303 -0.9620 -0.4258
 8323SOL     OW36430   3.445   2.608  14.986 -0.0788  0.4858  0.3776
 8323SOL    HW136431   3.507   2.640  14.921 -1.5034  1.8999 -0.3095
 8323SOL    HW236432   3.474   2.518  15.003  0.4558  0.7177  0.6682
 8324SOL     OW36433   0.335   1.203  15.819  0.0376 -0.6692  0.0031
 8324SOL    HW136434   0.325   1.265  15.891 -2.2508  3.0298 -3.5008
 8324SOL    HW236435   0.310   1.254  15.742 -1.1874  2.8076  2.6912
 8325SOL     OW36436   0.565   2.234   8.756 -0.0225 -0.0835 -0.5476
 8325SOL    HW136437   0.659   2.216   8.759  0.1984  0.7092 -2.8375
 8325SOL    HW236438   0.555   2.277   8.671  1.4355  1.4259  0.0193
 8326SOL     OW36439   3.023   0.157   4.081 -0.5302 -0.0817  0.6258
 8326SOL    HW136440   3.048   0.238   4.126  0.7454 -0.2465  0.2145
 8326SOL    HW236441   3.047   0.092   4.147 -1.8525 -3.0003 -1.7477
 8327SOL     OW36442   2.284   4.290   0.296 -0.0311  0.0284 -0.6733
 8327SOL    HW136443   2.366   4.248   0.320  0.8516  2.4812  0.5925
 8327SOL    HW236444   2.247   4.221   0.241  0.3532 -3.2618  3.1604
 8328SOL     OW36445   3.501   4.230   7.900  0.4636  0.2770 -0.0965
 8328SOL    HW136446   3.587   4.198   7.873 -0.2004 -0.7849 -0.9373
 8328SOL    HW236447   3.465   4.145   7.926 -0.5269  0.6914 -0.0976
 8329SOL     OW36448   1.458   4.719  10.681  0.2902  0.7267 -0.1994
 8329SOL    HW136449   1.450   4.702  10.775 -1.0223 -0.5902 -0.5570
 8329SOL    HW236450   1.376   4.685  10.646  0.6626  0.5010 -0.8672
 8330SOL     OW36451   3.519   1.552   2.419  0.1338  0.0286  0.5010
 8330SOL    HW136452   3.588   1.520   2.361  0.9030  0.5790  1.0925
 8330SOL    HW236453   3.500   1.474   2.471 -1.3453  0.3986  0.5139
 8331SOL     OW36454   3.696   0.718   8.215  0.2455  0.9196 -0.0172
 8331SOL    HW136455   3.695   0.813   8.217  1.3636  0.9200  0.4565
 8331SOL    HW236456   3.661   0.698   8.128 -2.0266  0.2092  1.0624
 8332SOL     OW36457   1.786   2.894   9.414 -0.5193  0.1800  0.0906
 8332SOL    HW136458   1.770   2.943   9.333  0.3185 -0.1256 -0.2594
 8332SOL    HW236459   1.720   2.825   9.410  2.1456 -2.3207 -0.6274
 8333SOL     OW36460   1.722   1.952   4.691 -0.0716 -0.2356  0.0295
 8333SOL    HW136461   1.660   1.979   4.758  0.0149 -0.7093  0.2996
 8333SOL    HW236462   1.684   2.005   4.621  0.2965  0.1337  0.1126
 8334SOL     OW36463   0.725   2.249   0.574  0.4572 -0.2232  0.1641
 8334SOL    HW136464   0.639   2.212   0.555  0.7775 -0.6777 -0.4106
 8334SOL    HW236465   0.753   2.270   0.485  1.0548  0.5837  0.5336
 8335SOL     OW36466   2.287   0.965   8.831  0.6063  0.1999  0.4241
 8335SOL    HW136467   2.306   1.047   8.785 -2.0474  0.9699  0.6864
 8335SOL    HW236468   2.372   0.932   8.861  0.4462 -1.1167 -0.5959
 8336SOL     OW36469   4.035   1.442   6.154  0.6003  0.1283  0.1554
 8336SOL    HW136470   4.106   1.406   6.101 -1.2436  0.6946 -2.7457
 8336SOL    HW236471   4.078   1.525   6.174  1.1423 -0.8531  3.0320
 8337SOL     OW36472   3.565   3.003   2.438  0.4972 -0.1834  0.1622
 8337SOL    HW136473   3.559   3.053   2.520  1.1747  1.2829 -0.6777
 8337SOL    HW236474   3.473   2.981   2.419  0.8939  1.0596 -3.1057
 8338SOL     OW36475   0.858   1.282   5.951 -0.1618  0.7716  0.3184
 8338SOL    HW136476   0.798   1.357   5.949 -1.6392 -0.4013  0.5729
 8338SOL    HW236477   0.932   1.308   5.896  0.3487  1.1139  1.1647
 8339SOL     OW36478   2.628   0.451  15.731  0.2578  0.3757 -0.2076
 8339SOL    HW136479   2.615   0.433  15.638  0.1819  1.9159 -0.5035
 8339SOL    HW236480   2.543   0.438  15.774 -0.0516 -0.4551 -1.0740
 8340SOL     OW36481   4.687   1.095   1.204 -0.6345  0.2557  0.0839
 8340SOL    HW136482   4.640   1.169   1.244 -1.3895 -1.3552  2.1880
 8340SOL    HW236483   4.632   1.030   1.248 -0.5423  0.7343  0.9189
 8341SOL     OW36484   1.852   4.253   1.284  0.5815  0.1467  0.3228
 8341SOL    HW136485   1.819   4.233   1.371  1.9983  0.8488  1.0303
 8341SOL    HW236486   1.830   4.176   1.231 -0.1192  1.8231 -1.8430
 8342SOL     OW36487   3.640   4.546   4.946 -0.1966  0.0948 -0.0159
 8342SOL    HW136488   3.678   4.468   4.986  0.2232  0.7937  0.9677
 8342SOL    HW236489   3.708   4.562   4.880  1.0056 -2.0850  0.7056
 8343SOL     OW36490   2.950   0.113   1.909 -0.2777 -0.3613  0.0816
 8343SOL    HW136491   2.983   0.023   1.901 -0.5953 -0.5206  0.6077
 8343SOL    HW236492   3.008   0.163   1.852  1.0819 -2.8081 -0.7108
 8344SOL     OW36493   0.786   0.810   1.973  0.2123 -0.4511  0.4549
 8344SOL    HW136494   0.791   0.865   2.050  1.1527 -1.2419  0.9718
 8344SOL    HW236495   0.764   0.875   1.906  1.7856 -0.1758  0.2045
 8345SOL     OW36496   0.121   0.305   4.982  0.4431 -0.6624 -0.3499
 8345SOL    HW136497   0.172   0.359   5.043 -0.2030 -0.1412 -0.2668
 8345SOL    HW236498   0.063   0.372   4.947  0.2490 -0.0680  1.0719
 8346SOL     OW36499   3.606   0.768   3.629  0.9798  0.4497 -0.4696
 8346SOL    HW136500   3.698   0.791   3.647  0.9728  0.2458 -0.1763
 8346SOL    HW236501   3.605   0.759   3.534 -3.6575  4.2130 -0.7909
 8347SOL     OW36502   0.036   2.481   8.900 -0.1203 -0.4117  0.0803
 8347SOL    HW136503   4.703   2.408   8.883 -1.2637  0.4627  0.3697
 8347SOL    HW236504   0.033   2.532   8.820 -0.0766 -0.4469  0.0562
 8348SOL     OW36505   0.410   3.182   3.541 -0.6612  0.2856 -0.5102
 8348SOL    HW136506   0.394   3.274   3.563  0.9512 -0.0995  2.3111
 8348SOL    HW236507   0.458   3.186   3.458 -0.5696 -1.8416 -0.5570
 8349SOL     OW36508   1.937   3.560  15.593  0.0877 -0.0928  0.5784
 8349SOL    HW136509   1.907   3.630  15.651  1.2893  1.0292 -0.1615
 8349SOL    HW236510   2.029   3.548  15.619 -0.0868 -1.9438  0.3521
 8350SOL     OW36511   0.736   1.895   4.040  0.4885 -0.9596 -0.9350
 8350SOL    HW136512   0.831   1.904   4.030  0.2618  0.2058 -2.1974
 8350SOL    HW236513   0.705   1.958   3.974  1.7330  1.4936  0.8259
 8351SOL     OW36514   3.358   1.898   0.315  0.3696 -0.1462 -0.1549
 8351SOL    HW136515   3.367   1.990   0.343  1.9732 -0.5581  0.6888
 8351SOL    HW236516   3.428   1.893   0.250  1.1089 -0.7951  0.6921
 8352SOL     OW36517   1.832   1.576   3.237 -0.2037 -0.9653  0.1337
 8352SOL    HW136518   1.866   1.649   3.289 -0.5892  1.4138 -2.8807
 8352SOL    HW236519   1.776   1.536   3.302 -2.3136  1.6631 -0.0621
 8353SOL     OW36520   3.452   4.715  10.582  0.2802 -0.2147 -0.1008
 8353SOL    HW136521   3.385   0.032  10.529  1.8357  0.5521 -1.4287
 8353SOL    HW236522   3.408   4.690  10.663  0.0819  0.6239  0.0591
 8354SOL     OW36523   3.924   4.687  17.366 -0.3992 -0.5174 -0.4412
 8354SOL    HW136524   3.997   4.718  17.420  0.3861 -1.4662 -0.9544
 8354SOL    HW236525   3.932   0.016  17.289  0.4078  0.1906  0.1505
 8355SOL     OW36526   2.642   1.274   7.274  0.8897 -0.3424  0.0178
 8355SOL    HW136527   2.723   1.287   7.323  0.0375 -0.4740  1.4517
 8355SOL    HW236528   2.666   1.296   7.184 -1.3536 -0.6589 -0.6652
 8356SOL     OW36529   3.971   4.429   8.922  0.1239  0.2971 -0.5388
 8356SOL    HW136530   3.943   4.376   8.848 -1.9282  0.5092  0.0865
 8356SOL    HW236531   4.039   4.486   8.884 -0.0735  0.4026 -0.7390
 8357SOL     OW36532   2.971   1.650  16.027  0.1233 -0.0950  0.5441
 8357SOL    HW136533   2.993   1.630  15.936  1.3571 -0.1051  0.8451
 8357SOL    HW236534   3.049   1.609  16.064 -1.9006 -2.3179  2.2769
 8358SOL     OW36535   4.458   0.184   6.544  0.6703  0.5780  0.2258
 8358SOL    HW136536   4.504   0.263   6.573  0.7487  0.6983 -0.2259
 8358SOL    HW236537   4.525   0.119   6.524  0.0375 -0.4532  1.4574
 8359SOL     OW36538   3.239   1.165   3.676 -0.2824  0.2569  0.6274
 8359SOL    HW136539   3.214   1.081   3.716 -0.2719  1.0510  2.3120
 8359SOL    HW236540   3.292   1.206   3.744 -0.1219 -1.7621  1.7360
 8360SOL     OW36541   2.436   0.721   1.809 -0.0616 -0.0759  0.2964
 8360SOL    HW136542   2.357   0.756   1.768  0.5548  2.5296  1.2861
 8360SOL    HW236543   2.498   0.789   1.780 -0.6155 -0.7315 -2.4790
 8361SOL     OW36544   1.872   4.119  13.260 -0.0187 -0.1691 -0.1695
 8361SOL    HW136545   1.825   4.195  13.228 -0.2698 -1.2937 -2.4308
 8361SOL    HW236546   1.965   4.141  13.263 -0.3158  1.0679  0.0978
 8362SOL     OW36547   0.993   0.462   5.964  0.2447 -0.5776  0.2945
 8362SOL    HW136548   1.043   0.509   6.031  0.4469  1.7919 -1.4962
 8362SOL    HW236549   1.038   0.378   5.964  1.6786  0.1590 -1.3788
 8363SOL     OW36550   1.566   2.972   0.352  0.6785  0.4312  0.2420
 8363SOL    HW136551   1.536   3.012   0.270 -2.0222 -0.5314  0.7486
 8363SOL    HW236552   1.629   2.906   0.324  0.6068  0.3087  0.3633
 8364SOL     OW36553   3.408   0.171   4.937  0.0302 -0.3995  0.2772
 8364SOL    HW136554   3.314   0.181   4.922  0.2624 -1.2128 -1.7574
 8364SOL    HW236555   3.411   0.087   4.983  2.2380 -1.1248 -1.2247
 8365SOL     OW36556   2.604   2.720   7.903  0.5266  0.0449  0.1126
 8365SOL    HW136557   2.680   2.777   7.919 -1.6897  2.7524  1.1597
 8365SOL    HW236558   2.640   2.637   7.934 -0.3427 -0.2127  0.4195
 8366SOL     OW36559   2.065   1.361   9.354 -0.3091 -0.2877 -0.1667
 8366SOL    HW136560   2.073   1.323   9.441 -0.2715 -2.0266 -0.9450
 8366SOL    HW236561   1.978   1.401   9.360 -0.3213 -0.3882  0.3325
 8367SOL     OW36562   0.654   4.406   5.291  0.2871  0.5243  0.1019
 8367SOL    HW136563   0.713   4.380   5.220  1.1032  0.2595  0.8819
 8367SOL    HW236564   0.608   4.324   5.310  0.2893  0.6651  0.7054
 8368SOL     OW36565   4.073   0.673   9.635  0.1749 -0.6006  0.6077
 8368SOL    HW136566   4.006   0.681   9.703 -0.0421 -2.6095  0.6179
 8368SOL    HW236567   4.040   0.601   9.582 -1.3682  1.5716 -1.3847
 8369SOL     OW36568   0.278   3.390   3.827  0.3767  0.2531  0.1903
 8369SOL    HW136569   0.364   3.418   3.797 -0.5088 -0.5327 -3.0006
 8369SOL    HW236570   0.288   3.395   3.923  2.0569 -0.5420  0.0662
 8370SOL     OW36571   1.713   3.327  14.761 -0.2609  0.5292  0.3614
 8370SOL    HW136572   1.751   3.362  14.680  1.7587  0.1260  1.1242
 8370SOL    HW236573   1.624   3.298  14.741  0.2300  0.1204 -1.2791
 8371SOL     OW36574   0.144   1.354   9.203 -0.4737  0.7653  0.0092
 8371SOL    HW136575   0.099   1.439   9.206 -1.0701  0.3982  1.6100
 8371SOL    HW236576   0.209   1.379   9.138 -1.6005 -0.3447 -1.5406
 8372SOL     OW36577   1.180   3.134  11.172  0.2809  1.0484  0.0481
 8372SOL    HW136578   1.205   3.160  11.083  2.1706 -0.2301  0.2197
 8372SOL    HW236579   1.087   3.153  11.160  0.5995  1.6098 -1.5003
 8373SOL     OW36580   4.591   4.384   3.253 -0.5563 -0.5262 -0.2994
 8373SOL    HW136581   4.635   4.376   3.168  2.5357 -2.9420  1.4936
 8373SOL    HW236582   4.662   4.391   3.317  0.0576 -1.2060 -0.9017
 8374SOL     OW36583   2.047   1.976   7.789 -0.2868 -0.0490 -0.1808
 8374SOL    HW136584   2.004   2.056   7.758  0.5848  0.4912 -0.0017
 8374SOL    HW236585   1.997   1.906   7.748 -0.2600 -1.1347  1.6598
 8375SOL     OW36586   1.737   0.250   3.080 -0.2474  0.1432  0.5049
 8375SOL    HW136587   1.781   0.204   3.008 -1.4748 -1.9065  1.0746
 8375SOL    HW236588   1.650   0.267   3.045  0.2995  1.0455 -0.3987
 8376SOL     OW36589   3.760   0.403   5.160  0.0441  0.1619  0.3022
 8376SOL    HW136590   3.852   0.404   5.134 -0.0285  0.9286  0.0801
 8376SOL    HW236591   3.735   0.340   5.092  0.4215  0.0575  0.2605
 8377SOL     OW36592   0.941   1.400  10.326 -0.2023 -0.3900 -0.2624
 8377SOL    HW136593   0.892   1.422  10.246  2.5891  1.1353 -1.5574
 8377SOL    HW236594   0.971   1.313  10.300 -2.4546 -1.3022  0.2035
 8378SOL     OW36595   0.293   1.522   1.646  0.3533 -0.8124  0.4726
 8378SOL    HW136596   0.208   1.479   1.639 -0.2621  0.2860  1.3555
 8378SOL    HW236597   0.342   1.460   1.701  0.3568 -1.4195 -0.2160
 8379SOL     OW36598   0.505   4.692   6.506 -0.3027 -0.4637  0.0004
 8379SOL    HW136599   0.578   0.028   6.508  2.2478 -3.3667 -0.8587
 8379SOL    HW236600   0.501   4.670   6.598 -2.7604 -1.4067 -0.3498
 8380SOL     OW36601   2.361   4.095   6.838  0.0564 -0.3588 -0.0092
 8380SOL    HW136602   2.435   4.064   6.786  0.3222  0.3468 -0.0573
 8380SOL    HW236603   2.405   4.122   6.918 -0.8041  0.0944  0.3210
 8381SOL     OW36604   1.755   1.204  13.589 -0.1175  0.1611 -0.3064
 8381SOL    HW136605   1.682   1.143  13.604  1.2385 -1.0838  1.2770
 8381SOL    HW236606   1.735   1.239  13.502  2.2532 -0.0803 -0.9488
 8382SOL     OW36607   2.936   1.812   7.809 -0.5173 -0.5832  0.0177
 8382SOL    HW136608   2.899   1.870   7.742  0.2975 -0.7733 -0.5972
 8382SOL    HW236609   3.027   1.839   7.816 -0.3611 -1.4567  1.4362
 8383SOL     OW36610   3.508   4.065   3.604 -0.1589  0.1499  0.2936
 8383SOL    HW136611   3.494   4.145   3.554  2.3302  0.4885  0.1362
 8383SOL    HW236612   3.418   4.041   3.625 -0.7963  0.5335 -1.9737
 8384SOL     OW36613   1.077   0.727   5.659 -0.6183  0.0884  0.6995
 8384SOL    HW136614   1.157   0.707   5.706  0.2251  1.4192 -0.1766
 8384SOL    HW236615   1.075   0.821   5.642 -4.4072  0.1742  1.6138
 8385SOL     OW36616   4.544   3.480  16.042  0.0737 -0.5454 -0.2647
 8385SOL    HW136617   4.472   3.428  16.077  0.4942 -0.6805  0.4029
 8385SOL    HW236618   4.611   3.413  16.039 -0.8005 -1.4456  0.4705
 8386SOL     OW36619   3.560   2.160   1.962  0.4978  0.0728  0.3856
 8386SOL    HW136620   3.654   2.180   1.965  0.6579 -0.5650 -0.4749
 8386SOL    HW236621   3.523   2.246   1.943  0.4995  0.0444  0.2517
 8387SOL     OW36622   0.631   4.604   3.271  0.2855  0.0600 -0.0477
 8387SOL    HW136623   0.591   4.518   3.276  1.7679 -0.5278  1.4955
 8387SOL    HW236624   0.674   4.600   3.356 -2.1858 -0.2317  1.2022
 8388SOL     OW36625   2.381   1.812   8.984  0.0878 -0.4026 -0.6044
 8388SOL    HW136626   2.339   1.740   9.030  0.3109 -0.3240 -0.2673
 8388SOL    HW236627   2.442   1.837   9.054 -0.6749 -0.3741  0.0451
 8389SOL     OW36628   1.720   0.329   2.059  0.3096 -0.0720  0.8493
 8389SOL    HW136629   1.696   0.275   2.134  1.4063 -0.2951  1.0304
 8389SOL    HW236630   1.727   0.420   2.088 -1.0816 -0.6381  2.9813
 8390SOL     OW36631   1.708   1.502  12.488  0.2137  0.2655  0.2971
 8390SOL    HW136632   1.785   1.527  12.437 -0.0143  4.3983  1.9347
 8390SOL    HW236633   1.710   1.564  12.561  0.0164  0.0569  0.4806
 8391SOL     OW36634   1.580   1.957   8.536 -0.1563 -0.1300  0.1230
 8391SOL    HW136635   1.549   2.041   8.501 -0.4621 -0.6527 -0.8663
 8391SOL    HW236636   1.663   1.987   8.571 -0.5364 -0.8888  1.6690
 8392SOL     OW36637   1.702   3.262  12.625 -0.2105  0.0473 -0.4561
 8392SOL    HW136638   1.638   3.332  12.612 -1.4088 -1.1278 -0.8102
 8392SOL    HW236639   1.773   3.306  12.671 -1.8269  2.6644 -0.4591
 8393SOL     OW36640   1.575   1.657   4.834 -0.2797  0.2330 -0.2025
 8393SOL    HW136641   1.640   1.698   4.890 -1.4748 -2.0063  2.8663
 8393SOL    HW236642   1.490   1.676   4.874  1.0384  3.0492  1.2141
 8394SOL     OW36643   2.163   3.628   2.257 -0.1604  0.3537 -0.4106
 8394SOL    HW136644   2.177   3.687   2.183 -0.0742  2.1425  1.0190
 8394SOL    HW236645   2.107   3.679   2.316  0.3436  0.5727 -0.1180
 8395SOL     OW36646   3.144   2.188   4.571  0.5437  0.2413  0.3982
 8395SOL    HW136647   3.188   2.239   4.639  1.6085 -0.3248  0.1289
 8395SOL    HW236648   3.190   2.213   4.491 -0.6467  0.4266 -0.2304
 8396SOL     OW36649   0.376   1.289   6.384  0.5354  0.3037  0.4040
 8396SOL    HW136650   0.375   1.297   6.288 -1.5580 -0.2527  0.3746
 8396SOL    HW236651   0.468   1.303   6.404  0.7920 -1.6312  0.5441
 8397SOL     OW36652   3.351   3.015  11.088  0.2934 -0.0615 -0.0335
 8397SOL    HW136653   3.307   3.087  11.042  0.9898 -1.1421 -2.3573
 8397SOL    HW236654   3.429   3.009  11.033 -1.2467 -0.8983 -2.1198
 8398SOL     OW36655   1.523   4.122   2.241  0.0807 -0.6124 -0.2680
 8398SOL    HW136656   1.587   4.057   2.211 -0.2450 -0.7223 -0.7136
 8398SOL    HW236657   1.541   4.187   2.174  1.0661  0.1859  0.7580
 8399SOL     OW36658   2.881   0.639   1.179 -0.4886 -0.2605  0.0988
 8399SOL    HW136659   2.844   0.696   1.111 -2.5815 -1.5206  0.1958
 8399SOL    HW236660   2.877   0.696   1.256 -1.6397  0.6838 -0.6449
 8400SOL     OW36661   2.033   2.952   6.907 -0.3484  0.1220 -0.0815
 8400SOL    HW136662   1.982   3.033   6.908 -1.2905 -0.4696 -0.4037
 8400SOL    HW236663   1.990   2.895   6.843 -2.3409  1.9529 -0.3474
 8401SOL     OW36664   4.202   0.068   6.686  0.7574 -0.2524 -0.6511
 8401SOL    HW136665   4.162   0.019   6.758  0.3112 -2.5196 -2.4343
 8401SOL    HW236666   4.288   0.030   6.670  0.7340 -0.6852  0.2743
 8402SOL     OW36667   1.559   3.815   9.234  0.5808 -0.0459  0.5184
 8402SOL    HW136668   1.479   3.773   9.265 -0.3169 -0.0141 -1.7661
 8402SOL    HW236669   1.545   3.825   9.140 -2.2138 -1.9404  0.7524
 8403SOL     OW36670   1.850   0.923   2.533 -0.0054  0.8659  0.0366
 8403SOL    HW136671   1.831   0.987   2.465  2.2216 -1.0107 -2.3544
 8403SOL    HW236672   1.763   0.908   2.570  0.7585  0.3720  1.6383
 8404SOL     OW36673   3.833   0.140  11.226 -0.2018 -0.7275  0.2916
 8404SOL    HW136674   3.790   0.166  11.307  0.1270 -0.1485  0.2825
 8404SOL    HW236675   3.787   0.197  11.164  1.1742 -0.7638 -0.7782
 8405SOL     OW36676   3.873   0.397   4.391  0.4275  0.4583 -0.2014
 8405SOL    HW136677   3.966   0.375   4.384  0.7276  1.0787  1.5978
 8405SOL    HW236678   3.839   0.336   4.456  1.4626 -0.4212 -0.4790
 8406SOL     OW36679   2.736   2.389  10.545  0.1441 -0.6293  0.2834
 8406SOL    HW136680   2.791   2.462  10.573  0.5254 -1.6212  2.1178
 8406SOL    HW236681   2.798   2.342  10.490  0.3953  0.9926 -0.8403
 8407SOL     OW36682   0.021   3.114   4.067  0.1214 -0.0539 -0.2285
 8407SOL    HW136683   4.709   3.191   4.024 -0.6431 -1.1726 -1.5424
 8407SOL    HW236684   0.032   3.072   3.982 -2.7548 -1.2661  0.0050
 8408SOL     OW36685   2.337   2.719   5.578 -0.0088  0.0209  0.6118
 8408SOL    HW136686   2.260   2.689   5.626 -1.7300  1.4293 -1.2847
 8408SOL    HW236687   2.370   2.792   5.631  0.4979 -0.1707  0.5568
 8409SOL     OW36688   2.568   2.878   2.641  0.0174  0.4841 -0.2212
 8409SOL    HW136689   2.502   2.834   2.587 -1.3666  2.7382 -0.3581
 8409SOL    HW236690   2.626   2.927   2.583  1.8123  0.2013  1.3089
 8410SOL     OW36691   2.334   4.065   1.949 -0.2207 -0.4607 -0.2110
 8410SOL    HW136692   2.276   4.104   1.882  0.5068 -2.5198 -2.0538
 8410SOL    HW236693   2.295   4.081   2.035 -1.8400 -4.2549 -0.2413
 8411SOL     OW36694   1.319   0.866   6.805  0.4808  0.1964 -0.6684
 8411SOL    HW136695   1.287   0.889   6.892 -0.3160  1.5406 -1.3171
 8411SOL    HW236696   1.412   0.848   6.819  0.2345 -1.0987 -0.7415
 8412SOL     OW36697   1.867   0.578   9.163  0.1771 -0.5627  0.0707
 8412SOL    HW136698   1.931   0.517   9.127 -0.7716 -1.3834 -0.2368
 8412SOL    HW236699   1.852   0.543   9.251 -0.2514  1.5432  0.8320
 8413SOL     OW36700   2.766   1.984   3.220 -0.1519  0.7594  0.3675
 8413SOL    HW136701   2.823   2.033   3.161  1.4140  0.4537  1.6110
 8413SOL    HW236702   2.823   1.934   3.279 -0.6643 -1.3892 -0.9607
 8414SOL     OW36703   2.510   4.434   0.835 -0.3833 -0.2926  0.3686
 8414SOL    HW136704   2.458   4.507   0.869 -0.3978 -0.3612  0.4946
 8414SOL    HW236705   2.458   4.410   0.759  0.2952 -1.0562  0.1500
 8415SOL     OW36706   1.381   0.269   6.953  0.4553  0.6566 -0.0043
 8415SOL    HW136707   1.428   0.265   6.870  1.2150 -1.2260  0.5142
 8415SOL    HW236708   1.292   0.277   6.919  0.8448  1.3825 -0.8471
 8416SOL     OW36709   1.020   2.397   5.281  0.5113 -0.0939 -0.1945
 8416SOL    HW136710   1.071   2.330   5.327  0.8892  0.3197 -0.0197
 8416SOL    HW236711   1.078   2.434   5.215 -0.3406  0.0628 -0.8625
 8417SOL     OW36712   2.692   2.688  10.109  0.1067  0.6836  0.6066
 8417SOL    HW136713   2.636   2.611  10.099  1.6041 -0.1700 -1.1690
 8417SOL    HW236714   2.770   2.650  10.148 -0.0270  0.2250  0.4237
 8418SOL     OW36715   1.497   1.543   7.800 -0.3177 -0.1481  0.3213
 8418SOL    HW136716   1.422   1.567   7.745  0.5330 -0.5888 -1.0254
 8418SOL    HW236717   1.539   1.629   7.807  1.0418 -0.7395 -0.4718
 8419SOL     OW36718   4.543   0.524  17.130  0.1042 -0.7378 -0.6922
 8419SOL    HW136719   4.598   0.457  17.090  2.7962  0.2204  1.4100
 8419SOL    HW236720   4.499   0.559  17.052 -0.3220  1.9726  0.7495
 8420SOL     OW36721   4.662   2.369   2.652 -0.2074 -0.1325 -0.0176
 8420SOL    HW136722   4.643   2.452   2.695  1.5999 -1.1093  2.6473
 8420SOL    HW236723   4.694   2.310   2.720 -1.9008 -1.9090 -0.7603
 8421SOL     OW36724   2.846   0.627  10.762 -0.4122 -0.2933  0.5471
 8421SOL    HW136725   2.838   0.707  10.814 -2.1691  0.0970 -0.3316
 8421SOL    HW236726   2.761   0.632  10.718 -0.0589  1.0713  0.0212
 8422SOL     OW36727   3.088   3.500   2.920  0.4329 -0.6214 -0.6838
 8422SOL    HW136728   3.007   3.506   2.972  1.0901 -2.2538  0.5168
 8422SOL    HW236729   3.078   3.567   2.852  0.3177  1.2483  1.1651
 8423SOL     OW36730   3.728   2.648   5.147  0.1422  0.5865 -0.1962
 8423SOL    HW136731   3.703   2.574   5.201 -0.7684  0.1900 -1.1538
 8423SOL    HW236732   3.784   2.594   5.091 -1.3624 -0.9317 -0.2330
 8424SOL     OW36733   2.689   0.091   7.720  0.3069 -0.2960  0.0852
 8424SOL    HW136734   2.659   0.162   7.776 -0.5401 -1.0756  0.6327
 8424SOL    HW236735   2.638   0.106   7.640  2.4348  0.2296 -1.1601
 8425SOL     OW36736   1.023   0.527   2.907 -0.2406 -0.0305 -0.0470
 8425SOL    HW136737   1.090   0.473   2.867  0.7864  1.0396  0.2221
 8425SOL    HW236738   0.959   0.457   2.916  1.2672 -1.5521 -1.3541
 8426SOL     OW36739   2.183   0.334   4.725  0.2644  0.1538 -0.1480
 8426SOL    HW136740   2.231   0.330   4.642  0.1393  1.0085 -0.2686
 8426SOL    HW236741   2.247   0.381   4.779  0.9956  1.4988 -2.1881
 8427SOL     OW36742   3.530   3.843   4.371  0.2518 -0.8191  0.5041
 8427SOL    HW136743   3.437   3.850   4.392  0.5427  0.3298  1.4148
 8427SOL    HW236744   3.562   3.917   4.422  0.6210 -0.7309  0.1383
 8428SOL     OW36745   3.643   0.651   0.752 -0.2072 -0.0851  0.1575
 8428SOL    HW136746   3.692   0.645   0.670  0.6571 -1.0142  0.7339
 8428SOL    HW236747   3.551   0.637   0.728 -0.2820  0.4844  0.1243
 8429SOL     OW36748   0.712   3.785   7.906 -0.3373  0.2441  0.4561
 8429SOL    HW136749   0.729   3.771   7.813 -0.2267 -1.9181  0.8067
 8429SOL    HW236750   0.799   3.784   7.947  0.2633 -2.8847 -0.9390
 8430SOL     OW36751   2.136   2.350   4.938 -0.1572  0.4049 -0.0161
 8430SOL    HW136752   2.227   2.367   4.962  0.1975 -1.7745  0.1425
 8430SOL    HW236753   2.093   2.429   4.971 -0.2577 -0.3374  1.6043
 8431SOL     OW36754   2.209   1.134  14.431 -0.0151  0.1478 -0.8560
 8431SOL    HW136755   2.154   1.204  14.466  0.6495  0.4807 -0.4726
 8431SOL    HW236756   2.292   1.140  14.478 -0.5608  1.3675 -0.0162
 8432SOL     OW36757   2.866   4.372   8.790  0.6042  0.4429  0.6990
 8432SOL    HW136758   2.846   4.363   8.883 -3.1561  0.9525 -0.0654
 8432SOL    HW236759   2.838   4.456   8.755 -1.1688 -0.8306 -1.0314
 8433SOL     OW36760   4.629   3.064   4.447 -0.4396  0.2710  0.0420
 8433SOL    HW136761   4.607   3.037   4.358  1.1011 -1.7444  0.2700
 8433SOL    HW236762   4.581   2.993   4.489  1.8060 -0.4331  1.4542
 8434SOL     OW36763   1.921   3.054  11.542 -0.0661  0.3843  0.6892
 8434SOL    HW136764   1.876   3.033  11.623 -1.3456  0.1380 -0.0927
 8434SOL    HW236765   1.983   3.119  11.577  0.4092 -0.8324  2.0831
 8435SOL     OW36766   4.663   0.985   6.184 -0.1359 -0.3706 -0.5679
 8435SOL    HW136767   4.727   1.045   6.223  0.2227 -1.5170  0.6147
 8435SOL    HW236768   4.588   1.044   6.179  1.9720  2.3316  0.0510
 8436SOL     OW36769   3.914   3.480   1.329  0.6939  0.3696  0.1320
 8436SOL    HW136770   3.828   3.478   1.370 -0.0323 -1.5398 -1.4424
 8436SOL    HW236771   3.901   3.551   1.266  1.4227 -0.4852 -1.0018
 8437SOL     OW36772   2.981   1.529   4.440  0.3554 -0.4812  0.0703
 8437SOL    HW136773   3.017   1.606   4.395 -1.6520  0.3375 -0.1288
 8437SOL    HW236774   3.030   1.460   4.397  0.7494  0.2309 -0.6177
 8438SOL     OW36775   3.169   0.686   3.694  0.2026  0.9283  0.3309
 8438SOL    HW136776   3.251   0.679   3.743  0.6151 -0.5803 -0.5644
 8438SOL    HW236777   3.116   0.719   3.766 -1.0360 -1.4136  0.4984
 8439SOL     OW36778   2.637   1.294   6.591  0.1287  0.4305  0.1309
 8439SOL    HW136779   2.584   1.318   6.667 -0.4181 -0.7919  0.1265
 8439SOL    HW236780   2.636   1.198   6.590 -1.1287  0.4335  0.5693
 8440SOL     OW36781   3.200   4.411   3.285 -0.3635  0.5766 -0.2891
 8440SOL    HW136782   3.236   4.393   3.198 -2.2760  0.4807 -1.0505
 8440SOL    HW236783   3.186   4.324   3.322 -2.4267  0.7668 -0.6488
 8441SOL     OW36784   1.112   2.634   4.377  0.6867 -0.4533  0.7736
 8441SOL    HW136785   1.131   2.563   4.438 -2.9015 -2.4809 -0.4724
 8441SOL    HW236786   1.024   2.667   4.397  0.6929 -0.2402  0.4422
 8442SOL     OW36787   0.004   1.150   0.599 -0.4245 -0.0809 -0.1506
 8442SOL    HW136788   4.660   1.093   0.629 -1.0229  1.2460  1.0256
 8442SOL    HW236789   0.075   1.118   0.655 -1.5099 -1.6304  0.3206
 8443SOL     OW36790   1.908   2.615   6.015 -0.1275  0.1806  0.3729
 8443SOL    HW136791   1.992   2.620   6.060  0.8098 -0.0830 -1.3200
 8443SOL    HW236792   1.873   2.532   6.048  1.3304 -0.1082  1.1716
 8444SOL     OW36793   1.409   0.174   1.693  0.5633 -0.1331  0.5357
 8444SOL    HW136794   1.458   0.210   1.767  1.5102 -0.2772 -0.0092
 8444SOL    HW236795   1.320   0.181   1.727  0.2528  2.3857 -0.7779
 8445SOL     OW36796   1.394   4.320   4.770 -0.5323  0.2022  1.0602
 8445SOL    HW136797   1.441   4.303   4.851 -0.2172 -0.1307  0.8047
 8445SOL    HW236798   1.408   4.412   4.749  0.2368 -0.0041  0.6512
 8446SOL     OW36799   4.685   4.265   9.465  0.1860  0.7860  0.2694
 8446SOL    HW136800   4.703   4.332   9.399  1.1043  1.3222  1.0509
 8446SOL    HW236801   4.645   4.197   9.412  1.7394  0.3545 -0.3414
 8447SOL     OW36802   1.493   3.586   5.866  0.2038 -0.0528 -0.0089
 8447SOL    HW136803   1.405   3.582   5.901  0.7922 -0.8793  1.3549
 8447SOL    HW236804   1.541   3.636   5.932  1.7304 -3.4364  1.4572
 8448SOL     OW36805   3.301   0.913   4.305 -0.2918 -0.3279  0.0622
 8448SOL    HW136806   3.302   0.855   4.381  2.7236  1.0856  1.0994
 8448SOL    HW236807   3.395   0.926   4.294  0.0326  0.2409  3.2748
 8449SOL     OW36808   0.565   1.668   0.392  0.1307  0.0636  0.5712
 8449SOL    HW136809   0.573   1.706   0.304  1.5221  2.0633  1.5732
 8449SOL    HW236810   0.552   1.744   0.449 -0.4529 -1.9334  3.1058
 8450SOL     OW36811   1.267   2.134   4.710  0.4199  0.4578 -0.1859
 8450SOL    HW136812   1.218   2.202   4.756 -1.8689 -0.9481 -0.5525
 8450SOL    HW236813   1.235   2.141   4.620  1.6225 -0.8213 -0.7139
 8451SOL     OW36814   1.085   2.814   1.107 -0.2824  0.0853  0.1725
 8451SOL    HW136815   1.177   2.795   1.085 -0.7230  1.0645 -2.5267
 8451SOL    HW236816   1.060   2.855   1.025  2.1798  0.6299 -0.3070
 8452SOL     OW36817   3.797   4.470  10.569  0.2056 -0.4747 -0.0213
 8452SOL    HW136818   3.884   4.503  10.547  0.4436  0.2068  1.9583
 8452SOL    HW236819   3.814   4.400  10.632 -2.0839 -1.4241 -0.4740
 8453SOL     OW36820   1.110   0.865  16.096 -0.0356 -0.5705 -0.2012
 8453SOL    HW136821   1.023   0.829  16.082  0.1290 -0.5945 -1.1740
 8453SOL    HW236822   1.091   0.956  16.077  1.1055 -0.1808  0.4749
 8454SOL     OW36823   1.409   0.011   0.483 -0.2538  0.3652 -0.2323
 8454SOL    HW136824   1.447   0.005   0.395  1.4033  1.0095  0.4367
 8454SOL    HW236825   1.429   4.647   0.510  1.0763  0.7994  0.2675
 8455SOL     OW36826   1.321   1.099   5.035 -0.3548  0.1996 -0.0328
 8455SOL    HW136827   1.239   1.136   5.068  0.0426  1.8953 -0.9057
 8455SOL    HW236828   1.375   1.179   5.029  0.4893 -0.4623 -1.2597
 8456SOL     OW36829   0.319   1.811   2.563 -0.4433  0.1494  0.6510
 8456SOL    HW136830   0.341   1.843   2.475 -0.6984  0.9992  0.9015
 8456SOL    HW236831   0.381   1.865   2.612  1.9322  0.7894 -2.9860
 8457SOL     OW36832   3.011   3.019  13.854 -0.0913 -0.4527  0.1659
 8457SOL    HW136833   3.039   3.097  13.902  0.6280  0.5106 -1.8370
 8457SOL    HW236834   3.073   2.956  13.891 -0.1499 -1.8810 -2.1621
 8458SOL     OW36835   0.515   3.666  12.422  0.4814 -0.1892 -1.0153
 8458SOL    HW136836   0.530   3.653  12.329 -1.1222 -0.8123 -1.2004
 8458SOL    HW236837   0.429   3.626  12.437  0.1677  0.3493 -1.3762
 8459SOL     OW36838   0.616   2.904   4.582 -0.2024  0.0651 -0.2731
 8459SOL    HW136839   0.596   2.971   4.647 -2.6836  0.3705 -1.3627
 8459SOL    HW236840   0.710   2.919   4.592 -0.3690  0.2104  1.1212
 8460SOL     OW36841   1.814   0.418  12.116 -0.1538 -0.4958 -0.8169
 8460SOL    HW136842   1.848   0.409  12.205 -1.3696  0.9870 -0.2152
 8460SOL    HW236843   1.896   0.392  12.073  0.6748  1.2937 -0.3083
 8461SOL     OW36844   2.819   2.800   5.893 -0.7894  0.4678 -0.0028
 8461SOL    HW136845   2.783   2.717   5.923 -0.5871 -0.6453 -2.8590
 8461SOL    HW236846   2.901   2.782   5.847 -1.1552  0.7858 -0.7912
 8462SOL     OW36847   3.012   2.458   4.159 -0.0933 -0.4277  0.4878
 8462SOL    HW136848   3.048   2.503   4.235  0.2652  1.6794 -0.9054
 8462SOL    HW236849   2.929   2.423   4.191 -0.2540 -0.5276 -0.0263
 8463SOL     OW36850   2.996   0.288  11.671  0.3819  0.0170  0.1149
 8463SOL    HW136851   2.959   0.247  11.593  1.2772 -0.0840 -0.2649
 8463SOL    HW236852   3.082   0.316  11.638 -0.0805 -0.1176 -1.2079
 8464SOL     OW36853   3.691   1.369   8.703  0.1452  0.1757  0.0031
 8464SOL    HW136854   3.663   1.279   8.717  2.1610 -0.0849  2.2166
 8464SOL    HW236855   3.604   1.406   8.685 -0.7715 -1.2978  1.4118
 8465SOL     OW36856   3.835   3.201  16.890  0.4754 -0.3883  0.1609
 8465SOL    HW136857   3.869   3.120  16.851  1.0344  0.4151 -0.9906
 8465SOL    HW236858   3.744   3.197  16.860 -0.2465 -2.7628  2.6378
 8466SOL     OW36859   2.169   0.921   7.991 -0.5323  0.0567  0.2628
 8466SOL    HW136860   2.148   0.919   8.085 -1.0906 -0.5419  0.1251
 8466SOL    HW236861   2.144   1.010   7.968 -0.1948 -0.0519 -0.5301
 8467SOL     OW36862   4.571   0.079   5.864  0.1697  0.2537  0.6408
 8467SOL    HW136863   4.562   0.111   5.775  1.1237  0.1339  0.5011
 8467SOL    HW236864   4.531   0.151   5.913 -1.2659 -0.4986  0.5636
 8468SOL     OW36865   3.289   0.759   1.086  0.5595 -0.1292 -0.0263
 8468SOL    HW136866   3.266   0.683   1.140  0.1802 -0.3595 -0.5028
 8468SOL    HW236867   3.384   0.762   1.090  0.4688 -0.7561  2.4611
 8469SOL     OW36868   0.802   4.128   3.664  0.2908 -1.0203  0.4855
 8469SOL    HW136869   0.889   4.133   3.703  1.0116 -2.1004 -0.9864
 8469SOL    HW236870   0.789   4.038   3.695 -0.1023 -1.4557 -0.9162
 8470SOL     OW36871   2.689   3.760   7.207 -0.1057  0.7495  0.3287
 8470SOL    HW136872   2.672   3.823   7.137  2.6702  0.6821 -0.3853
 8470SOL    HW236873   2.614   3.701   7.196  1.9081 -1.9417  1.2604
 8471SOL     OW36874   0.984   4.401   6.641  0.5155 -0.1315 -0.4564
 8471SOL    HW136875   1.078   4.417   6.633  0.1922  1.0805 -1.8830
 8471SOL    HW236876   0.949   4.490   6.633  2.2054  0.7073  1.6318
 8472SOL     OW36877   1.029   2.346  11.057 -0.0128 -0.3096 -0.0628
 8472SOL    HW136878   0.972   2.349  10.980  2.2692 -0.2665 -1.7666
 8472SOL    HW236879   1.100   2.407  11.035 -0.2447 -0.4863 -1.3373
 8473SOL     OW36880   2.511   3.230  17.211  0.0177 -0.0011 -0.5503
 8473SOL    HW136881   2.602   3.259  17.207  0.5496 -1.9039 -2.6833
 8473SOL    HW236882   2.474   3.314  17.237  3.2175  0.6849  1.7299
 8474SOL     OW36883   3.566   3.036   7.090 -0.0154 -0.4356  0.1598
 8474SOL    HW136884   3.488   2.982   7.103  0.9116 -1.9527 -0.5014
 8474SOL    HW236885   3.637   2.976   7.067 -0.3798  0.4738 -3.4331
 8475SOL     OW36886   1.669   2.519  14.712 -0.1179  0.0359 -0.5107
 8475SOL    HW136887   1.601   2.476  14.659 -0.9108  1.3680 -0.5754
 8475SOL    HW236888   1.617   2.543  14.788 -3.1972  0.3966 -2.7389
 8476SOL     OW36889   3.634   1.003   8.194  0.3987 -0.2153  0.1386
 8476SOL    HW136890   3.667   1.074   8.139  0.2401 -0.1344  0.1485
 8476SOL    HW236891   3.542   1.012   8.170  0.7790  2.4271 -0.3207
 8477SOL     OW36892   2.161   4.179   7.190 -0.1524  0.0417 -0.3965
 8477SOL    HW136893   2.193   4.240   7.124 -1.1778  0.4953 -0.4651
 8477SOL    HW236894   2.140   4.102   7.137  0.1816  0.2756 -0.8641
 8478SOL     OW36895   4.192   4.049  11.511 -0.3131  0.1954  0.3984
 8478SOL    HW136896   4.251   4.110  11.468  1.2055 -1.7965 -0.3293
 8478SOL    HW236897   4.242   4.005  11.580  0.3492  1.0334  0.4539
 8479SOL     OW36898   1.295   0.400   4.874 -0.1296 -0.1433  0.0430
 8479SOL    HW136899   1.203   0.383   4.893  0.6280 -0.5694  3.3510
 8479SOL    HW236900   1.289   0.395   4.779  2.8759 -1.4016 -0.1061
 8480SOL     OW36901   4.022   3.910   2.992 -0.3967  0.2009 -0.9698
 8480SOL    HW136902   4.029   3.836   2.932  3.0430  0.3292 -0.7060
 8480SOL    HW236903   3.928   3.919   3.012 -0.6821  1.0069 -2.6699
 8481SOL     OW36904   2.189   3.923  17.269  0.2676 -0.2158 -0.7728
 8481SOL    HW136905   2.192   3.993  17.203  1.0459 -0.0043 -0.5175
 8481SOL    HW236906   2.280   3.895  17.267  0.1317 -0.7577  1.2943
 8482SOL     OW36907   4.455   0.525  12.528  0.7968 -0.0503  0.0194
 8482SOL    HW136908   4.546   0.505  12.551  1.2692  1.6612 -0.4144
 8482SOL    HW236909   4.459   0.615  12.498  0.7464 -0.2525 -0.5841
 8483SOL     OW36910   3.771   3.042   8.929  0.0404  0.1648  0.0631
 8483SOL    HW136911   3.814   3.011   8.849 -0.4040  0.3852 -0.2659
 8483SOL    HW236912   3.757   2.967   8.987  2.5009 -0.2337  0.1187
 8484SOL     OW36913   0.501   2.732   8.622  0.5104 -0.6834 -0.1719
 8484SOL    HW136914   0.426   2.792   8.616  0.6944 -0.5320 -0.8682
 8484SOL    HW236915   0.539   2.766   8.703  0.1282  0.5783 -0.5181
 8485SOL     OW36916   1.073   3.470   1.664  0.4603  0.4648  0.3089
 8485SOL    HW136917   1.144   3.438   1.719 -1.0872 -1.7337  1.0278
 8485SOL    HW236918   0.992   3.442   1.707  0.9544 -0.8127  0.4023
 8486SOL     OW36919   2.286   0.330  14.684 -0.0684  0.2213  0.0731
 8486SOL    HW136920   2.291   0.395  14.614  1.1042  0.9154  0.8085
 8486SOL    HW236921   2.374   0.294  14.680  0.5078  1.5202  0.9611
 8487SOL     OW36922   0.449   3.379   2.867  0.3294  0.2236 -0.1572
 8487SOL    HW136923   0.520   3.355   2.925  0.2559  0.4098  0.0078
 8487SOL    HW236924   0.375   3.354   2.922  0.1724  2.0071  0.4483
 8488SOL     OW36925   2.811   1.658   0.132 -0.5027 -0.1734 -0.3806
 8488SOL    HW136926   2.882   1.596   0.146 -2.5707 -1.5928  3.9482
 8488SOL    HW236927   2.804   1.669   0.037  1.3752  0.0319 -0.4801
 8489SOL     OW36928   4.164   0.571   3.689 -0.3339  0.9352 -0.0779
 8489SOL    HW136929   4.101   0.563   3.617  0.9599 -0.0572 -1.0909
 8489SOL    HW236930   4.096   0.560   3.756 -1.2275  1.9481 -0.8106
 8490SOL     OW36931   3.492   3.301   6.200  0.4337 -0.3292 -0.1352
 8490SOL    HW136932   3.454   3.309   6.288  1.6849 -1.5189  0.5085
 8490SOL    HW236933   3.585   3.285   6.218  0.3386  0.0611  0.6797
 8491SOL     OW36934   3.273   2.255   0.169 -0.2739 -0.1727  0.2673
 8491SOL    HW136935   3.186   2.294   0.167  0.7385  2.0367 -1.1115
 8491SOL    HW236936   3.250   2.178   0.116  0.0471 -1.3274  1.7989
 8492SOL     OW36937   2.489   2.625   8.229  0.5311  0.1261  0.2637
 8492SOL    HW136938   2.523   2.710   8.255  3.1537 -0.7941 -0.1430
 8492SOL    HW236939   2.548   2.566   8.277  0.4947 -0.6023 -0.5988
 8493SOL     OW36940   4.557   3.648  15.806  0.0963  0.3395  0.4392
 8493SOL    HW136941   4.546   3.590  15.881 -0.2175  1.1358  1.0185
 8493SOL    HW236942   4.561   3.736  15.845  0.9833 -0.0170  1.1471
 8494SOL     OW36943   4.487   2.580  17.445 -0.5160 -0.1557  0.6035
 8494SOL    HW136944   4.513   2.519  17.376 -0.7062 -0.1887  0.5607
 8494SOL    HW236945   4.392   2.572  17.446 -0.5936  0.7266  0.4172
 8495SOL     OW36946   3.510   2.547   5.736 -0.4160 -0.2780 -0.4970
 8495SOL    HW136947   3.578   2.613   5.720  0.3725 -0.9477  0.1752
 8495SOL    HW236948   3.565   2.480   5.775  0.0321  1.2278  1.4335
 8496SOL     OW36949   1.300   2.474  11.907  0.5066  0.0528 -0.1737
 8496SOL    HW136950   1.222   2.420  11.901 -0.8950  1.7299  2.9041
 8496SOL    HW236951   1.264   2.562  11.916  1.7445  0.6203 -0.7443
 8497SOL     OW36952   0.576   1.863   5.759  0.4081  1.3118 -0.5870
 8497SOL    HW136953   0.600   1.811   5.836  0.1920  1.0685 -0.6844
 8497SOL    HW236954   0.628   1.942   5.774  0.9801  0.7133  0.6302
 8498SOL     OW36955   3.851   2.012   3.536 -0.2433 -0.1712  0.2041
 8498SOL    HW136956   3.807   1.933   3.567  0.5421 -1.1283 -1.1641
 8498SOL    HW236957   3.807   2.039   3.455 -0.4560  0.6647  0.5980
 8499SOL     OW36958   3.747   4.230  11.319 -0.2927 -0.2582  0.5429
 8499SOL    HW136959   3.653   4.214  11.310 -0.4795  0.2315  1.6824
 8499SOL    HW236960   3.752   4.275  11.403 -2.7117  3.1637 -1.1577
 8500SOL     OW36961   2.024   4.226   4.449 -0.5681 -0.3010  0.1500
 8500SOL    HW136962   2.062   4.294   4.394 -0.6487 -0.3891 -0.0124
 8500SOL    HW236963   2.083   4.153   4.430 -1.7642 -1.5765  1.2835
 8501SOL     OW36964   2.650   1.620   0.358  0.2971  0.0717  0.2459
 8501SOL    HW136965   2.697   1.637   0.277 -0.7300  0.4483 -0.2725
 8501SOL    HW236966   2.591   1.551   0.328  1.0404  0.1189 -1.3213
 8502SOL     OW36967   2.880   0.657  13.890 -0.4560 -0.2314  0.2062
 8502SOL    HW136968   2.804   0.609  13.924  0.1966 -0.8568  0.7772
 8502SOL    HW236969   2.892   0.738  13.941 -0.4038  0.4267 -0.8575
 8503SOL     OW36970   3.558   1.181  10.071 -0.0181  0.2371  0.0510
 8503SOL    HW136971   3.541   1.093  10.038  1.9895  0.3888 -1.4303
 8503SOL    HW236972   3.492   1.189  10.139 -2.2774 -0.0566 -2.1009
 8504SOL     OW36973   2.352   2.830   9.204 -0.1428 -0.4958  0.5316
 8504SOL    HW136974   2.294   2.810   9.130  1.9852 -1.9733 -0.7363
 8504SOL    HW236975   2.305   2.789   9.276 -1.1091  0.4628  0.4427
 8505SOL     OW36976   4.615   2.992   0.810 -0.0616  0.0283  0.0967
 8505SOL    HW136977   4.634   2.930   0.881 -1.1268 -2.5050 -1.8496
 8505SOL    HW236978   4.698   2.974   0.767 -1.0822 -0.4015 -1.6796
 8506SOL     OW36979   1.280   1.443  12.033 -0.4758 -0.1363  0.0880
 8506SOL    HW136980   1.302   1.440  11.940 -0.8522  1.6711 -0.0572
 8506SOL    HW236981   1.328   1.365  12.061  0.1137  0.2327  0.1133
 8507SOL     OW36982   3.741   2.094   9.881  0.1222  0.4739  0.1005
 8507SOL    HW136983   3.835   2.093   9.896 -0.0809 -1.9083  1.2909
 8507SOL    HW236984   3.742   2.050   9.796 -3.4881  1.7969 -0.6258
 8508SOL     OW36985   2.499   3.649   6.178 -0.0121 -0.0055 -0.3889
 8508SOL    HW136986   2.509   3.695   6.095  0.3803  0.2849 -0.1856
 8508SOL    HW236987   2.581   3.671   6.222  0.5592 -1.3252 -0.7952
 8509SOL     OW36988   0.241   1.410  11.649  0.4093 -0.1075 -0.3669
 8509SOL    HW136989   0.284   1.417  11.734  0.2612 -0.8574 -0.2300
 8509SOL    HW236990   0.153   1.374  11.665  0.2735 -0.0750 -1.0109
 8510SOL     OW36991   2.418   1.863   2.918  0.1800  0.4974  0.1833
 8510SOL    HW136992   2.420   1.822   3.005 -1.2535  0.4516  0.2068
 8510SOL    HW236993   2.348   1.820   2.869  0.4343  0.5191 -0.1926
 8511SOL     OW36994   3.327   3.461  15.695  0.1992  0.2983  0.0086
 8511SOL    HW136995   3.352   3.448  15.603  1.4099  1.9473  0.1079
 8511SOL    HW236996   3.279   3.542  15.679 -2.0386 -1.1025 -0.4601
 8512SOL     OW36997   2.089   1.345   0.554 -0.0090 -0.2838 -0.5817
 8512SOL    HW136998   2.116   1.414   0.615  1.4824 -0.8798 -0.5760
 8512SOL    HW236999   2.147   1.272   0.574  1.2944  0.5929 -1.2346
 8513SOL     OW37000   2.955   0.140  15.064  0.4296 -0.1779 -0.2292
 8513SOL    HW137001   3.026   0.156  15.002  0.7183 -0.8275 -0.0619
 8513SOL    HW237002   2.977   0.055  15.102 -0.2484 -0.7986 -1.2208
 8514SOL     OW37003   0.469   3.432   6.752  0.4007 -0.2630  0.6079
 8514SOL    HW137004   0.487   3.519   6.788  2.6280 -0.4313 -0.0904
 8514SOL    HW237005   0.411   3.453   6.678  2.0028 -0.1717 -0.6175
 8515SOL     OW37006   3.884   3.447  17.379 -0.2347  0.3529 -0.0981
 8515SOL    HW137007   3.837   3.510  17.324 -0.8732  1.8365  2.1378
 8515SOL    HW237008   3.852   3.469  17.466  1.2657  2.1248  0.0160
 8516SOL     OW37009   0.973   4.281   5.997  0.1430  0.2348 -0.1207
 8516SOL    HW137010   0.957   4.349   6.063 -0.6204 -0.0899  0.0289
 8516SOL    HW237011   0.918   4.309   5.924  1.3487 -0.1930 -1.1849
 8517SOL     OW37012   1.915   4.490   6.239  0.0753  0.0798  0.2815
 8517SOL    HW137013   1.945   4.433   6.168 -2.5684 -1.6096  0.5276
 8517SOL    HW237014   1.997   4.506   6.285  0.6614 -2.3526  0.0408
 8518SOL     OW37015   0.317   1.218   7.270  0.2336  0.7632 -0.0774
 8518SOL    HW137016   0.271   1.261   7.342  0.3006 -1.0513  1.0380
 8518SOL    HW237017   0.335   1.289   7.208  4.4655 -1.2672 -1.1710
 8519SOL     OW37018   0.149   3.732   4.374  0.3010 -0.3484  0.0891
 8519SOL    HW137019   0.061   3.765   4.388  0.4151  0.3587 -0.8849
 8519SOL    HW237020   0.189   3.731   4.461 -1.9734  1.2658  1.1395
 8520SOL     OW37021   3.427   1.261   3.853  0.1377  0.6753  0.2857
 8520SOL    HW137022   3.383   1.226   3.931 -2.7593 -1.7454 -2.4514
 8520SOL    HW237023   3.511   1.272   3.897 -0.2902  0.9559  1.0477
 8521SOL     OW37024   0.240   3.988   2.929 -0.0315 -0.2684 -0.0995
 8521SOL    HW137025   0.215   3.936   2.853 -3.3927  2.2944 -0.7535
 8521SOL    HW237026   0.211   4.077   2.908  0.0518  0.0546  1.1264
 8522SOL     OW37027   2.077   3.233  11.655 -0.5555 -0.1376 -0.1762
 8522SOL    HW137028   2.141   3.255  11.588  0.1337  4.0432  1.8804
 8522SOL    HW237029   2.131   3.231  11.735 -1.6604  1.1679  0.5913
 8523SOL     OW37030   2.258   4.315   2.232 -0.0314  0.2041 -0.3726
 8523SOL    HW137031   2.176   4.292   2.187 -0.0814 -0.4967  0.0887
 8523SOL    HW237032   2.294   4.227   2.241 -0.4365  0.2439  1.5189
 8524SOL     OW37033   1.549   2.970  14.591  0.7837  0.0488  0.4324
 8524SOL    HW137034   1.590   3.057  14.581  1.5523 -0.3400  0.1620
 8524SOL    HW237035   1.592   2.914  14.655  1.7323 -0.9081 -1.0344
 8525SOL     OW37036   1.935   3.253   3.173 -0.4699 -0.2456  0.0901
 8525SOL    HW137037   1.998   3.181   3.170  1.5490  1.4459  2.5777
 8525SOL    HW237038   1.872   3.238   3.102  0.1912 -0.4685 -0.4501
 8526SOL     OW37039   3.771   2.423   3.213  0.1618 -0.0615  0.5042
 8526SOL    HW137040   3.837   2.410   3.281  1.0964  2.0221 -0.0061
 8526SOL    HW237041   3.740   2.508   3.243 -3.3922 -2.3997  3.4899
 8527SOL     OW37042   2.517   0.028  13.047  0.1567 -0.1422  0.3396
 8527SOL    HW137043   2.505   0.072  12.963  2.9437  2.4962  1.3217
 8527SOL    HW237044   2.612   0.023  13.056  0.3111 -1.9480 -2.0216
 8528SOL     OW37045   0.634   3.480   3.996  0.1772  0.4628 -0.2953
 8528SOL    HW137046   0.573   3.516   4.060 -2.4026 -2.9139 -0.8685
 8528SOL    HW237047   0.656   3.393   4.029 -2.2687  0.2375  0.7263
 8529SOL     OW37048   2.181   2.105   6.094  0.3610  0.0785 -0.1997
 8529SOL    HW137049   2.150   2.193   6.072 -1.0464 -0.6235 -0.9956
 8529SOL    HW237050   2.229   2.118   6.176  1.2965 -0.8101 -0.6049
 8530SOL     OW37051   4.705   2.210   0.690 -0.0173  0.1672 -0.3970
 8530SOL    HW137052   4.692   2.123   0.653  0.9312 -0.1584  0.0477
 8530SOL    HW237053   4.668   2.186   0.775 -0.6655 -3.8729 -1.8445
 8531SOL     OW37054   2.577   3.489   5.566 -0.1764 -0.7538 -0.0932
 8531SOL    HW137055   2.512   3.558   5.581  0.0325 -0.3263 -1.1428
 8531SOL    HW237056   2.518   3.429   5.520  0.5179 -0.9469 -0.7193
 8532SOL     OW37057   4.348   0.632   9.530 -0.3620 -0.0238  0.2420
 8532SOL    HW137058   4.257   0.639   9.560  0.3456  0.7424  2.2349
 8532SOL    HW237059   4.361   0.537   9.536  1.5685  0.0540 -2.6127
 8533SOL     OW37060   1.558   2.430   3.790  0.5729  0.2407  0.0059
 8533SOL    HW137061   1.588   2.383   3.711 -0.3709 -1.0419  0.4164
 8533SOL    HW237062   1.642   2.473   3.809  0.6006  0.9793 -1.7339
 8534SOL     OW37063   4.562   3.570   9.363 -0.1020 -0.1035 -0.2138
 8534SOL    HW137064   4.603   3.653   9.337 -0.6419  0.3983  0.5137
 8534SOL    HW237065   4.576   3.568   9.458  0.1207  1.0525 -0.2188
 8535SOL     OW37066   3.261   4.479  14.555 -0.3756  0.7113  0.1789
 8535SOL    HW137067   3.345   4.487  14.510 -1.2849  1.7912 -1.3637
 8535SOL    HW237068   3.205   4.518  14.487 -2.1436 -1.7459  0.2113
 8536SOL     OW37069   2.482   0.459   2.471  0.0102  0.7458 -0.6873
 8536SOL    HW137070   2.483   0.437   2.378  0.7665 -1.2160 -0.2094
 8536SOL    HW237071   2.466   0.554   2.463 -2.5813  0.6910  3.4256
 8537SOL     OW37072   3.161   4.574  14.335 -0.4323 -0.1060  0.3221
 8537SOL    HW137073   3.069   4.560  14.313  0.3755  0.8437 -3.5913
 8537SOL    HW237074   3.191   4.629  14.263  1.3069 -1.9481 -0.3689
 8538SOL     OW37075   0.347   0.124   8.394  0.1584 -0.2877  0.0562
 8538SOL    HW137076   0.442   0.132   8.402  0.0249  3.0524 -1.8236
 8538SOL    HW237077   0.333   0.197   8.334 -1.3998  0.8070  1.7717
 8539SOL     OW37078   2.674   0.351   4.309 -0.1166 -0.1794  0.1083
 8539SOL    HW137079   2.753   0.352   4.363  1.3212  0.3664 -2.0106
 8539SOL    HW237080   2.710   0.361   4.221 -0.7462  2.6153  0.1513
 8540SOL     OW37081   1.492   0.245   3.365  0.4592  0.2171  0.0422
 8540SOL    HW137082   1.499   0.330   3.322  2.4494 -0.6576 -1.3951
 8540SOL    HW237083   1.413   0.218   3.319 -1.2692  0.7114  2.6748
 8541SOL     OW37084   0.771   2.478   8.282 -0.5036  0.4033  0.1295
 8541SOL    HW137085   0.692   2.450   8.236  0.4520  0.6585 -1.6326
 8541SOL    HW237086   0.735   2.554   8.329 -0.4365  1.3862 -1.4017
 8542SOL     OW37087   3.476   0.593   6.277  0.2567 -0.0044  0.0338
 8542SOL    HW137088   3.393   0.551   6.298  0.0076  0.9300  0.9858
 8542SOL    HW237089   3.527   0.581   6.357  0.9678 -0.4895 -0.4991
 8543SOL     OW37090   4.324   3.882   8.380 -0.0133 -0.4007 -0.1474
 8543SOL    HW137091   4.333   3.808   8.320 -1.9260 -0.0370 -0.8733
 8543SOL    HW237092   4.292   3.947   8.318  0.9733 -1.6605 -1.9958
 8544SOL     OW37093   3.464   0.629   6.745  0.1239  0.0475  0.5188
 8544SOL    HW137094   3.408   0.627   6.822 -0.8598 -0.7922 -0.2220
 8544SOL    HW237095   3.473   0.724   6.733 -1.1724  0.3900  2.3251
 8545SOL     OW37096   1.245   0.553   6.806  0.0196 -0.1148 -0.4524
 8545SOL    HW137097   1.332   0.513   6.810 -1.0364 -2.3133  0.7580
 8545SOL    HW237098   1.189   0.489   6.762 -0.3841 -0.6689  0.8551
 8546SOL     OW37099   3.644   4.085  14.299 -0.2396 -0.2697 -0.4769
 8546SOL    HW137100   3.627   4.165  14.349 -1.7572 -1.6801  1.2700
 8546SOL    HW237101   3.728   4.109  14.259  0.7873 -1.3864  1.0043
 8547SOL     OW37102   4.519   1.137   9.670 -0.3326  0.2576  0.7219
 8547SOL    HW137103   4.443   1.181   9.710  0.0293 -0.3931  2.1471
 8547SOL    HW237104   4.480   1.049   9.677 -0.7224  0.5457  2.2757
 8548SOL     OW37105   2.589   3.602   4.074 -0.2156 -0.4670 -0.2268
 8548SOL    HW137106   2.641   3.678   4.100 -1.8888  0.1633  1.2516
 8548SOL    HW237107   2.598   3.598   3.979 -2.5680 -0.3286 -0.4499
 8549SOL     OW37108   4.538   2.013   2.074  0.6609  0.3931 -0.2660
 8549SOL    HW137109   4.566   1.922   2.066  2.1670  0.6856  1.6545
 8549SOL    HW237110   4.493   2.023   1.990 -1.5249 -0.1644  0.8362
 8550SOL     OW37111   2.121   4.410   4.664 -0.2360 -0.0842  0.2392
 8550SOL    HW137112   2.116   4.495   4.620  1.2315 -0.4158 -0.5739
 8550SOL    HW237113   2.088   4.351   4.596  2.8150 -0.6910 -0.7432
 8551SOL     OW37114   4.475   1.773   1.205 -0.6399  0.2920 -0.4561
 8551SOL    HW137115   4.562   1.795   1.237  0.9471 -3.8407 -1.9824
 8551SOL    HW237116   4.481   1.788   1.110 -0.0438  4.3893  0.1951
 8552SOL     OW37117   2.381   1.093   8.167  0.3023  0.7924 -0.0978
 8552SOL    HW137118   2.385   1.187   8.184 -2.8745  0.8357  0.3952
 8552SOL    HW237119   2.337   1.095   8.082  1.8807  1.0782 -0.9080
 8553SOL     OW37120   3.438   2.694   3.286 -0.5610 -0.1762 -0.3747
 8553SOL    HW137121   3.489   2.759   3.238  0.0078 -0.1995  0.1891
 8553SOL    HW237122   3.353   2.735   3.297  0.4794  1.8764  0.0210
 8554SOL     OW37123   3.269   1.715  14.924 -0.0469 -0.1954 -0.3228
 8554SOL    HW137124   3.363   1.733  14.921  0.1292 -1.2251 -0.8242
 8554SOL    HW237125   3.241   1.803  14.950 -1.5767 -0.2970 -1.6312
 8555SOL     OW37126   0.526   1.853  14.191 -0.2491  0.0482 -0.3277
 8555SOL    HW137127   0.538   1.915  14.119  0.6349  0.9468  0.5984
 8555SOL    HW237128   0.566   1.788  14.132 -1.0641 -2.4833  1.9148
 8556SOL     OW37129   0.834   3.472  17.645 -0.4409  0.3352  0.1360
 8556SOL    HW137130   0.890   3.488   0.014  3.1217  0.0425 -2.3963
 8556SOL    HW237131   0.794   3.559  17.651 -1.0711  0.0368  0.2572
 8557SOL     OW37132   3.011   3.888   6.556 -0.7863  0.4258 -0.8039
 8557SOL    HW137133   2.930   3.843   6.532 -0.1664 -0.4491 -1.2379
 8557SOL    HW237134   3.014   3.893   6.651  0.5684 -0.5674 -0.8000
 8558SOL     OW37135   3.849   2.050   4.198  0.3013  0.6107 -0.0767
 8558SOL    HW137136   3.920   2.080   4.255 -0.8429  0.7151  1.3006
 8558SOL    HW237137   3.842   2.122   4.136 -1.7056  0.4754 -0.0110
 8559SOL     OW37138   0.156   3.098   4.348  0.2862 -0.2234  0.2580
 8559SOL    HW137139   0.070   3.067   4.377 -0.1621 -0.5047 -1.3849
 8559SOL    HW237140   0.138   3.111   4.254  0.0478  0.8264  0.4461
 8560SOL     OW37141   1.737   3.053   6.313 -0.2642 -0.4057 -0.0540
 8560SOL    HW137142   1.816   3.009   6.344 -0.5693  0.1460  1.4915
 8560SOL    HW237143   1.727   2.993   6.239 -0.6252 -0.9192  0.4090
 8561SOL     OW37144   0.475   2.872   0.840 -0.5078 -0.0277 -0.3327
 8561SOL    HW137145   0.461   2.966   0.854 -1.0791 -0.0468 -0.7505
 8561SOL    HW237146   0.502   2.835   0.924  0.3268  0.6291 -0.3171
 8562SOL     OW37147   4.245   0.194   7.373  0.9133  0.1799  0.0896
 8562SOL    HW137148   4.306   0.159   7.308  0.0886 -0.3430 -0.3942
 8562SOL    HW237149   4.190   0.257   7.326  0.5725  1.0661  1.6832
 8563SOL     OW37150   1.233   0.300  12.988  0.6953  0.0670  0.5198
 8563SOL    HW137151   1.302   0.238  13.014 -0.0692 -1.4671 -1.0606
 8563SOL    HW237152   1.153   0.258  13.019  0.2451 -0.4809 -1.3588
 8564SOL     OW37153   0.522   2.962   4.309 -0.1526 -0.3583 -0.6047
 8564SOL    HW137154   0.527   3.049   4.349  2.2725 -0.8456  0.1294
 8564SOL    HW237155   0.551   2.906   4.381  2.6930  1.1823 -0.5813
 8565SOL     OW37156   0.655   0.960   3.002  0.0816  0.2274 -0.0641
 8565SOL    HW137157   0.746   0.972   2.976  0.5338 -0.0433  1.4078
 8565SOL    HW237158   0.622   1.040   2.962 -1.1317 -0.1864  0.1123
 8566SOL     OW37159   2.121   2.662  13.058 -0.0161 -0.4015  0.4561
 8566SOL    HW137160   2.176   2.648  13.135  0.3210  1.5227  0.5565
 8566SOL    HW237161   2.032   2.646  13.091 -0.6283 -0.8734 -1.4396
 8567SOL     OW37162   4.440   1.842   3.623  0.2713  0.8697 -0.5774
 8567SOL    HW137163   4.393   1.797   3.693 -1.1787  2.1994 -0.6927
 8567SOL    HW237164   4.368   1.864   3.565  1.2301 -0.3946 -2.2242
 8568SOL     OW37165   1.655   2.922  14.295 -1.0742 -0.1607  0.3358
 8568SOL    HW137166   1.639   3.015  14.277 -1.0859  0.3814  3.1902
 8568SOL    HW237167   1.751   2.923  14.287 -0.9915 -4.0378  1.0348
 8569SOL     OW37168   1.927   0.245   7.749 -0.1160  0.4753  0.1420
 8569SOL    HW137169   1.997   0.192   7.786  0.8496  1.6834  0.0580
 8569SOL    HW237170   1.876   0.261   7.828 -2.0548  0.2322 -1.0574
 8570SOL     OW37171   1.291   0.777  16.691 -0.2878  0.2187 -0.1622
 8570SOL    HW137172   1.347   0.784  16.768 -1.2859 -2.7566  0.8294
 8570SOL    HW237173   1.358   0.794  16.625 -2.3412 -0.8339 -2.4969
 8571SOL     OW37174   2.343   0.744   2.195  0.5131  0.4956 -0.2664
 8571SOL    HW137175   2.311   0.777   2.111 -0.5565 -0.3190 -0.1837
 8571SOL    HW237176   2.290   0.665   2.206 -1.0769  2.0686  3.3549
 8572SOL     OW37177   2.002   3.594   0.861 -0.1567  0.2260  0.0349
 8572SOL    HW137178   1.918   3.621   0.898 -0.8983 -2.8332  0.5718
 8572SOL    HW237179   2.063   3.646   0.914 -0.3788 -0.4736  0.9787
 8573SOL     OW37180   0.509   1.689   7.998  0.3932 -0.1600 -0.0895
 8573SOL    HW137181   0.566   1.613   7.985  0.1869 -0.5301  1.1249
 8573SOL    HW237182   0.553   1.732   8.071  2.2565 -2.7445  0.3135
 8574SOL     OW37183   0.277   0.207   3.744  0.2105  0.1493  0.0518
 8574SOL    HW137184   0.296   0.222   3.837 -0.9681  1.7519  0.0303
 8574SOL    HW237185   0.286   0.296   3.712 -0.6199  0.3150  0.2866
 8575SOL     OW37186   1.677   0.411   1.085  0.3783 -0.0880  0.6573
 8575SOL    HW137187   1.696   0.419   1.179 -0.8501  1.5256  0.7833
 8575SOL    HW237188   1.728   0.486   1.055  1.5290 -0.5019  1.6003
 8576SOL     OW37189   3.071   2.616   5.795  0.0326  0.3318 -0.3270
 8576SOL    HW137190   3.112   2.534   5.824 -1.1315  0.3354  1.3169
 8576SOL    HW237191   3.059   2.601   5.701 -0.4085 -0.6214 -0.1194
 8577SOL     OW37192   1.644   2.226   8.176  0.7302  0.4509 -0.0711
 8577SOL    HW137193   1.630   2.251   8.084 -2.0192  1.1253  0.5251
 8577SOL    HW237194   1.573   2.280   8.212  0.7113  1.3425 -1.4444
 8578SOL     OW37195   1.914   2.297   8.625 -0.0952 -0.5189  0.3517
 8578SOL    HW137196   1.952   2.365   8.569  0.6530 -2.4602 -1.5330
 8578SOL    HW237197   1.831   2.333   8.655 -0.1512  0.6451 -1.1954
 8579SOL     OW37198   2.892   2.702  15.408 -0.0565  0.5996  0.4386
 8579SOL    HW137199   2.876   2.737  15.320  0.7891  0.5390  0.2593
 8579SOL    HW237200   2.908   2.788  15.447 -1.7704  0.4255  1.4862
 8580SOL     OW37201   3.257   1.672   4.554  0.4893  0.2990 -0.1762
 8580SOL    HW137202   3.236   1.707   4.640 -2.1003 -1.7078  0.0276
 8580SOL    HW237203   3.253   1.750   4.499 -0.0020 -0.6082 -1.4420
 8581SOL     OW37204   2.987   4.169   0.279 -0.4342 -0.2480 -0.0424
 8581SOL    HW137205   3.026   4.082   0.274 -0.9867 -0.4354 -1.2196
 8581SOL    HW237206   3.064   4.223   0.262 -2.6455  2.5663 -1.2707
 8582SOL     OW37207   3.536   3.038   6.789  0.3884 -0.3151  0.7488
 8582SOL    HW137208   3.503   2.972   6.729  2.3340 -0.3403 -0.2891
 8582SOL    HW237209   3.459   3.088   6.818  1.7726  1.5714  1.2057
 8583SOL     OW37210   0.393   4.222   7.025 -0.2749 -0.4897 -0.6351
 8583SOL    HW137211   0.395   4.252   7.116 -0.6933  0.6920 -1.0208
 8583SOL    HW237212   0.458   4.151   7.027  1.8057  1.4185  0.2439
 8584SOL     OW37213   1.893   3.209   3.747 -0.1524 -0.2170 -0.3907
 8584SOL    HW137214   1.872   3.302   3.744 -1.1914 -0.5036 -1.9320
 8584SOL    HW237215   1.849   3.167   3.673  0.5024  0.7334 -1.3136
 8585SOL     OW37216   0.638   3.047   3.360 -0.5029  0.3774  0.0095
 8585SOL    HW137217   0.712   3.015   3.412 -2.8056  0.4169  3.2849
 8585SOL    HW237218   0.681   3.126   3.325  0.6414 -1.9846 -3.9675
 8586SOL     OW37219   1.778   4.056  15.788  0.1217 -0.0964  0.1963
 8586SOL    HW137220   1.786   4.134  15.844 -0.8104 -0.2977  0.6097
 8586SOL    HW237221   1.688   4.075  15.763  0.7289  2.4145 -0.1039
 8587SOL     OW37222   1.124   1.746   3.218  0.2726 -0.0620 -0.0137
 8587SOL    HW137223   1.176   1.705   3.149  3.0718  0.1912  1.9686
 8587SOL    HW237224   1.167   1.831   3.229  0.4219  0.0975 -1.8601
 8588SOL     OW37225   2.235   4.539  13.699 -0.0599  0.3026 -0.4489
 8588SOL    HW137226   2.145   4.564  13.680 -0.0416  1.9751  1.7932
 8588SOL    HW237227   2.261   4.516  13.609 -0.2974 -0.5195 -0.3139
 8589SOL     OW37228   1.892   3.434   6.573  0.0374 -0.0765  0.5147
 8589SOL    HW137229   1.927   3.499   6.635 -1.5823 -1.5434  2.9603
 8589SOL    HW237230   1.826   3.489   6.531  0.4524 -1.5519 -2.0528
 8590SOL     OW37231   3.716   2.668   3.992  0.0709 -0.0637 -0.1656
 8590SOL    HW137232   3.624   2.641   3.991  0.0495  0.0524 -1.1078
 8590SOL    HW237233   3.709   2.752   3.946 -1.9819  0.8981  1.8958
 8591SOL     OW37234   0.665   4.659   5.385  0.2383  0.3193  0.4414
 8591SOL    HW137235   0.686   4.611   5.304 -2.7373 -0.7096  0.2780
 8591SOL    HW237236   0.596   4.721   5.362 -1.5572 -0.7785  2.8702
 8592SOL     OW37237   3.206   1.532  10.049  0.6442  0.0358  0.3830
 8592SOL    HW137238   3.269   1.467  10.018  1.1036  1.0164 -0.7462
 8592SOL    HW237239   3.187   1.579   9.968 -0.0828 -1.0048 -0.0439
 8593SOL     OW37240   3.750   1.863  13.113 -0.3120  0.0768  0.0368
 8593SOL    HW137241   3.787   1.790  13.063 -0.9356 -0.9574  1.0773
 8593SOL    HW237242   3.801   1.930  13.068  0.7382  2.2089  4.4751
 8594SOL     OW37243   3.283   4.557  10.204 -0.6774  0.0118  0.2628
 8594SOL    HW137244   3.286   4.466  10.175  0.4756  0.1022  0.1120
 8594SOL    HW237245   3.206   4.552  10.260 -1.9647 -0.1119 -1.4815
 8595SOL     OW37246   3.666   0.723  12.392 -0.3186  0.2125 -0.6549
 8595SOL    HW137247   3.719   0.803  12.387 -2.0411  1.2575 -2.2254
 8595SOL    HW237248   3.703   0.680  12.469 -2.2728 -2.0441 -0.9961
 8596SOL     OW37249   1.503   4.659   3.529 -0.5281 -0.0474 -0.1895
 8596SOL    HW137250   1.543   4.632   3.447  1.2082  0.5223  0.4654
 8596SOL    HW237251   1.413   4.666   3.498 -0.1750  1.5643 -0.8384
 8597SOL     OW37252   2.830   0.527   6.424 -0.1119  0.4836 -0.1811
 8597SOL    HW137253   2.916   0.483   6.421 -1.1054 -1.5617  1.1306
 8597SOL    HW237254   2.806   0.536   6.332  3.2098 -1.0436 -1.2081
 8598SOL     OW37255   4.608   4.550   3.573 -0.6119 -0.3118  0.1035
 8598SOL    HW137256   4.638   4.634   3.608 -3.0083  0.6092 -0.1011
 8598SOL    HW237257   4.560   4.570   3.493 -1.6638 -1.4809  0.4362
 8599SOL     OW37258   1.465   4.259   9.314  0.3880 -0.5462  0.0375
 8599SOL    HW137259   1.488   4.352   9.318 -2.0308  0.1410 -1.2999
 8599SOL    HW237260   1.550   4.219   9.330  0.0100 -2.1403 -2.0669
 8600SOL     OW37261   3.550   0.909   5.824 -0.1133 -0.0475  0.2598
 8600SOL    HW137262   3.633   0.949   5.851  1.4421 -3.1043 -0.0952
 8600SOL    HW237263   3.528   0.871   5.908  2.1378  1.9651  1.7550
 8601SOL     OW37264   0.984   0.255   0.419  0.3646  0.4113 -0.2756
 8601SOL    HW137265   0.976   0.203   0.499 -0.3439  0.0245 -0.5999
 8601SOL    HW237266   0.901   0.245   0.372  0.4245 -1.9535  0.1457
 8602SOL     OW37267   0.204   1.264   6.613  0.2392 -0.8096  0.4102
 8602SOL    HW137268   0.240   1.286   6.527 -2.2119 -1.2140 -0.7020
 8602SOL    HW237269   0.287   1.279   6.660 -0.9057  1.0246  1.8374
 8603SOL     OW37270   0.705   1.016  11.258  0.3985  0.7807  0.1973
 8603SOL    HW137271   0.759   1.064  11.196  0.9183  1.4304  1.1500
 8603SOL    HW237272   0.770   1.003  11.327  0.7674  0.0372 -0.2900
 8604SOL     OW37273   4.307   2.199   3.670  0.1932 -0.0380  0.1203
 8604SOL    HW137274   4.254   2.123   3.645  0.9288 -0.5048 -0.0322
 8604SOL    HW237275   4.303   2.252   3.590 -1.4706 -0.5586 -0.1318
 8605SOL     OW37276   2.478   1.122   9.893 -0.1786 -0.3726  0.2489
 8605SOL    HW137277   2.388   1.134   9.924 -0.8261 -3.7714 -0.3195
 8605SOL    HW237278   2.513   1.197   9.941  1.1185 -0.6887 -0.1975
 8606SOL     OW37279   2.984   1.596   3.563  0.8520 -0.1415  0.0949
 8606SOL    HW137280   2.995   1.505   3.535 -1.7728 -0.3776 -0.1894
 8606SOL    HW237281   2.950   1.593   3.652  0.9717 -0.0500  0.1431
 8607SOL     OW37282   0.217   1.392   4.749  0.0733  0.1231  0.7362
 8607SOL    HW137283   0.224   1.363   4.658 -2.0228  0.4180  0.4959
 8607SOL    HW237284   0.124   1.385   4.768  0.0113 -3.3436 -0.8820
 8608SOL     OW37285   4.115   0.307   4.361 -0.2926 -0.4272 -0.1223
 8608SOL    HW137286   4.138   0.217   4.383 -0.0679  0.1729  2.0677
 8608SOL    HW237287   4.194   0.348   4.398 -1.8510 -0.0205  2.7347
 8609SOL     OW37288   2.965   0.308  13.824  0.2820 -0.2748 -0.1711
 8609SOL    HW137289   2.968   0.293  13.729  3.2118  0.8582 -0.2718
 8609SOL    HW237290   3.055   0.282  13.847  0.5447 -0.7936 -1.7705
 8610SOL     OW37291   0.040   2.101  16.688  0.3280 -0.1196 -0.4320
 8610SOL    HW137292   0.121   2.102  16.637  0.0015  0.9329 -0.9186
 8610SOL    HW237293   4.711   2.158  16.635  2.0542 -0.7326 -2.9331
 8611SOL     OW37294   2.455   1.080   4.505 -0.0281 -0.2415  0.4323
 8611SOL    HW137295   2.461   1.061   4.411 -0.2164 -1.3157  0.6340
 8611SOL    HW237296   2.433   1.172   4.517 -0.8666 -1.0210  4.6444
 8612SOL     OW37297   3.271   3.233   4.802  0.3877  0.4764 -0.4266
 8612SOL    HW137298   3.298   3.152   4.759 -1.1253 -0.3739  0.2397
 8612SOL    HW237299   3.346   3.292   4.795  1.5508 -1.0157 -0.5737
 8613SOL     OW37300   3.462   0.582   4.938  0.2685 -0.3883 -0.0326
 8613SOL    HW137301   3.440   0.654   4.880  2.3456  1.0207  0.9439
 8613SOL    HW237302   3.491   0.515   4.876  2.6760  2.4705 -1.9633
 8614SOL     OW37303   4.356   1.120   5.518  0.5840 -0.0398 -0.4621
 8614SOL    HW137304   4.331   1.169   5.597  2.0968 -0.0935  0.0527
 8614SOL    HW237305   4.427   1.063   5.546  2.7453  3.3866  1.0045
 8615SOL     OW37306   1.374   0.978   7.379 -0.2890  0.0864 -0.4358
 8615SOL    HW137307   1.318   0.906   7.409  0.2687  1.1714  3.2731
 8615SOL    HW237308   1.448   0.959   7.437 -1.1088 -1.0433  0.2462
 8616SOL     OW37309   1.323   1.553   8.026  0.4543  0.4077 -0.4718
 8616SOL    HW137310   1.378   1.557   7.948 -1.1360  1.1365 -1.5596
 8616SOL    HW237311   1.254   1.498   7.988  0.0240  0.5469  0.0921
 8617SOL     OW37312   0.501   4.009   8.177  0.2346 -0.3527 -0.3720
 8617SOL    HW137313   0.566   3.999   8.246  0.0063  1.5912  0.1157
 8617SOL    HW237314   0.459   4.093   8.193 -0.6084 -1.1552  1.6998
 8618SOL     OW37315   0.413   2.629   5.685  0.0872 -0.2946  0.3892
 8618SOL    HW137316   0.425   2.621   5.590  0.2994 -0.6384  0.4486
 8618SOL    HW237317   0.502   2.611   5.714  0.2211  1.0791  0.8517
 8619SOL     OW37318   2.240   2.488  17.111 -0.1489 -0.1438 -0.1880
 8619SOL    HW137319   2.332   2.509  17.092 -0.0561  0.5081  1.0167
 8619SOL    HW237320   2.230   2.400  17.073  1.2694 -0.1791 -0.4763
 8620SOL     OW37321   0.830   1.109   1.441  0.0895  0.3053  0.0744
 8620SOL    HW137322   0.791   1.126   1.527  1.1530 -1.8597  0.9802
 8620SOL    HW237323   0.902   1.049   1.459 -0.7705 -0.2652  1.6448
 8621SOL     OW37324   2.126   2.560   1.722  0.4474  0.4727  1.1802
 8621SOL    HW137325   2.129   2.500   1.647  2.0578  1.4969  0.4210
 8621SOL    HW237326   2.202   2.533   1.772  0.0710 -1.0969  0.8949
 8622SOL     OW37327   0.083   3.040   7.899  0.1253 -0.2918  0.2212
 8622SOL    HW137328   4.724   3.081   7.887 -0.1504 -0.9316 -0.0080
 8622SOL    HW237329   0.128   3.116   7.937  0.1733 -1.0266  1.6277
 8623SOL     OW37330   0.954   2.411   6.048 -0.2015 -0.3693 -0.1532
 8623SOL    HW137331   1.036   2.449   6.018 -0.5109 -0.6782 -1.4182
 8623SOL    HW237332   0.954   2.455   6.133 -2.3206  0.7609 -0.7318
 8624SOL     OW37333   2.428   1.219   5.934  0.6697 -0.2770  0.4444
 8624SOL    HW137334   2.465   1.272   6.004  2.7317  0.4078 -1.1620
 8624SOL    HW237335   2.383   1.282   5.879 -0.0858 -1.7609 -0.6427
 8625SOL     OW37336   4.446   1.999   1.813 -0.3439 -0.1386  0.2502
 8625SOL    HW137337   4.532   1.985   1.774 -1.3849 -0.6846 -1.8375
 8625SOL    HW237338   4.404   1.919   1.782 -0.2430  1.1802 -3.2548
 8626SOL     OW37339   3.906   3.839   2.474 -0.3475 -0.6201  0.3946
 8626SOL    HW137340   3.848   3.837   2.398  1.2990  2.8090 -0.9345
 8626SOL    HW237341   3.860   3.772   2.526 -1.5555  0.2325  0.4269
 8627SOL     OW37342   0.213   3.423  11.602  0.5665 -0.4795 -0.1147
 8627SOL    HW137343   0.132   3.412  11.552  0.1871  2.3932 -0.1403
 8627SOL    HW237344   0.273   3.444  11.531  0.8636 -0.8440  0.0274
 8628SOL     OW37345   1.392   3.776   4.850 -0.3753 -0.2152  0.8630
 8628SOL    HW137346   1.369   3.815   4.934 -0.1280  3.1962 -0.6535
 8628SOL    HW237347   1.326   3.707   4.848  0.8410 -1.3452 -0.6486
 8629SOL     OW37348   1.769   3.784  13.772 -0.0280  0.6059  0.0302
 8629SOL    HW137349   1.811   3.865  13.804 -1.8364  0.9571  1.5459
 8629SOL    HW237350   1.704   3.827  13.717 -1.1333  0.4664  1.2171
 8630SOL     OW37351   3.329   2.813   4.109 -0.0829 -0.0688  0.1258
 8630SOL    HW137352   3.368   2.734   4.072 -0.7004  0.2384 -1.1936
 8630SOL    HW237353   3.285   2.788   4.190  2.1278 -0.4414  1.2014
 8631SOL     OW37354   1.809   1.771  10.967  0.3509  0.4480  0.1809
 8631SOL    HW137355   1.745   1.744  11.033 -3.2840  3.5436 -2.0940
 8631SOL    HW237356   1.888   1.730  11.002 -1.3923 -3.8834 -0.9629
 8632SOL     OW37357   4.015   1.616   4.606 -0.3644  0.2096 -0.3075
 8632SOL    HW137358   4.050   1.622   4.517 -0.2644 -4.0616 -0.5941
 8632SOL    HW237359   3.922   1.628   4.590 -0.5610  0.0717  0.7448
 8633SOL     OW37360   3.528   2.881  16.380 -0.0568 -0.1102 -0.5291
 8633SOL    HW137361   3.540   2.922  16.466  2.4500 -1.4814 -0.2344
 8633SOL    HW237362   3.444   2.917  16.352  0.6622  0.6218 -1.7241
 8634SOL     OW37363   2.759   1.157   2.190  0.9929  0.2429  0.5528
 8634SOL    HW137364   2.770   1.181   2.282 -2.1568  1.6062  0.5474
 8634SOL    HW237365   2.809   1.232   2.156  0.4566  0.3612  0.0356
 8635SOL     OW37366   0.510   0.738   0.216  0.0013  0.6032 -0.4005
 8635SOL    HW137367   0.427   0.768   0.253 -0.4197 -0.8922 -0.1337
 8635SOL    HW237368   0.503   0.759   0.123 -2.0339  0.2240 -0.3358
 8636SOL     OW37369   3.025   1.037   7.434  0.1429 -0.1519 -0.9073
 8636SOL    HW137370   3.044   0.973   7.365  0.2981 -1.1733  0.0914
 8636SOL    HW237371   3.044   1.125   7.400  3.1051  0.6546  2.9017
 8637SOL     OW37372   3.436   2.156  13.139 -0.4209  0.0117 -0.0700
 8637SOL    HW137373   3.393   2.203  13.067 -1.2665  0.7432  0.9127
 8637SOL    HW237374   3.450   2.079  13.084 -0.6362 -0.8352  1.0591
 8638SOL     OW37375   3.004   1.046   1.794 -0.1952 -0.0782  0.3023
 8638SOL    HW137376   3.054   1.070   1.872 -0.4814  1.2616  0.0672
 8638SOL    HW237377   2.918   1.039   1.834 -0.1657 -1.4986  0.1344
 8639SOL     OW37378   4.368   2.418   3.863 -0.0747  0.0032  0.3623
 8639SOL    HW137379   4.451   2.467   3.858 -0.8311  0.9047 -2.7932
 8639SOL    HW237380   4.384   2.351   3.797  2.6857  2.0657 -1.1091
 8640SOL     OW37381   4.491   3.032   8.995 -0.1293  0.7833 -0.2843
 8640SOL    HW137382   4.458   2.947   9.025  0.6791  1.2124  1.8424
 8640SOL    HW237383   4.453   3.085   9.065 -0.0701 -1.4369  1.4592
 8641SOL     OW37384   3.859   3.662   1.153 -0.1229  0.3420 -0.3984
 8641SOL    HW137385   3.936   3.717   1.133  1.7316 -1.6547  1.2695
 8641SOL    HW237386   3.800   3.729   1.188  0.7065  2.4768 -3.0179
 8642SOL     OW37387   1.887   3.313   6.314  0.5595  0.1893  0.0999
 8642SOL    HW137388   1.890   3.354   6.401 -1.6058 -1.7426  1.0669
 8642SOL    HW237389   1.834   3.234   6.318  1.2762 -0.4333 -2.9007
 8643SOL     OW37390   0.909   4.412   8.201 -0.3035  0.0467 -0.3247
 8643SOL    HW137391   0.959   4.351   8.254  1.9783  1.4397 -0.8741
 8643SOL    HW237392   0.978   4.448   8.145  2.4192 -1.3796  2.1178
 8644SOL     OW37393   1.892   3.471  14.963 -0.2667 -0.0877  0.2551
 8644SOL    HW137394   1.920   3.385  14.994  3.1714  1.2726  0.9983
 8644SOL    HW237395   1.833   3.447  14.891  0.7212  2.2642 -1.3456
 8645SOL     OW37396   2.500   2.583  17.064 -0.8376 -0.5511  0.2088
 8645SOL    HW137397   2.578   2.528  17.062  0.3254  1.0921  0.2469
 8645SOL    HW237398   2.509   2.633  17.145  3.3141 -0.8033 -0.1046
 8646SOL     OW37399   1.641   4.670   6.511  0.0635 -0.3692 -0.6086
 8646SOL    HW137400   1.586   4.680   6.589  1.0466  0.6483 -0.0482
 8646SOL    HW237401   1.586   4.709   6.443 -1.0320  0.8516  0.9767
 8647SOL     OW37402   1.285   3.217  10.915  0.0309 -0.2389  0.0113
 8647SOL    HW137403   1.329   3.287  10.964 -0.2692 -2.1348  2.9859
 8647SOL    HW237404   1.262   3.259  10.832 -1.9203  0.9811  1.1664
 8648SOL     OW37405   0.973   1.778   2.534  0.1342 -0.4151  0.3542
 8648SOL    HW137406   0.901   1.716   2.541  0.0429 -0.2332  1.0568
 8648SOL    HW237407   1.037   1.732   2.588 -0.0457 -0.8499  0.1929
 8649SOL     OW37408   2.478   3.010   3.383 -0.4998  0.2967  0.0511
 8649SOL    HW137409   2.404   2.983   3.439  1.2389  0.0346  2.2393
 8649SOL    HW237410   2.503   2.926   3.345 -1.8316 -0.8114  1.5896
 8650SOL     OW37411   4.388   0.378   8.902 -0.5543  0.8872  0.5718
 8650SOL    HW137412   4.422   0.324   8.973  0.7991 -0.2718 -0.9913
 8650SOL    HW237413   4.365   0.458   8.951  1.4352  1.4354  0.5871
 8651SOL     OW37414   1.632   2.395   7.615 -0.3535  0.0664  0.0068
 8651SOL    HW137415   1.566   2.381   7.683 -0.5033  1.7448  0.2244
 8651SOL    HW237416   1.699   2.429   7.674  2.1731 -2.6472 -1.3488
 8652SOL     OW37417   4.138   0.469   7.883  0.1755 -0.3562  0.0480
 8652SOL    HW137418   4.062   0.523   7.903 -0.3257 -0.0258 -2.8334
 8652SOL    HW237419   4.152   0.481   7.789  1.0561  0.7832  0.3244
 8653SOL     OW37420   2.159   3.188   3.850  0.2785  0.2318 -0.0367
 8653SOL    HW137421   2.076   3.157   3.815  0.8545  0.2986 -1.4876
 8653SOL    HW237422   2.164   3.275   3.811  2.8212  0.5363  0.9447
 8654SOL     OW37423   4.140   1.117  12.001  0.8001  1.2110 -0.6882
 8654SOL    HW137424   4.228   1.081  12.014  0.4645 -0.2312 -2.5540
 8654SOL    HW237425   4.090   1.051  11.953  1.1302 -0.7836  1.6982
 8655SOL     OW37426   4.497   3.936  14.416  0.0157  0.1039  0.5130
 8655SOL    HW137427   4.473   4.009  14.359 -1.2698 -0.2268  0.6155
 8655SOL    HW237428   4.557   3.897  14.354  1.0769  2.5390 -0.0007
 8656SOL     OW37429   1.294   0.114   5.687  0.0621  0.3864  0.7053
 8656SOL    HW137430   1.199   0.115   5.683 -0.0274  0.3811  3.1756
 8656SOL    HW237431   1.316   0.078   5.601  1.0620 -1.0314  1.5494
 8657SOL     OW37432   1.842   4.064   4.032  0.0448  0.7328 -0.5385
 8657SOL    HW137433   1.862   4.129   3.965 -1.9380  0.3669 -1.5006
 8657SOL    HW237434   1.926   4.035   4.067 -0.6852 -1.1986 -0.3462
 8658SOL     OW37435   1.602   4.446   9.176  0.3908 -0.5495 -0.4841
 8658SOL    HW137436   1.695   4.446   9.198 -0.0877 -0.6163  1.5450
 8658SOL    HW237437   1.589   4.496   9.095  0.3574  0.5841  0.2196
 8659SOL     OW37438   3.637   3.827  10.846 -0.9384 -0.4644  0.2200
 8659SOL    HW137439   3.730   3.822  10.867 -0.7736  1.7217  0.0074
 8659SOL    HW237440   3.632   3.923  10.841 -0.1504 -0.3680  1.3548
 8660SOL     OW37441   1.709   1.446   8.384 -0.1401  0.5324  0.7684
 8660SOL    HW137442   1.755   1.383   8.439 -0.0442  0.3713  0.5060
 8660SOL    HW237443   1.671   1.512   8.442  0.2278 -0.9156  2.6347
 8661SOL     OW37444   2.573   3.394  14.533 -0.0357  0.1019 -0.0487
 8661SOL    HW137445   2.495   3.439  14.500 -1.0062 -1.4567  0.1567
 8661SOL    HW237446   2.541   3.377  14.621 -0.3361  0.4748 -0.0867
 8662SOL     OW37447   2.718   3.348  17.547 -0.0269  0.2823 -0.7555
 8662SOL    HW137448   2.777   3.332  17.621  0.2687 -0.0089 -1.0538
 8662SOL    HW237449   2.693   3.257  17.526  2.0831 -0.8189  1.5108
 8663SOL     OW37450   0.796   3.754   6.402 -0.5285  0.5613  0.0427
 8663SOL    HW137451   0.702   3.773   6.395 -0.7030 -0.7242 -1.1271
 8663SOL    HW237452   0.837   3.828   6.358  3.1665 -1.8428 -0.5489
 8664SOL     OW37453   0.916   0.749   1.652  0.0684 -0.2906  0.0762
 8664SOL    HW137454   0.837   0.789   1.688  1.0189 -0.6788  2.5801
 8664SOL    HW237455   0.940   0.814   1.587  1.1024  0.2222  0.9714
 8665SOL     OW37456   4.522   0.716   3.404 -0.2230  0.0106  0.5285
 8665SOL    HW137457   4.475   0.675   3.477  1.5006 -2.6201  0.1256
 8665SOL    HW237458   4.546   0.801   3.441  1.3794 -0.4849  0.5952
 8666SOL     OW37459   2.152   1.546  14.350 -0.6079 -0.1738  0.7143
 8666SOL    HW137460   2.089   1.618  14.349  0.4093  0.7256  0.2957
 8666SOL    HW237461   2.096   1.469  14.349 -2.2389  1.0346 -1.1585
 8667SOL     OW37462   0.944   4.081   6.778 -0.1101  0.3520 -0.0781
 8667SOL    HW137463   0.964   4.059   6.869 -0.4890  1.0300  0.1682
 8667SOL    HW237464   1.001   4.156   6.763  0.3326  0.2455  1.0219
 8668SOL     OW37465   3.062   0.404   6.441  0.7304 -0.1782 -0.1667
 8668SOL    HW137466   3.137   0.394   6.382 -1.3668  0.2364 -2.8658
 8668SOL    HW237467   3.107   0.450   6.512 -2.4439 -0.2799  1.8959
 8669SOL     OW37468   2.474   0.210  12.833  0.3971  0.0333  0.1021
 8669SOL    HW137469   2.545   0.274  12.826  0.3887  0.2162  1.7840
 8669SOL    HW237470   2.404   0.254  12.784  1.9044  1.7142 -0.5348
 8670SOL     OW37471   2.068   4.321  14.534  0.3982 -0.5116  0.4402
 8670SOL    HW137472   2.120   4.384  14.484  0.8899 -1.4322 -0.2108
 8670SOL    HW237473   1.980   4.359  14.535  0.3861 -0.5651  1.2937
 8671SOL     OW37474   1.634   2.141   0.469 -0.3690 -0.1753 -0.1437
 8671SOL    HW137475   1.714   2.185   0.499 -0.2716 -1.0453  0.8620
 8671SOL    HW237476   1.626   2.075   0.538 -1.2163  0.0913  0.0117
 8672SOL     OW37477   1.993   4.267   8.377  0.2178  0.6166  0.2771
 8672SOL    HW137478   1.933   4.192   8.382 -0.8858  1.4277 -0.9345
 8672SOL    HW237479   1.951   4.333   8.321  0.9648  2.0558  1.4169
 8673SOL     OW37480   3.221   1.217  14.140 -0.2129  0.2775 -0.9274
 8673SOL    HW137481   3.267   1.299  14.159 -0.7003  1.0795 -3.2343
 8673SOL    HW237482   3.205   1.219  14.045 -1.1272  0.9343 -0.7599
 8674SOL     OW37483   2.774   2.353  16.304 -0.0736 -0.0461 -0.5056
 8674SOL    HW137484   2.744   2.263  16.298  0.7952 -0.3961  0.3936
 8674SOL    HW237485   2.687   2.389  16.324  0.8303  1.4539  0.7743
 8675SOL     OW37486   4.708   0.822   5.905 -0.0155  0.2270 -0.3523
 8675SOL    HW137487   4.709   0.898   5.846 -4.7591 -0.3456 -1.1948
 8675SOL    HW237488   4.695   0.866   5.989  0.5026  0.1781 -0.2475
 8676SOL     OW37489   0.985   3.923   1.906 -0.1850 -0.0094 -0.1891
 8676SOL    HW137490   1.035   3.852   1.946  1.2688  1.5937  0.8322
 8676SOL    HW237491   1.056   3.971   1.863  0.7994 -1.2621  0.0357
 8677SOL     OW37492   3.012   1.002   8.555 -0.1204 -0.4740  0.0606
 8677SOL    HW137493   3.029   0.920   8.508 -0.0961 -0.5034  0.1214
 8677SOL    HW237494   2.939   0.980   8.612 -0.9817  2.1153 -0.0229
 8678SOL     OW37495   0.997   0.689   9.480 -0.1445  0.5049  0.3341
 8678SOL    HW137496   0.938   0.613   9.484 -0.3074  0.6445  0.6162
 8678SOL    HW237497   1.059   0.669   9.411 -0.2581 -1.1767  0.7245
 8679SOL     OW37498   4.576   2.985  13.748  0.1600  0.5616 -0.4760
 8679SOL    HW137499   4.551   3.069  13.787 -1.0380  0.9341 -2.0220
 8679SOL    HW237500   4.496   2.938  13.770  1.4704  0.4206  3.9934
 8680SOL     OW37501   0.335   1.370  16.359  0.4345  0.1163  0.1995
 8680SOL    HW137502   0.303   1.288  16.397  2.4391 -0.2733  1.0542
 8680SOL    HW237503   0.255   1.408  16.322  2.2736  0.8932 -2.9913
 8681SOL     OW37504   4.537   1.364   7.446 -0.4413  0.0226 -0.2752
 8681SOL    HW137505   4.509   1.423   7.377  2.4632  3.5078  1.5358
 8681SOL    HW237506   4.473   1.385   7.514  0.5967 -2.6237  1.5645
 8682SOL     OW37507   1.488   2.616   2.450 -0.2588 -0.1150  0.5161
 8682SOL    HW137508   1.434   2.562   2.392 -0.3948 -0.5322  1.0273
 8682SOL    HW237509   1.433   2.695   2.451 -1.3747 -0.8522 -2.1147
 8683SOL     OW37510   4.375   4.276   4.186  0.2585  0.2440 -0.3969
 8683SOL    HW137511   4.346   4.276   4.095  0.9868 -0.2277 -0.6215
 8683SOL    HW237512   4.386   4.182   4.201 -0.8660  0.0775 -0.6215
 8684SOL     OW37513   4.248   1.569   9.039 -0.2303  0.7151 -0.2631
 8684SOL    HW137514   4.331   1.521   9.042 -0.4835  0.1858 -1.5386
 8684SOL    HW237515   4.281   1.652   9.072 -0.8441  0.9421 -0.2341
 8685SOL     OW37516   0.981   0.186   0.912 -0.5226 -0.5663 -0.6820
 8685SOL    HW137517   1.031   0.260   0.946  0.4323 -0.5290 -2.1514
 8685SOL    HW237518   0.967   0.132   0.989 -0.4829  1.9027  1.0627
 8686SOL     OW37519   3.370   0.688  11.552 -0.4650 -0.0581 -0.0276
 8686SOL    HW137520   3.349   0.685  11.645  0.9420 -0.9814  0.2518
 8686SOL    HW237521   3.455   0.730  11.541 -0.2631 -0.0467  1.5864
 8687SOL     OW37522   0.712   0.226  16.706  0.5133 -0.5988 -0.0538
 8687SOL    HW137523   0.726   0.182  16.622 -3.2835 -4.1683  1.1482
 8687SOL    HW237524   0.800   0.238  16.742 -0.4002 -0.1905  2.0857
 8688SOL     OW37525   1.157   4.261   3.869  0.1895  0.0056 -0.2794
 8688SOL    HW137526   1.115   4.185   3.910  0.7723  0.9249  2.0220
 8688SOL    HW237527   1.233   4.227   3.822 -0.2934  0.4399 -1.3811
 8689SOL     OW37528   3.392   1.347   1.844 -0.0982 -0.0756  0.0343
 8689SOL    HW137529   3.322   1.355   1.779 -0.7388 -0.4477  0.6865
 8689SOL    HW237530   3.379   1.423   1.901  2.6161 -0.2772  0.9146
 8690SOL     OW37531   1.442   0.792   5.484  0.4234  0.0594  0.1385
 8690SOL    HW137532   1.429   0.751   5.569 -1.4935 -2.5513 -1.4292
 8690SOL    HW237533   1.359   0.840   5.478 -0.4374 -1.1293  2.5425
 8691SOL     OW37534   1.426   2.915  10.855 -0.5193  0.3785 -0.7483
 8691SOL    HW137535   1.497   2.976  10.835 -0.3110  0.6109  0.7345
 8691SOL    HW237536   1.450   2.883  10.941 -0.8219 -2.2729 -1.6478
 8692SOL     OW37537   1.852   3.668   3.271 -0.3306  0.5832  0.3603
 8692SOL    HW137538   1.867   3.746   3.217  0.2323  0.0988 -0.1822
 8692SOL    HW237539   1.941   3.656   3.305 -0.1970  0.9276  0.1390
 8693SOL     OW37540   3.849   3.023   0.076 -0.6122 -0.2343 -0.1877
 8693SOL    HW137541   3.768   3.054   0.036 -0.4550  1.1426  0.5723
 8693SOL    HW237542   3.909   3.040   0.002 -2.5064  0.9911 -1.4409
 8694SOL     OW37543   0.735   4.642   0.595 -0.2019  0.4303 -0.5807
 8694SOL    HW137544   0.802   4.581   0.626 -0.0156  0.7367 -0.3741
 8694SOL    HW237545   0.782   4.703   0.538  1.1753 -1.4341 -1.4461
 8695SOL     OW37546   4.418   4.209   2.460  0.3808  0.3985 -0.8345
 8695SOL    HW137547   4.456   4.135   2.509 -0.7957  0.6787  0.4931
 8695SOL    HW237548   4.354   4.249   2.518 -0.0555  1.2377 -1.9054
 8696SOL     OW37549   1.309   3.225  10.360 -0.0337  0.2370  1.0292
 8696SOL    HW137550   1.401   3.232  10.333 -0.7062  0.6749 -1.1762
 8696SOL    HW237551   1.276   3.210  10.271  1.7457  1.3785  0.1900
 8697SOL     OW37552   0.377   4.461   6.055  0.1688 -0.1829 -0.5180
 8697SOL    HW137553   0.367   4.478   5.961  0.1052 -0.1507 -0.5061
 8697SOL    HW237554   0.427   4.380   6.065  1.3334  0.4535 -1.1864
 8698SOL     OW37555   2.872   0.929  16.189  0.4953 -0.2847 -0.2084
 8698SOL    HW137556   2.862   1.018  16.154  2.1158  0.3338  0.9038
 8698SOL    HW237557   2.844   0.944  16.279 -0.2125 -0.7248 -0.3505
 8699SOL     OW37558   3.577   1.661   3.074  0.7281  0.3517 -0.0425
 8699SOL    HW137559   3.644   1.690   3.137 -0.3881  2.0391  0.3695
 8699SOL    HW237560   3.611   1.574   3.055 -0.5845  0.1488 -1.4603
 8700SOL     OW37561   1.077   2.324  15.258 -0.3380  0.4194 -0.8794
 8700SOL    HW137562   1.026   2.396  15.295 -1.4736 -1.7237  1.6952
 8700SOL    HW237563   1.006   2.261  15.266  1.2681 -1.1099  1.3380
 8701SOL     OW37564   0.581   0.657   4.417  0.1050 -0.1674  0.5095
 8701SOL    HW137565   0.639   0.662   4.341 -0.6302  0.3056 -0.0262
 8701SOL    HW237566   0.544   0.571   4.400  1.3654 -0.2030 -2.0832
 8702SOL     OW37567   2.650   1.463   3.582  0.5129 -0.3141  0.5546
 8702SOL    HW137568   2.716   1.396   3.567  2.2912  1.3845  0.7856
 8702SOL    HW237569   2.581   1.438   3.521  1.6170  3.2191 -2.1535
 8703SOL     OW37570   0.518   3.486   0.286  0.5065 -0.3854  0.1757
 8703SOL    HW137571   0.529   3.424   0.358  1.1161 -0.2152  0.2277
 8703SOL    HW237572   0.492   3.419   0.223  0.9902 -0.4092  0.0040
 8704SOL     OW37573   3.885   2.327   4.469 -0.0827  0.0029  0.4737
 8704SOL    HW137574   3.791   2.325   4.448  0.3065  0.0808 -1.2829
 8704SOL    HW237575   3.888   2.305   4.562 -0.9080  0.4380  0.6072
 8705SOL     OW37576   3.359   1.764   9.722 -0.8334 -0.1904  0.4307
 8705SOL    HW137577   3.295   1.747   9.653 -1.9890  3.0277  0.7402
 8705SOL    HW237578   3.298   1.782   9.793 -1.7477  1.6898 -0.8334
 8706SOL     OW37579   4.482   0.542  11.470  0.2559 -0.3546 -0.0177
 8706SOL    HW137580   4.518   0.578  11.389 -1.5229 -0.0855 -0.6837
 8706SOL    HW237581   4.461   0.456  11.434 -0.4562  0.1018 -0.6934
 8707SOL     OW37582   2.926   4.064   2.734  0.3700  0.0462  0.6597
 8707SOL    HW137583   2.869   4.056   2.811  0.9243 -1.0801  0.9598
 8707SOL    HW237584   2.907   3.994   2.672 -1.7885  1.0457  0.1821
 8708SOL     OW37585   4.125   1.227  13.977 -0.3004 -0.1570  0.0128
 8708SOL    HW137586   4.098   1.299  13.919 -0.7965  1.0414  1.7145
 8708SOL    HW237587   4.051   1.169  13.962  0.9456 -2.2477  1.9632
 8709SOL     OW37588   4.719   1.204  10.435  0.5156  0.3082 -0.0472
 8709SOL    HW137589   0.056   1.275  10.435  0.6022  0.2441 -2.3642
 8709SOL    HW237590   4.664   1.219  10.512  0.2730 -1.6817  0.1670
 8710SOL     OW37591   0.245   1.631   7.338 -0.2057 -0.1795 -0.1663
 8710SOL    HW137592   0.227   1.681   7.417  1.1204  0.7659 -0.4671
 8710SOL    HW237593   0.168   1.575   7.330 -0.0730 -0.2588 -0.9408
 8711SOL     OW37594   0.947   1.045   5.421  0.2967 -0.2174  0.5210
 8711SOL    HW137595   0.965   0.988   5.346 -1.2417 -1.5441  1.1651
 8711SOL    HW237596   0.859   1.080   5.409  0.3613  0.5299  2.2538
 8712SOL     OW37597   3.984   3.636   7.816 -0.1076 -0.3466  0.1312
 8712SOL    HW137598   3.914   3.574   7.837 -1.4594  1.2272  0.2484
 8712SOL    HW237599   3.986   3.623   7.721 -1.1982  0.9347 -0.0745
 8713SOL     OW37600   4.178   4.297   7.518 -0.0631 -0.3839 -0.3470
 8713SOL    HW137601   4.145   4.366   7.575 -0.7244 -0.9794 -0.0074
 8713SOL    HW237602   4.160   4.338   7.433  2.0828  2.6780  0.6710
 8714SOL     OW37603   0.427   0.062  14.820 -0.3612  0.3446 -0.3633
 8714SOL    HW137604   0.384   0.076  14.736 -2.1512  0.0718  0.4992
 8714SOL    HW237605   0.478   0.138  14.847 -1.8893  0.6301  1.7108
 8715SOL     OW37606   1.052   2.878  16.915  0.2371 -0.7416 -0.6901
 8715SOL    HW137607   0.995   2.936  16.965  0.2729 -1.2767 -0.0312
 8715SOL    HW237608   1.130   2.879  16.970  0.8567  0.0723 -1.5952
 8716SOL     OW37609   3.724   1.596  10.887 -0.2562 -0.5174  0.1768
 8716SOL    HW137610   3.801   1.648  10.862  0.9432 -2.8182 -0.9610
 8716SOL    HW237611   3.665   1.658  10.929 -1.6064 -0.7752 -1.3953
 8717SOL     OW37612   1.362   0.447   5.797  0.2975  0.5703 -0.1722
 8717SOL    HW137613   1.449   0.424   5.831  0.5834  0.5895 -0.9034
 8717SOL    HW237614   1.306   0.398   5.858 -0.5813  1.9261  0.1260
 8718SOL     OW37615   3.158   4.039  16.067 -0.0927 -0.1232 -0.0187
 8718SOL    HW137616   3.250   4.065  16.061  0.9060 -3.6352  0.3993
 8718SOL    HW237617   3.165   3.951  16.103  1.3508 -0.3379 -0.8480
 8719SOL     OW37618   4.137   1.808   2.051  0.5215  0.2997 -0.1629
 8719SOL    HW137619   4.189   1.728   2.043 -1.1546 -0.8066  0.0057
 8719SOL    HW237620   4.045   1.780   2.046 -0.1103  2.3457 -0.3886
 8720SOL     OW37621   3.799   1.044   5.835 -0.3009  0.1570 -0.0613
 8720SOL    HW137622   3.813   1.121   5.779  1.4747 -0.0753  0.0596
 8720SOL    HW237623   3.879   1.043   5.887 -0.6613  1.1141  0.5095
 8721SOL     OW37624   1.518   3.694   4.631 -0.0735  0.1320  0.6592
 8721SOL    HW137625   1.505   3.777   4.585 -1.4425 -1.5774 -1.9994
 8721SOL    HW237626   1.487   3.724   4.717 -0.3804  0.1881  0.5289
 8722SOL     OW37627   3.323   3.611  13.958  0.1966  0.2032 -0.2697
 8722SOL    HW137628   3.309   3.521  13.927 -0.6896 -0.2995  1.5703
 8722SOL    HW237629   3.418   3.621  13.952  0.3699 -0.4227  1.2275
 8723SOL     OW37630   2.070   1.205   4.837  0.0725  0.1929 -0.1732
 8723SOL    HW137631   1.980   1.223   4.863 -0.0577 -3.4480  1.8497
 8723SOL    HW237632   2.063   1.214   4.742 -1.4407 -0.4229 -0.1052
 8724SOL     OW37633   0.748   2.883  15.752  0.5246  0.4408 -0.2099
 8724SOL    HW137634   0.680   2.942  15.782 -1.2574 -0.9897 -1.4234
 8724SOL    HW237635   0.728   2.808  15.808 -1.7579  2.0287  1.0812
 8725SOL     OW37636   3.823   1.195  12.242  0.1996 -0.2665 -0.5694
 8725SOL    HW137637   3.862   1.248  12.173  1.7521 -0.2551  0.2960
 8725SOL    HW237638   3.895   1.178  12.303  0.3808 -1.0878 -1.0077
 8726SOL     OW37639   2.695   2.250   5.261  0.1605  0.0897 -0.1963
 8726SOL    HW137640   2.716   2.300   5.182  0.2245  0.6465  0.1733
 8726SOL    HW237641   2.653   2.181   5.210  1.2334  0.6000 -1.7766
 8727SOL     OW37642   0.583   0.965  15.047 -0.0707 -0.0102  1.0285
 8727SOL    HW137643   0.624   1.051  15.057 -1.0716  0.7155 -0.8557
 8727SOL    HW237644   0.523   0.955  15.121 -3.0785  2.1906 -1.0628
 8728SOL     OW37645   3.121   2.922  17.466  0.2815 -0.1317  0.2968
 8728SOL    HW137646   3.164   2.907  17.550  0.4043  1.2087  0.4702
 8728SOL    HW237647   3.204   2.926  17.418 -0.5865 -0.5232 -1.2377
 8729SOL     OW37648   2.384   1.349   7.375  0.1482 -0.0356  0.1531
 8729SOL    HW137649   2.465   1.313   7.339 -0.2979  0.9224 -1.8641
 8729SOL    HW237650   2.417   1.404   7.446  0.8170  1.5606 -1.3897
 8730SOL     OW37651   4.535   2.184   4.386 -0.1941 -0.0760  0.2073
 8730SOL    HW137652   4.513   2.143   4.302 -1.9661  0.9340  0.1697
 8730SOL    HW237653   4.547   2.273   4.354 -1.0592  0.2900  0.9038
 8731SOL     OW37654   2.765   2.722   1.113  0.1452  0.0747  0.1258
 8731SOL    HW137655   2.855   2.690   1.109  0.1270 -0.1309  1.2516
 8731SOL    HW237656   2.715   2.641   1.105  2.0884 -1.3304  2.2219
 8732SOL     OW37657   1.024   4.347   6.903  0.1924  0.5120  0.6722
 8732SOL    HW137658   1.000   4.388   6.819 -0.6590  0.1033  0.7160
 8732SOL    HW237659   1.098   4.403   6.927  1.4853 -0.9726  0.1297
 8733SOL     OW37660   0.233   2.492   9.856  0.0571 -0.0617 -0.1845
 8733SOL    HW137661   0.301   2.504   9.789 -0.7213 -1.4139 -1.1951
 8733SOL    HW237662   0.168   2.432   9.821  0.8491 -0.1479 -1.5105
 8734SOL     OW37663   3.664   2.318   0.854 -0.2208 -0.1102  0.1356
 8734SOL    HW137664   3.759   2.312   0.843 -0.5867  0.2281 -3.2188
 8734SOL    HW237665   3.641   2.331   0.762  0.9651 -0.3090 -0.1882
 8735SOL     OW37666   3.769   4.606   4.043  0.0930 -0.0300  0.4481
 8735SOL    HW137667   3.779   4.511   4.036 -0.6038 -0.1661  1.2865
 8735SOL    HW237668   3.841   4.637   3.988  1.5102 -1.3523  1.5636
 8736SOL     OW37669   0.972   4.309  11.616  0.2403  0.0076  0.4974
 8736SOL    HW137670   1.063   4.317  11.645  0.2875  0.3428  0.2501
 8736SOL    HW237671   0.947   4.401  11.616  0.5575  0.0919 -0.3159
 8737SOL     OW37672   1.445   0.705   2.522  0.2911 -0.5022  0.5193
 8737SOL    HW137673   1.374   0.735   2.466  1.4154 -2.1725 -1.8251
 8737SOL    HW237674   1.427   0.743   2.608  0.9233 -0.2851  0.5609
 8738SOL     OW37675   0.104   0.927   5.330  0.2819  0.1258 -0.7396
 8738SOL    HW137676   0.029   0.869   5.317  1.4870 -1.1259 -2.0771
 8738SOL    HW237677   0.064   1.006   5.293  0.5526  0.7604  0.3192
 8739SOL     OW37678   1.387   2.441   5.219  0.2654  0.4019 -0.0328
 8739SOL    HW137679   1.478   2.442   5.188  0.3442  0.1060  0.1869
 8739SOL    HW237680   1.355   2.362   5.176  1.1842  0.1266 -0.2170
 8740SOL     OW37681   3.519   2.030   9.494 -0.1482 -0.2221 -0.0034
 8740SOL    HW137682   3.525   2.102   9.557  1.3468 -1.4481  1.2432
 8740SOL    HW237683   3.530   1.958   9.556 -0.2507 -0.4433 -0.2403
 8741SOL     OW37684   1.418   0.748   7.179  0.1187 -0.1500  0.4130
 8741SOL    HW137685   1.394   0.656   7.185  0.5320 -0.4667 -2.6950
 8741SOL    HW237686   1.407   0.783   7.267 -0.5662 -1.4638  0.8370
 8742SOL     OW37687   2.363   0.001  14.981 -1.1833  0.4510  0.0295
 8742SOL    HW137688   2.422   4.672  15.032  0.1937  1.3912 -0.5312
 8742SOL    HW237689   2.385   4.706  14.891 -1.6271  0.4062 -0.0700
 8743SOL     OW37690   3.243   0.121   1.361 -0.2607 -0.0998 -0.2561
 8743SOL    HW137691   3.214   0.031   1.355  0.9789 -0.7826  3.5734
 8743SOL    HW237692   3.296   0.132   1.282  2.1690 -1.3069  1.1763
 8744SOL     OW37693   4.685   4.207   7.239 -0.0534  0.1769 -0.3903
 8744SOL    HW137694   0.036   4.165   7.202  0.0177  0.0055 -0.0458
 8744SOL    HW237695   4.651   4.129   7.284 -1.5670 -0.5858 -2.8863
 8745SOL     OW37696   1.896   4.434   1.820  0.0578  0.0875 -0.1799
 8745SOL    HW137697   1.931   4.522   1.802 -0.5281  0.9530  2.8557
 8745SOL    HW237698   1.823   4.436   1.759  0.3016 -2.2571 -0.5337
 8746SOL     OW37699   3.853   2.037   7.071 -0.0326 -0.6264 -0.9512
 8746SOL    HW137700   3.839   1.967   7.135 -0.1231  0.2639  0.0068
 8746SOL    HW237701   3.767   2.051   7.032 -1.2007 -3.4173  0.6102
 8747SOL     OW37702   2.225   0.830  14.388 -0.5210  0.9582  0.0366
 8747SOL    HW137703   2.184   0.909  14.422 -0.3137  0.8644  0.4966
 8747SOL    HW237704   2.149   0.772  14.379  0.7631 -0.7175 -0.0845
 8748SOL     OW37705   3.002   1.165   6.562  0.4796 -0.3953  0.1053
 8748SOL    HW137706   2.984   1.132   6.474  0.2744  1.2391 -0.4735
 8748SOL    HW237707   3.008   1.260   6.550  1.1730 -0.5741 -1.0105
 8749SOL     OW37708   0.416   3.781   5.056  0.3720  0.2307  0.7311
 8749SOL    HW137709   0.452   3.839   4.989 -0.5337  1.6083  1.4298
 8749SOL    HW237710   0.406   3.699   5.008  1.1458 -0.7508  2.2253
 8750SOL     OW37711   4.689   1.431  11.664  0.3937 -0.2278 -0.3291
 8750SOL    HW137712   4.684   1.381  11.746 -0.5552  0.5053  0.0551
 8750SOL    HW237713   4.634   1.377  11.608 -0.5835  0.2365  0.1866
 8751SOL     OW37714   0.343   3.987  15.362  0.3633 -0.3789 -0.5220
 8751SOL    HW137715   0.431   3.957  15.388  0.6008  0.5546 -0.2529
 8751SOL    HW237716   0.307   3.908  15.321 -2.5799  0.6173  0.1505
 8752SOL     OW37717   2.551   1.087   9.592  0.5711  0.6081  0.1055
 8752SOL    HW137718   2.633   1.040   9.609 -0.5886 -1.4310  0.0890
 8752SOL    HW237719   2.519   1.098   9.681  0.8270  0.3966  0.2226
 8753SOL     OW37720   1.799   0.258   6.441  0.7103  1.0248 -0.6119
 8753SOL    HW137721   1.823   0.216   6.523 -0.4974  0.6008 -0.4876
 8753SOL    HW237722   1.873   0.318   6.426 -0.2410  3.1539  3.2241
 8754SOL     OW37723   3.894   0.196   3.296  0.2815  0.1328  0.1140
 8754SOL    HW137724   3.827   0.140   3.258  1.0203 -0.7898  0.1428
 8754SOL    HW237725   3.971   0.143   3.273  1.1626  1.2135  0.5780
 8755SOL     OW37726   4.158   0.447   7.579 -0.2808 -0.8366 -0.3367
 8755SOL    HW137727   4.111   0.381   7.528  0.7252 -1.1760 -0.8255
 8755SOL    HW237728   4.145   0.520   7.518  0.4306 -0.8641 -0.5231
 8756SOL     OW37729   2.791   2.439  14.415  0.5424 -0.2210  0.7039
 8756SOL    HW137730   2.703   2.401  14.420  1.1946 -1.5826  1.7306
 8756SOL    HW237731   2.767   2.532  14.412  2.3821  0.2210 -0.3657
 8757SOL     OW37732   0.343   4.382   5.074 -0.1417 -0.3794 -0.0062
 8757SOL    HW137733   0.377   4.355   5.159  0.9288  0.9177 -0.0093
 8757SOL    HW237734   0.407   4.346   5.013 -0.0542 -2.1761  1.1458
 8758SOL     OW37735   0.248   3.362  12.293  0.0074  0.1856  0.5931
 8758SOL    HW137736   0.280   3.273  12.310  1.2559  0.8391  1.6658
 8758SOL    HW237737   0.236   3.353  12.199 -3.1763 -4.3016  1.3941
 8759SOL     OW37738   1.775   1.025   9.577  0.3435 -0.9078  0.2146
 8759SOL    HW137739   1.729   1.014   9.493 -1.7179  0.8687  1.1031
 8759SOL    HW237740   1.706   1.047   9.640 -0.1434  0.2357 -0.7193
 8760SOL     OW37741   0.381   0.827   4.758  0.0686  0.2581  0.3380
 8760SOL    HW137742   0.359   0.790   4.673  0.4595  0.4338  0.1616
 8760SOL    HW237743   0.367   0.920   4.745  2.6019  0.4293 -1.0930
 8761SOL     OW37744   1.820   4.695  13.861  0.1859  0.2952  0.1076
 8761SOL    HW137745   1.776   0.011  13.787 -0.5381  1.5254  1.2667
 8761SOL    HW237746   1.848   0.044  13.912 -1.0348  2.4680 -2.4231
 8762SOL     OW37747   0.895   1.952   4.656  0.0199  0.4104 -0.0521
 8762SOL    HW137748   0.911   2.032   4.707  1.7221 -0.6213  1.0630
 8762SOL    HW237749   0.803   1.941   4.677  0.2337 -0.0891  0.6196
 8763SOL     OW37750   2.037   0.222  14.727 -0.4796  0.4020 -0.0810
 8763SOL    HW137751   2.109   0.284  14.716 -0.5845  0.3055 -1.3052
 8763SOL    HW237752   2.054   0.185  14.814 -1.2189  0.6466  0.1683
 8764SOL     OW37753   2.629   1.549   2.640 -0.1716 -0.4457  0.1301
 8764SOL    HW137754   2.635   1.596   2.557 -2.6192  0.0518  0.2415
 8764SOL    HW237755   2.538   1.522   2.639 -1.5587  4.1560  0.1820
 8765SOL     OW37756   1.254   0.617   2.096  0.3187  0.0058 -0.5080
 8765SOL    HW137757   1.305   0.649   2.021  0.4738 -2.0259 -1.2554
 8765SOL    HW237758   1.168   0.603   2.055  0.7540 -0.1258 -1.3868
 8766SOL     OW37759   1.624   3.503   6.213 -0.3489 -0.2836  0.3043
 8766SOL    HW137760   1.579   3.537   6.136 -0.1209 -0.4494  0.0982
 8766SOL    HW237761   1.592   3.413   6.221  0.5030 -0.4312  1.9793
 8767SOL     OW37762   0.488   3.652   6.552 -0.4861 -0.5669 -0.0635
 8767SOL    HW137763   0.465   3.580   6.493 -1.5633  0.7897 -1.3120
 8767SOL    HW237764   0.428   3.721   6.522  1.4124  0.4578 -1.4827
 8768SOL     OW37765   0.896   0.279   8.575 -0.5301 -0.3010 -0.2398
 8768SOL    HW137766   0.915   0.355   8.631 -1.2618  0.1295 -0.5694
 8768SOL    HW237767   0.923   0.211   8.637  0.2117  0.9102  0.7743
 8769SOL     OW37768   0.682   0.298   4.003  0.4446  0.3169  0.6029
 8769SOL    HW137769   0.612   0.312   4.067 -0.7071 -0.7674 -0.4286
 8769SOL    HW237770   0.687   0.204   3.990 -1.1134  0.4340 -0.9158
 8770SOL     OW37771   1.363   1.546  16.359 -0.1866  0.5624  0.1316
 8770SOL    HW137772   1.358   1.598  16.439 -1.1186 -0.9869  1.0727
 8770SOL    HW237773   1.271   1.538  16.334  0.0939  0.4832 -0.8805
 8771SOL     OW37774   3.309   4.112   1.245  0.0441 -0.8983 -0.4419
 8771SOL    HW137775   3.271   4.159   1.170 -1.8715  0.8845  1.6492
 8771SOL    HW237776   3.328   4.022   1.216 -1.3720 -1.4443  0.3159
 8772SOL     OW37777   2.789   0.206  11.831  0.2757  0.4646  0.5418
 8772SOL    HW137778   2.834   0.130  11.869 -0.3895 -0.4179 -0.4177
 8772SOL    HW237779   2.856   0.253  11.781 -0.3330  0.5909 -0.1590
 8773SOL     OW37780   0.259   1.645   7.919  0.7245  0.2585 -0.3280
 8773SOL    HW137781   0.268   1.557   7.956 -0.1624  1.0736  1.8162
 8773SOL    HW237782   0.350   1.671   7.936  1.3960 -2.1810 -0.2101
 8774SOL     OW37783   0.026   2.304   5.775 -0.3341 -0.6231  0.2546
 8774SOL    HW137784   0.100   2.244   5.766 -0.0450 -0.0089 -1.4732
 8774SOL    HW237785   4.684   2.253   5.817 -1.3107 -0.2739 -0.9125
 8775SOL     OW37786   1.423   1.761  11.437  0.1574 -0.0946 -0.9271
 8775SOL    HW137787   1.406   1.750  11.531 -1.5142  0.6225 -1.1582
 8775SOL    HW237788   1.445   1.671  11.411  0.0727 -0.0663 -1.0929
 8776SOL     OW37789   2.744   4.595   4.774  0.3343  0.2726 -0.1519
 8776SOL    HW137790   2.753   4.687   4.800  1.9877 -0.0620  0.4853
 8776SOL    HW237791   2.650   4.581   4.780  0.4909 -1.1487 -0.9919
 8777SOL     OW37792   1.188   1.701  12.698 -0.6160  0.1858  0.0811
 8777SOL    HW137793   1.274   1.680  12.662  0.8090  0.8860  3.0753
 8777SOL    HW237794   1.219   1.746  12.776 -0.9279 -0.5101  0.6085
 8778SOL     OW37795   4.317   4.197   5.958 -0.4239 -0.6364  0.2804
 8778SOL    HW137796   4.303   4.284   5.921 -0.9944  0.2806  2.6574
 8778SOL    HW237797   4.260   4.198   6.035  1.5133 -0.6411  1.7137
 8779SOL     OW37798   4.328   1.693   3.828  0.5775 -0.0856  0.3875
 8779SOL    HW137799   4.337   1.603   3.857  2.0903 -0.0453  0.0634
 8779SOL    HW237800   4.308   1.738   3.910  0.5812 -0.6135  0.6750
 8780SOL     OW37801   1.117   2.560  11.491  0.0648  0.2685  0.1575
 8780SOL    HW137802   1.051   2.491  11.488 -1.6547  1.7656  2.7993
 8780SOL    HW237803   1.190   2.507  11.460  1.6864  2.9091 -0.5245
 8781SOL     OW37804   3.607   3.699   5.640  0.1673 -0.3688 -0.0068
 8781SOL    HW137805   3.565   3.760   5.701 -0.5626 -2.2590  1.3982
 8781SOL    HW237806   3.693   3.740   5.647  0.5487 -0.7145 -2.7645
 8782SOL     OW37807   4.402   2.759   7.964 -0.2319  0.9734  0.1979
 8782SOL    HW137808   4.361   2.834   8.006  0.3521  1.4290 -0.0518
 8782SOL    HW237809   4.484   2.793   7.929 -0.5972  2.5526  0.8643
 8783SOL     OW37810   4.616   2.122   2.336  0.2127  0.5539  0.7255
 8783SOL    HW137811   4.583   2.072   2.262 -1.0302  2.2682  0.1298
 8783SOL    HW237812   4.562   2.201   2.329  0.2527  0.6588  1.6254
 8784SOL     OW37813   4.105   1.673   4.850  0.1029 -0.3067  0.2063
 8784SOL    HW137814   4.061   1.650   4.768  0.3033  1.0813 -0.2768
 8784SOL    HW237815   4.090   1.591   4.898 -1.6636  0.3374  0.7746
 8785SOL     OW37816   2.939   1.936  10.435 -0.3024  0.1663 -0.2239
 8785SOL    HW137817   2.924   1.874  10.506  0.1136 -1.3227 -1.4207
 8785SOL    HW237818   3.031   1.922  10.409  0.5241  0.1573  2.7532
 8786SOL     OW37819   0.031   2.425   4.119  0.0423 -0.1303 -0.1446
 8786SOL    HW137820   0.125   2.415   4.102 -0.1545 -1.3231 -0.4746
 8786SOL    HW237821   4.718   2.356   4.066 -0.2900  0.6222 -0.8805
 8787SOL     OW37822   3.631   2.045   6.934 -0.0033 -0.7357  0.9988
 8787SOL    HW137823   3.603   1.958   6.907  3.1195 -1.2496 -0.5162
 8787SOL    HW237824   3.562   2.100   6.896  0.1505 -0.1857  1.5107
 8788SOL     OW37825   4.563   2.133   8.434 -0.1043 -0.4446 -0.4306
 8788SOL    HW137826   4.562   2.068   8.504 -1.0721  1.0661  0.9590
 8788SOL    HW237827   4.470   2.153   8.439  0.2893  1.1612  0.5081
 8789SOL     OW37828   3.263   4.340  12.614  0.4850 -0.3064 -0.3526
 8789SOL    HW137829   3.264   4.415  12.673  0.7536  1.4366 -2.5392
 8789SOL    HW237830   3.263   4.263  12.669  1.7133 -0.9246 -1.2180
 8790SOL     OW37831   0.820   4.079  11.155 -0.3680  0.1522 -0.5001
 8790SOL    HW137832   0.898   4.114  11.197 -1.2403  1.3928  0.0722
 8790SOL    HW237833   0.841   3.986  11.145  0.1023  0.4023 -1.9375
 8791SOL     OW37834   3.034   2.541   4.616 -0.8544  0.6461 -0.3384
 8791SOL    HW137835   3.061   2.561   4.527 -0.9678  0.4866 -0.4086
 8791SOL    HW237836   3.063   2.614   4.670 -0.5704  0.0739  0.2838
 8792SOL     OW37837   3.121   4.522   4.972  0.5749 -0.6601  0.2843
 8792SOL    HW137838   3.127   4.496   5.064  3.9754  1.9838  0.8135
 8792SOL    HW237839   3.206   4.490   4.942  0.8454 -1.1674  1.6101
 8793SOL     OW37840   0.533   3.235   0.420  0.0988 -0.3840 -0.4481
 8793SOL    HW137841   0.618   3.224   0.379  0.0729 -0.6313 -0.4375
 8793SOL    HW237842   0.493   3.149   0.403 -2.2075  0.2346  1.7679
 8794SOL     OW37843   0.754   3.085   0.316  0.0870  0.9572  0.3313
 8794SOL    HW137844   0.753   3.069   0.222  1.0318  2.0799  0.1283
 8794SOL    HW237845   0.846   3.106   0.330  0.0917 -0.2014  2.0118
 8795SOL     OW37846   1.649   3.582   3.459 -0.0469  0.3057 -0.5892
 8795SOL    HW137847   1.704   3.617   3.388 -0.2635 -0.0848 -0.9495
 8795SOL    HW237848   1.675   3.490   3.449 -1.1634 -0.0587 -0.0720
 8796SOL     OW37849   4.459   0.932   9.222 -0.2209 -0.1527 -0.3940
 8796SOL    HW137850   4.386   0.961   9.168 -1.0295 -1.1439  0.1790
 8796SOL    HW237851   4.429   0.972   9.304  0.3310  0.6576 -0.5810
 8797SOL     OW37852   2.836   3.759   3.435  0.6265 -0.4747  0.5259
 8797SOL    HW137853   2.773   3.784   3.367  0.6761  0.8495  0.9836
 8797SOL    HW237854   2.903   3.827   3.425  0.1037 -0.0046  0.2485
 8798SOL     OW37855   2.046   4.094  10.346 -0.4585 -0.4105  0.3489
 8798SOL    HW137856   2.033   4.178  10.389 -0.6177  0.2426 -0.9953
 8798SOL    HW237857   2.142   4.093  10.352 -0.3924  1.1339 -0.5737
 8799SOL     OW37858   3.640   3.033   4.842 -0.0745 -0.3960 -0.2504
 8799SOL    HW137859   3.590   2.956   4.816  0.8355 -0.5086 -1.6588
 8799SOL    HW237860   3.585   3.079   4.907  0.1215  1.2259 -1.2218
 8800SOL     OW37861   0.778   1.070   8.607  0.2299  0.1122  0.7538
 8800SOL    HW137862   0.700   1.087   8.660  0.1159 -0.3111  0.7263
 8800SOL    HW237863   0.799   0.982   8.640  0.8188  0.0196  0.1276
 8801SOL     OW37864   2.239   1.787  17.275 -0.4227 -0.1958  0.3080
 8801SOL    HW137865   2.326   1.820  17.296  0.4898 -1.7309 -1.0545
 8801SOL    HW237866   2.189   1.823  17.348  1.1011  0.7780  0.8688
 8802SOL     OW37867   1.697   2.765   6.663 -0.0687 -0.4157  0.1758
 8802SOL    HW137868   1.700   2.697   6.596  0.7035  1.4714 -1.7072
 8802SOL    HW237869   1.763   2.742   6.729  1.1527  2.8001  0.0808
 8803SOL     OW37870   4.537   0.940   7.008 -0.2821  0.0373 -0.2767
 8803SOL    HW137871   4.603   0.961   7.074  0.8903 -0.2808 -1.3472
 8803SOL    HW237872   4.454   0.970   7.045 -0.4207 -2.2551  1.2917
 8804SOL     OW37873   1.334   1.909   4.247  0.3101 -0.4096  0.2971
 8804SOL    HW137874   1.373   1.821   4.247  2.4396  0.5424  0.3384
 8804SOL    HW237875   1.370   1.938   4.331 -0.5082 -1.0059  0.8540
 8805SOL     OW37876   4.078   2.005   4.605 -0.0358  0.3931  0.1597
 8805SOL    HW137877   4.072   1.992   4.511  1.7210 -0.3695  0.1486
 8805SOL    HW237878   4.171   2.024   4.615 -0.2286 -0.4215  3.5149
 8806SOL     OW37879   0.835   3.447   4.867 -0.5295 -0.3624 -0.4141
 8806SOL    HW137880   0.923   3.475   4.892 -1.0226  0.4957  0.3820
 8806SOL    HW237881   0.790   3.474   4.947 -0.6023 -0.7534 -0.3216
 8807SOL     OW37882   2.748   1.092   1.896 -0.6631 -0.1229 -0.3544
 8807SOL    HW137883   2.678   1.033   1.869 -2.9142  1.5369  1.8471
 8807SOL    HW237884   2.740   1.097   1.991 -1.5172  1.3029 -0.5033
 8808SOL     OW37885   3.655   2.309   6.749  0.0178 -0.4107 -0.2370
 8808SOL    HW137886   3.743   2.341   6.769  0.3106 -2.0290  1.1058
 8808SOL    HW237887   3.621   2.392   6.716  2.7002  0.9171  0.3335
 8809SOL     OW37888   3.577   4.517  10.428  0.0708 -0.0989  0.4820
 8809SOL    HW137889   3.532   4.578  10.487  2.2691  1.1671  0.8336
 8809SOL    HW237890   3.658   4.503  10.477  1.2806  0.4805 -1.3540
 8810SOL     OW37891   1.557   1.250   5.395 -0.1375  0.0718  0.6895
 8810SOL    HW137892   1.612   1.262   5.318 -0.4575  1.7287  0.7184
 8810SOL    HW237893   1.613   1.246   5.473  1.3914 -3.8273 -0.5818
 8811SOL     OW37894   0.034   1.650   8.334  0.3732  0.8952  0.5221
 8811SOL    HW137895   4.723   1.646   8.246  2.3657 -1.3321 -0.2507
 8811SOL    HW237896   0.038   1.745   8.345  2.8998  0.8696 -0.2742
 8812SOL     OW37897   2.643   0.729  16.755 -0.5075  0.2017  0.0871
 8812SOL    HW137898   2.680   0.650  16.793 -3.5221 -0.0564  2.4945
 8812SOL    HW237899   2.621   0.696  16.668 -0.9880 -1.2571  0.7714
 8813SOL     OW37900   2.128   0.679   4.877 -0.0291 -0.1568 -0.3310
 8813SOL    HW137901   2.054   0.734   4.901  1.3644  2.0111 -0.9986
 8813SOL    HW237902   2.108   0.665   4.784  0.4888  2.7802 -0.8992
 8814SOL     OW37903   0.111   2.094   8.803  0.3868  0.9628  0.0136
 8814SOL    HW137904   0.154   2.164   8.852  0.4584  1.1622 -0.3335
 8814SOL    HW237905   0.021   2.127   8.795  0.3783  0.3873 -2.1726
 8815SOL     OW37906   1.765   2.833  10.513 -0.0285  0.3657  0.3460
 8815SOL    HW137907   1.689   2.891  10.510  0.0951  0.5033 -0.2721
 8815SOL    HW237908   1.743   2.768  10.447  0.1921 -2.0421  2.6544
 8816SOL     OW37909   2.618   2.416   3.804  0.4660 -0.2392 -0.1664
 8816SOL    HW137910   2.560   2.343   3.786 -0.3184  1.2803 -3.8825
 8816SOL    HW237911   2.671   2.426   3.724 -1.2017  2.9615 -0.8920
 8817SOL     OW37912   1.908   2.196  10.551  0.3761  0.0721 -0.5245
 8817SOL    HW137913   1.851   2.210  10.475  1.4119  0.7203 -1.1730
 8817SOL    HW237914   1.989   2.245  10.536 -0.0460  0.6806 -0.8130
 8818SOL     OW37915   1.993   1.801   3.802  0.0499 -0.6760  0.4707
 8818SOL    HW137916   1.921   1.739   3.811  0.2745 -0.9999  0.0581
 8818SOL    HW237917   2.049   1.760   3.736  2.2932  1.4037  1.0699
 8819SOL     OW37918   3.303   0.296   6.754 -0.0256  0.0253 -0.1779
 8819SOL    HW137919   3.226   0.240   6.765  0.9637 -1.1948  0.6395
 8819SOL    HW237920   3.364   0.269   6.823 -0.6050 -1.4965 -0.2566
 8820SOL     OW37921   0.445   2.714  14.783  0.4606 -0.1489 -0.0897
 8820SOL    HW137922   0.538   2.693  14.776  0.3234 -1.5331  2.5152
 8820SOL    HW237923   0.444   2.714  14.878  2.5655 -2.2023 -0.0484
 8821SOL     OW37924   0.354   0.340   8.189 -0.1973  0.6025  0.0349
 8821SOL    HW137925   0.272   0.372   8.151 -0.5128  0.0317  0.2369
 8821SOL    HW237926   0.396   0.306   8.110 -0.9833  0.4810 -0.3342
 8822SOL     OW37927   0.154   3.669   3.853  0.0305 -0.3036 -0.0888
 8822SOL    HW137928   0.171   3.575   3.851 -1.6783 -0.6278  0.5912
 8822SOL    HW237929   0.172   3.690   3.945  0.4255  0.2425 -0.2932
 8823SOL     OW37930   3.161   3.167   5.040  0.4805  0.4425  0.1193
 8823SOL    HW137931   3.185   3.075   5.054 -1.0137 -0.1043 -0.9358
 8823SOL    HW237932   3.187   3.175   4.949 -1.4878 -0.7854 -0.5299
 8824SOL     OW37933   1.149   3.709   1.949 -0.4080  0.4816  0.2604
 8824SOL    HW137934   1.220   3.679   1.893  0.4562  1.0546  1.0510
 8824SOL    HW237935   1.149   3.641   2.016  1.8728  1.9800  1.7937
 8825SOL     OW37936   3.637   0.352   8.269 -0.4224  0.0513 -0.2235
 8825SOL    HW137937   3.577   0.326   8.199 -1.1697  2.2991 -0.4081
 8825SOL    HW237938   3.718   0.335   8.220  0.4100 -1.9533  1.8893
 8826SOL     OW37939   4.211   1.311   3.543  0.0254  0.7224  0.2011
 8826SOL    HW137940   4.148   1.379   3.568  1.0082  1.1424  1.5414
 8826SOL    HW237941   4.159   1.231   3.545  1.9269 -0.5027  1.0324
 8827SOL     OW37942   2.753   2.103   6.027 -0.1565  0.3701  0.3181
 8827SOL    HW137943   2.675   2.129   6.075 -0.3084  1.1775 -0.3775
 8827SOL    HW237944   2.719   2.115   5.938  1.0600 -1.5632 -0.4110
 8828SOL     OW37945   1.633   1.398   2.612 -0.1439 -0.0032  0.7106
 8828SOL    HW137946   1.545   1.361   2.624 -0.2491  0.0991  0.2235
 8828SOL    HW237947   1.692   1.326   2.635  3.3291  2.8936  0.6968
 8829SOL     OW37948   1.240   1.348  13.722  0.3922  0.5661  0.8953
 8829SOL    HW137949   1.156   1.310  13.696  0.1722 -0.3363  2.9303
 8829SOL    HW237950   1.247   1.423  13.662 -1.2453 -0.3156 -0.3939
 8830SOL     OW37951   4.125   4.202  14.267  0.3021  0.0569  0.2453
 8830SOL    HW137952   4.068   4.258  14.215  1.7417 -0.6733 -2.0900
 8830SOL    HW237953   4.081   4.118  14.262 -0.0119  0.3183 -1.1905
 8831SOL     OW37954   3.387   3.947   6.475  0.1416  0.2687  0.2967
 8831SOL    HW137955   3.353   4.021   6.425 -1.4409 -0.3348  0.5064
 8831SOL    HW237956   3.422   3.989   6.554 -1.8192 -0.0453  1.3273
 8832SOL     OW37957   0.321   2.098   3.571  0.0327  0.3771 -0.8891
 8832SOL    HW137958   0.236   2.103   3.527 -0.5953  1.6862  0.4817
 8832SOL    HW237959   0.325   2.005   3.593 -1.4677  0.1583 -1.5583
 8833SOL     OW37960   4.701   0.576  13.064  0.0127 -0.6605 -0.0824
 8833SOL    HW137961   4.678   0.515  13.134  0.1333  2.6954  2.8480
 8833SOL    HW237962   4.676   0.655  13.112  1.7695 -0.0706 -0.1381
 8834SOL     OW37963   0.841   2.612   6.914 -0.5024  0.0877  0.4165
 8834SOL    HW137964   0.784   2.659   6.974 -0.2481 -1.9394  2.2784
 8834SOL    HW237965   0.866   2.679   6.851  2.3603  0.8388  2.3347
 8835SOL     OW37966   2.088   0.003   9.815  0.1748  0.1847  0.4907
 8835SOL    HW137967   2.140   4.649   9.811  0.8100  0.5897  0.6604
 8835SOL    HW237968   2.123   0.059   9.884 -1.9196 -0.3280  1.9809
 8836SOL     OW37969   1.752   2.966   9.705  0.0678  0.4449 -0.5747
 8836SOL    HW137970   1.661   2.941   9.688  1.3595 -2.9956 -2.2848
 8836SOL    HW237971   1.776   2.901   9.771 -1.5789 -1.9046 -2.2941
 8837SOL     OW37972   1.998   2.713   9.851 -0.8876  0.0894 -0.2243
 8837SOL    HW137973   2.062   2.764   9.901 -1.4172  0.0886  0.4710
 8837SOL    HW237974   2.005   2.771   9.776 -0.0738  3.1159  2.1676
 8838SOL     OW37975   4.596   1.139  12.984 -0.9094 -0.1571  0.0664
 8838SOL    HW137976   4.687   1.137  12.955 -1.4508 -2.1531 -1.4772
 8838SOL    HW237977   4.609   1.191  13.063 -0.5865 -0.4968  0.2396
 8839SOL     OW37978   4.115   2.073   6.738  0.1236 -0.2825  0.3544
 8839SOL    HW137979   4.023   2.067   6.715  0.2937  1.7529 -0.8790
 8839SOL    HW237980   4.109   2.082   6.833 -2.1433 -3.5130  0.5276
 8840SOL     OW37981   2.035   4.484  16.738  0.1583 -0.0842  0.5143
 8840SOL    HW137982   1.940   4.484  16.726  0.1221 -2.5607  0.8696
 8840SOL    HW237983   2.060   4.576  16.732  1.0614 -0.4970 -2.0247
 8841SOL     OW37984   3.606   2.581   7.880 -0.6505  0.4901  0.3794
 8841SOL    HW137985   3.525   2.535   7.859 -1.3370  2.8693 -2.2817
 8841SOL    HW237986   3.573   2.667   7.906  1.1507  1.1061  0.6314
 8842SOL     OW37987   1.322   0.242   2.055 -0.1400 -0.2407 -0.0820
 8842SOL    HW137988   1.271   0.246   1.974 -0.3462 -1.8703 -0.0211
 8842SOL    HW237989   1.342   0.150   2.069 -1.0050 -0.7698 -2.3903
 8843SOL     OW37990   1.930   3.323  12.977  0.4430 -0.2314 -0.1380
 8843SOL    HW137991   1.883   3.241  12.964 -1.6163  1.1472 -1.4007
 8843SOL    HW237992   1.945   3.348  12.885 -0.3134  2.1050  0.3667
 8844SOL     OW37993   2.261   3.146   0.890 -0.5629 -0.0529  0.3535
 8844SOL    HW137994   2.284   3.111   0.975  1.4357  2.0355  0.6640
 8844SOL    HW237995   2.229   3.234   0.911 -1.7708  0.0783 -1.9854
 8845SOL     OW37996   3.223   1.637   6.650 -0.0136 -0.4598 -0.1389
 8845SOL    HW137997   3.298   1.695   6.634  0.0718 -0.0548  1.7821
 8845SOL    HW237998   3.181   1.624   6.565 -0.4212 -0.1979  0.0239
 8846SOL     OW37999   4.299   1.677   7.848 -0.4630  0.1095 -0.3886
 8846SOL    HW138000   4.377   1.704   7.798 -1.5860 -0.9790 -2.7370
 8846SOL    HW238001   4.231   1.696   7.783  1.4094  1.1758 -2.0541
 8847SOL     OW38002   4.213   2.920   2.146 -0.2885  0.2914  0.2834
 8847SOL    HW138003   4.157   2.863   2.094 -0.2922 -1.9389  2.7404
 8847SOL    HW238004   4.195   2.893   2.236  1.8411 -0.5582  0.4428
 8848SOL     OW38005   1.416   1.618   8.308  0.3894 -0.3324  0.1328
 8848SOL    HW138006   1.392   1.587   8.220  2.2110  0.2056 -0.5509
 8848SOL    HW238007   1.402   1.546   8.369 -0.1935 -0.4478 -0.1379
 8849SOL     OW38008   4.276   0.761   4.534  0.2584  0.1906  0.5963
 8849SOL    HW138009   4.353   0.753   4.477  0.5646  1.1186  0.8834
 8849SOL    HW238010   4.214   0.804   4.474 -0.4891  0.2844  1.4354
 8850SOL     OW38011   2.191   0.267   7.087 -0.3476 -0.1939 -0.2029
 8850SOL    HW138012   2.234   0.350   7.103 -1.4722  0.2518  0.5330
 8850SOL    HW238013   2.248   0.232   7.018 -0.0216  1.2141 -0.6386
 8851SOL     OW38014   1.445   1.447   4.507  0.5338  0.6970 -0.2483
 8851SOL    HW138015   1.396   1.365   4.517 -1.0382  1.2929 -3.0407
 8851SOL    HW238016   1.480   1.440   4.418 -0.7392  0.8457 -0.7574
 8852SOL     OW38017   3.679   1.416   4.560 -0.0133 -0.6102  0.5100
 8852SOL    HW138018   3.729   1.427   4.479  0.8031  0.3730  1.1546
 8852SOL    HW238019   3.743   1.365   4.611  1.1745 -0.6088 -0.9752
 8853SOL     OW38020   2.386   3.255   1.323  0.1643  0.6029 -0.4182
 8853SOL    HW138021   2.360   3.213   1.406  1.9953 -1.8199 -1.0801
 8853SOL    HW238022   2.333   3.196   1.270  0.4012 -2.5517  2.7878
 8854SOL     OW38023   3.371   0.682   1.813  0.2485 -0.0270  0.3462
 8854SOL    HW138024   3.316   0.753   1.779  0.9638  0.3223 -0.0909
 8854SOL    HW238025   3.457   0.724   1.821 -1.0471  2.5528  0.8632
 8855SOL     OW38026   3.817   0.131   5.492  0.4617  0.0903 -0.4058
 8855SOL    HW138027   3.881   0.157   5.558 -1.0840  0.0120  1.1397
 8855SOL    HW238028   3.753   0.200   5.510  1.9054  1.5666 -1.0390
 8856SOL     OW38029   2.630   3.500   1.647  0.1050 -0.1654  0.3793
 8856SOL    HW138030   2.624   3.571   1.582  1.1661 -0.9074 -0.5281
 8856SOL    HW238031   2.664   3.550   1.720  1.1481  0.6318 -0.6516
 8857SOL     OW38032   4.254   3.687  15.422  0.6670 -0.1220  0.4964
 8857SOL    HW138033   4.168   3.667  15.385  0.2534  0.2156  1.2684
 8857SOL    HW238034   4.220   3.761  15.472 -0.7412  0.1191 -0.8168
 8858SOL     OW38035   0.054   1.803   5.815  0.2228  0.3232  0.0747
 8858SOL    HW138036   0.045   1.746   5.739  0.2628 -0.3580  0.5805
 8858SOL    HW238037   0.047   1.890   5.775 -0.1954  0.2018 -0.1167
 8859SOL     OW38038   4.620   3.606  11.159 -0.4115  0.1158 -0.0823
 8859SOL    HW138039   4.652   3.562  11.080 -2.2604 -0.0491 -0.7221
 8859SOL    HW238040   4.529   3.605  11.132 -0.2628 -0.7468 -0.5469
 8860SOL     OW38041   2.252   4.703   8.030  0.1181  0.2886  0.3109
 8860SOL    HW138042   2.275   4.610   8.026  1.4877  0.6896 -0.8739
 8860SOL    HW238043   2.293   0.018   8.106 -0.2709  0.2779  0.5310
 8861SOL     OW38044   2.534   1.140  12.415 -0.3660 -0.5505  0.1619
 8861SOL    HW138045   2.594   1.082  12.367 -0.4767 -1.7343  1.4610
 8861SOL    HW238046   2.537   1.109  12.505  1.6419 -0.8946 -0.0342
 8862SOL     OW38047   3.690   0.971   7.277  0.1509 -0.4115  0.2333
 8862SOL    HW138048   3.707   0.877   7.281 -0.9052 -0.5711  1.0210
 8862SOL    HW238049   3.721   0.997   7.364  1.6920 -0.6326 -0.2501
 8863SOL     OW38050   1.627   0.990   5.561 -0.4797 -0.3901 -0.2496
 8863SOL    HW138051   1.563   0.926   5.529 -0.0006 -1.0349  0.0974
 8863SOL    HW238052   1.686   0.998   5.486 -0.5599 -0.8077 -0.3556
 8864SOL     OW38053   3.559   3.100   0.966 -0.4249  0.6100  0.8047
 8864SOL    HW138054   3.603   3.104   0.881  1.8449 -0.1027  1.9498
 8864SOL    HW238055   3.481   3.153   0.955 -0.9017 -0.4457 -1.0555
 8865SOL     OW38056   1.476   3.292   8.277 -0.3789  0.5420  0.2326
 8865SOL    HW138057   1.567   3.276   8.303 -0.5270 -1.6980 -0.5837
 8865SOL    HW238058   1.491   3.354   8.207 -1.9746 -0.6944 -1.1935
 8866SOL     OW38059   1.851   1.436   4.964 -0.4664 -0.7223  0.0645
 8866SOL    HW138060   1.806   1.518   4.986  1.8651  0.3374  0.8708
 8866SOL    HW238061   1.940   1.468   4.976 -0.7035 -0.2854  0.6141
 8867SOL     OW38062   3.431   3.967  12.955 -0.0163  0.3740 -0.0214
 8867SOL    HW138063   3.392   3.889  12.994  2.4152 -0.4597  0.7517
 8867SOL    HW238064   3.520   3.973  12.990  0.4233  2.8379 -1.5924
 8868SOL     OW38065   3.089   4.387   1.143 -0.4406 -0.0676  0.1382
 8868SOL    HW138066   3.163   4.362   1.087 -0.0089  0.6068  0.4091
 8868SOL    HW238067   3.015   4.352   1.093 -0.4987  2.6357 -1.6561
 8869SOL     OW38068   3.327   3.910   2.794  0.1759  0.1642  0.3145
 8869SOL    HW138069   3.266   3.954   2.734 -1.3661 -0.6316  1.3025
 8869SOL    HW238070   3.324   3.820   2.761  0.9326  0.6059 -0.9757
 8870SOL     OW38071   1.488   2.468   7.381  0.0910  0.3599 -0.3389
 8870SOL    HW138072   1.455   2.546   7.426 -2.9518  0.0790 -2.1247
 8870SOL    HW238073   1.536   2.427   7.453 -1.0985  0.2303  0.3882
 8871SOL     OW38074   2.036   4.666  12.016  0.3109 -0.1961 -0.2842
 8871SOL    HW138075   2.125   4.670  11.982  0.2534 -1.0016 -0.5177
 8871SOL    HW238076   2.040   0.021  12.066 -0.8570  0.2008 -0.8494
 8872SOL     OW38077   2.715   1.586   1.650  0.2885 -0.7373 -0.5510
 8872SOL    HW138078   2.805   1.556   1.660  0.8520  0.5568 -1.7448
 8872SOL    HW238079   2.672   1.504   1.675 -0.8961  0.2921  0.8216
 8873SOL     OW38080   3.055   0.967   9.402 -0.5299  0.3050  0.3112
 8873SOL    HW138081   2.966   0.968   9.437 -1.1231  1.3795 -1.2502
 8873SOL    HW238082   3.075   1.058   9.425  0.1763  0.1774  0.2001
 8874SOL     OW38083   1.947   0.566   2.735  0.2986 -0.3444  0.2597
 8874SOL    HW138084   1.968   0.480   2.769 -1.4141 -0.3768  1.2606
 8874SOL    HW238085   1.868   0.536   2.689  0.5797  0.0425 -0.4773
 8875SOL     OW38086   2.152   2.400   0.096 -0.4470 -0.3995  0.1752
 8875SOL    HW138087   2.241   2.424   0.122 -1.1046  2.1930 -0.0193
 8875SOL    HW238088   2.169   2.326   0.037  0.1560 -1.4789  1.7042
 8876SOL     OW38089   4.135   3.122   7.699 -0.3081 -0.2226 -0.0435
 8876SOL    HW138090   4.199   3.051   7.689 -0.1710 -0.2015  0.7239
 8876SOL    HW238091   4.068   3.072   7.746  0.1760  0.7307  1.6313
 8877SOL     OW38092   3.163   1.602   0.339 -0.1286 -0.2512 -0.3822
 8877SOL    HW138093   3.099   1.567   0.278 -0.1265 -0.5106 -0.2359
 8877SOL    HW238094   3.121   1.594   0.425 -1.5283  1.4085 -0.9226
 8878SOL     OW38095   2.533   3.942   5.669  0.7713 -0.2572 -0.1131
 8878SOL    HW138096   2.549   3.997   5.593 -0.0235 -0.5375 -0.4841
 8878SOL    HW238097   2.503   4.010   5.730  0.1014 -0.0851 -0.6407
 8879SOL     OW38098   1.488   3.070   3.524 -0.4064 -0.1541  0.3921
 8879SOL    HW138099   1.484   3.049   3.431 -3.4044 -0.6374  0.6110
 8879SOL    HW238100   1.395   3.091   3.530  0.0767  1.4507  2.0874
 8880SOL     OW38101   0.886   4.101   7.800  0.0431 -0.4409  0.2132
 8880SOL    HW138102   0.981   4.105   7.788 -0.0759  0.5203 -0.4038
 8880SOL    HW238103   0.856   4.012   7.780 -1.0582  0.0420 -0.2676
 8881SOL     OW38104   0.060   3.497   8.691  0.0948 -0.8051  0.1221
 8881SOL    HW138105   4.704   3.513   8.736 -1.1132 -1.0888 -1.9858
 8881SOL    HW238106   0.023   3.505   8.603 -2.3129 -0.6500  1.1472
 8882SOL     OW38107   4.300   4.236   6.343 -0.1454  0.1994 -0.8670
 8882SOL    HW138108   4.258   4.261   6.261 -1.8398  1.0546  0.2493
 8882SOL    HW238109   4.372   4.187   6.303  0.0050 -0.1377 -0.2000
 8883SOL     OW38110   3.705   1.722   3.935 -0.6744 -0.3100 -0.4388
 8883SOL    HW138111   3.712   1.753   3.844  1.8279 -1.2622 -0.5722
 8883SOL    HW238112   3.626   1.767   3.963  1.2271  0.8726  3.0199
 8884SOL     OW38113   0.872   2.327  17.298  0.5920  0.2149  0.0669
 8884SOL    HW138114   0.800   2.317  17.361 -0.5936  0.1155 -1.3035
 8884SOL    HW238115   0.888   2.420  17.316  2.1075 -0.0442  0.0290
 8885SOL     OW38116   0.385   3.553   4.891 -0.8368  0.3901 -0.0726
 8885SOL    HW138117   0.306   3.510   4.860 -0.7774  1.9592 -2.3458
 8885SOL    HW238118   0.410   3.491   4.960  0.9967  1.5527  0.3178
 8886SOL     OW38119   1.849   4.513   1.336  0.2510  0.4376 -0.8568
 8886SOL    HW138120   1.815   4.553   1.256 -0.8237 -0.4481 -0.8424
 8886SOL    HW238121   1.858   4.427   1.296 -0.0735 -0.3793  0.8161
 8887SOL     OW38122   2.686   0.691   5.602  0.2428  0.0868 -0.8980
 8887SOL    HW138123   2.700   0.609   5.554  0.6907  1.7581 -3.6549
 8887SOL    HW238124   2.690   0.756   5.532 -1.9190  0.1251 -0.9661
 8888SOL     OW38125   3.681   3.050   2.680  0.3741 -0.1521  0.2154
 8888SOL    HW138126   3.657   3.134   2.719  0.5832  0.8521 -1.8291
 8888SOL    HW238127   3.776   3.061   2.682  0.3329  0.5716 -2.2231
 8889SOL     OW38128   1.988   4.343  13.588  0.2467  0.2313 -0.0743
 8889SOL    HW138129   2.027   4.331  13.502 -1.6779  0.0683 -0.9108
 8889SOL    HW238130   1.977   4.437  13.604  0.7502  0.2609  0.1263
 8890SOL     OW38131   1.095   1.547   8.805 -0.0941 -0.2921  0.2274
 8890SOL    HW138132   1.125   1.629   8.845 -0.6464 -0.4411  0.9392
 8890SOL    HW238133   1.170   1.488   8.810 -0.1444 -0.2812  1.0402
 8891SOL     OW38134   4.457   3.114   3.094  0.1696 -0.3103 -0.1734
 8891SOL    HW138135   4.546   3.090   3.068 -0.0723 -1.1441 -0.2435
 8891SOL    HW238136   4.460   3.121   3.190 -2.9607  2.0817 -0.2688
 8892SOL     OW38137   0.591   3.948   0.427 -0.4005 -0.4157 -0.9362
 8892SOL    HW138138   0.634   3.912   0.505  1.2915 -0.7528 -2.0296
 8892SOL    HW238139   0.660   3.943   0.361  1.4954  1.5706  0.9213
 8893SOL     OW38140   0.712   4.677  10.633 -0.3440 -0.0459 -0.0042
 8893SOL    HW138141   0.629   4.630  10.634  0.9297 -2.3622 -1.0724
 8893SOL    HW238142   0.700   0.018  10.566  2.9245 -0.1264 -0.6833
 8894SOL     OW38143   3.587   4.093   1.625 -0.6859  0.6638 -0.2148
 8894SOL    HW138144   3.497   4.067   1.607 -1.0467  0.2003  2.2877
 8894SOL    HW238145   3.587   4.187   1.610 -1.3022  0.4800 -1.3341
 8895SOL     OW38146   0.147   1.001  13.053 -0.5914  0.5939 -0.2776
 8895SOL    HW138147   0.223   0.947  13.076 -0.5285  0.3311 -1.1089
 8895SOL    HW238148   0.126   1.034  13.140  0.5210  1.3060 -0.2711
 8896SOL     OW38149   1.011   1.713   7.992 -0.5682  0.2958  0.2319
 8896SOL    HW138150   0.952   1.676   8.059  1.2241 -0.2449  1.5076
 8896SOL    HW238151   0.974   1.797   7.965  0.0963  0.0185 -1.5297
 8897SOL     OW38152   4.618   1.373  12.656 -0.6474 -0.8869 -0.2006
 8897SOL    HW138153   4.639   1.395  12.565 -1.0085 -0.3258 -0.1508
 8897SOL    HW238154   4.664   1.448  12.694 -1.5073 -1.0363  1.1380
 8898SOL     OW38155   1.819   1.840   0.420  0.0525  0.5244  0.7834
 8898SOL    HW138156   1.900   1.791   0.437  0.1023  0.6186  0.8173
 8898SOL    HW238157   1.756   1.777   0.384  2.8853 -1.6965 -0.3411
 8899SOL     OW38158   4.147   3.113   8.803  0.3545 -0.0652 -0.2801
 8899SOL    HW138159   4.214   3.091   8.737  0.3185  1.7440 -0.9200
 8899SOL    HW238160   4.181   3.049   8.865 -2.3487 -0.6106  0.6457
 8900SOL     OW38161   2.670   1.294   8.695  0.6993  0.1618  0.1029
 8900SOL    HW138162   2.698   1.358   8.761 -0.8586 -1.3164  2.1830
 8900SOL    HW238163   2.723   1.310   8.616  1.1843 -1.3187  0.1284
 8901SOL     OW38164   0.679   1.588   3.528 -0.0524  0.7126  0.5753
 8901SOL    HW138165   0.678   1.652   3.456 -0.3414 -0.0141 -0.0661
 8901SOL    HW238166   0.713   1.644   3.598  1.7956  0.2458  0.0780
 8902SOL     OW38167   0.244   3.252   7.935 -0.4120  0.1875  0.3442
 8902SOL    HW138168   0.245   3.271   7.841  0.1659 -1.0121  0.0952
 8902SOL    HW238169   0.339   3.259   7.949 -0.9340  1.5997  3.1865
 8903SOL     OW38170   0.627   2.880   9.254 -0.2935 -0.3209  0.1505
 8903SOL    HW138171   0.601   2.885   9.346 -2.6140  0.7219 -0.5810
 8903SOL    HW238172   0.633   2.974   9.237  0.6970 -0.6793 -1.5377
 8904SOL     OW38173   2.285   1.591   6.210  0.0561  0.1478 -0.6807
 8904SOL    HW138174   2.227   1.529   6.255  1.0267 -1.2188 -1.2977
 8904SOL    HW238175   2.227   1.625   6.141  2.1312 -0.7860 -2.8758
 8905SOL     OW38176   3.653   2.726   4.326  0.4922 -0.0689  0.0082
 8905SOL    HW138177   3.617   2.784   4.259 -3.7588 -2.0633  0.6093
 8905SOL    HW238178   3.722   2.779   4.368  0.4397  1.2568 -1.5764
 8906SOL     OW38179   2.098   2.717   6.177  0.2336 -0.1529 -0.3948
 8906SOL    HW138180   2.065   2.685   6.261  0.8584  1.3728  0.4321
 8906SOL    HW238181   2.181   2.748   6.213  0.7963 -0.4910 -1.4286
 8907SOL     OW38182   4.564   0.292   9.129  0.0393 -0.4369 -0.1177
 8907SOL    HW138183   4.583   0.337   9.211  2.1830 -0.7247 -0.4632
 8907SOL    HW238184   4.500   0.228   9.161  1.7943 -0.8394  2.5585
 8908SOL     OW38185   2.233   4.026   5.721 -0.7614 -0.7193 -0.1002
 8908SOL    HW138186   2.207   3.971   5.794  2.5934  0.2483  1.8589
 8908SOL    HW238187   2.317   4.057   5.757 -0.3967  1.1651 -2.5109
 8909SOL     OW38188   2.877   3.104  16.904  0.0709  0.5031  0.0668
 8909SOL    HW138189   2.867   3.060  16.989 -1.2753  0.2510 -0.2257
 8909SOL    HW238190   2.919   3.022  16.876  3.3330  2.1257  0.2280
 8910SOL     OW38191   0.140   2.003  16.925 -0.5391  0.5342  0.6549
 8910SOL    HW138192   0.186   2.086  16.916 -0.5583  0.4348 -0.3919
 8910SOL    HW238193   0.081   2.008  16.850 -0.9878 -0.6823  0.9159
 8911SOL     OW38194   3.029   1.123  16.730 -0.2991  0.0293 -0.8456
 8911SOL    HW138195   2.960   1.158  16.673 -0.9532  0.9701  0.5233
 8911SOL    HW238196   2.992   1.137  16.817  1.9551  3.0664 -0.3685
 8912SOL     OW38197   2.378   1.920  13.422  0.2920 -0.3413 -0.0799
 8912SOL    HW138198   2.313   1.990  13.413  1.1445  0.3545 -0.8386
 8912SOL    HW238199   2.370   1.902  13.516 -2.2415  1.4514  0.0562
 8913SOL     OW38200   0.640   4.619  14.500 -0.4289  0.2252 -1.0932
 8913SOL    HW138201   0.677   4.706  14.490 -0.4005  0.3552  0.1176
 8913SOL    HW238202   0.670   4.573  14.422 -1.9813  1.4921 -2.4289
 8914SOL     OW38203   4.012   3.952   5.952 -0.3299 -0.2759 -0.2419
 8914SOL    HW138204   4.052   3.969   5.867  1.4845 -1.6298  0.3381
 8914SOL    HW238205   3.919   3.943   5.933 -0.4114 -0.0942  0.0721
 8915SOL     OW38206   0.484   0.342   0.562  0.0837  0.8137 -0.6668
 8915SOL    HW138207   0.549   0.285   0.603 -1.7356 -1.5599 -1.0561
 8915SOL    HW238208   0.408   0.330   0.620  0.3549 -1.4445 -0.7494
 8916SOL     OW38209   3.686   2.379   5.282 -0.2396  0.1958 -0.5181
 8916SOL    HW138210   3.603   2.351   5.319  0.1052  0.2581  0.3041
 8916SOL    HW238211   3.707   2.304   5.227  0.0883  0.7979 -1.2203
 8917SOL     OW38212   4.567   3.021   8.230 -0.3090  0.0120  0.1328
 8917SOL    HW138213   4.539   3.083   8.162  1.5545 -0.9742 -1.5280
 8917SOL    HW238214   4.521   3.037   8.313  2.4535 -1.2125  1.8983
 8918SOL     OW38215   0.002   0.091   7.899  0.4309  0.0694  0.2577
 8918SOL    HW138216   4.705   0.174   7.940  0.0590  2.0189 -3.9581
 8918SOL    HW238217   0.018   0.037   7.977  1.3493 -0.3080 -0.1879
 8919SOL     OW38218   3.120   2.218   7.238  0.6588  0.4319  0.1238
 8919SOL    HW138219   3.094   2.305   7.208  1.1770  0.6226  0.2328
 8919SOL    HW238220   3.168   2.265   7.306 -1.4132 -0.1266  1.9578
 8920SOL     OW38221   2.493   0.858   7.667 -0.1752  0.0324 -0.1160
 8920SOL    HW138222   2.586   0.867   7.646 -0.5396  0.7439 -1.4132
 8920SOL    HW238223   2.489   0.928   7.731 -2.8917  0.3135 -0.5779
 8921SOL     OW38224   4.602   2.265   6.959 -0.1372  0.0937  0.2274
 8921SOL    HW138225   4.631   2.310   7.039 -0.2482  1.4871 -0.5204
 8921SOL    HW238226   4.510   2.289   6.958 -0.0573  0.4693  1.3305
 8922SOL     OW38227   4.542   1.550  13.132  0.7664  0.1282 -0.1367
 8922SOL    HW138228   4.548   1.601  13.051  1.2400 -1.5114 -1.1227
 8922SOL    HW238229   4.632   1.547  13.164  0.2488  0.4785  1.3326
 8923SOL     OW38230   2.411   4.456   1.975 -0.2753 -0.1714  0.2674
 8923SOL    HW138231   2.381   4.462   1.884  0.7993 -1.7476 -0.2090
 8923SOL    HW238232   2.333   4.413   2.010  0.2058  0.5320  2.1643
 8924SOL     OW38233   1.598   1.582   9.486 -0.7531  0.4378  0.4940
 8924SOL    HW138234   1.579   1.663   9.439  0.1637 -0.3863 -1.2805
 8924SOL    HW238235   1.649   1.610   9.562 -0.5683  2.0136 -0.2157
 8925SOL     OW38236   3.953   1.347   2.532  0.0025  0.0851 -0.0039
 8925SOL    HW138237   3.988   1.435   2.516 -0.3404  0.3191  0.5297
 8925SOL    HW238238   3.904   1.338   2.451  3.4133 -1.4976 -1.8981
 8926SOL     OW38239   1.556   0.483   3.230 -0.3637 -0.2402  0.2316
 8926SOL    HW138240   1.622   0.485   3.160 -0.3838  0.8663  0.2372
 8926SOL    HW238241   1.550   0.571   3.268  0.9672 -0.7553  1.6563
 8927SOL     OW38242   0.039   0.822   9.222  0.3220  0.1712  0.5056
 8927SOL    HW138243   0.071   0.735   9.246  1.9248  1.3171  2.5371
 8927SOL    HW238244   4.700   0.845   9.287  0.8623  1.1994  0.6861
 8928SOL     OW38245   3.309   3.737   3.913  0.5421 -0.1703 -0.3317
 8928SOL    HW138246   3.374   3.754   3.981  0.4062 -0.1210 -0.2129
 8928SOL    HW238247   3.320   3.645   3.890 -0.2339 -0.1668 -0.7112
 8929SOL     OW38248   4.489   2.662   3.150 -0.0626 -0.2854  0.0736
 8929SOL    HW138249   4.583   2.666   3.168 -0.0698 -1.3391  0.3672
 8929SOL    HW238250   4.482   2.704   3.065  2.0080 -1.8009 -0.8369
 8930SOL     OW38251   2.273   3.213   6.064  0.3703 -0.4098  0.0368
 8930SOL    HW138252   2.181   3.236   6.074  1.0781  2.4543  0.0395
 8930SOL    HW238253   2.272   3.172   6.150 -0.2730 -0.8621 -0.1874
 8931SOL     OW38254   4.639   1.528  15.064  0.3325 -0.2760 -1.1110
 8931SOL    HW138255   4.699   1.454  15.074  1.3788  0.4885 -1.8008
 8931SOL    HW238256   4.677   1.554  14.981  4.8377  0.7357  1.2751
 8932SOL     OW38257   4.629   3.531   5.414  0.1174  0.2872 -0.4644
 8932SOL    HW138258   4.589   3.587   5.480  1.1086  0.7605 -0.2647
 8932SOL    HW238259   4.621   3.446   5.457 -3.9431 -0.7244 -3.1756
 8933SOL     OW38260   3.055   1.257   7.106  0.1830 -0.5957 -0.5668
 8933SOL    HW138261   2.991   1.306   7.157  1.4810  0.5704 -0.0688
 8933SOL    HW238262   3.030   1.274   7.015  1.2112 -0.5816 -0.8445
 8934SOL     OW38263   0.587   0.399   8.952  0.6767 -0.0622  0.6869
 8934SOL    HW138264   0.494   0.381   8.938 -0.0240  3.2175  1.2011
 8934SOL    HW238265   0.587   0.474   9.011 -1.8983 -0.3708  1.0789
 8935SOL     OW38266   3.235   3.835  16.259 -0.0279 -0.4285 -0.1589
 8935SOL    HW138267   3.308   3.893  16.280 -0.2335  0.1488 -1.0542
 8935SOL    HW238268   3.175   3.880  16.318 -0.3455 -0.5317 -0.4013
 8936SOL     OW38269   3.243   0.270  13.795  0.1623 -0.1159 -0.1176
 8936SOL    HW138270   3.313   0.281  13.730  1.4075  3.6402  1.8649
 8936SOL    HW238271   3.298   0.266  13.874 -0.1530 -0.7984  0.0702
 8937SOL     OW38272   3.163   1.672   2.631  0.0987  0.2282  0.2612
 8937SOL    HW138273   3.214   1.751   2.615 -3.5060  2.4823 -0.2299
 8937SOL    HW238274   3.195   1.658   2.720 -0.0785 -0.1504  0.2652
 8938SOL     OW38275   0.412   1.514   5.292  0.3739 -0.8424  0.1766
 8938SOL    HW138276   0.333   1.487   5.246  0.4802 -1.2177  0.2096
 8938SOL    HW238277   0.449   1.580   5.233  1.8936 -0.1903  1.8353
 8939SOL     OW38278   2.975   2.136   6.168 -0.3324 -0.1307  0.2704
 8939SOL    HW138279   2.896   2.112   6.120  0.2225  1.0113 -1.1958
 8939SOL    HW238280   3.019   2.053   6.146 -0.2699  0.0302 -0.2041
 8940SOL     OW38281   2.465   3.822   8.964 -0.0521 -0.3851 -0.1704
 8940SOL    HW138282   2.380   3.790   8.993 -0.7542 -0.0686 -1.8547
 8940SOL    HW238283   2.446   3.881   8.890  0.7001  0.4089  0.2650
 8941SOL     OW38284   4.695   2.679   1.340  0.3912  0.2578 -1.3419
 8941SOL    HW138285   4.725   2.659   1.252  0.3079  1.6447 -1.6754
 8941SOL    HW238286   0.001   2.601   1.386  1.5666  1.6899  0.2385
 8942SOL     OW38287   3.919   3.824   8.455 -0.5218  0.2045  0.4691
 8942SOL    HW138288   3.909   3.815   8.550  0.0510  0.4455  0.5588
 8942SOL    HW238289   3.943   3.735   8.431 -1.1302  0.7178 -2.0435
 8943SOL     OW38290   1.672   0.529   8.671  0.0715 -0.2629  0.7083
 8943SOL    HW138291   1.675   0.595   8.740 -0.9928  0.3295  0.1919
 8943SOL    HW238292   1.766   0.515   8.663  0.1510  0.3599  0.5846
 8944SOL     OW38293   1.131   3.048   4.591 -0.4204 -0.4003  0.3561
 8944SOL    HW138294   1.194   3.034   4.662 -0.0639 -0.8772 -0.0539
 8944SOL    HW238295   1.164   2.984   4.529  2.0044  0.5200  0.7075
 8945SOL     OW38296   4.722   2.778   3.551  0.6838  0.4892  0.1723
 8945SOL    HW138297   0.058   2.765   3.622 -0.1700 -1.5925  0.5386
 8945SOL    HW238298   0.010   2.694   3.507 -1.5421  0.5531 -0.7056
 8946SOL     OW38299   2.059   2.522   8.456 -0.0798 -0.3023  0.1989
 8946SOL    HW138300   2.089   2.608   8.485  0.4687  0.1787 -1.7630
 8946SOL    HW238301   2.143   2.492   8.420 -0.4765  0.0644 -1.0362
 8947SOL     OW38302   0.560   2.406   7.550  0.2118 -0.0775 -0.1153
 8947SOL    HW138303   0.482   2.443   7.590 -1.9091 -1.4670 -3.0202
 8947SOL    HW238304   0.621   2.419   7.623  2.4172 -0.7509 -1.8202
 8948SOL     OW38305   4.678   4.677   3.006  0.0647 -0.3241  0.4056
 8948SOL    HW138306   0.028   4.724   2.974 -0.9548  0.4646 -0.8965
 8948SOL    HW238307   4.698   4.672   3.099 -1.6974  0.3800  0.8288
 8949SOL     OW38308   2.821   0.357   8.342  0.3202  0.0677 -0.1406
 8949SOL    HW138309   2.859   0.401   8.266  1.7095  1.8487  1.5876
 8949SOL    HW238310   2.889   0.292   8.362  0.1075 -0.5209 -1.3184
 8950SOL     OW38311   1.683   2.979   3.710  0.5393 -0.1504  0.3996
 8950SOL    HW138312   1.752   2.980   3.643 -1.9159 -2.1873 -2.1657
 8950SOL    HW238313   1.608   2.993   3.652  1.4265  0.5360 -0.5885
 8951SOL     OW38314   1.815   2.836   3.900 -0.5706  0.1428 -0.8810
 8951SOL    HW138315   1.773   2.896   3.838  0.1836 -0.0316 -1.5444
 8951SOL    HW238316   1.778   2.750   3.885  1.2435 -0.6172 -0.9198
 8952SOL     OW38317   2.205   1.557   8.532  0.2624 -0.3765 -0.2472
 8952SOL    HW138318   2.171   1.593   8.614  0.8284  2.3334 -1.2039
 8952SOL    HW238319   2.285   1.609   8.525  0.1376 -0.6213 -3.3150
 8953SOL     OW38320   2.116   3.996  11.594 -0.1104  0.1426 -0.2872
 8953SOL    HW138321   2.053   3.994  11.667  1.3610  1.7515  1.0200
 8953SOL    HW238322   2.198   3.968  11.635 -0.1825 -1.3930 -1.1933
 8954SOL     OW38323   1.689   0.048  12.234 -0.4839  0.0410 -0.2968
 8954SOL    HW138324   1.625   0.118  12.219 -0.5479 -0.2954 -1.6228
 8954SOL    HW238325   1.648   4.718  12.299  0.4409 -1.1442 -0.7523
 8955SOL     OW38326   4.338   1.703   9.291 -0.0660  0.4194  0.4822
 8955SOL    HW138327   4.252   1.746   9.296 -0.2923  0.1679 -1.0882
 8955SOL    HW238328   4.359   1.725   9.381 -1.1275 -0.5333  0.9657
 8956SOL     OW38329   2.063   3.507   3.097 -0.0112  0.1128  0.5048
 8956SOL    HW138330   2.114   3.478   3.173  0.3463  1.1243  0.6542
 8956SOL    HW238331   1.998   3.437   3.090  1.6197 -1.2860 -0.5778
 8957SOL     OW38332   2.183   3.619   2.894  0.5093  0.3595 -0.0856
 8957SOL    HW138333   2.154   3.560   2.963  1.7659 -1.5308 -1.1521
 8957SOL    HW238334   2.264   3.651   2.934 -1.6360  2.6192  2.3565
 8958SOL     OW38335   3.844   1.950  17.113 -0.2910 -0.0642 -0.3580
 8958SOL    HW138336   3.809   1.897  17.184 -0.8482  0.6121 -0.1236
 8958SOL    HW238337   3.933   1.916  17.109 -0.1956 -0.1345  1.9771
 8959SOL     OW38338   2.251   0.973  11.323 -0.6130  0.4281 -0.9594
 8959SOL    HW138339   2.218   0.894  11.281  1.8278 -0.3637 -1.3928
 8959SOL    HW238340   2.342   0.956  11.299 -0.1133  2.0633 -0.2096
 8960SOL     OW38341   4.123   0.940  14.383 -0.2517  0.3445  0.1063
 8960SOL    HW138342   4.059   0.869  14.393  0.4606 -0.2551  0.4719
 8960SOL    HW238343   4.153   0.938  14.292 -0.9204  2.6595 -0.1486
 8961SOL     OW38344   4.259   1.688   8.610  0.0235 -0.2524 -0.2896
 8961SOL    HW138345   4.278   1.723   8.697  1.6520  1.4393 -1.3158
 8961SOL    HW238346   4.335   1.633   8.588 -1.7083 -2.2477 -1.3146
 8962SOL     OW38347   3.436   0.389   7.743 -0.1038  0.3584 -0.1340
 8962SOL    HW138348   3.500   0.455   7.717 -0.3798  0.8892  0.5047
 8962SOL    HW238349   3.356   0.441   7.752 -0.5700 -0.7514  2.1921
 8963SOL     OW38350   4.685   3.576  12.457  1.0806  0.3480  0.1201
 8963SOL    HW138351   4.616   3.618  12.509 -2.6082  0.1530 -4.5699
 8963SOL    HW238352   4.678   3.484  12.484 -1.5077  0.5398  0.0936
 8964SOL     OW38353   2.859   2.982   6.247 -0.0985 -0.3573  0.1097
 8964SOL    HW138354   2.860   3.075   6.269  1.0340 -0.2237 -0.5755
 8964SOL    HW238355   2.873   2.995   6.154  0.3306 -2.9903 -0.2077
 8965SOL     OW38356   0.484   1.046   8.396  0.0973 -0.1240 -0.2650
 8965SOL    HW138357   0.449   0.957   8.410 -0.4663  0.2774  0.8350
 8965SOL    HW238358   0.423   1.097   8.449 -0.6163 -0.9257 -0.3036
 8966SOL     OW38359   3.169   3.456   1.686  0.1716  0.3006 -0.1881
 8966SOL    HW138360   3.108   3.390   1.717  0.0391  0.3429 -0.3575
 8966SOL    HW238361   3.102   3.515   1.649  0.6415  0.1585 -1.2818
 8967SOL     OW38362   3.965   2.389   7.757  0.0202  0.0555  0.3304
 8967SOL    HW138363   4.025   2.437   7.702  0.6497 -2.0391 -0.8175
 8967SOL    HW238364   4.030   2.330   7.796 -0.5167 -0.0824  1.0430
 8968SOL     OW38365   4.560   2.587   3.756 -0.2701  0.4101 -0.3914
 8968SOL    HW138366   4.597   2.501   3.738 -2.7469 -0.9498  0.9596
 8968SOL    HW238367   4.540   2.622   3.669  1.5367 -1.2300 -1.4408
 8969SOL     OW38368   1.103   2.912   8.119 -0.1235  0.0869 -0.0643
 8969SOL    HW138369   1.014   2.877   8.116 -1.2436  2.8814  0.2624
 8969SOL    HW238370   1.147   2.872   8.044 -1.1247 -1.9404  0.4444
 8970SOL     OW38371   2.952   2.921   2.245 -0.0310  0.9153 -0.6364
 8970SOL    HW138372   3.020   2.855   2.258  1.2962  2.2121 -1.0385
 8970SOL    HW238373   2.927   2.919   2.152  0.4313 -3.2947 -0.6656
 8971SOL     OW38374   2.561   0.168   7.500 -0.2083  0.0494  0.5093
 8971SOL    HW138375   2.468   0.161   7.521 -0.7193  0.1565 -1.7799
 8971SOL    HW238376   2.564   0.257   7.464  1.2943  0.0858  0.7344
 8972SOL     OW38377   3.874   0.313  10.439  0.0128  0.0455  0.1766
 8972SOL    HW138378   3.846   0.234  10.486  1.6391 -1.0648 -0.7121
 8972SOL    HW238379   3.823   0.376  10.489 -0.8686  1.1294 -2.0793
 8973SOL     OW38380   4.454   3.058   1.540 -0.5567  0.3930 -0.3287
 8973SOL    HW138381   4.474   2.964   1.533 -0.2057  0.4682 -0.3367
 8973SOL    HW238382   4.444   3.077   1.446  1.6272 -0.8946 -0.8137
 8974SOL     OW38383   4.537   3.909   2.308  0.1968 -0.5585  0.0292
 8974SOL    HW138384   4.520   3.849   2.236 -0.0187 -2.2858  1.5483
 8974SOL    HW238385   4.473   3.885   2.374 -0.9905 -2.2528 -1.7775
 8975SOL     OW38386   3.691   2.884   0.714  0.3393 -0.1514 -0.0730
 8975SOL    HW138387   3.775   2.930   0.705 -0.5618  1.3271 -1.0071
 8975SOL    HW238388   3.634   2.961   0.720 -0.3487 -0.4779 -2.6417
 8976SOL     OW38389   0.642   1.319   8.964 -0.5398 -0.1418  0.1692
 8976SOL    HW138390   0.578   1.308   9.034  0.9616  2.4260  1.9532
 8976SOL    HW238391   0.618   1.402   8.924  0.5751  0.6511  1.1678
 8977SOL     OW38392   0.847   2.901   2.840  0.5347 -0.4532  0.1380
 8977SOL    HW138393   0.842   2.930   2.748 -1.1579 -2.1359 -0.3098
 8977SOL    HW238394   0.903   2.824   2.841  2.2180  0.7297 -2.0477
 8978SOL     OW38395   1.146   0.475  17.103  0.5066  0.0445 -0.3841
 8978SOL    HW138396   1.230   0.517  17.085  0.5268  0.5044  0.7394
 8978SOL    HW238397   1.093   0.554  17.097  0.0899 -0.1448  0.6946
 8979SOL     OW38398   4.390   2.466  12.609  0.3701  0.5491 -0.2856
 8979SOL    HW138399   4.468   2.494  12.656  1.2213  1.8815 -2.4948
 8979SOL    HW238400   4.434   2.450  12.525  2.1891  4.2346 -0.0479
 8980SOL     OW38401   0.579   0.260   4.715 -0.0062 -0.3209  0.0036
 8980SOL    HW138402   0.655   0.300   4.758  0.9944 -0.2223 -1.8716
 8980SOL    HW238403   0.564   0.183   4.769  1.1529 -1.0041 -0.6483
 8981SOL     OW38404   3.138   3.644   7.411 -0.3714  0.5717 -0.9194
 8981SOL    HW138405   3.189   3.713   7.369  0.4289  0.5438  0.0079
 8981SOL    HW238406   3.086   3.617   7.335  0.7092 -1.4718 -0.9452
 8982SOL     OW38407   2.630   0.781  10.615 -0.4275  0.3792  0.0998
 8982SOL    HW138408   2.590   0.857  10.658 -2.1154  0.5608 -1.7771
 8982SOL    HW238409   2.613   0.801  10.523 -0.5946  0.1299  0.0745
 8983SOL     OW38410   0.133   2.099   0.195 -0.6052 -0.1797  0.0927
 8983SOL    HW138411   0.113   2.150   0.273  0.6818  2.9649 -1.6255
 8983SOL    HW238412   0.088   2.016   0.207 -1.2219 -0.1060 -1.8181
 8984SOL     OW38413   0.289   0.095   9.599  0.0292  0.0880  0.1611
 8984SOL    HW138414   0.197   0.095   9.574  0.1670  0.6995 -0.3480
 8984SOL    HW238415   0.330   0.093   9.512 -0.0110  1.1475  0.1215
 8985SOL     OW38416   1.051   2.448   7.050 -1.1630  0.8283 -0.7505
 8985SOL    HW138417   0.972   2.491   7.019 -1.7523  0.6824  0.5489
 8985SOL    HW238418   1.105   2.518   7.086 -0.2421  0.8519 -2.2063
 8986SOL     OW38419   1.146   0.779   3.829 -0.0232 -0.0391  0.3664
 8986SOL    HW138420   1.178   0.713   3.767  2.2277 -1.5026  3.0346
 8986SOL    HW238421   1.061   0.792   3.788 -0.0301  0.5248  0.5612
 8987SOL     OW38422   1.400   2.904  10.373 -0.0908 -0.3249 -0.5672
 8987SOL    HW138423   1.383   2.845  10.446  0.3348  0.2702  0.0188
 8987SOL    HW238424   1.467   2.957  10.416  0.4960 -2.5800  1.2523
 8988SOL     OW38425   2.632   1.056  15.968  0.1704 -0.3954 -0.1673
 8988SOL    HW138426   2.605   0.966  15.986 -0.1574 -1.1440 -4.3082
 8988SOL    HW238427   2.669   1.046  15.880 -2.2993 -1.2156 -1.1277
 8989SOL     OW38428   1.512   4.559  12.690 -0.0248 -0.5440  0.4189
 8989SOL    HW138429   1.439   4.612  12.722 -0.5633  0.7082 -2.8654
 8989SOL    HW238430   1.479   4.473  12.716 -0.0201 -0.7041 -0.1076
 8990SOL     OW38431   3.021   2.550   5.542 -0.2839  0.1986  0.4582
 8990SOL    HW138432   3.052   2.625   5.491 -3.2820  1.8389  1.0693
 8990SOL    HW238433   3.059   2.476   5.494 -1.5514 -1.5539  2.1510
 8991SOL     OW38434   0.396   4.711   0.243  0.0030 -0.4836  0.3726
 8991SOL    HW138435   0.427   0.043   0.174 -0.5090 -0.9531 -0.2612
 8991SOL    HW238436   0.397   0.040   0.321  1.5666 -1.2229  0.8834
 8992SOL     OW38437   4.048   2.909   1.578  0.0505  0.0204  0.4296
 8992SOL    HW138438   4.110   2.924   1.506  1.3962 -1.4047  1.3054
 8992SOL    HW238439   3.975   2.961   1.544 -0.4374 -1.2214 -0.4156
 8993SOL     OW38440   3.531   0.696   5.598  0.1874  0.4420 -0.0890
 8993SOL    HW138441   3.437   0.692   5.614 -0.0637  3.0991 -0.8962
 8993SOL    HW238442   3.561   0.759   5.664  3.9222 -1.2455 -0.1563
 8994SOL     OW38443   3.473   4.041   5.502  0.1917 -0.4899 -0.0412
 8994SOL    HW138444   3.379   4.044   5.517  0.2311  1.5618 -0.2521
 8994SOL    HW238445   3.471   3.968   5.440 -1.9151  0.0744 -0.6249
 8995SOL     OW38446   1.369   3.494   7.941  0.0300  0.2206 -0.6249
 8995SOL    HW138447   1.289   3.441   7.938  0.0864  0.0980  0.0744
 8995SOL    HW238448   1.423   3.446   7.879  2.6474  0.6694  1.3256
 8996SOL     OW38449   3.795   0.147   4.200  0.1343  0.1134  0.6136
 8996SOL    HW138450   3.861   0.088   4.238  0.5272 -2.6372 -4.4102
 8996SOL    HW238451   3.713   0.113   4.237 -0.4637  2.6817  1.6775
 8997SOL     OW38452   0.134   2.507   6.524 -0.3191  0.3072 -0.4850
 8997SOL    HW138453   0.130   2.530   6.431  2.4074 -1.7075 -1.0944
 8997SOL    HW238454   0.126   2.596   6.560  0.3473  0.1848 -0.0308
 8998SOL     OW38455   0.417   1.047  13.315 -0.8020  0.1974  0.2229
 8998SOL    HW138456   0.373   0.987  13.255  2.2513 -0.0255 -1.7807
 8998SOL    HW238457   0.461   1.112  13.261  0.4925 -1.7975 -1.1299
 8999SOL     OW38458   0.567   1.380  16.974  0.0938  0.2023  0.2025
 8999SOL    HW138459   0.562   1.291  17.008  1.6239 -0.0521 -0.2351
 8999SOL    HW238460   0.482   1.418  16.997 -0.0634  0.1248 -0.2558
 9000SOL     OW38461   0.457   3.816   2.976 -0.0711  0.5883 -0.9189
 9000SOL    HW138462   0.366   3.846   2.968 -1.0621 -2.1306 -0.0135
 9000SOL    HW238463   0.505   3.897   2.995  2.6359 -0.9916 -1.0118
 9001SOL     OW38464   0.707   4.044   6.654 -0.3016  0.3436 -0.3154
 9001SOL    HW138465   0.790   4.066   6.697  0.9887  1.0679 -3.2001
 9001SOL    HW238466   0.714   4.103   6.579  0.1471 -0.1860 -0.6922
 9002SOL     OW38467   3.770   1.209   6.255  0.5660  0.6882  1.3883
 9002SOL    HW138468   3.682   1.177   6.271  0.5004  0.1099 -0.0809
 9002SOL    HW238469   3.744   1.298   6.230  3.3611  0.9804 -0.5326
 9003SOL     OW38470   3.115   1.117   2.296 -0.0415  0.3720 -0.7588
 9003SOL    HW138471   3.070   1.197   2.268 -0.3722  0.0126 -1.2343
 9003SOL    HW238472   3.202   1.154   2.312 -0.1602 -0.5074  1.9358
 9004SOL     OW38473   3.489   2.955   4.503 -0.3576  0.0320  0.9223
 9004SOL    HW138474   3.413   2.911   4.466 -0.2207  1.3424 -0.9082
 9004SOL    HW238475   3.541   2.951   4.422  0.3077 -0.8145  1.3866
 9005SOL     OW38476   2.320   0.655   6.961  0.1534  0.4732 -0.4037
 9005SOL    HW138477   2.249   0.676   6.902  0.3531  1.6211 -0.2243
 9005SOL    HW238478   2.352   0.736   7.000 -1.8590  2.6039 -3.2302
 9006SOL     OW38479   2.935   4.161   2.233  0.2475  0.2223  0.2595
 9006SOL    HW138480   2.901   4.210   2.158  2.5352 -1.0327 -1.6124
 9006SOL    HW238481   3.020   4.137   2.197 -0.3964 -1.4506 -0.1531
 9007SOL     OW38482   2.491   3.146  17.646 -0.2796 -0.1275  0.7667
 9007SOL    HW138483   2.445   3.062  17.649  1.1718 -0.9434 -0.2571
 9007SOL    HW238484   2.556   3.126  17.579 -1.8721 -2.3540 -0.1237
 9008SOL     OW38485   1.728   3.461  10.254  0.2238  0.2045  0.3291
 9008SOL    HW138486   1.813   3.478  10.213  0.3484 -1.6157 -0.1899
 9008SOL    HW238487   1.677   3.494  10.180 -0.3344 -0.8467  0.2411
 9009SOL     OW38488   4.025   1.404   8.996 -0.1821  0.4914 -0.2072
 9009SOL    HW138489   4.033   1.411   8.901  3.0502  0.2953  0.0407
 9009SOL    HW238490   4.105   1.450   9.023 -0.4766  1.5148 -1.0831
 9010SOL     OW38491   0.694   1.603   1.546  0.2195  0.1982 -0.1603
 9010SOL    HW138492   0.768   1.664   1.549 -1.1428  1.6884  2.7443
 9010SOL    HW238493   0.734   1.525   1.582 -0.9174  0.7660  2.3037
 9011SOL     OW38494   2.746   3.372   8.974  0.2839  0.4813 -0.0902
 9011SOL    HW138495   2.805   3.440   8.940  1.6008 -0.5704  0.1135
 9011SOL    HW238496   2.675   3.406   8.919 -0.7016  2.0758  2.1795
 9012SOL     OW38497   2.397   0.009   3.927 -0.4338  0.4296  0.1760
 9012SOL    HW138498   2.433   0.020   3.839  1.5152 -1.7624  0.7089
 9012SOL    HW238499   2.336   4.665   3.904 -0.5172  0.9245 -1.1303
 9013SOL     OW38500   4.127   0.324  14.793 -0.7353 -0.5521 -0.4000
 9013SOL    HW138501   4.090   0.236  14.799  0.1895 -0.9218 -0.0876
 9013SOL    HW238502   4.104   0.366  14.876  2.5165 -0.9532  0.6920
 9014SOL     OW38503   2.364   4.568   8.548 -0.6805  0.1867  0.2697
 9014SOL    HW138504   2.346   4.513   8.625  1.2816 -0.0725  0.5551
 9014SOL    HW238505   2.284   4.554   8.497 -0.1197  2.1614 -1.1369
 9015SOL     OW38506   4.332   4.575   5.065 -0.1591  0.4239 -0.4063
 9015SOL    HW138507   4.350   4.525   5.145  0.0621 -1.3715 -1.5629
 9015SOL    HW238508   4.297   4.655   5.103 -0.9390  0.2477 -0.7490
 9016SOL     OW38509   2.882   3.514   2.173  0.0130  0.2165 -0.3794
 9016SOL    HW138510   2.797   3.471   2.166 -1.2829  2.7434 -0.2844
 9016SOL    HW238511   2.876   3.587   2.111 -2.4421  0.9827  0.7705
 9017SOL     OW38512   3.003   3.817   5.152 -0.1994 -0.2451 -0.1792
 9017SOL    HW138513   2.952   3.897   5.134 -0.8037 -0.2566  1.5085
 9017SOL    HW238514   3.051   3.803   5.070 -2.0798 -0.3113 -1.2673
 9018SOL     OW38515   1.385   1.071   2.802 -0.4485 -0.3844 -0.1679
 9018SOL    HW138516   1.296   1.048   2.778 -1.4992  2.8742  0.5867
 9018SOL    HW238517   1.405   1.017   2.878  0.8572  0.4058  0.0594
 9019SOL     OW38518   1.263   1.782   8.520  0.0069 -0.5933 -0.4365
 9019SOL    HW138519   1.285   1.840   8.446 -0.2061  0.6768  0.4934
 9019SOL    HW238520   1.289   1.702   8.475  2.7469  0.8430 -1.4177
 9020SOL     OW38521   0.564   0.663   6.492  0.3339  0.0907  0.4627
 9020SOL    HW138522   0.570   0.681   6.399  1.2643 -0.3744  0.4295
 9020SOL    HW238523   0.654   0.671   6.523  0.4469  2.9336 -0.6956
 9021SOL     OW38524   3.073   4.681   2.518 -0.0269 -0.2739 -0.4115
 9021SOL    HW138525   3.061   0.049   2.515 -1.2982 -0.3561  2.8772
 9021SOL    HW238526   3.022   4.657   2.440  0.0029  0.7140 -0.7270
 9022SOL     OW38527   1.779   3.393   4.930 -0.4550 -0.1851 -0.4860
 9022SOL    HW138528   1.735   3.470   4.894  0.6163  0.2616 -0.8387
 9022SOL    HW238529   1.729   3.381   5.010  0.1299  2.2430  0.2358
 9023SOL     OW38530   1.139   2.657  17.112  0.4890  0.4251 -0.1924
 9023SOL    HW138531   1.084   2.624  17.041  0.1499 -0.1585  0.3336
 9023SOL    HW238532   1.201   2.585  17.108  0.6081  0.5583 -0.7804
 9024SOL     OW38533   0.500   1.547  14.256  0.0198  0.0498  0.4012
 9024SOL    HW138534   0.456   1.479  14.305  1.7604 -0.1632  1.6717
 9024SOL    HW238535   0.445   1.625  14.263 -0.2343 -0.0519 -0.5019
 9025SOL     OW38536   0.919   0.568   3.481  0.6822 -0.2186  0.2792
 9025SOL    HW138537   0.896   0.509   3.410  1.6004 -0.0617 -0.1451
 9025SOL    HW238538   0.880   0.645   3.438  0.2621  0.8336  2.5664
 9026SOL     OW38539   2.546   1.858   9.246  0.4173 -0.0147 -0.9970
 9026SOL    HW138540   2.636   1.860   9.279  0.3476 -2.9444 -0.5794
 9026SOL    HW238541   2.534   1.953   9.242 -1.9174 -0.3033 -0.7192
 9027SOL     OW38542   3.942   3.905  12.146  0.0642 -0.8400 -0.1712
 9027SOL    HW138543   3.860   3.866  12.116 -1.1583  1.1200  0.5748
 9027SOL    HW238544   4.013   3.841  12.145  0.8386  0.0003  0.1972
 9028SOL     OW38545   1.248   3.784   3.233  0.2361 -0.1056  0.0291
 9028SOL    HW138546   1.233   3.769   3.326  1.0528 -1.2180 -0.0184
 9028SOL    HW238547   1.222   3.706   3.184 -0.9250  0.0016  0.4706
 9029SOL     OW38548   1.143   1.844  16.729 -0.1340 -0.0908  0.2572
 9029SOL    HW138549   1.079   1.788  16.772  1.2439 -2.4021 -0.6950
 9029SOL    HW238550   1.159   1.902  16.804  0.1035  0.4114 -0.1765
 9030SOL     OW38551   1.484   3.562  16.045 -0.7013 -0.3307 -0.2754
 9030SOL    HW138552   1.511   3.587  16.133 -1.1315 -0.3100 -0.1487
 9030SOL    HW238553   1.514   3.471  16.050 -0.1157 -0.0599  1.1402
 9031SOL     OW38554   2.093   2.982   9.401 -0.5801 -0.2338 -0.1484
 9031SOL    HW138555   2.085   2.992   9.307 -0.9749 -1.1392 -0.2078
 9031SOL    HW238556   2.172   2.928   9.407  1.2080  2.1261 -2.6425
 9032SOL     OW38557   2.361   3.537   4.166 -0.5709  0.2232 -0.1268
 9032SOL    HW138558   2.364   3.443   4.147 -1.7619  0.3284 -0.8487
 9032SOL    HW238559   2.435   3.565   4.111 -0.8670  0.9697 -0.1407
 9033SOL     OW38560   2.998   0.921   4.938  0.2721 -0.2096  0.3120
 9033SOL    HW138561   2.923   0.980   4.942 -2.1142 -3.3233  1.4683
 9033SOL    HW238562   3.043   0.977   4.874  1.4530 -0.0912  1.2303
 9034SOL     OW38563   2.318   1.335   1.860  0.6857  0.2314 -0.1417
 9034SOL    HW138564   2.275   1.266   1.809  2.6239 -0.0804 -1.3720
 9034SOL    HW238565   2.406   1.300   1.844  0.2248 -1.6848  1.5271
 9035SOL     OW38566   3.540   4.455   2.569 -0.4711  0.3488 -0.1703
 9035SOL    HW138567   3.621   4.495   2.600  0.0865 -1.9769  1.3328
 9035SOL    HW238568   3.480   4.529   2.567 -1.1408 -0.2338 -2.2622
 9036SOL     OW38569   2.209   0.371  13.098  0.0351 -0.4787  0.0389
 9036SOL    HW138570   2.227   0.457  13.138  2.1052  0.2426 -2.4316
 9036SOL    HW238571   2.117   0.358  13.119  0.2826 -1.2758  0.5989
 9037SOL     OW38572   3.511   0.278   4.499 -0.0894  0.2537  0.2656
 9037SOL    HW138573   3.577   0.213   4.522  1.1513  1.0961 -0.9405
 9037SOL    HW238574   3.475   0.238   4.420 -1.5373  0.7982  0.6464
 9038SOL     OW38575   2.160   2.416  16.333 -0.4811 -0.0624 -0.3081
 9038SOL    HW138576   2.162   2.507  16.363 -0.9880  0.6724 -2.4607
 9038SOL    HW238577   2.066   2.397  16.327 -0.9541  1.5608  2.1372
 9039SOL     OW38578   1.253   3.792   4.234 -0.2710 -0.9717  0.5513
 9039SOL    HW138579   1.278   3.731   4.164  0.5801 -2.7537  2.4284
 9039SOL    HW238580   1.177   3.748   4.271  0.6835 -2.4800  0.7260
 9040SOL     OW38581   2.944   2.343  17.279  0.1815 -0.1962  0.3182
 9040SOL    HW138582   2.850   2.329  17.278 -0.0117  1.0893 -0.8696
 9040SOL    HW238583   2.977   2.261  17.316 -1.1729 -0.0211  1.8912
 9041SOL     OW38584   3.258   0.159  10.978 -0.0021 -0.1534 -0.0916
 9041SOL    HW138585   3.230   0.067  10.978 -0.4746 -0.0132 -1.3696
 9041SOL    HW238586   3.196   0.208  11.032  0.3092  1.0601 -0.8203
 9042SOL     OW38587   3.091   3.362   4.479 -0.4680  0.2411  0.5161
 9042SOL    HW138588   3.155   3.303   4.439 -0.4322  0.1695  0.6796
 9042SOL    HW238589   3.139   3.444   4.488  0.9835 -0.7663  1.8772
 9043SOL     OW38590   1.320   0.477   8.664  0.9763  0.7689  0.4469
 9043SOL    HW138591   1.385   0.439   8.605 -0.0555 -1.0033  0.4328
 9043SOL    HW238592   1.321   0.564   8.626  1.3387  0.3676 -0.4547
 9044SOL     OW38593   2.403   4.075   1.586 -0.2352 -0.1201  0.2797
 9044SOL    HW138594   2.369   4.070   1.497  1.7589  1.4636 -0.5751
 9044SOL    HW238595   2.482   4.116   1.552  0.0909  0.6523  1.9429
 9045SOL     OW38596   1.783   1.969   7.378  0.0435 -0.3562 -0.2131
 9045SOL    HW138597   1.790   2.065   7.382  0.9129 -0.4043 -0.6582
 9045SOL    HW238598   1.758   1.953   7.287  1.0313 -1.0682 -0.3554
 9046SOL     OW38599   0.350   0.604   9.063 -0.0233  0.3846 -0.1720
 9046SOL    HW138600   0.308   0.684   9.093  0.2500 -0.6803  3.0684
 9046SOL    HW238601   0.436   0.614   9.105 -0.6168 -1.3079  1.4575
 9047SOL     OW38602   0.377   4.062  17.330 -0.0635 -0.2958  0.0962
 9047SOL    HW138603   0.387   3.983  17.383  0.4827 -1.3099 -1.5194
 9047SOL    HW238604   0.394   4.024  17.244  1.6605 -1.2425  0.8687
 9048SOL     OW38605   0.098   2.316  10.115 -0.2318  0.2458 -0.2395
 9048SOL    HW138606   0.068   2.228  10.138 -1.0473  0.8022  0.7963
 9048SOL    HW238607   0.042   2.349  10.045 -1.6154  1.5325  1.5129
 9049SOL     OW38608   0.194   3.414   6.210 -0.7463  0.0189  0.1778
 9049SOL    HW138609   0.112   3.368   6.194 -0.0427 -0.6069 -1.6284
 9049SOL    HW238610   0.200   3.479   6.141  3.9343 -0.2580  0.2884
 9050SOL     OW38611   2.511   1.904   9.990  0.5069  0.5651  0.5123
 9050SOL    HW138612   2.416   1.898   9.995  0.4789  1.0430  0.4986
 9050SOL    HW238613   2.536   1.814   9.971 -1.7676 -0.1552  0.9562
 9051SOL     OW38614   4.063   1.304   5.293 -0.0988 -0.0353 -0.3126
 9051SOL    HW138615   4.106   1.383   5.325  0.3266  0.0247 -1.0472
 9051SOL    HW238616   4.108   1.283   5.211  0.0249 -1.0472  0.0159
 9052SOL     OW38617   2.489   2.643   4.183 -0.3664 -0.1393 -0.1671
 9052SOL    HW138618   2.497   2.553   4.217  0.0096  0.2061  0.6553
 9052SOL    HW238619   2.491   2.624   4.089  1.6111 -1.2179  0.0910
 9053SOL     OW38620   3.036   2.741  14.428  0.0716 -0.1910 -0.0446
 9053SOL    HW138621   3.082   2.661  14.402  2.0035  1.1549 -0.7710
 9053SOL    HW238622   2.997   2.767  14.345 -1.6911  0.6568  1.0567
 9054SOL     OW38623   3.117   3.422   5.465  0.3358 -0.2276 -0.1615
 9054SOL    HW138624   3.111   3.332   5.435  0.0800  0.0697 -1.0057
 9054SOL    HW238625   3.061   3.475   5.408  0.6058  3.5491  3.0264
 9055SOL     OW38626   1.204   0.842  16.346  0.0330  0.4072 -0.3247
 9055SOL    HW138627   1.164   0.869  16.264 -2.1648  0.4944  0.7881
 9055SOL    HW238628   1.227   0.752  16.325 -0.2470  0.3981 -0.5825
 9056SOL     OW38629   3.732   3.516  13.567  0.6780  0.0975  0.1591
 9056SOL    HW138630   3.753   3.456  13.496  2.0940  0.5967  0.1586
 9056SOL    HW238631   3.651   3.543  13.524  0.9986  1.3222  0.3231
 9057SOL     OW38632   0.227   3.250   7.637 -0.2754 -0.8637 -0.4306
 9057SOL    HW138633   0.142   3.280   7.605  0.4723 -0.2468 -1.8564
 9057SOL    HW238634   0.207   3.157   7.633  0.3434 -1.0000 -0.3686
 9058SOL     OW38635   3.147   4.428   0.771  0.1108 -0.2983  0.5148
 9058SOL    HW138636   3.212   4.390   0.831  1.7909 -0.7949 -1.6545
 9058SOL    HW238637   3.191   4.400   0.691 -1.2095  0.9819 -0.6458
 9059SOL     OW38638   0.051   3.046   9.068  0.3201 -0.1837  0.3702
 9059SOL    HW138639   0.102   3.071   8.991  0.9630  0.4587  1.0076
 9059SOL    HW238640   4.690   3.023   9.035  0.3484  0.6375 -0.2860
 9060SOL     OW38641   0.755   4.452   5.868 -0.0783 -0.1927 -0.3777
 9060SOL    HW138642   0.718   4.445   5.779 -1.1295  0.0326  0.0397
 9060SOL    HW238643   0.753   4.547   5.875 -0.2193 -0.4127  2.2382
 9061SOL     OW38644   2.294   0.280   4.444  0.2145  0.4822 -0.1405
 9061SOL    HW138645   2.383   0.245   4.454  0.1208  0.6903  1.3887
 9061SOL    HW238646   2.276   0.281   4.350 -1.7099 -2.8694  0.1794
 9062SOL     OW38647   1.981   3.936   5.359  0.5077 -0.1583 -0.2997
 9062SOL    HW138648   1.946   3.856   5.400  1.5162  1.1487  3.0995
 9062SOL    HW238649   2.003   3.991   5.434  1.1577  0.5704 -1.0381
 9063SOL     OW38650   3.363   1.554   4.940 -0.1631  0.1452 -0.2929
 9063SOL    HW138651   3.354   1.471   4.987 -0.5870 -0.1960 -0.9766
 9063SOL    HW238652   3.398   1.520   4.858  0.1258 -1.3540  0.4374
 9064SOL     OW38653   0.553   3.116   8.124  0.1297  0.4178  0.4237
 9064SOL    HW138654   0.473   3.080   8.162 -0.5949 -0.4861 -1.9649
 9064SOL    HW238655   0.600   3.154   8.198  0.6310 -0.1484  0.3871
 9065SOL     OW38656   0.531   2.779   6.239  0.0832 -0.0747 -0.4095
 9065SOL    HW138657   0.583   2.705   6.206  0.4553 -0.2640  0.6152
 9065SOL    HW238658   0.494   2.733   6.314  2.4067 -0.8598  0.2741
 9066SOL     OW38659   0.097   2.520   7.319 -0.4118 -0.1147 -0.1178
 9066SOL    HW138660   0.103   2.454   7.388  0.7336  0.4914  0.3626
 9066SOL    HW238661   0.166   2.492   7.258 -1.1079  1.0229 -1.4329
 9067SOL     OW38662   3.462   2.906   8.867  0.1559  0.3226 -1.1333
 9067SOL    HW138663   3.419   2.821   8.869  1.8862 -0.5483 -0.6513
 9067SOL    HW238664   3.517   2.891   8.944  2.2601 -1.7024 -3.0116
 9068SOL     OW38665   1.634   0.351   5.780 -0.0473 -0.4055  0.2296
 9068SOL    HW138666   1.668   0.436   5.752  0.8828 -0.3385  1.5524
 9068SOL    HW238667   1.714   0.299   5.790 -0.2908 -0.2679  3.0428
 9069SOL     OW38668   4.702   2.011   5.035 -0.3793  0.1750 -0.0411
 9069SOL    HW138669   4.692   2.090   5.088  2.6823  0.9738 -0.6804
 9069SOL    HW238670   4.720   2.052   4.950  0.9731 -1.2064 -0.4272
 9070SOL     OW38671   4.314   3.556   2.538  0.5915 -0.5737 -0.5417
 9070SOL    HW138672   4.357   3.561   2.453  1.5175  2.4729  0.1065
 9070SOL    HW238673   4.222   3.542   2.516 -0.3016  2.2022  1.3882
 9071SOL     OW38674   0.638   0.191   2.809  0.2124  0.3221  0.1209
 9071SOL    HW138675   0.565   0.216   2.752  0.4124 -1.8965 -1.1078
 9071SOL    HW238676   0.594   0.175   2.893  1.9860 -0.4675  0.8951
 9072SOL     OW38677   4.599   3.595   9.626  0.3473 -0.2070 -0.1592
 9072SOL    HW138678   4.568   3.684   9.606 -0.5680 -0.3105  0.7526
 9072SOL    HW238679   4.612   3.597   9.721 -0.7104 -0.0193 -0.0093
 9073SOL     OW38680   2.100   0.697   8.185  0.2667  0.0098 -0.6701
 9073SOL    HW138681   2.067   0.784   8.208  1.5091 -0.2726  2.1707
 9073SOL    HW238682   2.022   0.650   8.156  0.5892 -0.4318 -0.8266
 9074SOL     OW38683   2.218   3.794   5.939  0.3855 -0.0325 -0.2866
 9074SOL    HW138684   2.305   3.832   5.931  0.6484 -0.4424  0.5858
 9074SOL    HW238685   2.197   3.764   5.850  1.2938 -3.3112  0.5870
 9075SOL     OW38686   1.305   4.041   6.683  0.3499 -0.1389  0.1998
 9075SOL    HW138687   1.324   4.132   6.707 -0.3717  0.4046 -1.2588
 9075SOL    HW238688   1.315   3.992   6.765 -0.3001  0.1194  0.4388
 9076SOL     OW38689   2.666   0.401  12.919  0.1143 -0.2351  0.4507
 9076SOL    HW138690   2.744   0.454  12.902  0.0010  0.0405  0.7800
 9076SOL    HW238691   2.701   0.357  12.997 -0.2716  0.2556  0.8986
 9077SOL     OW38692   4.055   3.095   7.041  0.0807  0.1721  0.0777
 9077SOL    HW138693   3.976   3.127   6.997  0.7350  0.9004 -0.5821
 9077SOL    HW238694   4.059   3.169   7.102 -0.6026 -0.4372  0.8606
 9078SOL     OW38695   3.783   4.303   7.517  0.2057 -0.4590 -0.1708
 9078SOL    HW138696   3.713   4.325   7.456  0.9818 -0.2999 -0.9960
 9078SOL    HW238697   3.741   4.329   7.599  1.1352 -1.7239  0.7045
 9079SOL     OW38698   2.458   2.184   1.623 -0.0339  0.0843 -0.4511
 9079SOL    HW138699   2.396   2.111   1.622  0.7564 -0.6289  1.5355
 9079SOL    HW238700   2.537   2.148   1.583  1.1520  1.0927  0.9755
 9080SOL     OW38701   1.763   0.893   6.360 -0.1981 -0.3265  0.3477
 9080SOL    HW138702   1.731   0.856   6.278  1.9463  2.1770 -1.6506
 9080SOL    HW238703   1.706   0.855   6.427 -2.0223  0.1807 -0.9022
 9081SOL     OW38704   2.351   4.106  10.936 -0.0908 -0.1438  0.0709
 9081SOL    HW138705   2.334   4.027  10.885  0.1543 -0.8714  1.1131
 9081SOL    HW238706   2.430   4.135  10.891 -0.7996  2.0956  0.2919
 9082SOL     OW38707   3.552   3.058   8.108  0.1491  0.0105  0.3282
 9082SOL    HW138708   3.469   3.014   8.124  0.0939  0.1185  0.3378
 9082SOL    HW238709   3.568   3.075   8.201 -1.2643 -0.4459  0.6514
 9083SOL     OW38710   3.573   1.196  14.281 -0.2406 -0.1762 -0.2830
 9083SOL    HW138711   3.528   1.223  14.201 -0.2054 -1.8934 -0.8782
 9083SOL    HW238712   3.652   1.249  14.288 -0.5955  0.5825 -2.0111
 9084SOL     OW38713   3.468   3.419   6.745 -0.0010  0.4381  0.2720
 9084SOL    HW138714   3.406   3.348   6.765 -0.0425  0.6684  0.9763
 9084SOL    HW238715   3.432   3.481   6.809 -1.5639  0.9698 -1.1327
 9085SOL     OW38716   0.925   2.840   6.293  0.1363  0.6187 -0.3851
 9085SOL    HW138717   0.864   2.912   6.278 -0.4945  0.3940  1.0540
 9085SOL    HW238718   1.000   2.888   6.326 -0.4984  0.2150  1.6486
 9086SOL     OW38719   2.310   0.490   9.981  0.8084  0.6871 -0.3240
 9086SOL    HW138720   2.313   0.460   9.891  1.3550  1.5163 -0.5817
 9086SOL    HW238721   2.394   0.459  10.014  0.7741 -1.9656 -2.7384
 9087SOL     OW38722   3.731   0.515   5.539 -0.2801 -0.1578  0.0041
 9087SOL    HW138723   3.651   0.564   5.557 -0.2766  0.3594 -1.3114
 9087SOL    HW238724   3.799   0.579   5.558  1.1535 -1.9543  0.9305
 9088SOL     OW38725   3.910   3.806  10.861  0.6941 -0.2333  0.8405
 9088SOL    HW138726   3.933   3.755  10.783  1.6233  1.0408  0.2956
 9088SOL    HW238727   3.972   3.875  10.838  0.4445 -0.6963 -1.1840
 9089SOL     OW38728   0.159   3.746   5.735  0.2993 -0.5595  0.2170
 9089SOL    HW138729   0.191   3.779   5.820 -2.2289 -0.6861  1.2087
 9089SOL    HW238730   0.203   3.661   5.734 -0.3064 -0.8664 -0.0142
 9090SOL     OW38731   0.153   2.922   6.208  0.1653 -0.0922 -0.3708
 9090SOL    HW138732   0.172   2.984   6.278  1.8892 -0.9209 -0.1219
 9090SOL    HW238733   0.071   2.967   6.187  1.4825  1.3426 -2.4511
 9091SOL     OW38734   2.128   3.104   8.248 -0.0257  0.6570 -0.6784
 9091SOL    HW138735   2.209   3.102   8.197 -0.3217  2.3015 -1.2330
 9091SOL    HW238736   2.111   3.011   8.232 -0.5037  0.7523 -0.7393
 9092SOL     OW38737   4.452   0.708   7.751  0.1716 -0.6567 -0.0055
 9092SOL    HW138738   4.425   0.640   7.689 -0.7896 -0.5842  0.3268
 9092SOL    HW238739   4.503   0.767   7.696  1.8196 -3.5644 -1.6083
 9093SOL     OW38740   1.512   2.600   2.740 -0.5325 -0.2411  0.0368
 9093SOL    HW138741   1.607   2.588   2.742 -0.4403  0.5366  0.3331
 9093SOL    HW238742   1.499   2.599   2.645 -2.7835  2.4114  0.3392
 9094SOL     OW38743   2.746   0.530   5.861  0.4160  0.1799  0.2968
 9094SOL    HW138744   2.664   0.481   5.864  2.0002 -2.3825  1.5476
 9094SOL    HW238745   2.720   0.593   5.794  0.2085 -0.1054  0.1062
 9095SOL     OW38746   3.213   4.435   6.797 -0.3756 -0.0116 -0.5941
 9095SOL    HW138747   3.191   4.365   6.736 -0.8204  0.3350 -0.8254
 9095SOL    HW238748   3.262   4.494   6.740 -0.3712  1.3528  0.8065
 9096SOL     OW38749   4.517   4.318   6.836 -0.1883  0.3641  0.1174
 9096SOL    HW138750   4.526   4.223   6.826 -1.5542  0.2431  0.0932
 9096SOL    HW238751   4.423   4.332   6.834 -0.2699  0.0427  1.5438
 9097SOL     OW38752   3.449   1.527   4.682 -0.4807 -0.0821 -0.3897
 9097SOL    HW138753   3.389   1.569   4.620 -2.0420 -1.7854 -0.0019
 9097SOL    HW238754   3.508   1.480   4.623  0.8392  0.6742  0.3315
 9098SOL     OW38755   1.698   4.536   2.765  0.6418 -0.3188 -0.3199
 9098SOL    HW138756   1.670   4.504   2.851  2.7078  3.5418  1.7578
 9098SOL    HW238757   1.642   4.480   2.711 -1.2730  1.3682 -0.1126
 9099SOL     OW38758   4.662   4.153   3.508  0.4421  0.0923 -0.1480
 9099SOL    HW138759   0.008   4.205   3.543  0.8521 -1.4543  1.3074
 9099SOL    HW238760   4.625   4.120   3.590 -0.8501  0.9305 -0.3988
 9100SOL     OW38761   2.156   2.304   0.823 -0.1859  0.1289 -0.3628
 9100SOL    HW138762   2.098   2.288   0.748  2.1000 -1.5934 -1.7637
 9100SOL    HW238763   2.245   2.298   0.790  1.1162 -0.5094  3.2977
 9101SOL     OW38764   0.625   2.835   8.835 -0.1442  0.3129  0.6506
 9101SOL    HW138765   0.630   2.930   8.846  3.0048 -0.0555  2.4059
 9101SOL    HW238766   0.683   2.803   8.904  0.6509  0.8718  0.2336
 9102SOL     OW38767   3.887   3.777   9.866 -0.6492  0.4296  0.3196
 9102SOL    HW138768   3.850   3.688   9.864  1.7919 -0.5583 -0.3905
 9102SOL    HW238769   3.833   3.819   9.934  3.0156  1.1975  2.7393
 9103SOL     OW38770   1.088   0.759   1.211 -0.4650 -0.0082 -0.5381
 9103SOL    HW138771   1.174   0.749   1.251 -0.4473 -2.0999 -1.0883
 9103SOL    HW238772   1.087   0.674   1.167  0.0557  0.0428 -0.6552
 9104SOL     OW38773   2.968   1.933   1.534  0.0422 -0.4386  0.2754
 9104SOL    HW138774   2.979   1.926   1.439  2.4927  0.7531  0.4930
 9104SOL    HW238775   2.911   2.010   1.529  0.4704 -0.1525 -0.2004
 9105SOL     OW38776   4.726   0.818   8.657 -0.1423 -0.2938 -0.2477
 9105SOL    HW138777   0.010   0.824   8.562  0.7460  1.9264 -0.0147
 9105SOL    HW238778   4.705   0.908   8.684 -1.2950 -0.0142 -2.1097
 9106SOL     OW38779   0.153   3.828   2.720 -0.3318  0.0825 -0.0264
 9106SOL    HW138780   0.092   3.864   2.655 -1.1777 -0.0697  0.6858
 9106SOL    HW238781   0.232   3.844   2.669  0.0304  1.3140  0.9186
 9107SOL     OW38782   0.368   0.816  14.545  0.0896 -0.4773  0.2716
 9107SOL    HW138783   0.446   0.868  14.566 -0.3303  0.5132 -0.6477
 9107SOL    HW238784   0.369   0.826  14.450 -0.3718 -2.7558  0.0160
 9108SOL     OW38785   3.069   1.195   3.219 -0.4493 -0.5239  0.0145
 9108SOL    HW138786   3.061   1.168   3.310  1.7362 -0.9782  0.0582
 9108SOL    HW238787   3.083   1.109   3.180  2.1399 -0.9780  2.0214
 9109SOL     OW38788   0.590   2.183   2.543 -0.0775  0.0325  0.2154
 9109SOL    HW138789   0.506   2.217   2.513  2.0118  3.1881 -2.0611
 9109SOL    HW238790   0.578   2.089   2.532 -0.9917  0.1867 -0.0786
 9110SOL     OW38791   0.206   0.218   6.281 -0.5202  0.3621  0.4724
 9110SOL    HW138792   0.184   0.129   6.306 -2.1134  1.5076  3.1895
 9110SOL    HW238793   0.143   0.264   6.337 -0.9897 -1.5853  1.5464
 9111SOL     OW38794   2.080   1.683   6.612 -0.0223  0.2412 -0.4488
 9111SOL    HW138795   2.065   1.711   6.522  4.2665 -1.4093 -1.6854
 9111SOL    HW238796   2.150   1.619   6.601 -1.4683 -0.5781 -4.5156
 9112SOL     OW38797   3.157   1.112   5.886 -0.2254  0.2711 -0.2774
 9112SOL    HW138798   3.163   1.139   5.794 -2.9108 -1.2826 -0.8841
 9112SOL    HW238799   3.152   1.201   5.921 -0.2351 -0.2130  0.9273
 9113SOL     OW38800   1.968   2.282   0.621 -0.1021  0.3148 -0.0775
 9113SOL    HW138801   1.960   2.211   0.557  2.0414  0.7694 -0.8752
 9113SOL    HW238802   1.958   2.358   0.563  0.0048 -0.5543 -1.2272
 9114SOL     OW38803   0.065   2.639   0.666  0.1850 -0.4691  0.3398
 9114SOL    HW138804   0.087   2.645   0.574  0.9625  1.5928  0.6773
 9114SOL    HW238805   0.150   2.653   0.708 -0.1932  0.4819  0.7968
 9115SOL     OW38806   1.675   3.274   9.087  0.1318 -0.4603  0.2894
 9115SOL    HW138807   1.603   3.283   9.024  0.3971  0.9913  0.1983
 9115SOL    HW238808   1.745   3.325   9.048  0.4911 -1.8848 -0.9160
 9116SOL     OW38809   1.703   1.577   8.856 -0.0866 -0.0625  0.2806
 9116SOL    HW138810   1.743   1.495   8.884 -2.1862 -0.9994  0.4806
 9116SOL    HW238811   1.640   1.545   8.792  1.5943 -2.5657 -0.1047
 9117SOL     OW38812   3.461   0.420  15.665 -0.0156 -0.1849 -0.0892
 9117SOL    HW138813   3.493   0.447  15.579 -3.0553 -2.1431 -1.8526
 9117SOL    HW238814   3.378   0.467  15.670 -1.0214 -1.5082 -4.2639
 9118SOL     OW38815   3.280   3.155  11.874  0.0544  0.6406  0.3574
 9118SOL    HW138816   3.375   3.165  11.881 -0.1019  0.7738  2.3317
 9118SOL    HW238817   3.270   3.164  11.779  0.6882 -0.2904  0.1994
 9119SOL     OW38818   2.384   4.622  11.438 -0.2581  0.4033  0.1208
 9119SOL    HW138819   2.380   4.527  11.448 -0.7001  0.6632  2.4356
 9119SOL    HW238820   2.428   4.622  11.353 -0.5327  1.6084 -0.0213
 9120SOL     OW38821   2.017   2.964   1.604  0.4768  0.6127 -0.0579
 9120SOL    HW138822   1.949   2.990   1.542  0.2679 -0.5485 -0.3288
 9120SOL    HW238823   2.005   3.022   1.679  1.4911 -1.1366  1.4708
 9121SOL     OW38824   3.141   4.374   9.663 -0.3470 -0.9352  0.1896
 9121SOL    HW138825   3.173   4.434   9.596  0.0336 -1.0481  0.2723
 9121SOL    HW238826   3.205   4.399   9.730 -0.2446  1.3799 -0.7567
 9122SOL     OW38827   4.535   3.573   5.666 -0.0054  0.0810 -0.6829
 9122SOL    HW138828   4.445   3.600   5.681 -0.0279 -0.5874  0.3381
 9122SOL    HW238829   4.575   3.659   5.653  0.9550 -0.0166  1.6447
 9123SOL     OW38830   3.211   2.892   6.664  0.0329  0.4168 -0.3000
 9123SOL    HW138831   3.191   2.831   6.594 -1.2562 -1.5007  1.7446
 9123SOL    HW238832   3.305   2.876   6.675 -0.5051 -1.4855  1.4981
 9124SOL     OW38833   4.223   0.310   8.711 -0.0835  0.0709  0.1566
 9124SOL    HW138834   4.167   0.263   8.772  0.4971 -0.0694  0.5863
 9124SOL    HW238835   4.296   0.317   8.772  0.6926  0.4397 -0.7942
 9125SOL     OW38836   4.252   3.261   6.930  0.3223  0.2537 -0.6538
 9125SOL    HW138837   4.204   3.211   6.996  0.9284  0.3993 -0.0992
 9125SOL    HW238838   4.194   3.248   6.855 -2.3601 -0.4668  1.5261
 9126SOL     OW38839   3.324   0.685   3.048  0.4848 -0.2722 -0.2223
 9126SOL    HW138840   3.368   0.601   3.032  2.9973  1.2571 -1.2881
 9126SOL    HW238841   3.275   0.655   3.125  1.0415 -0.6764 -0.0233
 9127SOL     OW38842   0.258   3.667   3.389 -0.0938 -0.0349  0.3369
 9127SOL    HW138843   0.171   3.671   3.349 -0.8506 -2.7085  1.7687
 9127SOL    HW238844   0.314   3.702   3.319 -0.3701  0.8611  0.5549
 9128SOL     OW38845   4.507   3.186   0.357 -0.2972  0.3509 -0.3862
 9128SOL    HW138846   4.546   3.219   0.277 -0.0048  0.6224 -0.1295
 9128SOL    HW238847   4.587   3.187   0.409 -0.1868  0.6875 -0.5654
 9129SOL     OW38848   2.372   4.384  15.373  0.0127 -0.3542  0.8627
 9129SOL    HW138849   2.354   4.404  15.281 -0.2911 -1.4939  0.6718
 9129SOL    HW238850   2.466   4.401  15.373  0.7463 -4.3697 -1.3450
 9130SOL     OW38851   1.407   3.274  14.794 -0.1064  0.6454 -0.0859
 9130SOL    HW138852   1.375   3.358  14.827 -0.9026 -0.0167  0.8031
 9130SOL    HW238853   1.378   3.284  14.703  2.4516 -1.2803 -1.1243
 9131SOL     OW38854   2.260   3.224   3.004 -0.2083  0.1529  0.1942
 9131SOL    HW138855   2.218   3.250   2.922  0.2683  0.5433  0.0726
 9131SOL    HW238856   2.312   3.297   3.036  2.1176 -1.8171  0.8998
 9132SOL     OW38857   0.924   3.617   9.142 -0.5151 -0.2723  0.4271
 9132SOL    HW138858   0.858   3.683   9.161 -1.7823 -1.5513  0.5068
 9132SOL    HW238859   0.989   3.671   9.098  0.2541 -1.4338  0.1351
 9133SOL     OW38860   4.072   2.143   4.335 -0.1856 -0.1017 -0.5565
 9133SOL    HW138861   4.029   2.215   4.380  0.7746 -0.2799  0.6592
 9133SOL    HW238862   4.145   2.186   4.290  1.5472 -1.3000  1.0673
 9134SOL     OW38863   4.385   0.292   5.306 -0.4169  0.2176  0.1783
 9134SOL    HW138864   4.315   0.271   5.366  1.5622 -1.0996  2.0283
 9134SOL    HW238865   4.446   0.327   5.371 -1.1639 -0.3045  1.1393
 9135SOL     OW38866   0.633   3.018  12.563  0.1989  0.3380  0.0980
 9135SOL    HW138867   0.601   2.931  12.586 -0.8502  0.5089 -0.7602
 9135SOL    HW238868   0.723   3.019  12.597 -0.0011  0.3645  0.6319
 9136SOL     OW38869   1.857   2.496  16.137  0.3632  0.7485  0.0892
 9136SOL    HW138870   1.872   2.427  16.202 -0.0553  2.1293  1.6600
 9136SOL    HW238871   1.832   2.448  16.058  2.0351  0.8846 -0.5202
 9137SOL     OW38872   2.638   1.335   1.724  0.5537 -0.8156 -0.7947
 9137SOL    HW138873   2.676   1.268   1.782  0.6889 -0.8074 -0.8733
 9137SOL    HW238874   2.681   1.306   1.644 -1.1435 -2.0490 -1.2467
 9138SOL     OW38875   1.734   3.607   0.954  0.0998 -0.0794  0.5998
 9138SOL    HW138876   1.639   3.613   0.941  0.3678  1.6204 -0.5699
 9138SOL    HW238877   1.723   3.518   0.988 -0.3864 -0.9918 -1.9070
 9139SOL     OW38878   4.539   0.560   4.372 -0.4094  0.0251 -0.2383
 9139SOL    HW138879   4.631   0.558   4.399 -1.1909  1.6342  2.5080
 9139SOL    HW238880   4.514   0.649   4.395 -1.0076  0.0894 -1.1378
 9140SOL     OW38881   4.013   2.160  17.009 -0.6740  0.1218 -0.4363
 9140SOL    HW138882   4.066   2.215  16.951 -1.5569  0.5663 -0.8209
 9140SOL    HW238883   4.074   2.149  17.082  2.5876  1.0330 -2.9972
 9141SOL     OW38884   1.118   3.622  14.597  0.4779 -0.1204 -0.2459
 9141SOL    HW138885   1.049   3.598  14.536 -0.3863 -0.5116  0.8898
 9141SOL    HW238886   1.179   3.652  14.529 -0.0089  1.0780 -0.1444
 9142SOL     OW38887   4.521   0.934   4.099  0.2900 -0.4606  0.1978
 9142SOL    HW138888   4.590   0.922   4.164 -0.5482 -0.7019  1.0382
 9142SOL    HW238889   4.582   0.952   4.028 -2.0250  1.4989 -1.3014
 9143SOL     OW38890   3.748   4.027   0.883  0.4552 -0.6760 -0.3244
 9143SOL    HW138891   3.841   4.047   0.871  0.1233  0.2134 -1.3347
 9143SOL    HW238892   3.737   4.083   0.960  2.3094  0.3861 -0.8416
 9144SOL     OW38893   4.222   3.367  10.649  0.1926  0.2584  0.4256
 9144SOL    HW138894   4.179   3.285  10.624 -0.0277  0.6707 -0.5836
 9144SOL    HW238895   4.241   3.409  10.565 -0.4232  0.6231  0.4605
 9145SOL     OW38896   1.771   2.343   3.617 -0.2761  0.2703 -0.3225
 9145SOL    HW138897   1.780   2.248   3.606  3.4680  0.7897 -1.9348
 9145SOL    HW238898   1.859   2.380   3.624 -0.4144  0.5654 -0.1384
 9146SOL     OW38899   3.555   1.517   9.253  0.1042 -0.3901  0.6078
 9146SOL    HW138900   3.586   1.542   9.340  1.4266 -1.1246  0.3433
 9146SOL    HW238901   3.630   1.481   9.206 -0.4424 -0.1726 -0.4472
 9147SOL     OW38902   4.051   0.359  15.416 -0.7039 -0.4497 -0.2278
 9147SOL    HW138903   3.966   0.378  15.377 -0.5968  2.6783  1.0511
 9147SOL    HW238904   4.098   0.435  15.381 -0.3512 -0.1088  0.9810
 9148SOL     OW38905   2.158   0.024   2.516 -0.2142  0.2354 -0.0174
 9148SOL    HW138906   2.205   0.091   2.466  1.0282 -1.7608 -1.4789
 9148SOL    HW238907   2.120   4.709   2.439  0.4711 -0.1787 -0.1295
 9149SOL     OW38908   1.558   3.853   6.279 -0.1582  0.2108 -0.0268
 9149SOL    HW138909   1.495   3.851   6.351 -0.5120  0.0921 -0.3395
 9149SOL    HW238910   1.642   3.884   6.313 -0.7829 -0.0362  1.6980
 9150SOL     OW38911   1.783   3.340   3.399  0.2540 -0.0017 -0.0824
 9150SOL    HW138912   1.865   3.293   3.409  1.2735  2.0070  1.0392
 9150SOL    HW238913   1.805   3.361   3.309  1.7920 -0.4114  0.2037
 9151SOL     OW38914   1.919   3.175  13.847  0.1288  0.1092 -0.1086
 9151SOL    HW138915   1.882   3.088  13.833 -0.6590  0.8000 -2.3933
 9151SOL    HW238916   2.011   3.155  13.832  0.4531  0.0758  1.9023
 9152SOL     OW38917   0.749   0.549   2.095  0.4475  0.2520  0.0533
 9152SOL    HW138918   0.765   0.630   2.047 -0.3160 -0.6789 -1.7589
 9152SOL    HW238919   0.658   0.527   2.077  0.3014  1.2914 -0.5200
 9153SOL     OW38920   3.837   2.261   9.643 -0.2427  0.3221  0.0410
 9153SOL    HW138921   3.865   2.307   9.722  0.4279 -2.3920  1.3747
 9153SOL    HW238922   3.761   2.217   9.681  0.2942 -1.6656 -1.1677
 9154SOL     OW38923   1.233   3.057   7.456 -0.4008  0.0124 -0.1049
 9154SOL    HW138924   1.284   3.069   7.376 -0.6243 -0.5896 -0.3362
 9154SOL    HW238925   1.229   3.151   7.477  0.6408 -0.2094  1.0399
 9155SOL     OW38926   2.676   1.431   8.185 -0.0975  0.2631 -0.4538
 9155SOL    HW138927   2.626   1.500   8.141  0.9027 -0.0183 -2.0037
 9155SOL    HW238928   2.629   1.426   8.269 -1.6708 -0.8860 -1.3848
 9156SOL     OW38929   1.519   2.030   4.835  0.0573  0.0023 -0.6841
 9156SOL    HW138930   1.471   1.993   4.909  0.3390 -0.0830 -0.5397
 9156SOL    HW238931   1.450   2.066   4.781 -0.7706  0.6931  0.8301
 9157SOL     OW38932   4.081   0.507   8.305 -0.2230 -0.3435 -0.0791
 9157SOL    HW138933   4.012   0.442   8.311 -0.5757  0.0494  0.1300
 9157SOL    HW238934   4.084   0.522   8.400 -0.1588  0.9898 -0.2845
 9158SOL     OW38935   0.477   0.965   3.462  0.2684  0.0075 -0.2177
 9158SOL    HW138936   0.515   0.918   3.388  0.2014 -0.0001 -0.2470
 9158SOL    HW238937   0.405   1.001   3.410 -0.5647 -0.6220  0.4963
 9159SOL     OW38938   4.489   2.400   6.586 -0.5661  0.0600 -0.4661
 9159SOL    HW138939   4.445   2.318   6.607 -0.4274 -0.4655 -2.2531
 9159SOL    HW238940   4.425   2.467   6.609 -0.8850 -0.7323  0.9482
 9160SOL     OW38941   1.003   1.538  17.129 -0.0077  0.1604 -0.3252
 9160SOL    HW138942   1.079   1.497  17.088 -1.5984 -0.9428 -2.1545
 9160SOL    HW238943   0.999   1.624  17.088  0.8337 -0.4305 -1.6517
 9161SOL     OW38944   0.058   3.173   7.267  0.4606 -0.7160  0.3098
 9161SOL    HW138945   0.033   3.258   7.304 -1.8867 -1.7452  1.0837
 9161SOL    HW238946   0.040   3.109   7.335 -0.0881 -0.5290  0.3411
 9162SOL     OW38947   3.043   3.761   4.111 -0.2738 -0.1641  0.5105
 9162SOL    HW138948   3.120   3.769   4.054  0.1955  0.6078  1.2472
 9162SOL    HW238949   3.017   3.852   4.124 -0.8061 -0.1471 -0.6577
 9163SOL     OW38950   4.486   2.901   3.469  0.3272  0.0735  0.4810
 9163SOL    HW138951   4.559   2.856   3.511 -0.3558 -0.1785  1.3965
 9163SOL    HW238952   4.449   2.829   3.418  1.2666 -0.0961  0.0302
 9164SOL     OW38953   3.703   3.859   3.102 -0.2685  0.2031  0.0465
 9164SOL    HW138954   3.687   3.951   3.121  1.4129  0.1757  1.6551
 9164SOL    HW238955   3.682   3.844   3.010  0.4036 -1.4842  0.1687
 9165SOL     OW38956   3.659   3.020   5.661 -0.2548 -0.3203  0.0644
 9165SOL    HW138957   3.571   3.049   5.638 -0.0232  1.0321  0.8770
 9165SOL    HW238958   3.709   3.009   5.580 -1.5558 -2.4658 -0.4539
 9166SOL     OW38959   0.463   3.107  13.902  0.2067 -0.0963 -0.0837
 9166SOL    HW138960   0.457   3.157  13.821 -0.9703 -0.0660  0.0105
 9166SOL    HW238961   0.551   3.070  13.893 -0.0564 -0.7510  0.0115
 9167SOL     OW38962   3.099   0.829   5.882 -0.5859  0.2795  0.1891
 9167SOL    HW138963   3.114   0.920   5.908 -0.8006  0.8047 -1.5213
 9167SOL    HW238964   3.013   0.841   5.842 -2.2075 -1.7377  3.0788
 9168SOL     OW38965   3.029   2.842  11.520  0.8362 -0.1885 -0.0626
 9168SOL    HW138966   3.036   2.891  11.438  1.7537  2.8655  1.8156
 9168SOL    HW238967   2.951   2.888  11.550  2.1108  2.2557 -0.4912
 9169SOL     OW38968   1.831   0.048   7.541 -0.4776  0.0324  0.1712
 9169SOL    HW138969   1.749   0.097   7.533  0.8734  2.2773  0.2565
 9169SOL    HW238970   1.871   0.087   7.618 -1.7114 -0.2296  0.9544
 9170SOL     OW38971   0.785   3.885   3.776  0.1026 -0.2056 -0.1120
 9170SOL    HW138972   0.846   3.816   3.751 -0.1214 -0.4008 -0.1231
 9170SOL    HW238973   0.712   3.868   3.716 -0.4227 -1.5712  0.8922
 9171SOL     OW38974   1.945   4.544   6.896  0.3035 -0.1108  0.0542
 9171SOL    HW138975   2.009   4.499   6.840  0.1114  0.3655 -0.5498
 9171SOL    HW238976   1.875   4.546   6.831 -0.0687  2.0621  0.5351
 9172SOL     OW38977   0.845   1.154   2.522  0.5537  0.0251 -0.1187
 9172SOL    HW138978   0.773   1.185   2.577  1.3486 -0.5032  1.2275
 9172SOL    HW238979   0.804   1.084   2.472 -0.1840  0.1346  0.3415
 9173SOL     OW38980   4.253   3.341   1.819  0.3952 -0.4803  0.4015
 9173SOL    HW138981   4.257   3.254   1.780  0.0633  1.4962 -4.0387
 9173SOL    HW238982   4.339   3.333   1.860  0.6340  0.7390  0.1468
 9174SOL     OW38983   2.224   4.550   3.834 -0.2080  0.4462 -0.0009
 9174SOL    HW138984   2.180   4.495   3.899 -1.5122  0.0361 -1.2208
 9174SOL    HW238985   2.164   4.543   3.759  0.5641 -0.4115 -0.5326
 9175SOL     OW38986   3.803   2.289   2.215  0.2767  0.5256 -0.3357
 9175SOL    HW138987   3.877   2.304   2.274 -0.5986  3.8617 -0.1035
 9175SOL    HW238988   3.839   2.234   2.145 -1.9627 -3.7861  1.8633
 9176SOL     OW38989   0.638   0.306   2.356 -0.0083  0.1070  0.1717
 9176SOL    HW138990   0.723   0.316   2.399  0.1763 -1.7675  0.2537
 9176SOL    HW238991   0.618   0.214   2.375 -1.6284  0.3414 -0.4299
 9177SOL     OW38992   2.471   4.189   3.367 -0.6039 -0.2927  0.1988
 9177SOL    HW138993   2.446   4.123   3.431 -0.2420  0.4902  1.1396
 9177SOL    HW238994   2.431   4.154   3.287 -1.2197  0.8168  0.0187
 9178SOL     OW38995   2.853   4.264   4.055 -0.2779  0.0500  0.2859
 9178SOL    HW138996   2.814   4.302   3.977  0.0562 -0.3719 -0.0840
 9178SOL    HW238997   2.779   4.286   4.112  0.0257 -0.7222  0.9822
 9179SOL     OW38998   1.065   4.095   1.387 -0.2429  0.0770  0.2400
 9179SOL    HW138999   1.029   4.134   1.466 -2.4663 -2.1592  0.3282
 9179SOL    HW239000   1.110   4.171   1.350 -0.3768 -0.0841 -0.2429
 9180SOL     OW39001   2.744   0.021   4.077  0.4858  0.1395 -0.0733
 9180SOL    HW139002   2.794   4.684   4.026  0.1821  0.8552 -1.2622
 9180SOL    HW239003   2.737   0.080   4.002 -0.8973 -0.4979 -0.4429
 9181SOL     OW39004   0.354   0.814  13.138 -0.2372  0.2524 -0.3454
 9181SOL    HW139005   0.431   0.826  13.082  0.2015 -1.4061 -0.1069
 9181SOL    HW239006   0.323   0.734  13.096  0.3795 -0.2732  0.2079
 9182SOL     OW39007   0.222   1.777   1.805  0.2838  0.2301 -0.2904
 9182SOL    HW139008   0.245   1.698   1.756  1.4569  0.1206  0.4277
 9182SOL    HW239009   0.243   1.758   1.896  4.2744 -0.2656 -1.3123
 9183SOL     OW39010   1.568   0.345   4.618 -0.0834 -0.1772  0.0240
 9183SOL    HW139011   1.586   0.252   4.605 -0.9167 -0.4364  0.7477
 9183SOL    HW239012   1.636   0.359   4.685 -0.3124 -1.6581  0.5666
 9184SOL     OW39013   4.189   2.060   1.887  0.1490  0.2806  0.2090
 9184SOL    HW139014   4.282   2.049   1.867 -0.4947 -0.9755 -2.1601
 9184SOL    HW239015   4.174   1.980   1.937  0.5096 -0.1016 -0.2890
 9185SOL     OW39016   4.167   0.321   9.685  0.7040  0.0925 -0.0422
 9185SOL    HW139017   4.102   0.305   9.617  1.0892  0.1778 -0.4322
 9185SOL    HW239018   4.109   0.328   9.760  2.8065  1.0229  1.4901
 9186SOL     OW39019   3.360   2.088  14.929  0.2553 -0.1960 -1.3049
 9186SOL    HW139020   3.307   2.064  14.853 -0.2716 -0.1464 -0.9533
 9186SOL    HW239021   3.377   2.177  14.899  2.0543  0.4923  1.7793
 9187SOL     OW39022   4.131   0.515   8.582  0.2518 -0.5965 -0.0998
 9187SOL    HW139023   4.047   0.517   8.628 -0.0393  0.7488 -0.6711
 9187SOL    HW239024   4.169   0.447   8.636  1.3931  0.1352  0.0124
 9188SOL     OW39025   4.547   3.651   7.037  0.6677  0.3887 -0.4397
 9188SOL    HW139026   4.524   3.668   7.128 -1.0435 -0.4597 -0.7130
 9188SOL    HW239027   4.465   3.632   6.992 -0.2475  0.2082  1.3105
 9189SOL     OW39028   1.046   1.414   3.098 -0.2930  0.1076 -0.6616
 9189SOL    HW139029   1.069   1.440   3.009  0.0042 -2.2452 -1.2870
 9189SOL    HW239030   0.992   1.485   3.132  0.0521  0.5442 -1.0303
 9190SOL     OW39031   0.844   0.413   3.261 -0.1936  0.0627  0.1343
 9190SOL    HW139032   0.756   0.450   3.249 -0.6993 -1.7857 -1.7961
 9190SOL    HW239033   0.811   0.347   3.323  3.3060 -0.6578  1.2418
 9191SOL     OW39034   0.019   3.401   3.359 -0.1941  0.0542 -0.2252
 9191SOL    HW139035   0.091   3.372   3.302 -0.9706 -2.1474 -0.1154
 9191SOL    HW239036   0.012   3.328   3.420 -1.7654  0.6316  0.2742
 9192SOL     OW39037   2.647   3.348   3.517  0.2763  0.1775 -0.7793
 9192SOL    HW139038   2.638   3.326   3.424 -0.2494  1.4119 -1.0193
 9192SOL    HW239039   2.705   3.424   3.516  0.9834 -0.3339  1.8751
 9193SOL     OW39040   3.452   1.495   6.100  0.0154 -0.3128  0.2208
 9193SOL    HW139041   3.545   1.504   6.122  0.0816  0.0203 -0.2125
 9193SOL    HW239042   3.449   1.572   6.043 -0.0746  0.3840  1.1508
 9194SOL     OW39043   2.751   1.961   8.017  0.1607 -0.4309  0.1667
 9194SOL    HW139044   2.778   1.925   7.932  1.3742 -0.0986  0.4139
 9194SOL    HW239045   2.832   1.933   8.059 -0.3379  0.0917  1.4603
 9195SOL     OW39046   0.582   0.655   3.601  0.0551  0.9005  0.0673
 9195SOL    HW139047   0.646   0.622   3.665  1.4187  2.1515 -0.6349
 9195SOL    HW239048   0.617   0.739   3.570 -1.7095  2.1224  1.3580
 9196SOL     OW39049   1.123   3.326   8.345  0.2845 -0.2172  0.4908
 9196SOL    HW139050   1.089   3.236   8.353  1.1434 -0.6210 -0.4255
 9196SOL    HW239051   1.116   3.365   8.432 -1.7593  0.3402  0.0760
 9197SOL     OW39052   0.269   2.110  17.644 -0.2118 -0.2226  0.7357
 9197SOL    HW139053   0.224   2.098   0.020 -3.2464  0.9555 -0.7316
 9197SOL    HW239054   0.236   2.197  17.619  0.4991  1.0964  4.3781
 9198SOL     OW39055   1.804   3.298   9.832  0.0921 -0.3937 -0.1182
 9198SOL    HW139056   1.863   3.372   9.844 -1.3793  0.8633 -0.5330
 9198SOL    HW239057   1.851   3.263   9.756  1.6633  0.2292  0.5635
 9199SOL     OW39058   4.246   1.379   5.953 -0.1267 -0.4612 -0.2030
 9199SOL    HW139059   4.303   1.456   5.958  0.3969 -0.7501 -1.7785
 9199SOL    HW239060   4.216   1.393   5.863 -0.2340  0.5099 -0.0211
 9200SOL     OW39061   1.186   3.571   7.242  0.2011  0.1796 -0.4812
 9200SOL    HW139062   1.224   3.633   7.304  0.3505  0.0979 -0.4907
 9200SOL    HW239063   1.094   3.585   7.266  0.5589  0.1304  0.9459
 9201SOL     OW39064   2.466   2.552  12.639 -0.5001 -0.1850 -0.2751
 9201SOL    HW139065   2.556   2.520  12.632 -0.5921 -0.2020 -1.4247
 9201SOL    HW239066   2.463   2.575  12.731  0.7289 -0.5083 -0.1571
 9202SOL     OW39067   0.772   3.392   9.004  0.7793 -0.2053 -0.4119
 9202SOL    HW139068   0.684   3.429   9.013  0.8768 -0.4815  1.6266
 9202SOL    HW239069   0.827   3.469   9.014 -0.6188  0.8677 -0.9982
 9203SOL     OW39070   3.056   2.478  16.271  0.2229 -0.7156  0.1280
 9203SOL    HW139071   2.966   2.488  16.302  0.4187 -1.3525  0.9028
 9203SOL    HW239072   3.101   2.488  16.354  2.4307  2.9985 -1.5161
 9204SOL     OW39073   1.136   2.436   3.869 -1.0881 -0.2297  0.1448
 9204SOL    HW139074   1.177   2.352   3.848  1.8919  1.2041  0.3607
 9204SOL    HW239075   1.041   2.425   3.874 -1.0162 -0.9593 -0.1367
 9205SOL     OW39076   3.716   2.088  13.426 -0.3738  0.1145 -0.5124
 9205SOL    HW139077   3.798   2.058  13.467 -0.6479 -0.5488 -0.4648
 9205SOL    HW239078   3.665   2.095  13.506  0.0470 -0.3454 -0.1998
 9206SOL     OW39079   2.513   0.980   3.205  0.1320  0.0777 -0.1262
 9206SOL    HW139080   2.511   0.886   3.187 -2.8112  0.2174 -0.5960
 9206SOL    HW239081   2.580   1.006   3.141  1.3397  0.8199  1.4387
 9207SOL     OW39082   1.638   0.643  13.546  0.1665  0.2803  0.0558
 9207SOL    HW139083   1.594   0.661  13.463 -0.1548 -0.9248 -0.0348
 9207SOL    HW239084   1.688   0.721  13.569 -0.8729  1.4330 -1.6127
 9208SOL     OW39085   1.687   3.413   5.774  0.6366  0.3216 -0.5206
 9208SOL    HW139086   1.605   3.440   5.816  0.7848  0.7029 -0.4771
 9208SOL    HW239087   1.646   3.368   5.700  1.0716  1.8630 -1.7035
 9209SOL     OW39088   2.472   1.643  15.749  1.0740  0.3392  0.1851
 9209SOL    HW139089   2.417   1.693  15.689  0.9038  1.9685  1.7062
 9209SOL    HW239090   2.477   1.706  15.821  1.3673 -0.5775  0.9551
 9210SOL     OW39091   1.887   4.678   3.450  0.3784 -0.3960 -0.5206
 9210SOL    HW139092   1.803   4.644   3.478  1.6721 -1.1169  2.4740
 9210SOL    HW239093   1.863   0.019   3.386 -0.8428  0.1575  0.5396
 9211SOL     OW39094   3.282   0.389   5.075  0.5769  0.6821  0.0058
 9211SOL    HW139095   3.356   0.421   5.024 -0.4724  0.1182 -1.8637
 9211SOL    HW239096   3.319   0.323   5.134 -0.9587 -1.9911 -1.9563
 9212SOL     OW39097   0.996   3.284   2.025  0.4322 -0.3804  0.1808
 9212SOL    HW139098   1.059   3.213   2.039 -0.1578 -0.3165  3.1704
 9212SOL    HW239099   0.999   3.315   2.116  1.1813  0.9893 -0.2985
 9213SOL     OW39100   0.475   4.553   9.246 -0.3916 -0.2219  0.3492
 9213SOL    HW139101   0.397   4.523   9.293 -0.4698 -0.5041  0.0462
 9213SOL    HW239102   0.530   4.591   9.314 -0.4087  0.6667 -0.1300
 9214SOL     OW39103   2.614   3.933  16.478 -0.6727 -0.1268  0.0480
 9214SOL    HW139104   2.560   3.993  16.426 -1.0925 -0.3481  0.2282
 9214SOL    HW239105   2.706   3.958  16.470 -1.5442  2.5684 -1.7508
 9215SOL     OW39106   0.888   4.118   0.326 -0.4169  0.2850  0.0978
 9215SOL    HW139107   0.819   4.183   0.317 -1.4322 -0.9284 -0.8505
 9215SOL    HW239108   0.949   4.160   0.386  1.0936 -3.1514  0.9837
 9216SOL     OW39109   4.468   3.789   4.952  0.7708 -0.8820 -0.6635
 9216SOL    HW139110   4.543   3.731   4.941  2.5451  1.1736  0.6809
 9216SOL    HW239111   4.432   3.757   5.035  0.5939  0.6228 -0.1612
 9217SOL     OW39112   3.956   1.385   7.963 -1.4084  0.3612 -0.7351
 9217SOL    HW139113   3.949   1.335   8.044 -3.7124  1.2496 -0.3900
 9217SOL    HW239114   3.866   1.417   7.950 -0.3862  2.5148 -2.4142
 9218SOL     OW39115   3.400   2.874   7.684 -0.1832  0.2401  0.1739
 9218SOL    HW139116   3.477   2.902   7.734  0.6263 -2.0069  0.1881
 9218SOL    HW239117   3.340   2.868   7.758 -0.5599  1.1423 -0.0624
 9219SOL     OW39118   0.383   1.555   4.865 -0.8145 -0.0119  0.2988
 9219SOL    HW139119   0.347   1.479   4.820  1.0923 -0.8613  0.2142
 9219SOL    HW239120   0.305   1.609   4.873 -1.0280 -0.1633 -0.7453
 9220SOL     OW39121   0.560   3.021   2.145 -0.7681 -0.2431  0.0220
 9220SOL    HW139122   0.616   3.012   2.068  0.2698 -1.6417  0.9592
 9220SOL    HW239123   0.473   2.992   2.116  0.0479 -0.5959 -2.0641
 9221SOL     OW39124   1.857   4.552  12.582 -0.1672 -0.1998 -0.0651
 9221SOL    HW139125   1.940   4.557  12.536 -0.1972  2.3100  0.1509
 9221SOL    HW239126   1.884   4.559  12.673 -3.0899  0.2498  0.7856
 9222SOL     OW39127   1.582   3.233  15.710  0.2321  0.1166 -0.9565
 9222SOL    HW139128   1.617   3.273  15.789 -1.6446 -0.7154  0.3146
 9222SOL    HW239129   1.489   3.256  15.713 -0.2906 -1.9702 -1.2200
 9223SOL     OW39130   0.803   0.878  17.118  0.7173  0.3432 -0.0384
 9223SOL    HW139131   0.784   0.860  17.026 -1.6500  0.6509  0.3903
 9223SOL    HW239132   0.843   0.965  17.108  0.3643  0.3111 -1.7628
 9224SOL     OW39133   3.995   4.167   1.082 -0.0024 -0.3153  0.2256
 9224SOL    HW139134   4.069   4.200   1.132 -1.4374  2.7600  0.2916
 9224SOL    HW239135   3.920   4.205   1.128  2.1777  3.3175  0.7507
 9225SOL     OW39136   0.642   3.949   5.264  0.2217 -0.0236 -0.7336
 9225SOL    HW139137   0.569   3.934   5.324  1.3923 -3.6026 -0.2013
 9225SOL    HW239138   0.647   4.042   5.284 -1.0873 -0.0372 -0.3337
 9226SOL     OW39139   1.537   3.018  15.977 -0.0506 -0.0528 -0.4611
 9226SOL    HW139140   1.479   3.051  16.045 -0.1331  1.1865 -1.1439
 9226SOL    HW239141   1.477   3.017  15.902 -2.0142  1.8553  1.0939
 9227SOL     OW39142   4.426   3.984   7.874 -0.6459 -0.0165  0.1622
 9227SOL    HW139143   4.428   4.025   7.788  1.6964 -0.5339 -0.0341
 9227SOL    HW239144   4.435   4.058   7.935 -1.5919 -0.2739  0.6137
 9228SOL     OW39145   3.246   2.901   5.083 -0.2033  0.5993  0.0257
 9228SOL    HW139146   3.191   2.824   5.072 -0.4026  0.6719  0.4968
 9228SOL    HW239147   3.335   2.864   5.092  0.4369  2.3037  0.6665
 9229SOL     OW39148   4.434   3.126   2.793  0.3376 -0.5654  0.1018
 9229SOL    HW139149   4.464   3.122   2.884  0.3281 -0.4022  0.1129
 9229SOL    HW239150   4.373   3.198   2.811  0.5089 -0.7144  1.3220
 9230SOL     OW39151   0.935   0.856   6.676  0.1008 -0.1664 -0.0590
 9230SOL    HW139152   0.925   0.856   6.580  0.5113 -0.5158 -0.0974
 9230SOL    HW239153   1.005   0.921   6.678  0.6314 -0.7733  0.7834
 9231SOL     OW39154   1.475   0.190   1.154  0.1861  0.3713  0.0891
 9231SOL    HW139155   1.528   0.111   1.159  1.5339  1.2676 -0.0852
 9231SOL    HW239156   1.523   0.254   1.101  0.7233  1.5503  1.9975
 9232SOL     OW39157   2.904   3.511   4.106  0.0930  0.2470  0.4620
 9232SOL    HW139158   2.917   3.604   4.125 -0.9470  0.9735 -2.4433
 9232SOL    HW239159   2.904   3.507   4.010  0.4824 -0.2108  0.4822
 9233SOL     OW39160   0.306   3.455   4.500 -0.0915  0.0376 -0.0747
 9233SOL    HW139161   0.371   3.385   4.505 -0.2215 -0.0003  1.0359
 9233SOL    HW239162   0.364   3.523   4.465 -0.6566  0.0142 -1.0777
 9234SOL     OW39163   1.603   2.968   4.280  0.0291  0.1615  0.1185
 9234SOL    HW139164   1.674   2.982   4.218  0.4174 -1.5493  0.1759
 9234SOL    HW239165   1.527   3.012   4.241 -0.2637  0.0585  0.5629
 9235SOL     OW39166   3.491   4.473  14.429  0.3629  0.3687  0.3319
 9235SOL    HW139167   3.505   4.474  14.334 -1.6489 -1.3480  0.0145
 9235SOL    HW239168   3.534   4.557  14.445  0.5389  0.7197 -1.9797
 9236SOL     OW39169   3.768   3.999   5.114  0.6198 -0.2374 -0.0240
 9236SOL    HW139170   3.745   3.997   5.207  2.0123 -1.8672  0.2855
 9236SOL    HW239171   3.854   3.957   5.108  0.8585  0.3811 -1.0215
 9237SOL     OW39172   2.813   1.152   5.452 -0.0639  0.2788  0.0178
 9237SOL    HW139173   2.745   1.165   5.517 -2.0674  1.0974 -2.2295
 9237SOL    HW239174   2.771   1.200   5.381 -2.1936 -0.9372  0.4393
 9238SOL     OW39175   2.324   1.812   4.264  0.1439 -0.5295  0.4989
 9238SOL    HW139176   2.265   1.748   4.306 -3.2844  2.8846  0.9071
 9238SOL    HW239177   2.304   1.810   4.170  0.6039  1.3854  0.3670
 9239SOL     OW39178   2.663   2.234   8.087  0.1122  0.1368  0.2949
 9239SOL    HW139179   2.655   2.202   8.177  0.8328  2.4412  1.1764
 9239SOL    HW239180   2.687   2.151   8.047 -2.0352  0.5213 -1.7909
 9240SOL     OW39181   0.311   2.499   7.671  0.5188 -0.2053 -0.0988
 9240SOL    HW139182   0.268   2.585   7.671 -0.3390 -0.6320  0.6134
 9240SOL    HW239183   0.307   2.478   7.764  1.7138 -0.0606 -0.0149
 9241SOL     OW39184   0.530   4.406   0.652 -0.4053 -0.6929  0.4840
 9241SOL    HW139185   0.551   4.313   0.649  2.1937 -0.1135  0.2274
 9241SOL    HW239186   0.592   4.452   0.595 -0.1697  2.1692  3.0325
 9242SOL     OW39187   2.473   4.207   2.573  0.4721  0.7882 -0.1303
 9242SOL    HW139188   2.477   4.203   2.478  0.9251 -0.0593 -0.0784
 9242SOL    HW239189   2.500   4.119   2.600  0.9217 -0.2606 -4.1069
 9243SOL     OW39190   4.438   4.231   5.417 -0.1149  0.3551 -0.1013
 9243SOL    HW139191   4.529   4.226   5.446  0.2112  3.6736 -0.6505
 9243SOL    HW239192   4.390   4.208   5.496  0.0545  0.3605  0.0033
 9244SOL     OW39193   4.199   3.357   3.733  0.1876  0.3555  0.2510
 9244SOL    HW139194   4.185   3.407   3.652 -0.0619 -1.7687 -0.9995
 9244SOL    HW239195   4.122   3.383   3.783 -0.5746 -1.4233 -0.0078
 9245SOL     OW39196   3.505   2.232   4.063  0.0993 -0.0193 -0.4145
 9245SOL    HW139197   3.417   2.265   4.045  0.7082  2.1496  0.6387
 9245SOL    HW239198   3.552   2.281   3.996 -0.4221 -2.3338 -2.5003
 9246SOL     OW39199   1.008   1.773   3.845 -0.6215  0.1877 -0.6180
 9246SOL    HW139200   1.073   1.742   3.782 -1.0395  1.3111 -1.6059
 9246SOL    HW239201   1.028   1.718   3.921 -1.6314 -0.7576 -1.0258
 9247SOL     OW39202   1.852   2.270  13.297 -0.3172 -0.2533 -0.0361
 9247SOL    HW139203   1.865   2.215  13.374  1.8594 -1.3942 -1.2174
 9247SOL    HW239204   1.800   2.338  13.340  1.4505  0.7787  0.4896
 9248SOL     OW39205   3.793   1.038   3.300  0.1675  0.2812  0.1724
 9248SOL    HW139206   3.863   1.020   3.237  0.4398 -1.7974  1.0900
 9248SOL    HW239207   3.742   0.958   3.300  0.6348 -0.0162  0.4639
 9249SOL     OW39208   1.739   0.928   3.491  0.5792 -0.0912  0.4491
 9249SOL    HW139209   1.758   0.896   3.402  0.8818  1.3328 -0.0007
 9249SOL    HW239210   1.645   0.942   3.477  0.4925  0.9815  2.1817
 9250SOL     OW39211   0.454   2.854   3.216 -0.3489  0.3555 -0.6187
 9250SOL    HW139212   0.489   2.812   3.138  1.8281 -1.3063  1.2813
 9250SOL    HW239213   0.531   2.904   3.242 -0.6853  0.5599 -0.0097
 9251SOL     OW39214   1.773   1.387  10.577  0.0446 -0.1575  0.6293
 9251SOL    HW139215   1.703   1.334  10.539 -0.9715  1.3154  0.4730
 9251SOL    HW239216   1.848   1.358  10.525 -0.7169 -1.7103  0.3947
 9252SOL     OW39217   2.293   0.412   3.299  0.2036 -0.4488 -0.2564
 9252SOL    HW139218   2.371   0.424   3.245  1.6409 -1.3767  1.6320
 9252SOL    HW239219   2.259   0.329   3.265  3.6707 -1.5125 -1.1382
 9253SOL     OW39220   1.112   2.446   2.140  0.3581  0.2178 -0.2821
 9253SOL    HW139221   1.078   2.474   2.055 -2.0522 -0.7813  0.3420
 9253SOL    HW239222   1.072   2.360   2.154 -1.9247  1.1099 -1.3007
 9254SOL     OW39223   1.890   2.584  15.359 -0.4252  0.1748 -0.4845
 9254SOL    HW139224   1.906   2.513  15.297  0.8167 -0.1837  0.2483
 9254SOL    HW239225   1.900   2.664  15.308 -1.6399  1.3664  1.1386
 9255SOL     OW39226   0.412   2.242  17.336 -0.5198 -0.0708  0.3815
 9255SOL    HW139227   0.470   2.265  17.263 -0.6522 -0.2815  0.2101
 9255SOL    HW239228   0.378   2.155  17.313  2.1082 -0.6953 -1.2018
 9256SOL     OW39229   3.983   0.465   6.383  0.0397 -0.6175 -0.1603
 9256SOL    HW139230   4.043   0.537   6.401 -0.8258  0.0873 -0.1285
 9256SOL    HW239231   4.042   0.390   6.397  1.1034 -0.0173 -1.4273
 9257SOL     OW39232   4.600   1.116   9.363 -0.6722 -0.1273  0.6077
 9257SOL    HW139233   4.600   1.026   9.330 -0.2793  0.0216  0.2017
 9257SOL    HW239234   4.650   1.161   9.296  0.1812 -2.8788 -0.6008
 9258SOL     OW39235   3.847   0.331  11.947 -1.0207 -0.2160  0.4209
 9258SOL    HW139236   3.795   0.365  12.020 -1.3217  0.5756 -0.1639
 9258SOL    HW239237   3.860   0.242  11.979  0.9770 -0.0794 -0.0097
 9259SOL     OW39238   1.232   1.721   6.900 -0.3874 -0.2260  0.0861
 9259SOL    HW139239   1.220   1.762   6.986  1.4245 -1.3779  0.8935
 9259SOL    HW239240   1.273   1.638   6.922  0.4606 -0.0043 -0.6643
 9260SOL     OW39241   0.976   0.449   8.190  0.2091 -0.0597  0.0495
 9260SOL    HW139242   0.897   0.496   8.164  1.0150 -0.1958 -2.6808
 9260SOL    HW239243   1.045   0.515   8.183  0.0968 -0.1967 -2.3612
 9261SOL     OW39244   0.517   1.002  15.896  0.4407  0.0756  0.4404
 9261SOL    HW139245   0.525   1.034  15.986 -0.1872  1.0127  0.1620
 9261SOL    HW239246   0.469   1.073  15.854 -0.1251 -0.3752  0.3206
 9262SOL     OW39247   0.887   1.089   7.510 -0.7036 -0.2386  0.0604
 9262SOL    HW139248   0.876   1.182   7.488 -1.9118 -0.1332  1.1300
 9262SOL    HW239249   0.904   1.111   7.601  2.1872 -3.6140  0.3202
 9263SOL     OW39250   3.343   2.880  11.630  0.3079 -0.4679 -0.5678
 9263SOL    HW139251   3.381   2.928  11.704 -3.8777 -0.1205  1.3811
 9263SOL    HW239252   3.396   2.903  11.554 -0.6438  2.7242 -0.2958
 9264SOL     OW39253   2.374   2.259   9.084  0.0377  0.0287  0.0366
 9264SOL    HW139254   2.351   2.170   9.110 -1.9316  0.0515 -1.6123
 9264SOL    HW239255   2.302   2.315   9.113 -0.1254 -1.9098  3.2935
 9265SOL     OW39256   1.036   0.436  13.726  0.0301  0.0947  0.1279
 9265SOL    HW139257   1.040   0.479  13.812  0.9529 -1.0325  0.6476
 9265SOL    HW239258   1.127   0.427  13.697 -0.2781  1.2468 -1.2128
 9266SOL     OW39259   1.237   4.498   8.301  0.3061  0.4804  0.0066
 9266SOL    HW139260   1.183   4.565   8.344 -1.3134 -0.3027 -0.7916
 9266SOL    HW239261   1.259   4.541   8.219  1.5475  1.7069  0.9718
 9267SOL     OW39262   2.907   1.456   7.239 -0.1577 -0.4090  0.4799
 9267SOL    HW139263   2.817   1.479   7.259  0.0694  0.2631  0.7249
 9267SOL    HW239264   2.942   1.541   7.214 -0.1953 -0.5144  0.0613
 9268SOL     OW39265   1.186   0.890   8.414  0.0571 -0.3793 -0.1679
 9268SOL    HW139266   1.132   0.924   8.343  1.4678  2.1573 -0.0587
 9268SOL    HW239267   1.217   0.973   8.451  0.4144 -1.6738  2.4671
 9269SOL     OW39268   0.053   4.344   8.968 -0.2248 -0.2290 -0.0914
 9269SOL    HW139269   0.081   4.433   8.948 -0.1709 -0.6023 -1.7236
 9269SOL    HW239270   0.046   4.307   8.880 -2.2130  1.2767 -0.5746
 9270SOL     OW39271   0.985   2.043  11.400  0.0859 -0.1500 -0.0381
 9270SOL    HW139272   1.010   2.131  11.373  1.6108 -0.2788  0.9459
 9270SOL    HW239273   1.066   1.993  11.395 -0.2825 -0.8090  0.5442
 9271SOL     OW39274   4.202   2.416  11.014 -0.1825  0.1599 -0.4276
 9271SOL    HW139275   4.128   2.392  11.071  0.4665  1.0614  0.7963
 9271SOL    HW239276   4.238   2.331  10.988  0.7584  1.1691 -2.3843
 9272SOL     OW39277   0.467   3.204   4.493  0.2741 -0.3094  0.3310
 9272SOL    HW139278   0.528   3.155   4.549  1.4008 -0.2362 -0.8433
 9272SOL    HW239279   0.388   3.156   4.518  1.5245 -1.0040  2.9211
 9273SOL     OW39280   1.124   1.722   7.745  0.8866  0.3751 -0.6056
 9273SOL    HW139281   1.041   1.751   7.705  1.3714  1.3817 -0.8844
 9273SOL    HW239282   1.098   1.719   7.837  1.2999  1.1450 -0.4599
 9274SOL     OW39283   2.170   2.531   0.999  0.1732  0.2255  0.0983
 9274SOL    HW139284   2.197   2.448   0.959 -0.9076  0.2716 -0.7588
 9274SOL    HW239285   2.086   2.552   0.958 -1.6431 -2.7588  2.2106
 9275SOL     OW39286   2.342   3.738  14.582  0.3041  0.1569  0.2760
 9275SOL    HW139287   2.284   3.809  14.609  0.3282  1.1840 -2.3797
 9275SOL    HW239288   2.411   3.734  14.647 -0.3835  0.8805  1.0523
 9276SOL     OW39289   1.597   3.566  15.693 -0.1183 -0.4762  0.9910
 9276SOL    HW139290   1.516   3.515  15.679 -0.1881  0.0230 -0.4619
 9276SOL    HW239291   1.612   3.554  15.786 -2.2387 -2.9815  1.0187
 9277SOL     OW39292   1.375   0.696   9.371 -0.2808 -1.0495 -0.3956
 9277SOL    HW139293   1.462   0.687   9.333  0.3038 -0.5816  0.8316
 9277SOL    HW239294   1.375   0.618   9.427 -1.1879 -0.2772  0.6799
 9278SOL     OW39295   4.656   0.392  13.255  0.3808  0.2887  0.5158
 9278SOL    HW139296   4.603   0.424  13.328  0.2097 -0.2330  0.6187
 9278SOL    HW239297   4.614   0.308  13.240  2.4628 -0.6970  0.1891
 9279SOL     OW39298   2.757   0.934   7.563  0.0599 -0.0284 -0.0437
 9279SOL    HW139299   2.765   1.029   7.555  1.3118 -0.0378  1.0366
 9279SOL    HW239300   2.766   0.902   7.473  4.4486 -2.8508  1.3844
 9280SOL     OW39301   1.376   2.743  16.589 -0.3832 -0.5550 -0.4040
 9280SOL    HW139302   1.469   2.759  16.572 -0.7756  0.0020 -2.0404
 9280SOL    HW239303   1.357   2.676  16.523 -1.0442  2.1119 -2.9129
 9281SOL     OW39304   1.872   1.593  10.320  0.2117 -0.7093  0.7238
 9281SOL    HW139305   1.896   1.683  10.298  2.0468 -1.4139 -0.1794
 9281SOL    HW239306   1.951   1.546  10.292  1.4456  1.3679  0.7550
 9282SOL     OW39307   3.382   1.355   5.128  0.1135  0.6043 -0.3729
 9282SOL    HW139308   3.325   1.282   5.153 -1.3955  1.2376 -1.9635
 9282SOL    HW239309   3.357   1.422   5.192 -1.5704  0.8401 -1.2936
 9283SOL     OW39310   0.430   1.562   6.693 -0.0041  0.8438  0.1772
 9283SOL    HW139311   0.490   1.491   6.670 -1.0800  0.7335 -2.2558
 9283SOL    HW239312   0.363   1.512   6.739 -0.5136 -0.5634 -2.0739
 9284SOL     OW39313   0.969   4.090   9.390 -0.0089 -0.0636 -0.3839
 9284SOL    HW139314   0.877   4.104   9.411  0.0840  1.6483 -1.1277
 9284SOL    HW239315   1.000   4.086   9.480  0.6011 -0.0259 -0.5895
 9285SOL     OW39316   3.381   2.540   6.965  0.3215 -0.1779 -0.0866
 9285SOL    HW139317   3.294   2.515   6.933  0.7751 -1.4273 -0.3525
 9285SOL    HW239318   3.431   2.554   6.885 -1.1767  2.0642 -0.6192
 9286SOL     OW39319   1.715   2.014   0.722  0.6669 -0.6073  0.1007
 9286SOL    HW139320   1.679   1.934   0.762  0.3611 -1.5907 -2.1844
 9286SOL    HW239321   1.782   2.034   0.788  0.8026 -0.9260  0.0600
 9287SOL     OW39322   4.516   0.027   4.723  0.1144  0.2276  0.3981
 9287SOL    HW139323   4.564   4.703   4.659 -0.6157  0.2311 -0.1434
 9287SOL    HW239324   4.566   0.013   4.804  0.6813 -0.3810 -0.0597
 9288SOL     OW39325   1.847   2.652  11.464  0.5845  0.2777  0.3590
 9288SOL    HW139326   1.862   2.732  11.414  0.4915 -0.8953 -1.5904
 9288SOL    HW239327   1.753   2.638  11.453  0.8526 -0.0539 -1.5489
 9289SOL     OW39328   2.534   3.277   6.316 -0.0121  0.0065 -0.1122
 9289SOL    HW139329   2.540   3.191   6.356 -1.2934 -0.6823 -1.3796
 9289SOL    HW239330   2.545   3.340   6.387  0.0466  1.8848 -1.7823
 9290SOL     OW39331   3.180   0.141   3.805 -0.4846  0.2148  0.0086
 9290SOL    HW139332   3.190   0.224   3.758 -0.5613 -0.1405 -0.6311
 9290SOL    HW239333   3.114   0.163   3.871 -0.4344  2.6797 -0.7570
 9291SOL     OW39334   2.267   0.826   0.571  0.2091  0.9344  0.5642
 9291SOL    HW139335   2.202   0.762   0.598 -1.5947  1.9916 -1.2404
 9291SOL    HW239336   2.346   0.779   0.542 -0.4087  0.6720 -0.7071
 9292SOL     OW39337   3.343   1.987   3.900 -0.1994 -0.3176 -0.0092
 9292SOL    HW139338   3.278   1.931   3.858 -0.6091 -0.6703  1.1023
 9292SOL    HW239339   3.389   1.925   3.956 -1.2281  0.4656  1.7060
 9293SOL     OW39340   1.419   0.024   7.080 -0.1408  0.2110 -0.3793
 9293SOL    HW139341   1.500   0.049   7.123  0.0725 -2.4543  0.7894
 9293SOL    HW239342   1.410   0.083   7.005 -3.4798  0.6261  0.3545
 9294SOL     OW39343   1.733   4.388   1.569 -0.1555  0.4907 -0.5401
 9294SOL    HW139344   1.805   4.416   1.512  1.3177  0.4144  1.2711
 9294SOL    HW239345   1.663   4.447   1.541 -0.2579  0.1577 -0.9749
 9295SOL     OW39346   3.021   4.472   6.003  0.4151 -0.0037  0.5809
 9295SOL    HW139347   3.094   4.513   6.050  0.0181 -0.0718  1.2506
 9295SOL    HW239348   3.007   4.529   5.928  2.4979 -1.5065 -0.9409
 9296SOL     OW39349   3.217   1.364   0.495 -0.0161 -0.7451 -0.1393
 9296SOL    HW139350   3.172   1.436   0.452  0.7973  0.1393  0.4884
 9296SOL    HW239351   3.160   1.294   0.463 -0.3197 -0.5581 -0.0035
 9297SOL     OW39352   2.298   4.535   9.758 -0.4029  0.2464  0.1482
 9297SOL    HW139353   2.252   4.489   9.688  0.1461 -1.4749  0.9211
 9297SOL    HW239354   2.356   4.465   9.784 -0.6883  0.8192  2.3231
 9298SOL     OW39355   3.742   4.196   7.113  0.2337  0.4474  0.2164
 9298SOL    HW139356   3.806   4.231   7.176  0.4247  0.7236 -0.1306
 9298SOL    HW239357   3.787   4.229   7.036  2.4385  0.4930  1.5158
 9299SOL     OW39358   0.350   3.322   8.448 -0.2438  0.5510  0.3172
 9299SOL    HW139359   0.440   3.345   8.425 -0.4383 -1.7721 -2.6554
 9299SOL    HW239360   0.302   3.318   8.365  0.1860 -1.0867  0.1544
 9300SOL     OW39361   0.312   0.324   6.970 -0.2664 -0.0049  0.0866
 9300SOL    HW139362   0.238   0.267   6.948  1.1804 -1.6781 -0.4838
 9300SOL    HW239363   0.313   0.325   7.066  0.0781  1.3693  0.0701
 9301SOL     OW39364   2.136   3.634   5.436 -0.0650  0.8275  0.6478
 9301SOL    HW139365   2.052   3.663   5.401 -0.3002  0.3950  0.8537
 9301SOL    HW239366   2.161   3.561   5.379  0.7957  1.6719 -0.0579
 9302SOL     OW39367   2.228   1.576  13.743 -0.2592 -0.5172 -0.2887
 9302SOL    HW139368   2.193   1.551  13.829 -1.2256 -0.3403 -0.6280
 9302SOL    HW239369   2.152   1.623  13.709  1.5995  2.8633  0.2737
 9303SOL     OW39370   4.243   3.804   7.691 -0.8311 -0.0906  0.5727
 9303SOL    HW139371   4.240   3.818   7.596  0.5779  1.5656  0.7673
 9303SOL    HW239372   4.220   3.888   7.731  1.9588  0.0179  1.9769
 9304SOL     OW39373   0.202   3.664  17.367  0.2730 -0.1807  0.1440
 9304SOL    HW139374   0.237   3.584  17.327  0.0466  0.6303 -1.7036
 9304SOL    HW239375   0.203   3.641  17.460  1.3690  0.2246  0.2264
 9305SOL     OW39376   2.139   3.140   3.470  0.4346  0.2149  0.1302
 9305SOL    HW139377   2.114   3.232   3.481  3.0113  0.6831  2.0140
 9305SOL    HW239378   2.233   3.143   3.488  0.6685 -0.0559 -1.0584
 9306SOL     OW39379   0.332   1.466  17.060  0.6086  0.5444  0.0471
 9306SOL    HW139380   0.244   1.439  17.033  0.4791  2.3658 -1.3412
 9306SOL    HW239381   0.329   1.421  17.144 -0.8673  1.8235  0.6938
 9307SOL     OW39382   1.445   4.549   1.124  0.4672  0.2120  0.1875
 9307SOL    HW139383   1.401   4.465   1.110 -0.3181  0.7480 -0.5471
 9307SOL    HW239384   1.378   4.610   1.157 -1.6710 -2.0655  0.0594
 9308SOL     OW39385   1.164   0.645   1.643  0.5499 -0.1947  0.5783
 9308SOL    HW139386   1.164   0.551   1.658 -1.1403 -0.2430  0.2025
 9308SOL    HW239387   1.071   0.663   1.655  0.6069  0.0897  0.5998
 9309SOL     OW39388   1.822   1.881  17.065 -0.4469 -0.2354  0.1021
 9309SOL    HW139389   1.809   1.961  17.014  2.3146  0.4558  0.4791
 9309SOL    HW239390   1.815   1.814  16.997  2.7796  0.7247 -1.1784
 9310SOL     OW39391   2.055   4.079   8.917  0.2241 -0.0726 -0.3066
 9310SOL    HW139392   2.059   4.065   8.822  0.1057 -0.1959 -0.2933
 9310SOL    HW239393   2.147   4.101   8.932 -0.1288  1.5971 -0.5458
 9311SOL     OW39394   3.951   4.601  14.460  0.4621 -0.4962  0.1732
 9311SOL    HW139395   4.029   4.656  14.456  0.7839 -0.9746 -0.0707
 9311SOL    HW239396   3.971   4.525  14.515 -1.1911 -0.2472  1.1577
 9312SOL     OW39397   1.451   3.785   8.613 -0.2433 -0.8950 -0.0930
 9312SOL    HW139398   1.433   3.827   8.529 -0.2846 -1.1030 -0.1869
 9312SOL    HW239399   1.445   3.692   8.596 -1.9180 -0.5314 -1.5487
 9313SOL     OW39400   0.013   1.835   4.678 -0.9745 -0.0415  1.0552
 9313SOL    HW139401   0.095   1.794   4.704 -0.2827  0.3795 -0.4271
 9313SOL    HW239402   0.049   1.913   4.636  0.7212 -1.2478  0.2788
 9314SOL     OW39403   4.168   2.867   0.560  0.0831 -0.0800 -0.1102
 9314SOL    HW139404   4.181   2.778   0.593  0.8485  0.2237  0.4207
 9314SOL    HW239405   4.254   2.908   0.569  0.1295  0.1454 -1.5803
 9315SOL     OW39406   0.937   0.158   7.173 -0.0384 -0.0741  0.5039
 9315SOL    HW139407   0.869   0.194   7.229  1.5959  2.1070  1.1260
 9315SOL    HW239408   0.883   0.088   7.136 -0.5436  0.5345  0.0954
 9316SOL     OW39409   0.562   4.726   9.444 -0.0185 -0.8294 -0.3426
 9316SOL    HW139410   0.593   4.690   9.527 -0.9765  1.0434  0.8361
 9316SOL    HW239411   0.609   0.083   9.449 -0.4185 -0.5495 -1.3035
 9317SOL     OW39412   1.890   3.358   8.570 -0.2264  0.1324  0.0858
 9317SOL    HW139413   1.819   3.392   8.625 -0.6870 -0.9557  0.1810
 9317SOL    HW239414   1.960   3.421   8.585 -0.7859  1.0912 -1.3747
 9318SOL     OW39415   0.890   1.646  10.586 -0.1040 -0.4628 -0.1170
 9318SOL    HW139416   0.820   1.606  10.535  1.2430 -2.8811 -0.0694
 9318SOL    HW239417   0.966   1.602  10.547  0.5251  0.1541  0.4048
 9319SOL     OW39418   0.829   3.750   3.187 -0.3152  0.1729  0.3027
 9319SOL    HW139419   0.793   3.799   3.260 -1.0415 -2.1992  1.5434
 9319SOL    HW239420   0.782   3.666   3.191 -0.5640  0.2639 -0.7941
 9320SOL     OW39421   1.123   0.700   8.173  0.3862  0.1525  0.1235
 9320SOL    HW139422   1.073   0.781   8.164  0.3840  0.2000  0.5921
 9320SOL    HW239423   1.207   0.743   8.187 -0.4361  1.9439 -0.4900
 9321SOL     OW39424   4.671   2.141   1.627 -0.1468  0.5161 -0.1565
 9321SOL    HW139425   4.695   2.055   1.662  0.1507  1.1045  1.0567
 9321SOL    HW239426   0.031   2.160   1.591  0.6553 -1.3903  0.7522
 9322SOL     OW39427   2.119   3.248   9.234  0.4989 -0.1028  0.0412
 9322SOL    HW139428   2.085   3.173   9.184 -0.4399  0.4825 -0.1788
 9322SOL    HW239429   2.037   3.288   9.261  0.7370  0.5723 -0.2513
 9323SOL     OW39430   4.703   1.218  13.510 -0.0840  0.1250  0.0370
 9323SOL    HW139431   4.718   1.312  13.518 -4.7028  0.7692  1.1894
 9323SOL    HW239432   4.631   1.202  13.571 -0.5592 -0.7599 -0.7569
 9324SOL     OW39433   2.712   3.210   5.128  0.1844  0.4363 -0.4994
 9324SOL    HW139434   2.631   3.168   5.097  0.0276  1.3768 -1.3758
 9324SOL    HW239435   2.777   3.142   5.109  1.5274  1.5592  0.0894
 9325SOL     OW39436   4.096   4.686   9.832  0.3441  0.2689 -0.1422
 9325SOL    HW139437   4.171   4.645   9.790 -1.6757 -1.7217 -1.8275
 9325SOL    HW239438   4.046   4.612   9.867  3.7402 -1.5404  0.8848
 9326SOL     OW39439   3.351   4.415   3.052  0.1010 -0.1603  0.2152
 9326SOL    HW139440   3.442   4.418   3.025  0.2262  0.3457  0.6894
 9326SOL    HW239441   3.315   4.341   3.003  1.7039 -0.7048 -0.1414
 9327SOL     OW39442   0.120   2.039  14.261  0.2681 -0.3805  0.3857
 9327SOL    HW139443   0.048   2.047  14.198 -0.3208 -1.6150  0.8899
 9327SOL    HW239444   0.080   2.091  14.331  0.0185  1.5566 -1.1962
 9328SOL     OW39445   2.677   3.539   8.617 -0.2673  0.1261 -0.1896
 9328SOL    HW139446   2.621   3.597   8.667 -0.0027 -2.0088  2.6113
 9328SOL    HW239447   2.729   3.495   8.686 -0.8543 -1.2684 -0.6342
 9329SOL     OW39448   2.079   4.308  11.151  1.0342  0.2273  0.0219
 9329SOL    HW139449   2.094   4.258  11.231 -2.2772 -0.1874  0.4020
 9329SOL    HW239450   2.059   4.241  11.084 -4.2849  1.4338  0.4054
 9330SOL     OW39451   4.208   2.375   1.825  0.3164  0.3326  0.3972
 9330SOL    HW139452   4.191   2.316   1.898  0.3089  0.1337  0.2358
 9330SOL    HW239453   4.279   2.431   1.857  1.0751 -0.2146 -0.3331
 9331SOL     OW39454   3.100   0.805  14.962  0.3932 -0.3187 -0.3368
 9331SOL    HW139455   3.131   0.887  15.000  2.3845 -1.0680 -0.3358
 9331SOL    HW239456   3.005   0.802  14.970  0.5105  0.9615  1.4212
 9332SOL     OW39457   2.541   0.909   5.844 -0.3858 -0.0543 -0.6801
 9332SOL    HW139458   2.499   0.920   5.759  2.8087 -0.7073 -2.3478
 9332SOL    HW239459   2.525   0.993   5.887 -0.6660 -0.2383 -0.4234
 9333SOL     OW39460   0.797   4.383  11.845  0.3204  0.2830 -0.4441
 9333SOL    HW139461   0.863   4.341  11.789  1.1478 -0.0723  0.8065
 9333SOL    HW239462   0.730   4.315  11.847  0.6547 -0.0280  0.2019
 9334SOL     OW39463   1.372   1.474   8.821  0.0065 -0.2309 -0.2541
 9334SOL    HW139464   1.452   1.441   8.779  1.4299  1.0039  1.4943
 9334SOL    HW239465   1.398   1.457   8.912  0.6061  1.8408 -0.0361
 9335SOL     OW39466   1.566   1.364   4.830 -0.0360 -0.3292 -0.0196
 9335SOL    HW139467   1.517   1.350   4.911 -1.6276 -0.2998 -0.9648
 9335SOL    HW239468   1.588   1.456   4.847 -0.7620 -0.4754  1.7399
 9336SOL     OW39469   2.702   3.388   7.294 -0.4305  0.3084 -0.0265
 9336SOL    HW139470   2.619   3.404   7.340  0.4288  1.9965  0.9261
 9336SOL    HW239471   2.658   3.349   7.219 -0.5570 -0.7364  0.5951
 9337SOL     OW39472   2.549   3.942   2.597  0.1145  0.3679  0.0393
 9337SOL    HW139473   2.576   3.860   2.638 -0.2411 -0.5048 -1.4812
 9337SOL    HW239474   2.615   3.961   2.531  1.3534 -3.0547  0.2952
 9338SOL     OW39475   2.813   4.126   1.323 -0.6324  1.0246 -0.2030
 9338SOL    HW139476   2.902   4.132   1.358 -0.5791 -1.1084  0.0412
 9338SOL    HW239477   2.763   4.149   1.401  2.1273  0.8909  1.6039
 9339SOL     OW39478   0.910   3.052  10.551 -0.2009  0.2823  0.0255
 9339SOL    HW139479   0.914   3.110  10.627  0.1921 -2.1827  1.8843
 9339SOL    HW239480   1.004   3.035  10.540 -0.2549 -1.4133  2.0601
 9340SOL     OW39481   1.285   2.814   8.660  0.3094  0.1591 -0.2865
 9340SOL    HW139482   1.307   2.822   8.753 -0.5016  0.1560 -0.0925
 9340SOL    HW239483   1.276   2.719   8.658 -1.9061  0.3649 -0.1482
 9341SOL     OW39484   1.278   3.946  10.747  0.0142  0.2126 -0.3433
 9341SOL    HW139485   1.297   3.913  10.835  1.6299  2.6654  0.2186
 9341SOL    HW239486   1.183   3.952  10.735 -0.1476  0.5686  1.1083
 9342SOL     OW39487   3.691   0.776  16.902  0.0591  0.0238  0.5134
 9342SOL    HW139488   3.638   0.744  16.975 -0.7483  1.2160  0.4541
 9342SOL    HW239489   3.712   0.866  16.927  1.2458 -0.1797  0.2481
 9343SOL     OW39490   2.334   2.016   9.727  0.6637 -0.3241 -0.3729
 9343SOL    HW139491   2.281   2.084   9.768 -0.9622 -1.0617 -1.2349
 9343SOL    HW239492   2.348   1.965   9.806  0.9662 -0.0944 -0.2796
 9344SOL     OW39493   1.564   3.423   2.634  0.0780  0.3239  0.4642
 9344SOL    HW139494   1.522   3.426   2.720  1.6181 -1.4820  1.2779
 9344SOL    HW239495   1.658   3.414   2.650  0.4218  3.8458  0.4191
 9345SOL     OW39496   0.391   0.824   8.486 -0.2186  0.8765 -0.2879
 9345SOL    HW139497   0.485   0.804   8.488 -0.7655 -1.4126  2.3348
 9345SOL    HW239498   0.360   0.746   8.533  1.4220  0.1345 -0.4200
 9346SOL     OW39499   4.653   1.012   2.722  0.1984 -0.2663  0.2917
 9346SOL    HW139500   4.590   0.972   2.662  1.6434  0.0110 -1.4216
 9346SOL    HW239501   0.005   0.961   2.703  0.2723 -0.0495  0.0072
 9347SOL     OW39502   0.560   3.387   7.922 -0.5189  0.4073  0.1150
 9347SOL    HW139503   0.637   3.439   7.900  0.6362 -1.3111  0.0084
 9347SOL    HW239504   0.533   3.432   8.002 -0.1643  0.4360  0.2189
 9348SOL     OW39505   3.123   1.036   2.027  0.0952  0.0087  0.3508
 9348SOL    HW139506   3.095   1.059   2.116 -0.6891 -0.3664  0.2037
 9348SOL    HW239507   3.149   0.945   2.044  1.8095  0.2681 -0.9650
 9349SOL     OW39508   4.718   0.319   6.411 -0.5215  0.3134  0.6030
 9349SOL    HW139509   4.640   0.281   6.370 -0.3738  1.5441 -0.8454
 9349SOL    HW239510   4.680   0.399   6.446 -2.6221  0.5052 -2.1041
 9350SOL     OW39511   3.288   1.421   6.310 -0.1290  0.2543 -0.3088
 9350SOL    HW139512   3.355   1.365   6.349 -1.6587 -2.0297 -0.9662
 9350SOL    HW239513   3.334   1.460   6.236  0.0485 -1.6056 -1.1928
 9351SOL     OW39514   4.418   2.125   5.469 -0.1291 -0.0491  0.0147
 9351SOL    HW139515   4.395   2.122   5.562  3.9046  1.1428  1.0398
 9351SOL    HW239516   4.412   2.218   5.445 -1.8864 -0.1891 -0.0663
 9352SOL     OW39517   0.430   3.508  15.306  0.0957  0.1337 -0.0195
 9352SOL    HW139518   0.506   3.511  15.363 -1.7611  0.1899  2.4517
 9352SOL    HW239519   0.369   3.458  15.360 -0.0508  1.3251  0.9176
 9353SOL     OW39520   1.853   2.135  16.955  0.3316 -0.6388  0.0194
 9353SOL    HW139521   1.786   2.112  16.890  0.2087 -1.1610  0.3261
 9353SOL    HW239522   1.927   2.122  16.895  2.6634  0.8587  2.6194
 9354SOL     OW39523   1.382   0.242  13.858 -0.3762 -0.1784 -1.0050
 9354SOL    HW139524   1.353   0.323  13.816 -1.9584  0.1825  0.7938
 9354SOL    HW239525   1.452   0.281  13.911 -3.2136  0.8638  1.9895
 9355SOL     OW39526   4.486   3.750   6.266 -0.1895  0.5800  0.1688
 9355SOL    HW139527   4.405   3.708   6.295 -0.5711  1.0997 -0.1587
 9355SOL    HW239528   4.468   3.734   6.173 -1.5628 -0.5301  0.6269
 9356SOL     OW39529   0.401   3.458   7.704 -0.1500 -0.7465 -0.2052
 9356SOL    HW139530   0.454   3.416   7.771 -0.8470  1.2118  1.5746
 9356SOL    HW239531   0.338   3.386   7.693  0.7999 -1.1273 -3.1775
 9357SOL     OW39532   0.149   4.615   2.618  0.2626  0.5207  0.3124
 9357SOL    HW139533   0.108   4.622   2.532  1.8118 -1.8814 -0.6143
 9357SOL    HW239534   0.123   4.699   2.657  0.6232  1.5714 -1.7079
 9358SOL     OW39535   3.339   0.793  13.371  0.4451  0.4576 -0.4123
 9358SOL    HW139536   3.265   0.837  13.412 -0.6119 -0.8416 -0.9141
 9358SOL    HW239537   3.367   0.859  13.307 -1.0902 -0.5945 -2.1512
 9359SOL     OW39538   2.555   2.714  14.650  0.0272  0.0166 -0.1378
 9359SOL    HW139539   2.582   2.622  14.656  2.2960  0.8011  1.3595
 9359SOL    HW239540   2.637   2.758  14.669  0.3710  0.3469 -2.3638
 9360SOL     OW39541   0.896   2.209   4.785 -0.1667  0.1801 -0.7215
 9360SOL    HW139542   0.839   2.264   4.840 -0.3936 -1.7957  1.0132
 9360SOL    HW239543   0.873   2.254   4.704 -2.4147  0.2621 -0.0415
 9361SOL     OW39544   2.958   2.110  14.152  0.0329 -0.2415  0.1793
 9361SOL    HW139545   2.998   2.092  14.238  3.3594 -0.2929 -1.3989
 9361SOL    HW239546   2.956   2.205  14.156 -1.6885 -0.3163  1.0963
 9362SOL     OW39547   1.716   4.233  10.306  0.2132  0.1170  0.3928
 9362SOL    HW139548   1.686   4.275  10.387 -0.1133  0.0318  0.3164
 9362SOL    HW239549   1.812   4.237  10.311  0.4898 -3.8239 -1.6724
 9363SOL     OW39550   0.093   3.628   6.065  0.1230 -0.3886 -0.4102
 9363SOL    HW139551   0.052   3.575   5.997 -0.5395  0.9952 -1.0780
 9363SOL    HW239552   0.031   3.606   6.134  0.4872  0.0700  0.0694
 9364SOL     OW39553   0.923   4.276   5.239 -0.7641 -0.5091 -0.2122
 9364SOL    HW139554   1.014   4.266   5.213  0.0674  2.8946  1.4441
 9364SOL    HW239555   0.908   4.211   5.308  0.3313  0.5468  1.0052
 9365SOL     OW39556   0.120   0.992   8.431  0.1954  0.1551 -0.1271
 9365SOL    HW139557   0.122   0.989   8.336 -0.7072 -1.7688 -0.0965
 9365SOL    HW239558   0.201   0.945   8.451  0.0706 -0.2410 -0.5391
 9366SOL     OW39559   3.589   0.005   7.034 -0.7872  0.4065 -0.2208
 9366SOL    HW139560   3.562   0.075   6.974 -0.1213  2.9091  2.3948
 9366SOL    HW239561   3.576   0.047   7.119 -0.8883  0.4696 -0.2680
 9367SOL     OW39562   0.941   3.977  11.582  0.6402  0.0107 -0.4702
 9367SOL    HW139563   0.863   4.032  11.571 -0.0485 -0.3747  2.4098
 9367SOL    HW239564   0.972   3.993  11.671 -1.3008 -1.8031  0.5015
 9368SOL     OW39565   0.937   3.080   5.441 -0.0487  0.1625  0.0736
 9368SOL    HW139566   0.904   3.096   5.529 -0.2306 -0.9833  0.2109
 9368SOL    HW239567   0.853   3.060   5.399  1.1234  1.0517 -2.7232
 9369SOL     OW39568   1.413   0.696   6.245  0.3416 -0.2644  0.2879
 9369SOL    HW139569   1.350   0.755   6.286  0.3914  0.3912 -0.5798
 9369SOL    HW239570   1.396   0.607   6.277 -0.1933  0.1451  1.1333
 9370SOL     OW39571   3.047   3.959   8.929  0.3754 -0.1716  0.1279
 9370SOL    HW139572   3.038   4.049   8.899 -0.6809 -0.7816 -1.3855
 9370SOL    HW239573   3.135   3.961   8.967  0.2867 -0.7343  0.3665
 9371SOL     OW39574   3.087   0.852   7.630  0.4173 -0.3985  0.0877
 9371SOL    HW139575   3.045   0.876   7.547  1.1318  1.4424  0.2510
 9371SOL    HW239576   3.167   0.901   7.608  0.2551  0.1795  0.7753
 9372SOL     OW39577   1.983   1.882  12.836 -0.0286 -0.3821 -0.7835
 9372SOL    HW139578   2.048   1.876  12.906 -0.0448 -1.4063 -0.8469
 9372SOL    HW239579   2.015   1.939  12.767  0.9418  0.0867  0.0518
 9373SOL     OW39580   2.519   3.054   8.406 -0.6605  0.2564 -0.1431
 9373SOL    HW139581   2.543   2.961   8.406 -1.9402 -0.0754 -1.2703
 9373SOL    HW239582   2.487   3.061   8.495  0.2222 -1.5380  0.3047
 9374SOL     OW39583   2.478   2.328   7.599 -0.2755  0.2625  0.3411
 9374SOL    HW139584   2.399   2.308   7.649 -0.1121  1.1805  0.9625
 9374SOL    HW239585   2.477   2.421   7.581 -1.6288  0.1068 -0.4113
 9375SOL     OW39586   1.232   4.637   8.780  0.1333  0.8305  0.3324
 9375SOL    HW139587   1.153   4.623   8.728  0.0072  0.5061  0.6071
 9375SOL    HW239588   1.228   4.571   8.850  0.2716  0.6553  0.1736
 9376SOL     OW39589   4.245   3.912   4.409 -0.4376 -0.0152  0.2224
 9376SOL    HW139590   4.232   3.959   4.491  1.3547 -0.9618  1.0513
 9376SOL    HW239591   4.204   3.827   4.423 -0.7336  0.2636  1.0197
 9377SOL     OW39592   2.545   0.280   3.147 -0.6955 -0.6791  0.3936
 9377SOL    HW139593   2.510   0.237   3.069  0.7672 -2.8982  0.9478
 9377SOL    HW239594   2.579   0.359   3.107 -2.2734 -0.0405  0.3151
 9378SOL     OW39595   0.256   2.491  11.625 -0.4256  0.5337 -0.1104
 9378SOL    HW139596   0.207   2.535  11.555  1.2595  0.4992 -1.3125
 9378SOL    HW239597   0.330   2.468  11.568 -0.6848  0.4771 -0.4236
 9379SOL     OW39598   1.935   2.596   7.938 -0.4569 -0.0730 -0.1123
 9379SOL    HW139599   1.920   2.610   8.032  1.6692 -2.3539  0.5764
 9379SOL    HW239600   2.017   2.547   7.942 -0.0273  0.6989  0.5283
 9380SOL     OW39601   4.495   1.634   5.713 -0.1622 -0.4148  0.2669
 9380SOL    HW139602   4.586   1.625   5.685  0.9046  0.4575  3.5094
 9380SOL    HW239603   4.448   1.647   5.630  0.8435 -2.1516 -0.5754
 9381SOL     OW39604   3.883   3.666  13.711 -0.1230 -0.3700  0.2374
 9381SOL    HW139605   3.819   3.602  13.680 -0.8615  0.4697  0.0515
 9381SOL    HW239606   3.849   3.753  13.689  0.3399 -0.3701 -0.4700
 9382SOL     OW39607   0.241   1.760   2.080  0.0935 -0.0071 -0.0961
 9382SOL    HW139608   0.184   1.829   2.114  0.2204  1.0795 -2.0895
 9382SOL    HW239609   0.310   1.766   2.146 -0.8784  1.5080  0.7828
 9383SOL     OW39610   0.606   0.507   0.313 -0.2612 -0.6041 -0.2508
 9383SOL    HW139611   0.558   0.585   0.283 -0.6241 -0.1172  1.6121
 9383SOL    HW239612   0.541   0.483   0.379 -1.1443 -0.4080 -1.0349
 9384SOL     OW39613   4.679   1.202   4.350  0.2800 -0.6566  0.1156
 9384SOL    HW139614   4.615   1.144   4.391  0.3054 -1.1893 -0.6057
 9384SOL    HW239615   4.644   1.205   4.261 -0.0803  1.3318  0.3316
 9385SOL     OW39616   4.432   1.371   6.340  0.5935 -0.4104  0.3010
 9385SOL    HW139617   4.415   1.307   6.270  2.6242 -0.3121 -0.2829
 9385SOL    HW239618   4.471   1.323   6.413 -2.8622 -0.6577  1.9887
 9386SOL     OW39619   1.596   3.314   2.948  0.2518  0.2257 -0.4666
 9386SOL    HW139620   1.649   3.366   3.008  1.7188  1.0258 -2.4403
 9386SOL    HW239621   1.655   3.243   2.922  1.2732 -0.0526  2.6633
 9387SOL     OW39622   2.870   2.359   5.679  0.7146  0.2262 -0.1568
 9387SOL    HW139623   2.961   2.344   5.705  0.4955 -0.5806  0.1466
 9387SOL    HW239624   2.877   2.433   5.619 -0.8545  0.8719  0.4797
 9388SOL     OW39625   2.179   4.429   4.959 -0.6788  0.0777 -0.0743
 9388SOL    HW139626   2.118   4.502   4.964 -0.6216  0.0957  0.3178
 9388SOL    HW239627   2.170   4.409   4.865 -0.3043 -0.0379 -0.0828
 9389SOL     OW39628   0.238   0.599  12.989  0.7133 -0.2518  0.9726
 9389SOL    HW139629   0.155   0.583  13.032  1.2580 -0.9713  1.7605
 9389SOL    HW239630   0.257   0.512  12.954 -0.2067 -1.0312  2.4696
 9390SOL     OW39631   3.541   1.825   9.204 -0.4599 -0.2821 -0.4758
 9390SOL    HW139632   3.620   1.786   9.166 -0.3687 -2.7364  2.3084
 9390SOL    HW239633   3.572   1.862   9.286  0.5068 -0.8112 -0.6094
 9391SOL     OW39634   1.931   4.527  15.812  0.9297  0.0870 -0.0262
 9391SOL    HW139635   2.019   4.555  15.789  0.7790  1.4106  1.0018
 9391SOL    HW239636   1.934   4.448  15.758  3.5616  0.3317 -0.2154
 9392SOL     OW39637   4.142   4.425  14.889 -0.9487  0.2613 -0.9588
 9392SOL    HW139638   4.144   4.385  14.977  0.5062 -0.6689 -1.4082
 9392SOL    HW239639   4.101   4.508  14.910 -1.2580 -0.0826 -0.1908
 9393SOL     OW39640   2.202   4.318  16.933 -0.2006  0.0708  0.2204
 9393SOL    HW139641   2.144   4.349  16.864  0.9816  4.0976  1.0244
 9393SOL    HW239642   2.149   4.346  17.008  1.1477  0.4437  1.0222
 9394SOL     OW39643   3.414   2.918   2.173  0.0748  0.4600  0.4416
 9394SOL    HW139644   3.459   2.963   2.101 -0.1054 -0.6295 -0.3384
 9394SOL    HW239645   3.337   2.973   2.187 -0.5675 -0.2298 -0.4277
 9395SOL     OW39646   4.205   2.642  12.977 -0.0210  0.1002  0.0318
 9395SOL    HW139647   4.256   2.721  12.957 -1.2463  0.5931 -1.2271
 9395SOL    HW239648   4.148   2.650  12.900  1.6716 -0.7804 -1.3118
 9396SOL     OW39649   0.253   2.128   6.137  0.3995 -0.0730 -0.0120
 9396SOL    HW139650   0.249   2.189   6.211  0.1002  0.1563 -0.2179
 9396SOL    HW239651   0.263   2.181   6.059 -1.0937 -0.5913 -0.5524
 9397SOL     OW39652   1.280   2.948   5.676 -0.4710 -0.1443  0.4440
 9397SOL    HW139653   1.284   2.963   5.770 -0.2726 -1.0464  0.5800
 9397SOL    HW239654   1.206   2.887   5.670 -0.7080  0.1526  0.3703
 9398SOL     OW39655   1.842   4.213   7.217 -0.5851  0.4133  0.5914
 9398SOL    HW139656   1.789   4.245   7.290 -2.1727  3.0850 -1.7288
 9398SOL    HW239657   1.921   4.265   7.230 -1.8119  2.4829 -0.1436
 9399SOL     OW39658   3.968   4.071   0.164 -0.0101  0.3180 -0.3475
 9399SOL    HW139659   3.985   4.164   0.150 -0.7945  0.6208  0.6996
 9399SOL    HW239660   4.039   4.050   0.225 -0.0408  0.2035 -0.3524
 9400SOL     OW39661   3.810   4.363   1.220  0.1163 -0.0246 -0.0883
 9400SOL    HW139662   3.823   4.327   1.307  0.4360 -0.6421 -0.3893
 9400SOL    HW239663   3.809   4.453   1.251  0.3009  0.2267 -0.8001
 9401SOL     OW39664   4.516   4.432   9.001 -0.9260 -0.3537 -0.2544
 9401SOL    HW139665   4.593   4.400   8.954  0.3938  0.8600  1.0939
 9401SOL    HW239666   4.527   4.526   9.008 -0.6407 -0.3845 -0.2650
 9402SOL     OW39667   2.072   4.100   2.557 -0.2231 -0.8727  0.2119
 9402SOL    HW139668   2.120   4.023   2.526  0.4132 -0.1951 -0.5018
 9402SOL    HW239669   2.132   4.174   2.545  0.4268 -1.3853  0.2985
 9403SOL     OW39670   0.890   4.553  13.616 -0.6250  0.0152 -0.3194
 9403SOL    HW139671   0.831   4.613  13.569  1.8978  1.0313 -2.1762
 9403SOL    HW239672   0.833   4.533  13.690 -1.5635 -1.0136 -1.3181
 9404SOL     OW39673   1.915   0.491   8.548 -0.1418  0.3932 -1.0249
 9404SOL    HW139674   1.865   0.471   8.469  0.6464  0.3026 -1.5009
 9404SOL    HW239675   2.002   0.462   8.522 -1.0176  0.0095 -3.5559
 9405SOL     OW39676   3.484   4.374  11.402 -0.3183  0.0700  0.2218
 9405SOL    HW139677   3.516   4.440  11.340 -1.9386  0.3718 -0.2910
 9405SOL    HW239678   3.508   4.416  11.485 -1.1525  0.6448  0.1777
 9406SOL     OW39679   2.762   3.454  10.555  0.5953 -0.4081  0.0491
 9406SOL    HW139680   2.723   3.398  10.623  0.7068 -0.6312 -0.0704
 9406SOL    HW239681   2.855   3.442  10.574  0.2446  0.8758  2.5430
 9407SOL     OW39682   2.981   2.738   7.746 -0.3239  0.7615 -0.2727
 9407SOL    HW139683   3.015   2.653   7.774 -0.7473  0.2152 -1.3793
 9407SOL    HW239684   3.002   2.734   7.652  1.3709 -0.7532  0.1841
 9408SOL     OW39685   4.334   2.056   7.563  0.6970  0.2233  0.4747
 9408SOL    HW139686   4.368   1.989   7.622 -1.1313  0.2499  1.5593
 9408SOL    HW239687   4.261   2.010   7.522  0.6810 -0.4444  1.2593
 9409SOL     OW39688   1.352   2.805   9.265 -0.1529 -0.3142  0.0773
 9409SOL    HW139689   1.273   2.751   9.265  0.0059 -0.5542  0.4964
 9409SOL    HW239690   1.425   2.745   9.252  0.8597  0.7979  0.5969
 9410SOL     OW39691   2.014   4.466  15.142 -0.1598 -0.9262 -0.5970
 9410SOL    HW139692   1.939   4.502  15.191 -0.0016 -0.8170 -0.4347
 9410SOL    HW239693   1.993   4.499  15.055  1.1938  2.1921  0.2432
 9411SOL     OW39694   3.222   4.198  11.583  0.4468 -0.1432 -0.2579
 9411SOL    HW139695   3.266   4.175  11.502 -2.0510  0.8440 -1.8924
 9411SOL    HW239696   3.300   4.208  11.637 -0.1010 -0.8191  0.6605
 9412SOL     OW39697   3.300   3.735   0.089 -0.3101 -0.9485  0.1959
 9412SOL    HW139698   3.315   3.785   0.009  0.1153 -1.4364 -0.0272
 9412SOL    HW239699   3.244   3.669   0.047  0.3133 -1.9933  1.0159
 9413SOL     OW39700   4.474   0.565   1.862  0.4241 -0.1154  0.4749
 9413SOL    HW139701   4.417   0.627   1.816  0.6249 -0.8378 -0.7515
 9413SOL    HW239702   4.454   0.483   1.818 -1.1381  0.3669  0.2864
 9414SOL     OW39703   0.199   2.058   4.348  0.3013 -0.3497 -0.0488
 9414SOL    HW139704   0.135   2.071   4.277 -0.7533 -0.5565  0.8715
 9414SOL    HW239705   0.177   1.968   4.371 -1.7258 -0.2117 -1.4348
 9415SOL     OW39706   2.034   0.327   9.792 -0.0160  0.5347 -0.2641
 9415SOL    HW139707   2.048   0.361   9.880 -0.3345 -0.8089  0.3138
 9415SOL    HW239708   2.126   0.317   9.766  0.4941  0.4946  1.5499
 9416SOL     OW39709   1.755   4.515   5.539  0.6165 -0.1051 -0.3307
 9416SOL    HW139710   1.700   4.589   5.514  0.0381 -0.2758  0.4678
 9416SOL    HW239711   1.692   4.448   5.563 -0.0408  0.6713  0.0949
 9417SOL     OW39712   3.980   3.383   4.315  0.7231  0.5709  0.1272
 9417SOL    HW139713   3.981   3.457   4.255 -1.8997 -0.1323 -0.7586
 9417SOL    HW239714   4.000   3.422   4.401 -1.6342 -0.3813  1.0942
 9418SOL     OW39715   1.449   0.514  15.711 -0.3872  0.0963  0.3459
 9418SOL    HW139716   1.452   0.574  15.637 -0.2707 -0.2358  0.0834
 9418SOL    HW239717   1.356   0.495  15.721 -0.1021 -1.6120 -0.2805
 9419SOL     OW39718   4.325   1.590   2.118  0.4143  0.6761 -0.1080
 9419SOL    HW139719   4.254   1.533   2.148 -0.3911  1.4379 -0.5712
 9419SOL    HW239720   4.359   1.537   2.047 -0.1675 -0.2208  0.2874
 9420SOL     OW39721   0.293   1.988   1.336 -0.0097 -0.1256 -0.3239
 9420SOL    HW139722   0.282   2.010   1.243  0.4324 -0.1462 -0.3793
 9420SOL    HW239723   0.387   1.970   1.339  0.1209  1.0176  2.1913
 9421SOL     OW39724   2.001   1.705  11.330 -0.2200  0.4205  0.3331
 9421SOL    HW139725   2.027   1.690  11.239 -1.9869 -1.9139  0.2266
 9421SOL    HW239726   2.085   1.723  11.371 -1.9458  0.4682  3.8382
 9422SOL     OW39727   2.018   1.329   6.648  0.6785  0.1348 -1.0301
 9422SOL    HW139728   2.005   1.323   6.742  2.0738 -2.4327 -0.9968
 9422SOL    HW239729   1.953   1.266   6.617  3.0219 -1.4845 -2.6330
 9423SOL     OW39730   0.755   2.182  17.520 -0.1838 -0.1483 -0.0415
 9423SOL    HW139731   0.834   2.231  17.542 -0.8225  1.2953 -0.9489
 9423SOL    HW239732   0.698   2.252  17.488 -2.1817 -0.6358  2.4225
 9424SOL     OW39733   3.734   0.916   4.984  0.1589  0.0737  0.5609
 9424SOL    HW139734   3.767   0.943   5.069 -0.3652  1.2189  0.4003
 9424SOL    HW239735   3.784   0.834   4.982  2.0516  1.2801 -1.0599
 9425SOL     OW39736   1.224   2.981   6.898 -0.0159  0.6704  0.2997
 9425SOL    HW139737   1.293   3.046   6.913 -0.2065  1.4451 -2.1988
 9425SOL    HW239738   1.254   2.918   6.964  0.1043 -0.6532 -1.0344
 9426SOL     OW39739   3.676   1.286   3.324  0.1023  0.2387 -0.1014
 9426SOL    HW139740   3.695   1.193   3.318 -0.1265  0.0536  1.9563
 9426SOL    HW239741   3.614   1.282   3.397  2.0521 -0.3907  1.5021
 9427SOL     OW39742   2.530   0.005  17.416 -0.2262  0.8164  0.3239
 9427SOL    HW139743   2.489   4.715  17.501 -1.4224  1.0782 -0.1969
 9427SOL    HW239744   2.533   4.643  17.381  0.0272 -0.2337  3.0670
 9428SOL     OW39745   3.409   2.367   5.339  0.1551  0.3446 -0.0881
 9428SOL    HW139746   3.348   2.346   5.269 -1.3223  0.9497  1.0027
 9428SOL    HW239747   3.398   2.287   5.390  0.2040 -0.6047 -1.5984
 9429SOL     OW39748   1.560   4.683  10.937  0.1344 -0.1511 -0.0196
 9429SOL    HW139749   1.609   4.705  11.017 -1.8453  2.9877  0.3414
 9429SOL    HW239750   1.549   4.590  10.956 -1.3098 -0.0478 -0.3562
 9430SOL     OW39751   1.783   4.305  15.916  0.4498  0.4093  0.3765
 9430SOL    HW139752   1.866   4.270  15.949  0.4081  0.3691  0.4384
 9430SOL    HW239753   1.811   4.385  15.872  0.5097 -0.5646 -1.3309
 9431SOL     OW39754   0.690   1.238  15.050 -0.3668  0.2407  0.0564
 9431SOL    HW139755   0.699   1.319  15.100 -1.1041  0.5446 -0.3090
 9431SOL    HW239756   0.779   1.202  15.051  0.8387  3.3066  2.1431
 9432SOL     OW39757   0.519   3.882   6.815 -0.8956  0.2645 -0.4659
 9432SOL    HW139758   0.536   3.940   6.890  2.4741 -0.6720 -0.4891
 9432SOL    HW239759   0.594   3.917   6.766  0.2639  0.4097  1.3991
 9433SOL     OW39760   2.818   1.855   9.382  0.0810  0.2404  1.0858
 9433SOL    HW139761   2.783   1.855   9.472  4.0006 -0.9137  2.6033
 9433SOL    HW239762   2.886   1.922   9.394  0.6823 -0.1024 -0.5253
 9434SOL     OW39763   2.512   2.465   8.605 -0.4812  0.1842  0.1358
 9434SOL    HW139764   2.483   2.443   8.693 -0.3189 -0.1217  0.1110
 9434SOL    HW239765   2.429   2.447   8.561  0.0810 -1.0570 -0.4120
 9435SOL     OW39766   2.777   2.349   4.261  0.2819 -0.4264 -0.4492
 9435SOL    HW139767   2.684   2.366   4.279  0.1791  1.7596 -2.9105
 9435SOL    HW239768   2.800   2.275   4.318  0.9898  0.1762  0.0314
 9436SOL     OW39769   0.063   0.748   7.469 -0.9915 -0.1363  0.5035
 9436SOL    HW139770   0.118   0.685   7.516  0.8213  1.4738  0.5639
 9436SOL    HW239771   4.704   0.714   7.493 -0.2412 -2.3488  0.0746
 9437SOL     OW39772   1.500   0.758   4.503 -0.0230  0.2525  0.0557
 9437SOL    HW139773   1.510   0.790   4.413  2.8426 -1.3260 -0.1911
 9437SOL    HW239774   1.492   0.663   4.497  0.0527  0.2173  0.5016
 9438SOL     OW39775   0.858   2.400   0.742  0.0593  0.2637  0.3580
 9438SOL    HW139776   0.803   2.350   0.682  0.5445 -0.5950  0.6289
 9438SOL    HW239777   0.850   2.342   0.818  0.6037  0.0789  0.2741
 9439SOL     OW39778   4.399   1.430   3.880  0.2718 -0.4289 -0.2268
 9439SOL    HW139779   4.456   1.364   3.840  1.3989  0.6214 -0.3541
 9439SOL    HW239780   4.461   1.475   3.938 -0.5940 -0.6462  0.8727
 9440SOL     OW39781   4.156   4.328   8.067  0.2612  0.7166  0.1168
 9440SOL    HW139782   4.204   4.392   8.015 -1.2447  0.5517 -1.4820
 9440SOL    HW239783   4.104   4.271   8.010  1.6429 -2.3884  1.9564
 9441SOL     OW39784   0.330   1.833   3.533 -0.5819  0.0657  0.2985
 9441SOL    HW139785   0.410   1.780   3.530 -1.5475 -1.3740  0.1449
 9441SOL    HW239786   0.283   1.797   3.608  0.2579 -1.4898  0.0762
 9442SOL     OW39787   1.556   1.347  11.497 -0.3980 -0.6942  0.5126
 9442SOL    HW139788   1.535   1.297  11.576  0.5704 -2.2835 -0.2387
 9442SOL    HW239789   1.651   1.342  11.487 -0.6669  0.7067 -2.8528
 9443SOL     OW39790   3.372   0.353   4.005 -0.0243 -0.0104  0.5786
 9443SOL    HW139791   3.303   0.341   4.070 -1.9370  1.5533 -1.1614
 9443SOL    HW239792   3.450   0.389   4.048  2.2387  0.5244 -3.9578
 9444SOL     OW39793   4.514   0.516   2.118 -0.2317 -0.5665 -0.3356
 9444SOL    HW139794   4.494   0.558   2.035  0.9275  1.1042  0.2420
 9444SOL    HW239795   4.435   0.522   2.173  1.4702 -0.6928  2.1033
 9445SOL     OW39796   1.068   3.482   3.571  0.2951  0.3720  0.3454
 9445SOL    HW139797   0.984   3.450   3.537  0.1488  1.2261 -0.1005
 9445SOL    HW239798   1.117   3.403   3.546 -1.7545 -0.5891 -0.6503
 9446SOL     OW39799   2.007   1.069   5.133 -0.4485  0.1507 -0.7573
 9446SOL    HW139800   2.074   1.019   5.178  2.3394  1.9262 -2.9505
 9446SOL    HW239801   2.046   1.151   5.103  0.2004  0.2557  0.3989
 9447SOL     OW39802   0.933   2.059   2.590  0.1523  0.1483 -0.2592
 9447SOL    HW139803   0.908   2.033   2.679 -0.3650  1.6372  0.0426
 9447SOL    HW239804   0.945   1.973   2.550 -1.4209 -1.0047  1.6968
 9448SOL     OW39805   1.953   4.688   8.352  0.0909 -0.0846  0.1313
 9448SOL    HW139806   1.901   4.608   8.357  0.3923 -0.1899  1.4942
 9448SOL    HW239807   1.891   0.024   8.314  0.9865 -0.5640 -2.1552
 9449SOL     OW39808   3.629   3.212   0.304 -0.0021 -0.4270  0.4199
 9449SOL    HW139809   3.709   3.261   0.286  0.2290 -0.5241  1.1711
 9449SOL    HW239810   3.666   3.128   0.329  0.3396  0.0436  1.5062
 9450SOL     OW39811   1.163   2.358   4.883  0.2966  0.1697  0.6808
 9450SOL    HW139812   1.085   2.371   4.938 -0.0944 -1.5943  0.5455
 9450SOL    HW239813   1.174   2.445   4.845  2.0759 -1.3679 -2.3081
 9451SOL     OW39814   3.699   3.002  16.595  0.5248  0.1982 -0.0948
 9451SOL    HW139815   3.646   3.071  16.553 -3.0894 -1.9315  0.9208
 9451SOL    HW239816   3.779   3.003  16.543  0.4475 -0.1080 -0.2147
 9452SOL     OW39817   0.351   0.608   3.310  0.7320 -0.6439 -0.0019
 9452SOL    HW139818   0.310   0.629   3.226  0.9892  1.2130  0.3324
 9452SOL    HW239819   0.276   0.601   3.369  1.1476  2.8644  0.9101
 9453SOL     OW39820   0.242   0.860  11.922 -0.7741  0.1748 -0.2130
 9453SOL    HW139821   0.334   0.837  11.930 -1.4078 -1.3221  2.7611
 9453SOL    HW239822   0.245   0.956  11.931 -1.0016  0.0720  0.9762
 9454SOL     OW39823   4.277   0.021  14.208 -0.2676  0.0900  0.5419
 9454SOL    HW139824   4.262   0.071  14.128  1.0821 -1.3067 -0.5829
 9454SOL    HW239825   4.358   4.704  14.179  0.7093  1.8700  0.5799
 9455SOL     OW39826   4.559   4.383   0.405 -0.7170  0.3215  0.2360
 9455SOL    HW139827   4.554   4.292   0.376  0.5977  0.1396  0.5604
 9455SOL    HW239828   4.600   4.425   0.329 -0.9727  1.1797  0.5694
 9456SOL     OW39829   2.070   1.004   2.278 -0.0908  0.3534 -0.1081
 9456SOL    HW139830   2.007   0.948   2.323 -1.0637  0.7971 -0.9258
 9456SOL    HW239831   2.044   1.091   2.310  1.0132  0.3624  0.7790
 9457SOL     OW39832   0.414   4.531   5.333 -0.2488  0.0199  0.1766
 9457SOL    HW139833   0.504   4.500   5.330 -0.9228 -1.7728 -0.9271
 9457SOL    HW239834   0.401   4.546   5.427  0.1178  0.9058  0.0908
 9458SOL     OW39835   3.142   4.016   2.099 -0.0947  0.2895  0.1538
 9458SOL    HW139836   3.207   4.081   2.071  1.0219 -0.9138 -0.0608
 9458SOL    HW239837   3.115   3.997   2.009  1.8192  2.1536 -0.8283
 9459SOL     OW39838   3.816   0.084   5.060  0.3797 -0.3288 -0.1676
 9459SOL    HW139839   3.746   0.085   5.125  0.7953 -1.4258  0.2820
 9459SOL    HW239840   3.783   0.147   4.996 -1.4986  0.0843  1.2193
 9460SOL     OW39841   2.569   2.964   6.023 -0.3655 -0.2991 -0.1083
 9460SOL    HW139842   2.566   3.050   5.980  0.2708 -0.6752 -0.9111
 9460SOL    HW239843   2.656   2.939   5.991 -1.4587 -1.7183 -1.9409
 9461SOL     OW39844   1.674   0.116  13.681 -0.1040  0.2959  0.5061
 9461SOL    HW139845   1.609   0.046  13.691 -0.6024  0.6235 -0.4376
 9461SOL    HW239846   1.639   0.165  13.607 -1.1889 -0.8369  0.2717
 9462SOL     OW39847   1.328   1.218   4.322  0.0968  0.2469 -0.2019
 9462SOL    HW139848   1.284   1.140   4.289  0.6285 -0.6482  1.1957
 9462SOL    HW239849   1.414   1.214   4.279 -0.4157 -0.6856 -1.1154
 9463SOL     OW39850   3.812   4.046   3.425 -0.1360 -0.3091  0.3817
 9463SOL    HW139851   3.784   3.960   3.395 -0.1156  0.5773 -2.1688
 9463SOL    HW239852   3.733   4.097   3.405 -0.7990 -1.6317 -0.3038
 9464SOL     OW39853   2.199   0.514   2.222 -0.6574  0.1175  0.1500
 9464SOL    HW139854   2.134   0.450   2.192  0.1116 -0.0784 -1.0980
 9464SOL    HW239855   2.178   0.510   2.315 -4.6912 -0.7299 -0.7927
 9465SOL     OW39856   2.567   2.773   4.946 -0.0673 -0.0250 -0.1046
 9465SOL    HW139857   2.579   2.739   5.035 -2.0724 -1.2798 -0.3160
 9465SOL    HW239858   2.587   2.695   4.895  0.5583 -0.1781  0.3769
 9466SOL     OW39859   0.813   2.565  10.121 -0.0607  0.3689 -1.5237
 9466SOL    HW139860   0.850   2.484  10.086  1.3228 -0.5109  1.9175
 9466SOL    HW239861   0.893   2.614  10.140  0.5683 -2.2141  2.5914
 9467SOL     OW39862   2.013   4.127   9.766  0.5667 -0.8639  0.7788
 9467SOL    HW139863   1.993   4.055   9.706  2.3711  1.3736 -2.5296
 9467SOL    HW239864   1.926   4.164   9.781 -0.4731 -2.5719 -1.0093
 9468SOL     OW39865   2.500   4.694  17.069  0.0507 -0.3842  0.0496
 9468SOL    HW139866   2.406   4.699  17.085 -0.1671 -0.8316 -1.0682
 9468SOL    HW239867   2.503   0.006  16.981 -1.2449 -0.8182 -0.1876
 9469SOL     OW39868   1.674   2.020  10.755 -0.3812  0.0500  0.5845
 9469SOL    HW139869   1.632   2.086  10.700  1.1296 -0.2773 -0.9603
 9469SOL    HW239870   1.600   1.984  10.803  0.4542 -1.5872  0.6539
 9470SOL     OW39871   2.296   4.688   4.275  0.8999 -0.3661  0.2991
 9470SOL    HW139872   2.353   4.638   4.217  1.2934  0.1708  0.2227
 9470SOL    HW239873   2.342   0.041   4.302 -1.7577  0.2297  3.0410
 9471SOL     OW39874   2.505   1.508   5.925 -0.0466 -0.8544 -0.0631
 9471SOL    HW139875   2.427   1.483   5.875 -0.4296  2.1522 -0.9540
 9471SOL    HW239876   2.504   1.604   5.923  1.3906 -0.8647 -1.3164
 9472SOL     OW39877   1.737   4.100   4.353 -0.4078 -0.1304  0.6917
 9472SOL    HW139878   1.777   4.067   4.272 -0.6061 -2.3058  1.4714
 9472SOL    HW239879   1.678   4.167   4.318  1.5439  0.0507 -2.3183
 9473SOL     OW39880   3.798   3.016   1.666  0.4628 -0.0250 -0.1354
 9473SOL    HW139881   3.853   3.071   1.723 -0.6754  0.1352  0.7889
 9473SOL    HW239882   3.764   2.952   1.728  1.5585  0.8443  1.3807
 9474SOL     OW39883   3.419   3.849   1.953 -0.0428 -0.4323 -0.3492
 9474SOL    HW139884   3.378   3.817   1.873  1.1622  1.1206 -1.5806
 9474SOL    HW239885   3.349   3.906   1.986 -1.6748 -1.8021 -1.4481
 9475SOL     OW39886   2.089   2.768   2.506  0.1313  0.9714  0.0028
 9475SOL    HW139887   2.045   2.754   2.422  0.3546  0.1425  0.0222
 9475SOL    HW239888   2.162   2.706   2.513 -1.7632 -1.0383  2.3478
 9476SOL     OW39889   1.023   0.458   8.711 -0.1241  0.1465 -0.3191
 9476SOL    HW139890   1.056   0.498   8.792  2.5097  0.8828 -1.7493
 9476SOL    HW239891   1.059   0.516   8.644  2.5074  0.3989  1.3043
 9477SOL     OW39892   1.622   1.793   0.827 -0.0758 -0.2932 -0.3048
 9477SOL    HW139893   1.531   1.787   0.856  0.8117 -0.4189  2.4276
 9477SOL    HW239894   1.660   1.739   0.896 -0.1872 -1.2428 -0.9890
 9478SOL     OW39895   0.547   1.142   7.434 -0.4689 -0.9817 -0.3656
 9478SOL    HW139896   0.475   1.144   7.372  0.4832  0.9838 -1.4016
 9478SOL    HW239897   0.596   1.218   7.402  0.0293 -0.9329  0.5013
 9479SOL     OW39898   3.461   3.572   0.232  0.0510 -0.3262  0.5838
 9479SOL    HW139899   3.406   3.608   0.162 -0.3998 -2.9990 -0.4560
 9479SOL    HW239900   3.415   3.603   0.309 -1.5230 -0.9906 -0.0940
 9480SOL     OW39901   0.585   4.199   6.265  0.8524  0.1841  0.3880
 9480SOL    HW139902   0.590   4.227   6.174 -1.1185 -0.4664  0.0783
 9480SOL    HW239903   0.569   4.279   6.315 -0.2851  0.6884 -0.7770
 9481SOL     OW39904   3.059   0.090   7.434 -0.4756 -0.3309 -0.1048
 9481SOL    HW139905   3.132   0.028   7.432 -1.4295 -1.4277 -0.6830
 9481SOL    HW239906   3.089   0.145   7.362  1.3993  1.7891  2.3118
 9482SOL     OW39907   3.728   0.541  12.165  0.2421  0.0664 -0.1393
 9482SOL    HW139908   3.690   0.597  12.232 -0.7798 -0.0219 -0.6414
 9482SOL    HW239909   3.671   0.464  12.166  1.0228 -0.5220 -0.5281
 9483SOL     OW39910   2.679   2.126   1.101 -0.2004 -0.0440  0.3484
 9483SOL    HW139911   2.673   2.127   1.196 -2.5162 -0.4836  0.2009
 9483SOL    HW239912   2.655   2.039   1.070  0.7508  0.1188 -0.8479
 9484SOL     OW39913   1.933   2.186   1.474  0.3738 -0.2840 -0.1928
 9484SOL    HW139914   1.906   2.233   1.395  3.3160 -1.2308 -1.7595
 9484SOL    HW239915   1.847   2.157   1.504  1.1556 -1.2203  1.1091
 9485SOL     OW39916   3.588   1.625   9.740  0.2256 -0.1300  0.1658
 9485SOL    HW139917   3.552   1.587   9.820 -1.4428  0.9084 -0.0787
 9485SOL    HW239918   3.515   1.687   9.735  0.6929  0.3961 -0.0724
 9486SOL     OW39919   0.631   0.167   8.717 -0.4859 -0.2405 -0.2389
 9486SOL    HW139920   0.680   0.179   8.636  1.3189 -0.4226  0.8258
 9486SOL    HW239921   0.646   0.250   8.762 -0.7746 -0.8093  0.9184
 9487SOL     OW39922   2.125   4.474   2.033 -0.0190  0.4471  0.6504
 9487SOL    HW139923   2.033   4.455   2.051  0.4862  0.0725  2.8505
 9487SOL    HW239924   2.117   4.499   1.941  0.1498 -4.9193 -0.8375
 9488SOL     OW39925   3.737   1.603   4.828  0.0608  0.6645 -0.7610
 9488SOL    HW139926   3.714   1.554   4.749 -2.0772  0.8864 -0.2712
 9488SOL    HW239927   3.731   1.697   4.816  0.8586  0.9584  1.0355
 9489SOL     OW39928   4.215   1.810   5.907  0.1229  0.2833  0.1379
 9489SOL    HW139929   4.161   1.874   5.953 -2.5527 -0.1666 -2.3655
 9489SOL    HW239930   4.231   1.740   5.970  0.2862  1.0806  0.9748
 9490SOL     OW39931   1.366   1.467   8.515  0.0887  0.1123 -0.6702
 9490SOL    HW139932   1.278   1.435   8.536  0.5134 -0.7291 -0.1645
 9490SOL    HW239933   1.428   1.425   8.575 -0.8118 -0.5573 -0.1980
 9491SOL     OW39934   3.611   4.246  15.065  0.1669 -0.5296 -0.1945
 9491SOL    HW139935   3.539   4.194  15.101  1.8651 -0.8621  2.7042
 9491SOL    HW239936   3.637   4.299  15.140 -0.1764  0.5253 -0.8187
 9492SOL     OW39937   3.557   2.143   2.510 -0.5176  0.3078 -0.5534
 9492SOL    HW139938   3.495   2.115   2.578  0.0332 -0.1740 -0.2524
 9492SOL    HW239939   3.591   2.221   2.552 -0.5738  0.5580 -0.9700
 9493SOL     OW39940   4.470   0.603   4.869  0.2299  0.3385 -0.0104
 9493SOL    HW139941   4.559   0.570   4.883 -0.7718 -2.0216  0.8136
 9493SOL    HW239942   4.466   0.669   4.939  0.4865 -0.3994  0.7008
 9494SOL     OW39943   1.334   3.046  16.918 -0.2591 -0.1516 -0.6194
 9494SOL    HW139944   1.336   3.056  17.013 -0.7963 -1.2264 -0.4950
 9494SOL    HW239945   1.420   3.074  16.887  0.3245  0.3403  1.4369
 9495SOL     OW39946   2.017   3.702   7.406 -0.4284  0.1453  0.2370
 9495SOL    HW139947   2.088   3.677   7.465  1.2937 -1.6109 -2.5391
 9495SOL    HW239948   2.031   3.796   7.395  0.8226 -0.0919 -0.1872
 9496SOL     OW39949   0.694   3.679  13.784 -0.3845 -0.3232 -0.3264
 9496SOL    HW139950   0.715   3.590  13.757  0.9051 -0.1837  0.2246
 9496SOL    HW239951   0.771   3.734  13.771  1.6697 -2.6399  2.2282
 9497SOL     OW39952   2.018   0.578   9.448 -0.3449  0.6194 -0.5561
 9497SOL    HW139953   1.961   0.501   9.456  1.1712 -0.4355  0.0434
 9497SOL    HW239954   1.975   0.636   9.511 -0.2069  0.5273 -0.3791
 9498SOL     OW39955   4.486   4.715   8.811  0.2091  0.1694  0.2889
 9498SOL    HW139956   4.546   0.047   8.765  1.3221 -2.6118 -1.8039
 9498SOL    HW239957   4.497   4.640   8.752  0.4532 -1.2671  2.1595
 9499SOL     OW39958   4.442   3.441   8.490  0.0225 -0.2170 -0.0403
 9499SOL    HW139959   4.443   3.496   8.411 -0.8191 -1.3155 -0.8267
 9499SOL    HW239960   4.415   3.356   8.455 -0.0385  0.7896 -2.4425
 9500SOL     OW39961   2.020   0.968   8.253  0.1471 -0.0453  0.0110
 9500SOL    HW139962   1.934   0.968   8.295  0.0072 -1.0614 -0.2797
 9500SOL    HW239963   2.049   1.059   8.253  0.7402 -0.2310 -0.8829
 9501SOL     OW39964   2.915   1.993  10.919 -0.1251 -0.0435  0.5267
 9501SOL    HW139965   2.974   2.035  10.857 -1.1046 -0.5954 -0.7830
 9501SOL    HW239966   2.836   2.046  10.911 -0.1911  0.1332  2.3507
 9502SOL     OW39967   3.572   1.086   2.153  0.7874 -0.0922 -0.1502
 9502SOL    HW139968   3.548   1.014   2.211  0.1239  1.4396  1.4737
 9502SOL    HW239969   3.488   1.116   2.118  0.4977 -0.1111  0.5301
 9503SOL     OW39970   4.333   3.632   3.529 -0.3771 -0.0460  0.2759
 9503SOL    HW139971   4.354   3.571   3.458  1.3475  0.8459  0.0308
 9503SOL    HW239972   4.377   3.717   3.521 -2.5313  0.9993 -0.4966
 9504SOL     OW39973   1.248   0.441   0.170  0.0821  0.1217 -0.7255
 9504SOL    HW139974   1.269   0.527   0.132 -0.9843  0.6066 -0.2083
 9504SOL    HW239975   1.153   0.447   0.178  0.5184  1.7961  3.0220
 9505SOL     OW39976   2.264   2.217  17.318 -0.0775 -0.1117 -0.3458
 9505SOL    HW139977   2.312   2.219  17.235 -0.9193 -0.0308 -0.8276
 9505SOL    HW239978   2.211   2.140  17.298  2.3857 -1.6385 -1.1139
 9506SOL     OW39979   2.129   2.603   8.751  0.0974  0.1733 -0.2478
 9506SOL    HW139980   2.157   2.520   8.712  0.3219 -0.2515  0.8164
 9506SOL    HW239981   2.036   2.592   8.732 -0.3176  0.7715  1.4482
 9507SOL     OW39982   3.688   0.462  10.609  0.1688  0.2288 -0.0231
 9507SOL    HW139983   3.714   0.553  10.592 -0.2735 -0.0896 -2.3942
 9507SOL    HW239984   3.615   0.475  10.668 -1.3459  0.7802 -2.0283
 9508SOL     OW39985   3.167   3.336   6.829  0.0399 -0.3049 -0.5007
 9508SOL    HW139986   3.178   3.427   6.798  0.7079 -0.5525 -0.9979
 9508SOL    HW239987   3.150   3.354   6.921 -0.1647  0.6986 -0.7334
 9509SOL     OW39988   1.872   0.288  10.659  0.2162  0.5148 -0.2819
 9509SOL    HW139989   1.878   0.223  10.730 -0.3830  1.3065  0.5004
 9509SOL    HW239990   1.836   0.240  10.585  0.0579 -1.4262  1.0252
 9510SOL     OW39991   1.722   3.204  14.990  0.1026  0.1170 -0.3879
 9510SOL    HW139992   1.701   3.267  14.920  1.9292 -0.6700 -1.6365
 9510SOL    HW239993   1.644   3.151  15.004 -1.1696  2.4893  1.6060
 9511SOL     OW39994   3.737   4.614  13.562 -0.6309 -0.2550 -0.2387
 9511SOL    HW139995   3.709   4.682  13.624  0.2806 -0.1752  0.0894
 9511SOL    HW239996   3.688   4.636  13.483 -0.1311 -0.2263 -0.5450
 9512SOL     OW39997   0.599   3.000   3.684 -0.7208 -0.5950 -0.0124
 9512SOL    HW139998   0.649   3.063   3.737 -2.4180 -0.0637  0.9372
 9512SOL    HW239999   0.547   3.051   3.622 -1.3766 -1.6236 -0.2987
 9513SOL     OW40000   1.871   2.079   6.726 -0.2319 -0.2262  0.2318
 9513SOL    HW140001   1.890   1.986   6.715 -2.9423 -0.6673 -0.7974
 9513SOL    HW240002   1.957   2.117   6.709  0.0615 -2.1703 -2.6219
 9514SOL     OW40003   0.212   1.960   7.804  0.2271  0.6571  0.3729
 9514SOL    HW140004   0.263   1.923   7.876 -0.2274  1.6747  1.2036
 9514SOL    HW240005   0.279   1.977   7.738 -0.8947 -0.6003 -1.1014
 9515SOL     OW40006   0.895   4.000   6.052 -0.3079  0.1960  0.1122
 9515SOL    HW140007   0.865   3.968   6.137  0.0315 -0.5938 -0.0611
 9515SOL    HW240008   0.947   4.078   6.072 -2.0740  1.2548  0.5057
 9516SOL     OW40009   0.334   2.801   5.055  0.1377  0.2417  0.2087
 9516SOL    HW140010   0.376   2.720   5.084 -2.4115 -1.2380 -0.2180
 9516SOL    HW240011   0.393   2.870   5.084 -0.7271  1.5563 -1.1653
 9517SOL     OW40012   2.135   3.128   0.033 -0.3150  0.0233 -0.7349
 9517SOL    HW140013   2.184   3.204   0.002 -0.2944  0.0705 -0.5825
 9517SOL    HW240014   2.075   3.175   0.089 -1.1196 -1.1530 -0.6044
 9518SOL     OW40015   4.307   3.549   6.181 -0.0481 -0.9032  0.1796
 9518SOL    HW140016   4.231   3.605   6.167  1.2322  0.8969  0.5301
 9518SOL    HW240017   4.309   3.494   6.102  0.4428 -0.6524  0.0167
 9519SOL     OW40018   2.396   1.629   3.652  0.5612 -0.4538  0.2287
 9519SOL    HW140019   2.427   1.540   3.637 -0.2970 -0.6662 -0.2742
 9519SOL    HW240020   2.453   1.651   3.726  0.5155  1.0299 -0.1818
 9520SOL     OW40021   0.523   4.666   7.201 -0.2931 -0.4606  0.4680
 9520SOL    HW140022   0.432   4.698   7.206  0.2051  1.0815 -0.2454
 9520SOL    HW240023   0.522   4.620   7.117 -0.7440 -0.0611  0.2533
 9521SOL     OW40024   0.298   2.785   7.604 -0.3263  0.0134 -0.3168
 9521SOL    HW140025   0.388   2.757   7.593 -0.3143  1.3581 -3.5025
 9521SOL    HW240026   0.299   2.830   7.689  1.1209  2.8265 -1.8434
 9522SOL     OW40027   2.977   3.893   8.007 -0.0247 -0.2570 -0.0062
 9522SOL    HW140028   2.970   3.847   7.923  0.0090 -0.9194  0.3610
 9522SOL    HW240029   3.000   3.985   7.990 -0.3416  0.0161  1.0752
 9523SOL     OW40030   0.634   1.668  14.020 -0.4690 -0.0317 -0.3433
 9523SOL    HW140031   0.600   1.602  14.080  1.5397  0.7525  1.6516
 9523SOL    HW240032   0.612   1.640  13.931  0.3942  0.3367 -0.6708
 9524SOL     OW40033   1.333   3.763   6.802 -0.1370 -0.2591 -0.0307
 9524SOL    HW140034   1.427   3.782   6.810 -0.6563  2.0874  0.5218
 9524SOL    HW240035   1.315   3.704   6.875  2.9645 -0.8547  0.2670
 9525SOL     OW40036   0.232   3.496   5.456 -0.1870 -0.0298 -0.1043
 9525SOL    HW140037   0.225   3.500   5.552  0.4178 -1.0010 -0.0236
 9525SOL    HW240038   0.155   3.444   5.434  0.3076 -0.6915 -0.2607
 9526SOL     OW40039   3.813   1.810   5.824  0.2540  0.3706  0.0137
 9526SOL    HW140040   3.835   1.815   5.917 -0.8233  1.2139  0.2067
 9526SOL    HW240041   3.828   1.901   5.799 -0.3647 -0.0616 -1.9557
 9527SOL     OW40042   1.228   0.147   0.332  0.0837  0.0465  0.1430
 9527SOL    HW140043   1.151   0.179   0.379 -0.6614 -1.5200 -0.0226
 9527SOL    HW240044   1.263   0.094   0.403 -1.5121  0.4129  1.1959
 9528SOL     OW40045   2.669   1.894  12.007  0.0538  0.7983  0.0572
 9528SOL    HW140046   2.637   1.948  12.079 -2.0094 -0.5484  0.1648
 9528SOL    HW240047   2.598   1.897  11.942  0.2132  1.1514 -0.1011
 9529SOL     OW40048   0.892   0.683   9.194  0.3169 -0.2374 -0.4541
 9529SOL    HW140049   0.867   0.740   9.267 -1.0739 -1.4360  0.0123
 9529SOL    HW240050   0.979   0.657   9.222  0.0715  0.9491  1.4508
 9530SOL     OW40051   2.511   2.791  17.259  0.2661 -0.0535  0.3500
 9530SOL    HW140052   2.601   2.808  17.231 -0.2099  1.2038 -0.4512
 9530SOL    HW240053   2.469   2.860  17.207  1.5950  0.7353  0.2933
 9531SOL     OW40054   4.010   0.313   9.898  0.0374  0.2348 -0.1461
 9531SOL    HW140055   3.954   0.323   9.975  0.4643  0.1297  0.1750
 9531SOL    HW240056   3.968   0.233   9.867  1.2489 -0.8226  0.9440
 9532SOL     OW40057   1.363   3.012   6.541  0.1233 -0.4411 -0.2722
 9532SOL    HW140058   1.396   2.989   6.628  0.6964  1.8031  0.1125
 9532SOL    HW240059   1.379   3.106   6.530 -0.2753 -0.3044  0.3327
 9533SOL     OW40060   3.045   1.861   0.946 -0.2954 -0.0431 -0.3248
 9533SOL    HW140061   3.054   1.953   0.922  1.5425  0.1195  0.9998
 9533SOL    HW240062   3.135   1.832   0.929  0.2535  0.6533  1.4290
 9534SOL     OW40063   1.621   4.477  13.566 -0.2534  0.3738 -0.3177
 9534SOL    HW140064   1.652   4.403  13.617 -1.3315 -1.4702 -2.3043
 9534SOL    HW240065   1.526   4.462  13.567 -0.6832  3.1785  0.3923
 9535SOL     OW40066   0.929   4.220   6.437 -0.0655 -0.0950 -0.2062
 9535SOL    HW140067   0.942   4.274   6.515  3.1820 -1.5373  0.2686
 9535SOL    HW240068   0.896   4.282   6.372  0.0398 -0.9800 -1.0997
 9536SOL     OW40069   2.618   0.185   8.247  0.2138 -0.1414  0.2856
 9536SOL    HW140070   2.672   0.107   8.265 -0.9620 -0.6483  1.6577
 9536SOL    HW240071   2.682   0.251   8.273  0.4286 -0.3590  0.3086
 9537SOL     OW40072   4.597   0.465   2.408 -0.5138 -0.1840 -0.1780
 9537SOL    HW140073   4.692   0.453   2.401 -0.7361 -0.3630 -2.9498
 9537SOL    HW240074   4.569   0.471   2.317  1.8824  1.2677 -0.8109
 9538SOL     OW40075   4.137   3.697   7.110 -0.2359  0.3006  0.4264
 9538SOL    HW140076   4.166   3.663   7.194 -0.5215 -2.3708 -0.5476
 9538SOL    HW240077   4.212   3.653   7.071  0.2394  0.6081  0.9984
 9539SOL     OW40078   4.673   1.299   4.703  0.6770  0.3180  0.0046
 9539SOL    HW140079   4.706   1.213   4.679  0.1035  0.7627 -2.3338
 9539SOL    HW240080   4.712   1.349   4.631 -3.3510  2.2095 -0.8166
 9540SOL     OW40081   3.256   3.528   7.837 -0.3065  0.1241  0.4379
 9540SOL    HW140082   3.264   3.610   7.788 -3.0907  0.2192  0.1182
 9540SOL    HW240083   3.163   3.537   7.857 -0.1270  2.2427  0.3632
 9541SOL     OW40084   0.028   1.123  12.718  0.1007 -0.1281  0.1708
 9541SOL    HW140085   0.108   1.140  12.669 -0.1762 -1.7599 -0.8301
 9541SOL    HW240086   4.685   1.160  12.665  0.4210 -0.0149 -0.1718
 9542SOL     OW40087   0.924   1.969   5.352 -0.4790  0.3740  0.2865
 9542SOL    HW140088   0.904   2.042   5.410  1.1228  0.8102  0.3012
 9542SOL    HW240089   0.840   1.938   5.318 -1.4836  2.9140  0.4244
 9543SOL     OW40090   1.756   2.230  14.875  0.8976 -0.0490 -0.0661
 9543SOL    HW140091   1.738   2.263  14.787  1.7344 -1.4931 -0.7844
 9543SOL    HW240092   1.789   2.142  14.858 -0.5153 -0.3834 -1.1065
 9544SOL     OW40093   0.518   2.409  11.550  0.4294  0.0888 -0.6606
 9544SOL    HW140094   0.548   2.489  11.507  0.6478  0.2331 -0.2406
 9544SOL    HW240095   0.519   2.343  11.481 -1.0672 -2.2737  1.5358
 9545SOL     OW40096   2.353   2.004   6.333 -0.2531  0.2876  0.1235
 9545SOL    HW140097   2.408   1.926   6.334 -0.5574  0.0847  0.8009
 9545SOL    HW240098   2.336   2.012   6.426 -0.6935 -0.2247  0.0903
 9546SOL     OW40099   3.373   4.526   4.607  0.1344 -0.2088 -0.2462
 9546SOL    HW140100   3.443   4.462   4.607  1.2029  0.9615 -0.6388
 9546SOL    HW240101   3.424   4.596   4.567  0.4707  1.3680  2.8707
 9547SOL     OW40102   2.858   0.828   7.317  0.1816  0.4265  1.1229
 9547SOL    HW140103   2.815   0.834   7.232  0.9589  2.8976  0.8861
 9547SOL    HW240104   2.869   0.733   7.320 -0.5110  0.3536  1.1644
 9548SOL     OW40105   2.602   4.599  15.104 -0.2089 -0.6126 -0.1452
 9548SOL    HW140106   2.648   4.669  15.149  0.4551 -2.1060  1.5031
 9548SOL    HW240107   2.583   4.553  15.186 -0.6711 -3.2826 -1.7164
 9549SOL     OW40108   1.812   2.916  17.118  0.0766 -0.5938  0.5971
 9549SOL    HW140109   1.737   2.936  17.062  0.4887  0.9337  0.6074
 9549SOL    HW240110   1.826   2.821  17.113 -1.0430 -0.7686  0.5966
 9550SOL     OW40111   2.551   2.477  10.169 -0.2875 -0.1546  0.1464
 9550SOL    HW140112   2.629   2.454  10.219  0.6860 -0.6815 -1.6001
 9550SOL    HW240113   2.509   2.392  10.180  1.7785 -1.0618  1.0644
 9551SOL     OW40114   2.922   4.431   3.296 -0.3691  0.2143  0.0231
 9551SOL    HW140115   3.011   4.464   3.309  0.5341 -2.4869  0.6688
 9551SOL    HW240116   2.904   4.441   3.203 -2.0133 -2.0108  0.1036
 9552SOL     OW40117   3.711   1.400   2.671 -0.8198 -0.3262 -0.4880
 9552SOL    HW140118   3.707   1.304   2.671  0.0958 -0.3643  1.8924
 9552SOL    HW240119   3.789   1.410   2.616 -0.8857 -2.2343 -0.9352
 9553SOL     OW40120   2.194   2.429   3.916  0.2539  0.1739 -0.4462
 9553SOL    HW140121   2.194   2.380   3.999  0.3481 -0.7936 -1.0120
 9553SOL    HW240122   2.270   2.394   3.871  0.6918  0.2399  0.2436
 9554SOL     OW40123   4.118   2.876   3.996  0.2524 -0.4874  0.2073
 9554SOL    HW140124   4.146   2.817   3.925 -1.8117 -1.0713 -0.1337
 9554SOL    HW240125   4.184   2.863   4.063 -0.9488 -0.8591  1.3151
 9555SOL     OW40126   0.275   2.473  13.223  0.7353  0.1339  0.4367
 9555SOL    HW140127   0.364   2.483  13.189  1.7142 -0.1668  2.8729
 9555SOL    HW240128   0.257   2.382  13.197  3.5796 -0.4601  0.5601
 9556SOL     OW40129   3.358   3.116   7.916 -0.1434 -0.2793 -0.1135
 9556SOL    HW140130   3.430   3.083   7.970  0.7869 -2.5297 -2.7175
 9556SOL    HW240131   3.293   3.046   7.926  0.8595 -1.3716 -1.3187
 9557SOL     OW40132   4.055   0.853   7.299  0.2294  0.9367 -0.1515
 9557SOL    HW140133   4.040   0.805   7.380  0.2168  2.8148  0.9598
 9557SOL    HW240134   4.121   0.917   7.326  1.0764  0.0131 -0.0370
 9558SOL     OW40135   1.928   3.678   7.059 -0.1468 -0.5486 -0.0068
 9558SOL    HW140136   1.921   3.763   7.015  1.8098 -0.8790 -0.9658
 9558SOL    HW240137   1.835   3.670   7.079  0.6280 -0.2801  3.8548
 9559SOL     OW40138   1.808   3.297   4.463 -0.4728  0.5176 -0.1246
 9559SOL    HW140139   1.843   3.212   4.487  0.3091  1.3046  1.5046
 9559SOL    HW240140   1.852   3.354   4.526  2.1677 -1.6444 -0.0205
 9560SOL     OW40141   4.201   2.251   7.769 -0.2562 -0.2901  0.3466
 9560SOL    HW140142   4.256   2.188   7.721 -0.1120  0.2449 -0.1946
 9560SOL    HW240143   4.273   2.297   7.812 -1.0090  0.7225  0.5329
 9561SOL     OW40144   3.598   2.796   3.763  0.7058  0.2606 -0.4470
 9561SOL    HW140145   3.551   2.733   3.709  0.0468  1.7587 -1.6044
 9561SOL    HW240146   3.651   2.849   3.704 -0.5589 -0.1064 -1.9087
 9562SOL     OW40147   4.525   3.747   2.103 -0.0720 -0.1868  0.4902
 9562SOL    HW140148   4.608   3.735   2.056  0.4319  0.9943  1.0792
 9562SOL    HW240149   4.470   3.745   2.024  0.9833 -1.1110 -0.2213
 9563SOL     OW40150   3.114   0.984   7.147  0.7681  0.1245  0.0385
 9563SOL    HW140151   3.089   1.076   7.138  0.4342  0.1057  0.7200
 9563SOL    HW240152   3.098   0.956   7.057 -0.9286  1.1581  0.0301
 9564SOL     OW40153   3.980   0.040   7.609  0.1396 -0.3656 -0.3632
 9564SOL    HW140154   3.971   4.701   7.678 -0.6501 -0.4622 -0.5657
 9564SOL    HW240155   4.073   0.026   7.592  0.2698  2.0931 -1.6131
 9565SOL     OW40156   1.377   4.395  10.498 -0.3804  0.4281 -0.2272
 9565SOL    HW140157   1.451   4.346  10.534 -0.1418 -0.2556 -1.6319
 9565SOL    HW240158   1.304   4.334  10.506 -1.0527  1.2652 -0.0896
 9566SOL     OW40159   4.320   2.736   7.295 -0.2629  0.0875  0.2367
 9566SOL    HW140160   4.269   2.816   7.281  2.5297  1.7973 -0.1225
 9566SOL    HW240161   4.250   2.674   7.276 -0.6281  0.8723 -0.9641
 9567SOL     OW40162   4.377   0.342   6.301 -0.1284 -0.0978 -0.3629
 9567SOL    HW140163   4.327   0.315   6.378  1.2100 -0.3101  0.4297
 9567SOL    HW240164   4.408   0.256   6.273 -0.2023 -0.1865 -0.1686
 9568SOL     OW40165   0.282   0.325  12.929  0.4056 -0.5230  0.1418
 9568SOL    HW140166   0.376   0.331  12.944  0.2934  0.2369  0.5793
 9568SOL    HW240167   0.247   0.278  13.004  0.8896  0.2124  0.8426
   4.72669   4.72669  17.70774
