Membrane in water
40167
    1TCq1    O1    1   2.414   3.569  10.847 -0.0368  0.4765 -0.5911
    1TCq1    C1    2   2.493   3.474  10.897  0.0818  0.2623  0.7627
    1TCq1    O2    3   2.585   3.421  10.836 -0.4155 -0.2932  0.2876
    1TCq1    C2    4   2.419   3.405  11.001  0.1727  0.1950  0.4408
    1TCq1    C3    5   2.282   3.411  11.002  0.1045  0.2864  0.4219
    1TCq1    C4    6   2.217   3.335  11.092 -0.1995  0.1854  0.0721
    1TCq1    C5    7   2.292   3.278  11.186 -0.5022 -0.6225 -0.0689
    1TCq1    C6    8   2.429   3.280  11.182  0.3046  0.0382  0.1488
    1TCq1    C7    9   2.500   3.338  11.085  0.8773  0.6126  0.8019
    1TCq1    C8   10   2.488   3.242  11.306 -0.0465  0.2222 -0.7949
    1TCq1    O4   11   2.419   3.261  11.407  0.4043  0.8083  0.0831
    1TCq1    C9   12   2.080   3.309  11.084 -0.3757  1.1540  0.7722
    1TCq1    O5   13   2.033   3.220  11.162  0.9631 -0.4782 -0.2462
    1TCq1    O6   14   2.009   3.381  11.008  0.1890 -0.2042  0.0981
    1TCq1    H1   15   2.348   3.603  10.911  1.9009  1.5401  0.8508
    1TCq1    H2   16   2.223   3.448  10.919  1.2733 -0.6340 -0.8116
    1TCq1    H3   17   2.241   3.231  11.269  0.0051 -1.6636 -0.3469
    1TCq1    H4   18   2.606   3.343  11.067  0.6697 -0.9636 -0.9149
    2MPD2     C   19   2.889   3.103  11.596 -0.3619 -0.0226 -0.1074
    2MPD2    C1   20   2.759   3.109  11.626 -0.4050 -0.3670 -1.0109
    2MPD2    C2   21   2.663   3.152  11.534  0.7784  0.1463 -0.0025
    2MPD2    C3   22   2.706   3.178  11.400  0.2130  0.6985 -0.0121
    2MPD2    C4   23   2.836   3.175  11.372  0.2052 -0.5393 -0.3938
    2MPD2    C5   24   2.924   3.144  11.469  0.3091 -0.2365 -0.0593
    2MPD2     H   25   2.559   3.154  11.565  0.6519 -0.5488 -0.3964
    2MPD2    H1   26   2.870   3.196  11.271  0.8868 -3.3641 -0.7343
    2MPD2    H2   27   2.962   3.075  11.671  0.7276 -0.2474 -1.2462
    2MPD2    H3   28   3.030   3.156  11.450  0.3813  0.3520  0.6952
    2MPD2     N   29   2.617   3.211  11.295  0.2305 -0.1700 -0.3339
    2MPD2    H5   30   2.661   3.221  11.204 -0.0068 -0.7305 -0.5145
    2MPD2    N1   31   2.709   3.061  11.748  0.3137  0.0535  0.0724
    2MPD2    H7   32   2.615   3.093  11.770  0.0177 -1.3271  0.8458
    3TCq1    O1   33   2.061   3.525  10.771 -0.3590 -0.1426 -0.7083
    3TCq1    C1   34   2.046   3.645  10.726 -0.4121 -0.9274  0.1706
    3TCq1    O2   35   2.088   3.693  10.622  0.5228 -0.0776 -0.1354
    3TCq1    C2   36   1.934   3.706  10.793 -0.9072 -0.3919  0.1904
    3TCq1    C3   37   1.931   3.848  10.810  0.8714 -0.8986  0.5183
    3TCq1    C4   38   1.812   3.907  10.841 -0.0853  0.1024 -0.3354
    3TCq1    C5   39   1.697   3.833  10.851 -0.4763  0.5519  0.2379
    3TCq1    C6   40   1.705   3.700  10.843  0.3598  0.7335  0.5145
    3TCq1    C7   41   1.820   3.638  10.818  0.0232  0.2130  0.5837
    3TCq1    C8   42   1.598   3.621  10.901  0.2810  0.4222 -0.0462
    3TCq1    O4   43   1.587   3.507  10.864  0.4862  0.1812  0.5831
    3TCq1    C9   44   1.797   4.047  10.846  0.0212 -0.3377 -1.3173
    3TCq1    O5   45   1.911   4.107  10.853 -0.0962  0.4716  0.2895
    3TCq1    O6   46   1.677   4.088  10.864  0.2070  0.2071 -0.1113
    3TCq1    H1   47   2.011   3.503  10.852 -1.8166  0.7619 -1.3427
    3TCq1    H2   48   2.024   3.902  10.794  0.2487  0.1820  0.5615
    3TCq1    H3   49   1.597   3.873  10.845 -1.5228 -2.1091  0.1294
    3TCq1    H4   50   1.826   3.531  10.800  0.1117  0.3025  0.0888
    4MPD2     C   51   1.271   3.546  11.292 -0.7499  0.4059  0.2876
    4MPD2    C1   52   1.307   3.679  11.291  0.8660 -0.0301 -0.7796
    4MPD2    C2   53   1.395   3.722  11.192  0.0735 -0.2065 -0.7817
    4MPD2    C3   54   1.450   3.639  11.102  0.8751  0.2208 -0.6205
    4MPD2    C4   55   1.407   3.511  11.101 -0.3733 -0.9017  0.6602
    4MPD2    C5   56   1.321   3.465  11.196 -0.9122 -0.1356  0.1951
    4MPD2     H   57   1.400   3.830  11.201  0.6196 -0.0689 -2.9563
    4MPD2    H1   58   1.441   3.450  11.019  1.3158  0.1471  0.5858
    4MPD2    H2   59   1.186   3.511  11.350  1.5196 -1.1913  2.6723
    4MPD2    H3   60   1.269   3.371  11.179  1.2444 -1.1654 -0.8117
    4MPD2     N   61   1.538   3.690  11.007  0.0320 -0.1672 -0.1844
    4MPD2    H5   62   1.581   3.781  11.016  1.9063 -0.9033 -1.5781
    4MPD2    N1   63   1.254   3.771  11.388 -0.0500 -0.1269  0.3199
    4MPD2    H7   64   1.279   3.869  11.379  0.1332 -0.4342 -2.5981
    5TCq1    O1   65   3.454   1.109  11.872  1.0037 -0.0201 -0.4147
    5TCq1    C1   66   3.390   1.042  11.773 -0.0825 -0.0968  0.7419
    5TCq1    O2   67   3.430   0.942  11.716 -0.1713  0.0466 -0.1132
    5TCq1    C2   68   3.270   1.118  11.739 -0.5481 -0.1300  0.0093
    5TCq1    C3   69   3.271   1.257  11.725  0.7709 -0.2764  0.3695
    5TCq1    C4   70   3.162   1.310  11.663 -0.5369  0.6988 -0.3396
    5TCq1    C5   71   3.055   1.237  11.619  0.3482  0.6628 -0.4865
    5TCq1    C6   72   3.062   1.102  11.634 -0.4559 -0.6645 -0.0769
    5TCq1    C7   73   3.163   1.044  11.700 -0.0146 -0.4423 -0.2333
    5TCq1    C8   74   2.986   1.002  11.565 -0.3539  0.9820  0.2559
    5TCq1    O4   75   3.032   0.889  11.556 -0.5412 -0.3233  0.4257
    5TCq1    C9   76   3.169   1.451  11.632  0.4583 -0.5725  0.3985
    5TCq1    O5   77   3.070   1.517  11.596  0.0510 -0.2329 -0.0745
    5TCq1    O6   78   3.267   1.514  11.672 -0.3028 -0.5402  0.6746
    5TCq1    H1   79   3.385   1.169  11.909  0.5483 -1.4491  1.0169
    5TCq1    H2   80   3.364   1.310  11.746  0.3025  0.0262  1.6757
    5TCq1    H3   81   2.982   1.285  11.554 -1.8447 -0.2197  1.3452
    5TCq1    H4   82   3.178   0.938  11.717 -4.1793 -1.0793 -0.4548
    6MPD2     C   83   2.678   1.059  11.350 -0.5308  0.7630  0.0930
    6MPD2    C1   84   2.789   0.994  11.410  0.1987  0.1225 -0.2420
    6MPD2    C2   85   2.823   0.862  11.359 -0.5339 -0.5503  0.1083
    6MPD2    C3   86   2.737   0.802  11.269  0.1435  0.2958  0.4342
    6MPD2    C4   87   2.631   0.879  11.214 -0.2011  0.6459 -0.6627
    6MPD2    C5   88   2.602   1.005  11.254  0.4344  0.2811 -0.6592
    6MPD2     H   89   2.900   0.806  11.410  1.1091  0.5476 -1.1736
    6MPD2    H1   90   2.570   0.842  11.132  1.2078 -0.7287 -1.1000
    6MPD2    H2   91   2.662   1.160  11.386 -0.1558  0.7119  0.4068
    6MPD2    H3   92   2.523   1.062  11.206 -1.1139 -1.8463 -0.6614
    6MPD2     N   93   2.752   0.666  11.233 -0.6563  0.7405  0.2491
    6MPD2    H5   94   2.826   0.611  11.276 -1.1189 -0.6924 -0.7715
    6MPD2    N1   95   2.878   1.061  11.502 -0.1694  0.4690  0.3819
    6MPD2    H7   96   2.856   1.156  11.530 -1.2198  0.1405  0.6823
    7TCq1    O1   97   4.511   0.635  13.339  0.3215 -0.8451  0.1386
    7TCq1    C1   98   4.541   0.687  13.210 -0.0074 -0.2908  0.6656
    7TCq1    O2   99   4.598   0.792  13.183 -0.5647 -0.0360  0.4325
    7TCq1    C2  100   4.516   0.595  13.103  0.0483 -0.5975  0.2742
    7TCq1    C3  101   4.493   0.644  12.976  0.4626  0.3065  0.5217
    7TCq1    C4  102   4.491   0.560  12.870  0.7733  0.1523  0.8094
    7TCq1    C5  103   4.493   0.425  12.890 -0.1313  0.4222  0.6098
    7TCq1    C6  104   4.499   0.374  13.019  0.3400 -0.7554 -0.1247
    7TCq1    C7  105   4.527   0.459  13.129  0.0239  0.0407  0.3742
    7TCq1    C8  106   4.529   0.235  13.038 -0.3112 -0.1817  0.4001
    7TCq1    O4  107   4.529   0.194  13.152  0.5315 -0.1522 -0.3311
    7TCq1    C9  108   4.458   0.612  12.737  0.9647 -0.8690 -0.7742
    7TCq1    O5  109   4.398   0.727  12.727 -0.5852  0.9297 -0.1540
    7TCq1    O6  110   4.480   0.532  12.639 -0.6202  0.2487 -0.5886
    7TCq1    H1  111   4.444   0.564  13.337 -0.1628 -0.2967 -3.1292
    7TCq1    H2  112   4.493   0.752  12.966  0.7811 -0.0463 -3.3157
    7TCq1    H3  113   4.456   0.368  12.805  4.3235  0.2337 -1.2109
    7TCq1    H4  114   4.551   0.419  13.227 -0.5041  0.9904  0.8854
    8MPD2     C  115   4.587   4.471  12.852 -0.1917  0.2201  0.1178
    8MPD2    C1  116   4.579   4.517  12.978  0.5842 -0.5085 -0.0879
    8MPD2    C2  117   4.548   4.652  13.008  0.0659 -0.1728  0.6301
    8MPD2    C3  118   4.539   0.020  12.902 -0.2680  0.7082  0.1888
    8MPD2    C4  119   4.541   4.690  12.775 -0.7460 -0.6428  0.5931
    8MPD2    C5  120   4.565   4.558  12.753  0.1585  0.4410 -0.5916
    8MPD2     H  121   4.531   4.695  13.106 -0.7143 -0.5788  0.6708
    8MPD2    H1  122   4.537   0.022  12.682 -0.2517  0.6143  1.3326
    8MPD2    H2  123   4.595   4.364  12.837 -0.5662  0.4158 -1.5159
    8MPD2    H3  124   4.572   4.519  12.652  0.4340  0.6969 -0.6699
    8MPD2     N  125   4.526   0.163  12.921 -0.1373  0.0857 -0.5831
    8MPD2    H5  126   4.517   0.221  12.838  0.0923  2.1502  0.8400
    8MPD2    N1  127   4.601   4.426  13.086 -0.4967 -0.1933  0.5596
    8MPD2    H7  128   4.641   4.340  13.050 -0.7971  0.4710 -1.3842
    9TCq1    O1  129   3.183   2.960  11.000 -0.1205  0.2305  0.7244
    9TCq1    C1  130   3.243   3.020  10.893  0.3049  0.1629 -0.4848
    9TCq1    O2  131   3.276   2.964  10.791 -0.3871  0.1854  0.2363
    9TCq1    C2  132   3.190   3.154  10.901 -0.2448  0.2240  0.4043
    9TCq1    C3  133   3.114   3.178  10.791  0.1400 -0.4450 -0.2013
    9TCq1    C4  134   3.010   3.270  10.796 -0.4014 -0.6824 -0.2211
    9TCq1    C5  135   2.977   3.333  10.915 -0.0025  0.0799 -0.2336
    9TCq1    C6  136   3.057   3.310  11.023 -0.3109  0.1923 -0.0318
    9TCq1    C7  137   3.162   3.217  11.022 -0.0840  0.5567 -0.1535
    9TCq1    C8  138   3.043   3.394  11.138  1.3124  0.4098  0.6550
    9TCq1    O4  139   3.127   3.384  11.225  0.8188 -0.8520 -0.0071
    9TCq1    C9  140   2.938   3.305  10.678 -0.4143  0.2609 -0.1888
    9TCq1    O5  141   2.983   3.271  10.567 -0.8996 -0.4829  0.3153
    9TCq1    O6  142   2.836   3.379  10.687 -0.4028 -0.3172 -0.1306
    9TCq1    H1  143   3.158   3.020  11.074  0.4611  0.9824  0.3094
    9TCq1    H2  144   3.141   3.124  10.700  2.3084  0.2915  0.0137
    9TCq1    H3  145   2.902   3.410  10.906 -1.3916 -1.3617 -0.8596
    9TCq1    H4  146   3.228   3.200  11.106  1.8819  0.0981 -1.8137
   10MPD2     C  147   2.991   3.614  11.309  0.5212  0.3746  0.4156
   10MPD2    C1  148   2.883   3.543  11.243  0.1117  0.2120 -0.1146
   10MPD2    C2  149   2.750   3.575  11.267 -0.3270  0.1181 -0.0026
   10MPD2    C3  150   2.721   3.660  11.371 -1.0841 -0.4938 -0.1904
   10MPD2    C4  151   2.821   3.733  11.425  0.3160  0.7477 -0.5097
   10MPD2    C5  152   2.953   3.710  11.394  0.1522  0.2290 -0.2234
   10MPD2     H  153   2.674   3.522  11.209  0.5011  0.1820 -1.1602
   10MPD2    H1  154   2.805   3.806  11.504 -0.1408  2.3544 -2.1022
   10MPD2    H2  155   3.095   3.606  11.281  1.2570  0.0509  3.1950
   10MPD2    H3  156   3.027   3.776  11.438  0.0893  0.6807 -0.7993
   10MPD2     N  157   2.587   3.703  11.400 -0.4953  0.6381  0.0023
   10MPD2    H5  158   2.571   3.776  11.469 -0.8526  1.1755 -0.6505
   10MPD2    N1  159   2.915   3.447  11.146 -0.2737 -0.0503 -0.2515
   10MPD2    H7  160   2.844   3.409  11.084 -0.4268  0.3011 -0.2910
   11TCq1    O1  161   3.663   3.343  13.770 -0.0227 -0.0739 -0.2732
   11TCq1    C1  162   3.592   3.300  13.873  0.5968  0.2509 -0.3037
   11TCq1    O2  163   3.543   3.190  13.876 -0.4497  0.2094  0.5051
   11TCq1    C2  164   3.541   3.409  13.946 -0.2617  0.5176  0.0286
   11TCq1    C3  165   3.621   3.519  13.962 -0.6368 -0.4165  0.1071
   11TCq1    C4  166   3.570   3.624  14.032  0.0729 -0.4581  0.4933
   11TCq1    C5  167   3.446   3.624  14.087 -0.6596 -0.7547  0.3053
   11TCq1    C6  168   3.369   3.513  14.066  0.1030 -0.3996  0.1183
   11TCq1    C7  169   3.414   3.408  13.991 -0.4586 -0.0188 -0.7637
   11TCq1    C8  170   3.225   3.512  14.098  0.1467  0.0012  0.2383
   11TCq1    O4  171   3.191   3.580  14.194 -0.0084  0.0644  0.3117
   11TCq1    C9  172   3.654   3.743  14.038 -0.4266  0.2091  0.0555
   11TCq1    O5  173   3.592   3.842  14.090  0.2369 -0.4176  0.0754
   11TCq1    O6  174   3.774   3.733  13.999  0.0306 -0.4387 -0.8587
   11TCq1    H1  175   3.661   3.441  13.763  0.0509 -0.1747 -1.6439
   11TCq1    H2  176   3.724   3.518  13.927 -0.2880  1.5335  1.0924
   11TCq1    H3  177   3.406   3.711  14.139 -1.9039 -1.2391  0.1663
   11TCq1    H4  178   3.360   3.315  14.005  1.8860 -1.3951 -1.0047
   12MPD2     C  179   2.935   3.464  14.105 -0.1500  0.1032 -0.6347
   12MPD2    C1  180   3.015   3.404  14.013 -1.2267  0.0663 -0.4707
   12MPD2    C2  181   2.955   3.341  13.908  0.6080  0.4950  0.2467
   12MPD2    C3  182   2.816   3.321  13.906  0.1032 -0.3357 -0.0410
   12MPD2    C4  183   2.738   3.377  14.002 -1.1372  0.6268  0.3240
   12MPD2    C5  184   2.804   3.442  14.099  1.0363 -0.1047 -0.8527
   12MPD2     H  185   3.020   3.295  13.834  2.7605  0.5307  2.1246
   12MPD2    H1  186   2.630   3.365  14.003 -1.3452  2.3771 -0.1256
   12MPD2    H2  187   2.961   3.526  14.190  1.0097 -1.5298  0.1807
   12MPD2    H3  188   2.752   3.476  14.188  0.3236  0.3247 -1.4296
   12MPD2     N  189   2.763   3.269  13.785  0.3565 -0.1942  0.4712
   12MPD2    H5  190   2.827   3.227  13.717 -3.2454 -2.8009 -1.3172
   12MPD2    N1  191   3.156   3.428  14.015 -0.4384  0.3043 -0.1247
   12MPD2    H7  192   3.217   3.383  13.948  0.8665  2.7174 -0.5888
   13TCq1    O1  193   2.293   3.470  10.021  0.4303 -0.2818 -0.0296
   13TCq1    C1  194   2.269   3.359  10.083 -0.6932 -1.1407  0.1816
   13TCq1    O2  195   2.179   3.283  10.051  0.3646 -0.0038  0.1780
   13TCq1    C2  196   2.304   3.380  10.221  0.0686 -0.1083  0.0819
   13TCq1    C3  197   2.420   3.445  10.261 -0.9628  0.4250 -0.7876
   13TCq1    C4  198   2.451   3.438  10.394  0.7081  0.1531 -0.1605
   13TCq1    C5  199   2.365   3.380  10.486 -0.2474 -0.1710  0.3109
   13TCq1    C6  200   2.249   3.314  10.439 -0.2859  0.2992 -0.3848
   13TCq1    C7  201   2.222   3.307  10.305 -0.0352 -0.2556 -0.0263
   13TCq1    C8  202   2.155   3.272  10.540  0.0413 -0.0844 -0.1066
   13TCq1    O4  203   2.195   3.268  10.655  0.1692 -0.4971  0.4483
   13TCq1    C9  204   2.583   3.485  10.435 -0.0796  0.2592  0.2033
   13TCq1    O5  205   2.622   3.445  10.547  0.7085 -0.2896  0.6581
   13TCq1    O6  206   2.664   3.522  10.347  0.2168 -0.1854  0.4951
   13TCq1    H1  207   2.317   3.547  10.077 -0.5384  1.4073 -1.9646
   13TCq1    H2  208   2.487   3.496  10.193 -2.3773  2.7709 -0.4412
   13TCq1    H3  209   2.390   3.396  10.590 -0.3581  1.4766  0.0943
   13TCq1    H4  210   2.139   3.251  10.264 -0.2705  1.4222 -1.8456
   14MPD2     C  211   1.824   3.122  10.503  0.0998 -0.7406  0.0986
   14MPD2    C1  212   1.927   3.183  10.566 -0.1891  0.8732 -0.3145
   14MPD2    C2  213   1.919   3.213  10.702 -0.4077 -0.1778  1.0680
   14MPD2    C3  214   1.800   3.167  10.764  0.3064  0.1793  0.8948
   14MPD2    C4  215   1.699   3.108  10.698  0.4332 -0.0549 -0.0949
   14MPD2    C5  216   1.715   3.080  10.570 -0.2804 -0.7283 -0.3405
   14MPD2     H  217   1.991   3.273  10.755 -2.4969  1.8286  1.6412
   14MPD2    H1  218   1.602   3.083  10.741  0.5755  0.0364  0.2814
   14MPD2    H2  219   1.830   3.096  10.398  1.3093 -1.8471  0.4459
   14MPD2    H3  220   1.627   3.048  10.515  0.7274 -1.9836 -1.2331
   14MPD2     N  221   1.792   3.198  10.904 -0.4098 -0.6265  0.1918
   14MPD2    H5  222   1.865   3.247  10.955  0.1995  1.2025 -2.4939
   14MPD2    N1  223   2.034   3.227  10.488 -0.5211 -0.2795 -0.3123
   14MPD2    H7  224   2.016   3.226  10.388 -0.9775  1.4585 -0.2545
   15TCq1    O1  225   4.083   2.676   2.312 -0.1724 -0.3362 -0.2509
   15TCq1    C1  226   4.087   2.705   2.179  0.3424  0.1148 -0.6287
   15TCq1    O2  227   4.183   2.744   2.119 -0.3640  0.4447  0.3920
   15TCq1    C2  228   3.954   2.684   2.127  0.3273 -0.1007 -0.8130
   15TCq1    C3  229   3.844   2.710   2.201 -0.2258  0.2028  0.4590
   15TCq1    C4  230   3.720   2.685   2.140 -0.7714 -0.0081  0.0004
   15TCq1    C5  231   3.712   2.632   2.014  0.4236 -0.4052  0.0431
   15TCq1    C6  232   3.825   2.601   1.952  0.1854 -0.1978 -0.1451
   15TCq1    C7  233   3.949   2.624   2.002 -0.0028  0.3730 -0.5364
   15TCq1    C8  234   3.815   2.532   1.820  0.5515  0.1664 -0.4616
   15TCq1    O4  235   3.916   2.468   1.788  0.2403  0.1977 -0.6375
   15TCq1    C9  236   3.602   2.711   2.214  0.6392  0.4164  0.2154
   15TCq1    O5  237   3.618   2.752   2.334  0.2183  0.1683 -0.2561
   15TCq1    O6  238   3.486   2.669   2.177 -0.0902  0.1987  0.2451
   15TCq1    H1  239   3.996   2.649   2.346  0.2237 -1.2492  0.0255
   15TCq1    H2  240   3.855   2.760   2.296  1.1367  0.3461  0.2340
   15TCq1    H3  241   3.609   2.608   1.990  0.2710  1.4165 -1.0730
   15TCq1    H4  242   4.036   2.593   1.945 -0.6726 -2.2986 -0.1329
   16MPD2     C  243   3.581   2.566   1.548  0.0388 -0.2139 -0.1694
   16MPD2    C1  244   3.677   2.501   1.619  0.2469 -0.4821  0.0891
   16MPD2    C2  245   3.758   2.412   1.552  0.4172  0.5337  0.5017
   16MPD2    C3  246   3.750   2.399   1.419  0.7653  0.1688  0.6034
   16MPD2    C4  247   3.654   2.467   1.349 -0.2592 -0.0864  0.0834
   16MPD2    C5  248   3.567   2.542   1.420  0.2377  0.0457  0.7182
   16MPD2     H  249   3.827   2.348   1.606  2.5571  3.0330  0.7636
   16MPD2    H1  250   3.647   2.454   1.242 -2.6216 -0.6454  0.3160
   16MPD2    H2  251   3.503   2.629   1.590  0.8193  0.8504 -0.3197
   16MPD2    H3  252   3.484   2.584   1.365  0.1947  0.7756  1.3375
   16MPD2     N  253   3.846   2.309   1.367  0.7106  0.2173  0.8019
   16MPD2    H5  254   3.907   2.256   1.428  0.7448 -1.1010 -0.3902
   16MPD2    N1  255   3.702   2.550   1.753  0.0399  0.2470 -0.2506
   16MPD2    H7  256   3.630   2.612   1.788 -1.0467 -0.6992 -0.8392
   17TCq1    O1  257   2.622   2.730  11.653 -0.4232 -0.8361  0.1161
   17TCq1    C1  258   2.522   2.816  11.629  0.7182  0.0139  0.6687
   17TCq1    O2  259   2.436   2.856  11.709  0.3472  0.5265 -0.1242
   17TCq1    C2  260   2.505   2.809  11.484 -0.4504  0.5710 -0.0506
   17TCq1    C3  261   2.379   2.810  11.436  0.2893 -0.8537  0.4824
   17TCq1    C4  262   2.364   2.856  11.306 -0.5692 -0.0884 -0.8211
   17TCq1    C5  263   2.477   2.875  11.223 -0.7561  0.4764 -0.0095
   17TCq1    C6  264   2.599   2.870  11.273  0.4111  0.3590  0.3029
   17TCq1    C7  265   2.616   2.847  11.407 -0.3022  0.5846  0.7537
   17TCq1    C8  266   2.711   2.835  11.189  0.8624 -0.7329  0.2694
   17TCq1    O4  267   2.821   2.858  11.240  0.5038 -0.1643  0.2072
   17TCq1    C9  268   2.231   2.863  11.250  0.1679 -0.2150  1.0095
   17TCq1    O5  269   2.140   2.876  11.336 -0.0031  0.0058 -0.0563
   17TCq1    O6  270   2.214   2.862  11.127 -0.5330  0.2156 -0.4384
   17TCq1    H1  271   2.666   2.706  11.569  0.6564 -3.1646  1.3496
   17TCq1    H2  272   2.299   2.795  11.508  0.8181 -1.1704  1.0028
   17TCq1    H3  273   2.460   2.891  11.117 -1.5790 -0.3419  0.0024
   17TCq1    H4  274   2.711   2.859  11.457  0.6756 -0.2720 -0.8812
   18MPD2     C  275   2.922   2.744  11.002 -0.3537 -0.0395  0.3879
   18MPD2    C1  276   2.786   2.736  10.973 -0.0269  0.4590 -0.9099
   18MPD2    C2  277   2.742   2.682  10.847 -0.5848  0.0189  0.2029
   18MPD2    C3  278   2.839   2.650  10.757 -0.2520  0.3707  0.1435
   18MPD2    C4  279   2.972   2.652  10.785  0.3463 -0.6617  0.5600
   18MPD2    C5  280   3.011   2.694  10.911  0.0169  0.2568 -0.8766
   18MPD2     H  281   2.637   2.680  10.821 -1.5207  1.6598  3.8703
   18MPD2    H1  282   3.051   2.633  10.713  0.9055 -0.7442  1.1922
   18MPD2    H2  283   2.970   2.765  11.098  2.1131  0.0914 -0.8639
   18MPD2    H3  284   3.117   2.696  10.935  0.3478  0.2741 -2.3705
   18MPD2     N  285   2.808   2.626  10.624 -0.3919  0.1036  0.2734
   18MPD2    H5  286   2.887   2.612  10.562 -0.3906  2.2467 -0.2153
   18MPD2    N1  287   2.691   2.780  11.067 -0.0179  0.7045 -0.1997
   18MPD2    H7  288   2.597   2.777  11.031 -1.3604  1.7371  3.1995
   19TMC2    C1  289   4.052   3.135  13.671  0.9055  0.8066  0.8229
   19TMC2    C2  290   3.975   3.192  13.568 -0.1456  0.0794  0.1496
   19TMC2    C3  291   3.844   3.152  13.558  0.5774 -0.3836 -0.2268
   19TMC2    C4  292   3.996   3.055  13.762 -0.1285 -0.0655  0.4106
   19TMC2    C5  293   3.868   3.008  13.742 -0.5563 -0.5371 -0.2329
   19TMC2    C6  294   3.792   3.057  13.642  0.0196  0.1279 -0.2797
   19TMC2     C  295   4.190   3.184  13.673 -0.4036 -0.4705 -0.4071
   19TMC2     O  296   4.222   3.281  13.604 -0.1998 -0.5697 -0.1677
   19TMC2     H  297   4.018   3.258  13.494 -0.8964  0.7611  0.3144
   19TMC2    H1  298   4.045   3.033  13.857  0.2891  0.1258  0.2397
   19TMC2    H2  299   3.690   3.029  13.617  0.1208 -1.0039  0.5822
   19TMC2    C7  300   3.801   2.918  13.827  0.7823 -0.3164 -0.1594
   19TMC2    C8  301   3.757   3.212  13.456  0.1018  0.4752  0.1542
   19TMC2    O1  302   3.682   2.895  13.809 -0.3394 -0.3931  0.1276
   19TMC2    O2  303   3.654   3.165  13.416  0.2906  0.2565 -0.3243
   19TMC2    O5  304   3.793   3.344  13.447 -0.0483 -0.0872  0.1789
   19TMC2    H5  305   3.874   3.357  13.502  2.2309  1.4543 -3.4985
   20MPD2     C  306   4.474   3.256  13.722 -0.1762  0.1899 -0.2235
   20MPD2    C1  307   4.408   3.159  13.796  0.1338 -0.1320  0.0537
   20MPD2    C2  308   4.473   3.089  13.896  0.4627 -0.4789 -0.0829
   20MPD2    C3  309   4.611   3.116  13.917 -0.1300  0.0791  0.3160
   20MPD2    C4  310   4.674   3.222  13.846  0.0847 -0.1472  0.2848
   20MPD2    C5  311   4.598   3.295  13.757 -0.0122  0.3830 -0.8228
   20MPD2     H  312   4.419   3.022  13.963  0.9991  0.7183  1.5436
   20MPD2    H1  313   0.045   3.263  13.880  1.3930 -2.7114 -0.2754
   20MPD2    H2  314   4.431   3.314  13.641  1.7631  0.3581 -1.1386
   20MPD2    H3  315   4.641   3.380  13.706  2.6874 -0.2728  0.3347
   20MPD2     N  316   4.688   3.050  14.019  0.3393 -0.3534  0.3941
   20MPD2    H5  317   0.060   3.081  14.032 -0.1950  1.6649 -0.4251
   20MPD2    N1  318   4.269   3.117  13.767  0.3518  0.1057 -0.0623
   20MPD2    H7  319   4.228   3.050  13.831 -1.6841 -1.2046 -2.7487
   21MPD2     C  320   1.853   3.866  14.031 -0.1263 -0.0511  0.0615
   21MPD2    C1  321   1.826   3.735  14.029  0.1590  0.5903 -0.3025
   21MPD2    C2  322   1.736   3.685  14.122  0.9303 -0.0453 -0.4679
   21MPD2    C3  323   1.676   3.772  14.214 -0.2765  0.8815  0.4326
   21MPD2    C4  324   1.703   3.909  14.206 -0.0628 -0.2668  0.2250
   21MPD2    C5  325   1.796   3.947  14.118 -0.5320  0.0594  0.1767
   21MPD2     H  326   1.719   3.578  14.131  1.5775  0.0861  2.2184
   21MPD2    H1  327   1.664   3.982  14.276  0.1819  2.0057 -2.0016
   21MPD2    H2  328   1.918   3.912  13.957 -0.3605  1.1675  0.6126
   21MPD2    H3  329   1.834   4.048  14.111  1.0123 -0.4392  1.5430
   21MPD2     N  330   1.583   3.736  14.320 -0.0912  0.4571 -0.2607
   21MPD2    H5  331   1.576   3.811  14.388  0.0809  0.9395 -0.7742
   21MPD2    N1  332   1.904   3.649  13.953  0.4301  0.3571  0.1854
   21MPD2    H7  333   1.968   3.704  13.897 -0.4084 -0.5945 -1.6781
   22TCq2    C1  334   1.540   3.607  14.347 -0.1371  0.1384 -0.3188
   22TCq2    O2  335   1.568   3.508  14.278  0.1107  0.2418 -0.1708
   22TCq2    C2  336   1.482   3.610  14.476 -0.1120 -0.7332 -0.1159
   22TCq2    C3  337   1.510   3.510  14.564  0.1189  0.6753  0.8331
   22TCq2    C4  338   1.475   3.523  14.698  0.4093 -0.3239 -0.6035
   22TCq2    C5  339   1.415   3.634  14.750 -0.0110 -0.1931 -0.2605
   22TCq2    C6  340   1.376   3.729  14.655  0.3886  0.7101  0.3520
   22TCq2    C7  341   1.409   3.720  14.520  0.5139  0.3363  0.1795
   22TCq2    C8  342   1.325   3.855  14.703 -0.4889  0.9551 -0.5865
   22TCq2    O4  343   1.346   3.877  14.822 -0.0687 -0.7594 -0.2305
   22TCq2    C9  344   1.509   3.419  14.789  0.8745  0.1949  0.6224
   22TCq2    O5  345   1.579   3.319  14.760 -0.2806  0.1861 -0.1800
   22TCq2    O6  346   1.462   3.431  14.902  0.7121  0.2799 -0.0491
   22TCq2    H2  347   1.573   3.424  14.541 -0.1963 -0.0748  2.7275
   22TCq2    H3  348   1.385   3.635  14.854 -1.1245  1.1905 -0.5992
   22TCq2    H4  349   1.393   3.791  14.440  0.3927  1.5533  1.2750
   23MPD2     C  350   3.371   0.183  14.394  0.2226 -0.1226 -0.0695
   23MPD2    C1  351   3.272   0.164  14.487  0.2402 -0.3686  0.2315
   23MPD2    C2  352   3.163   0.249  14.485  0.3941  0.5599 -0.0946
   23MPD2    C3  353   3.144   0.345  14.383  0.6691 -1.0676  0.4022
   23MPD2    C4  354   3.252   0.370  14.294 -0.0513  0.0312  0.1755
   23MPD2    C5  355   3.367   0.291  14.312 -0.3212 -0.0358 -0.1267
   23MPD2     H  356   3.092   0.237  14.566 -0.0409  2.7535 -0.1746
   23MPD2    H1  357   3.251   0.448  14.219 -0.4192  0.6518  0.8244
   23MPD2    H2  358   3.455   0.117  14.377 -0.0612 -0.5931  0.3592
   23MPD2    H3  359   3.449   0.312  14.244 -1.4450  1.2316 -1.0577
   23MPD2     N  360   3.023   0.410  14.362 -0.2222  0.5610 -0.2471
   23MPD2    H5  361   3.002   0.450  14.271  1.5046 -1.2430 -1.4313
   23MPD2    N1  362   3.283   0.075  14.593  0.4283 -0.4641  0.4738
   23MPD2    H7  363   3.213   0.084  14.666  0.4176 -0.3400  0.4483
   24TCq2    C1  364   2.910   0.409  14.438  0.0607 -0.1666  0.2750
   24TCq2    O2  365   2.893   0.354  14.549 -0.2834 -0.2585  0.4424
   24TCq2    C2  366   2.796   0.453  14.366  0.0003 -0.0636  0.0533
   24TCq2    C3  367   2.800   0.525  14.247 -0.3454  0.6884 -0.4509
   24TCq2    C4  368   2.678   0.533  14.180  0.2404  0.8980  0.0742
   24TCq2    C5  369   2.558   0.479  14.226  0.3395 -0.2747 -0.1016
   24TCq2    C6  370   2.560   0.416  14.347  0.3629  0.4268 -0.1251
   24TCq2    C7  371   2.677   0.403  14.422 -0.0910  0.2715  0.1274
   24TCq2    C8  372   2.474   0.298  14.365 -0.5706  0.0267  0.0355
   24TCq2    O4  373   2.529   0.190  14.385  0.5136 -0.2562  0.0680
   24TCq2    C9  374   2.676   0.606  14.061  0.1170 -0.6082 -0.6675
   24TCq2    O5  375   2.564   0.604  13.999 -0.0048 -0.2093  0.2995
   24TCq2    O6  376   2.784   0.625  14.002 -0.0313 -0.2501 -0.0254
   24TCq2    H2  377   2.888   0.575  14.209  1.7332  0.1082  3.6067
   24TCq2    H3  378   2.463   0.495  14.177  0.4308  0.6874  0.0495
   24TCq2    H4  379   2.667   0.340  14.510 -2.1099  2.1508  1.2502
   25TMC2    C1  380   1.462   2.340  10.934  0.1688 -0.8096 -0.4808
   25TMC2    C2  381   1.437   2.473  10.961  0.1021 -0.7985 -0.0991
   25TMC2    C3  382   1.429   2.512  11.088  0.7515 -0.0353 -0.6184
   25TMC2    C4  383   1.466   2.246  11.037  0.3170  0.2603 -0.3878
   25TMC2    C5  384   1.445   2.288  11.166  0.0575 -0.2929 -0.2859
   25TMC2    C6  385   1.425   2.428  11.193  0.3582  0.7906 -0.0703
   25TMC2     C  386   1.436   2.306  10.794 -0.6784  0.0333 -0.1129
   25TMC2     O  387   1.412   2.396  10.719  0.1400  0.5801 -0.2155
   25TMC2     H  388   1.430   2.549  10.884  1.3589 -0.2638  0.3047
   25TMC2    H1  389   1.497   2.144  11.018 -0.3882 -0.0131 -0.0998
   25TMC2    H2  390   1.409   2.474  11.291  2.9384  1.9424 -0.2032
   25TMC2    C7  391   1.456   2.199  11.284 -0.1483  0.9796 -0.4532
   25TMC2    C8  392   1.402   2.657  11.112 -0.3210  1.1473  0.2383
   25TMC2    O1  393   1.439   2.261  11.388  0.3626  0.2760 -0.4818
   25TMC2    O2  394   1.421   2.739  11.023  0.5702 -0.3936 -0.4238
   25TMC2    O5  395   1.308   2.672  11.205  0.1320 -0.0123  0.2773
   25TMC2    H5  396   1.277   2.586  11.240 -1.2235  0.7835  1.0423
   26MPD2     C  397   1.484   1.986  10.382  0.4923 -0.5023 -0.2186
   26MPD2    C1  398   1.468   1.914  10.502 -0.4013 -0.0144  0.8844
   26MPD2    C2  399   1.466   1.978  10.627 -0.3498  1.1941 -0.6512
   26MPD2    C3  400   1.478   2.115  10.640 -0.5580 -0.1570  0.7612
   26MPD2    C4  401   1.481   2.185  10.523 -0.6876 -0.8589 -0.2303
   26MPD2    C5  402   1.482   2.125  10.398  0.0794  0.0774  0.3601
   26MPD2     H  403   1.454   1.923  10.720 -1.8023 -0.3062 -1.7372
   26MPD2    H1  404   1.486   2.293  10.529 -3.5308 -0.7348  0.1188
   26MPD2    H2  405   1.475   1.936  10.287 -2.1980  0.3931 -0.4443
   26MPD2    H3  406   1.488   2.191  10.312  1.2745 -0.2873  0.1694
   26MPD2     N  407   1.482   2.175  10.767 -0.6145  0.4365 -0.1737
   26MPD2    H5  408   1.495   2.112  10.846 -0.3940 -1.2531 -1.5665
   26MPD2    N1  409   1.447   1.769  10.491  0.0622  0.8761  0.6370
   26MPD2    H7  410   1.429   1.730  10.399 -0.5668  1.6454  0.4274
   27TMC2    C1  411   1.010   4.151  12.051  0.2281 -0.5342 -0.1486
   27TMC2    C2  412   1.134   4.171  12.115 -0.3695 -0.1974  0.2018
   27TMC2    C3  413   1.172   4.301  12.135  0.6346  0.4240  0.0984
   27TMC2    C4  414   0.932   4.262  12.012  0.2621 -0.0509 -0.0664
   27TMC2    C5  415   0.955   4.382  12.068 -0.6269  0.2027  0.5971
   27TMC2    C6  416   1.083   4.403  12.123  0.2693  0.4580  0.2556
   27TMC2     C  417   0.938   4.031  12.076 -0.0785 -0.4609  0.6507
   27TMC2     O  418   1.001   3.926  12.081  0.9843 -0.5945 -0.4312
   27TMC2     H  419   1.194   4.087  12.146 -1.0269 -1.7317 -2.6147
   27TMC2    H1  420   0.845   4.252  11.949 -0.8597  1.1736  1.2652
   27TMC2    H2  421   1.117   4.501  12.154 -1.2119  0.8633  0.5849
   27TMC2    C7  422   0.846   4.414  12.156 -0.3192  0.3694 -0.1189
   27TMC2    C8  423   1.294   4.326  12.202  0.0203 -0.2750  0.2305
   27TMC2    O1  424   0.749   4.336  12.159 -0.2414  0.4052  0.1960
   27TMC2    O2  425   1.306   4.419  12.281  0.1899 -0.3864  0.5310
   27TMC2    O5  426   1.389   4.259  12.144  0.6793 -0.3165  0.0656
   27TMC2    H5  427   1.356   4.200  12.072 -0.7448  1.2982 -0.5987
   28MPD2     C  428   0.516   3.810  12.263 -0.3867  0.0060  0.0177
   28MPD2    C1  429   0.510   3.944  12.289  0.1080 -0.2701 -0.6160
   28MPD2    C2  430   0.618   4.025  12.236  0.6128  0.1952 -1.1943
   28MPD2    C3  431   0.727   3.967  12.174  0.1072 -0.7197 -0.5990
   28MPD2    C4  432   0.735   3.830  12.163  0.7308  0.3927 -0.2078
   28MPD2    C5  433   0.628   3.757  12.207 -0.5391  0.0612  0.4765
   28MPD2     H  434   0.614   4.133  12.243 -0.1720  0.0838  0.2056
   28MPD2    H1  435   0.808   3.777  12.103 -0.2147 -1.3993  0.2343
   28MPD2    H2  436   0.439   3.740  12.295  0.8201 -0.3508  2.1738
   28MPD2    H3  437   0.640   3.649  12.205 -0.9407  0.0468 -1.1249
   28MPD2     N  438   0.819   4.060  12.124  0.8683 -0.1803 -0.3620
   28MPD2    H5  439   0.796   4.159  12.125  2.2884  0.1195  1.4793
   28MPD2    N1  440   0.398   3.998  12.346  0.1311  0.3499 -0.3640
   28MPD2    H7  441   0.317   3.943  12.374  1.1284 -1.1782 -0.5374
   29MPD2     C  442   4.450   1.717  14.064 -0.0033 -0.4802  0.1725
   29MPD2    C1  443   4.573   1.687  14.124  0.1971  0.4012  0.2186
   29MPD2    C2  444   4.637   1.779  14.201 -0.1269  0.3035  0.5717
   29MPD2    C3  445   4.583   1.905  14.220 -0.4543  0.4221 -1.3299
   29MPD2    C4  446   4.468   1.935  14.149  0.1568  0.1337 -0.4868
   29MPD2    C5  447   4.406   1.845  14.067 -0.5756  0.4538  0.0232
   29MPD2     H  448   0.006   1.752  14.250  0.0087  1.4895  0.9690
   29MPD2    H1  449   4.433   2.037  14.150  1.2725  0.5097  1.1639
   29MPD2    H2  450   4.396   1.649  13.999 -0.7702 -0.8947  1.2434
   29MPD2    H3  451   4.312   1.874  14.021 -1.7839 -1.9148  1.0157
   29MPD2     N  452   4.649   2.013  14.296  0.1509 -0.0539 -0.3336
   29MPD2    H5  453   4.618   2.107  14.275 -0.4648 -0.2343 -0.2188
   29MPD2    N1  454   4.640   1.563  14.101  0.0495 -0.1332  0.1024
   29MPD2    H7  455   0.012   1.550  14.132  0.7774  1.5737 -1.4577
   30TCq2    C1  456   0.007   1.986  14.409 -0.4471 -0.1735  1.0376
   30TCq2    O2  457   0.032   1.881  14.460 -0.6075 -0.4081  0.4399
   30TCq2    C2  458   0.056   2.110  14.471 -0.1841 -0.9248  0.6930
   30TCq2    C3  459   0.062   2.127  14.603 -0.0850  0.2229  0.7713
   30TCq2    C4  460   0.106   2.252  14.648  0.1136 -0.8164  0.1232
   30TCq2    C5  461   0.155   2.356  14.569 -0.1206  0.0549  0.3294
   30TCq2    C6  462   0.151   2.321  14.435 -0.0527 -0.3783 -0.0349
   30TCq2    C7  463   0.095   2.205  14.385  0.1676  0.5094 -0.7006
   30TCq2    C8  464   0.191   2.422  14.341  0.3583 -0.6165 -0.0301
   30TCq2    O4  465   0.152   2.411  14.224 -0.1060 -0.4738  0.3918
   30TCq2    C9  466   0.081   2.286  14.783  0.1734 -0.5704  0.2100
   30TCq2    O5  467   0.004   2.205  14.844 -0.5442 -0.2545  0.3806
   30TCq2    O6  468   0.118   2.400  14.821 -0.3629 -0.3756  0.1328
   30TCq2    H2  469   0.024   2.051  14.671  0.2924  0.6936  1.5068
   30TCq2    H3  470   0.169   2.454  14.613 -1.3644  0.1435  0.5266
   30TCq2    H4  471   0.115   2.186  14.280  1.0532  0.0065 -0.4431
   31MPD2     C  472   3.058   0.832  14.313 -0.4789 -0.4135  0.3126
   31MPD2    C1  473   2.923   0.858  14.308 -0.2598 -0.3031 -0.3013
   31MPD2    C2  474   2.848   0.824  14.415  0.3276 -0.7225 -0.3213
   31MPD2    C3  475   2.910   0.768  14.534 -0.0522  0.3175 -0.1006
   31MPD2    C4  476   3.038   0.733  14.527 -0.3778 -0.5462  0.3659
   31MPD2    C5  477   3.111   0.764  14.422  0.0679  0.4336 -0.2950
   31MPD2     H  478   2.743   0.849  14.422  0.2480 -0.8356 -1.1217
   31MPD2    H1  479   3.083   0.663  14.598  0.1345  2.0990  2.6523
   31MPD2    H2  480   3.127   0.864  14.236 -0.0336 -3.0100 -0.3715
   31MPD2    H3  481   3.215   0.737  14.416  0.3215  1.3304  0.1760
   31MPD2     N  482   2.838   0.727  14.652 -1.1339  1.0170  0.2879
   31MPD2    H5  483   2.882   0.708  14.741 -2.2171  0.5948  0.7378
   31MPD2    N1  484   2.868   0.920  14.189  0.6516 -0.4655 -0.2047
   31MPD2    H7  485   2.932   0.940  14.113 -0.3102  0.5712 -0.7407
   32TCq2    C1  486   2.703   0.705  14.649  0.3620  0.0382 -0.2419
   32TCq2    O2  487   2.627   0.704  14.557 -0.0627 -0.2431 -0.6460
   32TCq2    C2  488   2.644   0.724  14.779  0.9836 -0.5791  0.7668
   32TCq2    C3  489   2.518   0.781  14.772  0.5941  0.3740  0.1046
   32TCq2    C4  490   2.451   0.817  14.883 -0.3217 -0.1418 -0.3331
   32TCq2    C5  491   2.511   0.812  15.005  0.9099 -0.0228  0.0628
   32TCq2    C6  492   2.636   0.752  15.011 -0.5143 -0.7332  0.0484
   32TCq2    C7  493   2.705   0.711  14.896 -0.2084  0.0886  0.0263
   32TCq2    C8  494   2.668   0.683  15.135 -0.5169  0.0326 -0.6444
   32TCq2    O4  495   2.774   0.619  15.141 -0.7015 -0.0823  0.2402
   32TCq2    C9  496   2.318   0.867  14.882 -0.0265 -0.4123  0.0096
   32TCq2    O5  497   2.248   0.862  14.989 -0.1717  0.1093  0.6652
   32TCq2    O6  498   2.277   0.894  14.766  0.3877 -0.0772  0.4469
   32TCq2    H2  499   2.469   0.806  14.679  0.0644  0.7047  0.4722
   32TCq2    H3  500   2.457   0.851  15.091  1.1441 -0.0932  0.2412
   32TCq2    H4  501   2.800   0.661  14.906 -1.1059 -2.0520 -2.1045
   33MPD2     C  502   2.949   2.960  10.042  0.2469 -0.7077  0.1442
   33MPD2    C1  503   2.831   2.893  10.019 -0.6945  0.1109  0.3983
   33MPD2    C2  504   2.767   2.909   9.894 -0.1042  0.4610 -0.9570
   33MPD2    C3  505   2.832   2.982   9.797  0.0372 -0.4429 -0.3952
   33MPD2    C4  506   2.951   3.038   9.819  0.4727 -0.4962 -0.2759
   33MPD2    C5  507   3.006   3.039   9.943 -0.3683 -0.7018  0.2760
   33MPD2     H  508   2.668   2.869   9.880  0.5770 -0.5519 -2.9033
   33MPD2    H1  509   2.997   3.099   9.742  0.0102 -0.3128 -0.4085
   33MPD2    H2  510   2.998   2.950  10.138 -1.8710  0.7141  1.3682
   33MPD2    H3  511   3.099   3.093   9.953 -0.8365  0.1969 -0.2351
   33MPD2     N  512   2.781   3.007   9.671  0.1391 -0.2632  0.1380
   33MPD2    H5  513   2.838   3.076   9.622 -0.9305  0.2949 -0.3295
   33MPD2    N1  514   2.789   2.804  10.118  0.3651 -0.2508  0.1729
   33MPD2    H7  515   2.837   2.788  10.206 -0.9969 -2.3444  0.5359
   34TCq2    C1  516   2.666   2.966   9.612 -0.0990  0.5031  0.2722
   34TCq2    O2  517   2.600   2.865   9.638  0.5605  0.4429  0.3947
   34TCq2    C2  518   2.627   3.057   9.504 -0.3726 -0.2556 -0.3129
   34TCq2    C3  519   2.511   3.031   9.439  0.0554  0.2434 -0.0703
   34TCq2    C4  520   2.473   3.108   9.331  0.2654 -0.0196 -0.3405
   34TCq2    C5  521   2.544   3.218   9.295 -0.3853  0.4092 -0.3890
   34TCq2    C6  522   2.653   3.248   9.365  0.0829  0.1673  0.0927
   34TCq2    C7  523   2.699   3.170   9.468  0.3993 -0.5938  0.5115
   34TCq2    C8  524   2.725   3.375   9.334 -0.4394 -1.0202 -0.4510
   34TCq2    O4  525   2.813   3.402   9.413  0.0092 -0.2015 -0.3252
   34TCq2    C9  526   2.364   3.061   9.247  0.2580  0.1909  0.0919
   34TCq2    O5  527   2.337   3.138   9.153  0.0978  0.6543  0.4776
   34TCq2    O6  528   2.326   2.945   9.258 -0.2274  0.3225 -0.0428
   34TCq2    H2  529   2.450   2.943   9.455  0.3715 -0.1924 -1.2892
   34TCq2    H3  530   2.501   3.277   9.215 -0.6040  1.9146  0.8358
   34TCq2    H4  531   2.794   3.197   9.513  0.5759  0.9006 -0.7656
   35MPD2     C  532   4.395   0.044  11.594 -0.2843 -0.1444 -0.1231
   35MPD2    C1  533   4.354   4.644  11.613 -0.2461 -0.3497 -0.1944
   35MPD2    C2  534   4.300   4.573  11.506  0.2900  0.0165 -0.5266
   35MPD2    C3  535   4.306   4.612  11.375  0.5949 -0.1091 -0.0183
   35MPD2    C4  536   4.347   0.017  11.356  0.0861  0.2462  0.2841
   35MPD2    C5  537   4.385   0.094  11.466 -0.1830  0.4953  0.1865
   35MPD2     H  538   4.251   4.477  11.517 -0.8772  0.6450 -0.2846
   35MPD2    H1  539   4.354   0.067  11.260  1.7703  0.8235  0.7210
   35MPD2    H2  540   4.422   0.110  11.675  1.2790 -1.1076  0.1395
   35MPD2    H3  541   4.426   0.190  11.437 -2.7029  1.0448 -1.5815
   35MPD2     N  542   4.268   4.526  11.267  0.3766 -0.1685 -0.4620
   35MPD2    H5  543   4.231   4.436  11.296  0.7011 -0.1900 -0.1085
   35MPD2    N1  544   4.340   4.590  11.744 -0.1740  0.0735  0.4214
   35MPD2    H7  545   4.380   4.651  11.815  1.3829  0.4620 -0.8017
   36TCq2    C1  546   4.295   4.554  11.141  0.3843 -0.0056 -0.1105
   36TCq2    O2  547   4.350   4.651  11.085 -1.0923  0.1368 -0.5593
   36TCq2    C2  548   4.267   4.453  11.047  0.0900 -0.3845 -1.4045
   36TCq2    C3  549   4.343   4.454  10.936 -0.2796 -0.4093 -0.5486
   36TCq2    C4  550   4.280   4.411  10.821 -0.0062 -0.5384 -0.0069
   36TCq2    C5  551   4.166   4.340  10.816  0.0546  0.0900 -0.7305
   36TCq2    C6  552   4.104   4.328  10.940 -0.0670  0.0800  0.1262
   36TCq2    C7  553   4.149   4.393  11.054 -0.1477 -0.0914  0.0678
   36TCq2    C8  554   3.976   4.262  10.955 -0.1164 -0.4466 -0.1435
   36TCq2    O4  555   3.966   4.143  10.928  0.7494 -0.3903 -0.4622
   36TCq2    C9  556   4.349   4.443  10.700  0.9799  0.4276 -0.1077
   36TCq2    O5  557   4.469   4.474  10.712  0.1062  0.7242 -0.0324
   36TCq2    O6  558   4.288   4.441  10.590 -0.2312  0.1474  0.8376
   36TCq2    H2  559   4.438   4.506  10.933 -1.2720  1.4737  0.8241
   36TCq2    H3  560   4.121   4.310  10.722 -0.5600  0.0666 -0.4270
   36TCq2    H4  561   4.095   4.390  11.147  0.5909  0.0034  0.5009
   37TMC2    C1  562   2.181   4.431  11.603  0.5660  0.3911  0.3656
   37TMC2    C2  563   2.204   4.350  11.499 -0.1892  0.6837 -0.6424
   37TMC2    C3  564   2.316   4.357  11.422  1.1765 -0.0113 -0.2704
   37TMC2    C4  565   2.269   4.527  11.640 -0.4019 -0.2499  0.1954
   37TMC2    C5  566   2.385   4.531  11.566 -0.1036 -0.1200 -0.0703
   37TMC2    C6  567   2.415   4.444  11.461  0.2366 -0.3902 -0.2564
   37TMC2     C  568   2.059   4.403  11.682  0.3268 -0.0042 -0.2739
   37TMC2     O  569   1.970   4.338  11.625 -0.3121 -0.7333  0.0982
   37TMC2     H  570   2.132   4.272  11.476 -1.8745  2.1153 -0.2616
   37TMC2    H1  571   2.257   4.601  11.719  0.7160 -1.1471  1.2079
   37TMC2    H2  572   2.512   4.433  11.416  0.4064 -0.7214  0.1843
   37TMC2    C7  573   2.493   4.591  11.641 -0.2304  0.0390 -0.3797
   37TMC2    C8  574   2.331   4.256  11.315  0.9633  1.0636  0.3791
   37TMC2    O1  575   2.468   4.644  11.747  0.6820  0.2281 -0.1168
   37TMC2    O2  576   2.238   4.203  11.261  0.3120 -0.2149  0.8953
   37TMC2    O5  577   2.444   4.184  11.348  0.2709  0.4647  0.3733
   37TMC2    H5  578   2.504   4.220  11.418 -2.5219  1.7571  2.1054
   38MPD2     C  579   1.740   4.521  12.062 -0.1490 -0.2263 -0.8285
   38MPD2    C1  580   1.870   4.536  12.108 -0.2809 -0.2776 -0.2868
   38MPD2    C2  581   1.979   4.513  12.022 -0.0568 -0.3982  0.4169
   38MPD2    C3  582   1.949   4.473  11.887  0.2345  0.0349  0.9062
   38MPD2    C4  583   1.818   4.461  11.841 -0.2294  0.2210  0.0600
   38MPD2    C5  584   1.718   4.480  11.930  0.5555 -1.0883 -0.0305
   38MPD2     H  585   2.079   4.518  12.063  0.4620 -2.6714 -0.5695
   38MPD2    H1  586   1.796   4.447  11.735  2.5956 -2.1417 -0.1991
   38MPD2    H2  587   1.651   4.532  12.123  0.4026 -1.0731  0.1242
   38MPD2    H3  588   1.616   4.475  11.892  0.9687  1.0012 -1.3796
   38MPD2     N  589   2.057   4.467  11.801 -0.1802 -0.0438 -0.2844
   38MPD2    H5  590   2.147   4.490  11.843  0.1431 -1.0576 -0.4136
   38MPD2    N1  591   1.900   4.584  12.238 -0.0187  0.1151  0.4645
   38MPD2    H7  592   1.996   4.583  12.271 -1.2163  3.5641  4.1583
   39MPD2     C  593   4.618   1.565   1.243  0.0684 -0.0255  0.3287
   39MPD2    C1  594   4.541   1.584   1.359  0.3187 -0.1254 -0.2534
   39MPD2    C2  595   4.407   1.609   1.343 -0.0557 -0.5727  0.6471
   39MPD2    C3  596   4.349   1.621   1.216  0.0356 -0.8507 -0.6728
   39MPD2    C4  597   4.422   1.599   1.100 -0.3411  0.7901  0.8083
   39MPD2    C5  598   4.557   1.589   1.121 -0.6559  0.5472 -0.7114
   39MPD2     H  599   4.347   1.623   1.432 -1.2985 -1.3558 -0.0591
   39MPD2    H1  600   4.390   1.615   0.997 -0.8900  0.0298  0.8622
   39MPD2    H2  601   0.002   1.552   1.245  0.1402  0.5893  0.3666
   39MPD2    H3  602   4.624   1.588   1.036  1.2529 -1.0604  0.8084
   39MPD2     N  603   4.213   1.647   1.198  0.0053  0.0437 -0.2616
   39MPD2    H5  604   4.178   1.625   1.105  1.3170  1.5930 -1.1221
   39MPD2    N1  605   4.612   1.560   1.480 -0.2961  0.0559 -0.1198
   39MPD2    H7  606   4.714   1.558   1.478 -0.2615  1.9214  0.4259
   40TCq2    C1  607   4.560   1.563   1.609 -0.0194 -0.1703 -0.1289
   40TCq2    O2  608   4.443   1.565   1.637  0.0857  0.1049  0.1092
   40TCq2    C2  609   4.654   1.545   1.722 -0.5933 -0.9515  0.0028
   40TCq2    C3  610   4.599   1.541   1.846 -0.4312 -0.1490 -0.3667
   40TCq2    C4  611   4.683   1.527   1.954  0.0522 -0.4582  0.5866
   40TCq2    C5  612   0.092   1.517   1.934  0.7849 -0.1394 -0.2897
   40TCq2    C6  613   0.146   1.521   1.811 -0.0235  0.5650  0.1683
   40TCq2    C7  614   0.062   1.535   1.700  0.4963  0.2023  0.6894
   40TCq2    C8  615   0.287   1.528   1.786  0.0083  0.1130  0.2967
   40TCq2    O4  616   0.362   1.479   1.871 -0.1779 -0.1382  0.6542
   40TCq2    C9  617   4.625   1.508   2.082  0.0795  0.3043  0.4571
   40TCq2    O5  618   4.698   1.480   2.182  0.3513  0.1910  0.5767
   40TCq2    O6  619   4.510   1.552   2.102  0.1494  0.7502  0.2727
   40TCq2    H2  620   4.494   1.522   1.866  0.0079 -1.0182  1.0801
   40TCq2    H3  621   0.160   1.525   2.018 -0.9351  0.1207  1.0580
   40TCq2    H4  622   0.108   1.520   1.603 -1.2422  0.2268 -0.1418
   41TMC2    C1  623   4.050   4.414  14.429  0.2399  0.0648 -0.4224
   41TMC2    C2  624   4.186   4.422  14.400 -0.1765 -0.0373 -0.3542
   41TMC2    C3  625   4.222   4.501  14.299  0.1457 -0.1695  0.5663
   41TMC2    C4  626   3.961   4.497  14.361  0.3452  0.0057  0.0490
   41TMC2    C5  627   4.003   4.559  14.244 -0.4007 -0.0039 -0.0144
   41TMC2    C6  628   4.132   4.569  14.213  0.4053 -0.3370 -0.0205
   41TMC2     C  629   4.016   4.368  14.562 -0.1090  0.5410  0.8683
   41TMC2     O  630   4.101   4.301  14.616  0.6173  0.3461  0.0303
   41TMC2     H  631   4.259   4.354  14.444  1.3560  1.2531 -0.9369
   41TMC2    H1  632   3.856   4.478  14.379  0.3254 -0.7594 -0.9007
   41TMC2    H2  633   4.169   4.622  14.126 -1.6657 -0.6698 -1.0887
   41TMC2    C7  634   3.918   4.667  14.202 -0.0544 -0.9519 -0.0318
   41TMC2    C8  635   4.355   4.491  14.254 -0.4874  0.5819  0.0371
   41TMC2    O1  636   3.819   4.690  14.272 -0.1409  0.0968  0.2471
   41TMC2    O2  637   4.393   4.477  14.135  0.0415 -0.2758  0.0616
   41TMC2    O5  638   4.432   4.487  14.369  0.0729  0.3731  0.6419
   41TMC2    H5  639   4.381   4.527  14.443  0.6909  2.3798 -0.0321
   42MPD2     C  640   3.881   4.285  14.815 -0.1990 -0.1201  0.5035
   42MPD2    C1  641   3.862   4.404  14.749 -0.6192  0.6655 -0.1174
   42MPD2    C2  642   3.789   4.505  14.813 -0.3251  0.1433  0.2113
   42MPD2    C3  643   3.747   4.492  14.943 -0.1138  0.1274  0.1776
   42MPD2    C4  644   3.764   4.373  15.005 -0.0632  0.4452  0.7948
   42MPD2    C5  645   3.823   4.269  14.938 -0.0476 -0.6642 -0.2789
   42MPD2     H  646   3.781   4.603  14.767  0.4245  1.1330  2.1760
   42MPD2    H1  647   3.742   4.359  15.111  0.1893  0.5357  0.8587
   42MPD2    H2  648   3.939   4.202  14.775  1.2247 -0.6984  3.7527
   42MPD2    H3  649   3.826   4.172  14.986 -1.4572  0.6003  2.3677
   42MPD2     N  650   3.696   4.600  15.020  0.2438 -0.9045  0.4007
   42MPD2    H5  651   3.676   4.582  15.118  0.1983 -1.7608  0.2294
   42MPD2    N1  652   3.904   4.419  14.617  0.2827 -0.9971 -0.2333
   42MPD2    H7  653   3.855   4.489  14.562  0.0022 -2.1187 -1.4080
   43MPD2     C  654   4.513   2.568   0.438 -0.6731 -0.3554 -0.5641
   43MPD2    C1  655   4.611   2.525   0.522 -0.0292  0.3398 -0.1646
   43MPD2    C2  656   4.607   2.555   0.661  0.5672  0.4013 -0.0051
   43MPD2    C3  657   4.501   2.635   0.712 -0.6372 -0.5412  0.5694
   43MPD2    C4  658   4.405   2.682   0.620  0.2430  0.6205 -0.3523
   43MPD2    C5  659   4.410   2.642   0.487  0.5918 -0.4038  0.1327
   43MPD2     H  660   4.675   2.510   0.732 -0.7753 -0.4146  0.7682
   43MPD2    H1  661   4.315   2.736   0.649  0.6733  1.3600 -0.3975
   43MPD2    H2  662   4.513   2.538   0.334 -0.2432  0.3077 -0.7563
   43MPD2    H3  663   4.334   2.664   0.413 -1.0648 -2.0360  1.3606
   43MPD2     N  664   4.488   2.670   0.852 -0.3686  0.6677  0.3601
   43MPD2    H5  665   4.418   2.738   0.881 -1.8442 -1.0579  0.8414
   43MPD2    N1  666   4.704   2.430   0.473  0.1735  0.6067 -0.3784
   43MPD2    H7  667   0.035   2.382   0.544 -0.3433 -1.7831 -1.6054
   44TCq2    C1  668   4.670   2.748   1.398 -0.5590 -0.8961 -0.5472
   44TCq2    O2  669   0.040   2.670   1.381 -0.2041 -0.0852  0.6644
   44TCq2    C2  670   4.580   2.771   1.286  0.4228  1.1304 -0.0355
   44TCq2    C3  671   4.539   2.904   1.266 -0.3582  0.2824  0.2152
   44TCq2    C4  672   4.498   2.943   1.139 -0.4532 -0.6084  0.4965
   44TCq2    C5  673   4.506   2.856   1.035  0.0643 -0.0540 -0.4250
   44TCq2    C6  674   4.546   2.726   1.061  0.0209 -0.1906 -0.3078
   44TCq2    C7  675   4.596   2.678   1.189  0.1207 -1.0490 -0.6745
   44TCq2    C8  676   4.574   2.635   0.951  0.4526  0.2481 -0.6168
   44TCq2    O4  677   4.672   2.562   0.954 -0.1551 -0.0132  0.0459
   44TCq2    C9  678   4.459   3.081   1.108 -0.2345 -0.1062 -0.2634
   44TCq2    O5  679   4.479   3.175   1.195 -0.7253  0.0010 -0.1527
   44TCq2    O6  680   4.439   3.097   0.984  0.0387 -0.3712  0.1040
   44TCq2    H2  681   4.537   2.980   1.342 -1.4641  1.0196 -0.5403
   44TCq2    H3  682   4.475   2.885   0.936 -0.8712  0.0569 -0.1011
   44TCq2    H4  683   4.631   2.577   1.206 -1.7789 -1.4123  1.0715
   45TMC2    C1  684   1.426   4.426   8.978 -0.1346 -0.2435  1.1921
   45TMC2    C2  685   1.510   4.402   8.867  0.4917  0.3913  0.2848
   45TMC2    C3  686   1.624   4.480   8.866 -0.3206 -0.5019 -0.0651
   45TMC2    C4  687   1.446   4.521   9.072 -0.7409  0.0354  0.0143
   45TMC2    C5  688   1.553   4.601   9.062 -0.3301 -0.0460  0.6372
   45TMC2    C6  689   1.647   4.577   8.959  0.1963  0.0076 -0.2334
   45TMC2     C  690   1.299   4.348   8.973  0.0665  0.5382  0.6639
   45TMC2     O  691   1.302   4.251   8.895  0.0397 -0.0910  0.0425
   45TMC2     H  692   1.496   4.327   8.790 -2.2398  1.8304 -0.6511
   45TMC2    H1  693   1.383   4.521   9.161 -0.5692  0.5773  0.1362
   45TMC2    H2  694   1.725   4.649   8.936  0.1447 -0.1719 -0.9713
   45TMC2    C7  695   1.562   4.713   9.153  0.0716 -0.0964 -0.0847
   45TMC2    C8  696   1.728   4.473   8.766  0.5643  0.2784 -0.3203
   45TMC2    O1  697   1.461   0.013   9.214 -0.4257 -0.4192 -0.0530
   45TMC2    O2  698   1.826   4.546   8.759 -0.1860  0.2752  0.2142
   45TMC2    O5  699   1.734   4.355   8.690  0.1602  0.5145  0.8534
   45TMC2    H5  700   1.664   4.290   8.713  0.6420  0.1507  1.2836
   46MPD2     C  701   1.011   4.277   8.946 -0.1717  0.2170 -0.2091
   46MPD2    C1  702   1.056   4.384   9.018 -0.4375  0.5704 -0.1479
   46MPD2    C2  703   0.960   4.466   9.049  0.0916  0.1956 -0.0034
   46MPD2    C3  704   0.831   4.464   9.005 -0.5243 -0.6366 -0.0507
   46MPD2    C4  705   0.788   4.351   8.938 -0.5670 -0.2392  0.2081
   46MPD2    C5  706   0.878   4.251   8.916 -0.7176 -0.5814 -0.5162
   46MPD2     H  707   0.992   4.550   9.110 -1.0032  1.1472 -0.7502
   46MPD2    H1  708   0.691   4.341   8.890 -0.5262  0.4630 -0.0222
   46MPD2    H2  709   1.077   4.201   8.908  0.2155  0.8917 -0.8913
   46MPD2    H3  710   0.839   4.172   8.853  1.0996 -1.0280 -1.1040
   46MPD2     N  711   0.755   4.583   9.029  0.0364 -0.1965  0.0308
   46MPD2    H5  712   0.806   4.659   9.073 -1.9126  0.8182  0.5554
   46MPD2    N1  713   1.194   4.412   9.037 -0.4832  0.5819 -0.0194
   46MPD2    H7  714   1.212   4.498   9.088  0.4205  1.7317 -2.2422
   47TMC2    C1  715   3.238   0.600   9.617 -0.4096 -0.6829 -0.6980
   47TMC2    C2  716   3.317   0.581   9.501 -0.2675 -0.1427  0.2578
   47TMC2    C3  717   3.254   0.598   9.384 -0.6222 -0.1068 -0.5183
   47TMC2    C4  718   3.103   0.621   9.613 -0.3435  0.8658 -0.3513
   47TMC2    C5  719   3.049   0.632   9.490  0.2236  0.5434 -0.6245
   47TMC2    C6  720   3.122   0.610   9.374 -0.6111 -0.6238 -0.0852
   47TMC2     C  721   3.306   0.567   9.741  0.1230  0.4227  0.1313
   47TMC2     O  722   3.250   0.616   9.838  0.5913 -0.0581 -0.0525
   47TMC2     H  723   3.424   0.583   9.514 -0.0502 -0.1331 -1.5154
   47TMC2    H1  724   3.042   0.627   9.703  3.2580  1.0114  2.0629
   47TMC2    H2  725   3.080   0.608   9.274  0.7140  0.9622 -0.6753
   47TMC2    C7  726   2.904   0.625   9.487  0.3117  0.7292  0.3865
   47TMC2    C8  727   3.329   0.575   9.258 -0.5701 -0.5533  0.0282
   47TMC2    O1  728   2.841   0.693   9.567  0.4386 -0.3195  0.2820
   47TMC2    O2  729   3.391   0.667   9.207 -0.1202 -0.2382  0.3669
   47TMC2    O5  730   3.374   0.447   9.262  0.0014  1.2483  0.4928
   47TMC2    H5  731   3.316   0.389   9.315  0.8302 -1.1674 -1.2362
   48MPD2     C  732   3.437   0.443   9.977  0.1178 -0.0409 -0.1263
   48MPD2    C1  733   3.462   0.415   9.845 -0.2721 -0.5568 -0.7444
   48MPD2    C2  734   3.566   0.333   9.821  0.6030  0.0723  0.5535
   48MPD2    C3  735   3.657   0.298   9.921 -0.1927  0.0034 -0.0148
   48MPD2    C4  736   3.627   0.326  10.056  0.8187  0.3607 -0.1144
   48MPD2    C5  737   3.516   0.403  10.080 -1.8828 -0.3545  0.5715
   48MPD2     H  738   3.582   0.308   9.717  0.3360  0.7986  0.3342
   48MPD2    H1  739   3.684   0.290  10.142 -0.4321 -1.2947  0.0134
   48MPD2    H2  740   3.352   0.497  10.017  1.0886  0.8097  0.7914
   48MPD2    H3  741   3.480   0.424  10.180 -0.7423  0.7653  0.7635
   48MPD2     N  742   3.762   0.217   9.878  0.2633  0.0069 -0.3300
   48MPD2    H5  743   3.775   0.196   9.780  2.4810  1.8637 -0.4443
   48MPD2    N1  744   3.394   0.457   9.730 -0.2027  0.2237  0.4150
   48MPD2    H7  745   3.419   0.427   9.637 -0.1545  0.0232  0.4915
   49MPD2     C  746   1.629   2.382   9.120  0.4439 -0.0683 -0.0418
   49MPD2    C1  747   1.583   2.427   9.240 -0.3512 -0.2753  0.7951
   49MPD2    C2  748   1.477   2.355   9.308 -0.1102  0.3814 -0.1354
   49MPD2    C3  749   1.427   2.232   9.258 -0.7801 -0.9886 -0.5990
   49MPD2    C4  750   1.476   2.200   9.129  0.1276 -0.3825 -0.0980
   49MPD2    C5  751   1.573   2.273   9.063  0.2710  1.2609 -0.0427
   49MPD2     H  752   1.438   2.392   9.402 -0.0365  2.4690 -0.9359
   49MPD2    H1  753   1.437   2.110   9.084  3.6008 -1.1993 -1.4740
   49MPD2    H2  754   1.713   2.431   9.071  0.5194 -0.3659 -0.2093
   49MPD2    H3  755   1.605   2.243   8.964 -0.7547 -1.9219  0.5925
   49MPD2     N  756   1.325   2.137   9.316 -0.4018 -0.6829 -0.7643
   49MPD2    H5  757   1.300   2.053   9.265 -0.5319 -0.4658 -1.0614
   49MPD2    N1  758   1.621   2.545   9.304  0.1292 -0.5949  0.2455
   49MPD2    H7  759   1.566   2.581   9.381  1.1931 -0.4470  0.9335
   50TCq2    C1  760   1.722   2.622   9.265  0.2953 -0.2023 -0.4759
   50TCq2    O2  761   1.809   2.610   9.180 -0.4184  1.1898 -0.0664
   50TCq2    C2  762   1.733   2.733   9.359  0.5414  0.7538  0.3056
   50TCq2    C3  763   1.857   2.764   9.407 -0.0102 -0.0965 -0.4342
   50TCq2    C4  764   1.872   2.869   9.492 -0.3986 -0.0557  0.2102
   50TCq2    C5  765   1.763   2.943   9.516 -0.4764  0.3478  0.3994
   50TCq2    C6  766   1.644   2.904   9.474 -0.1914  0.6763  0.3878
   50TCq2    C7  767   1.625   2.805   9.387  0.1912 -0.4885  0.4799
   50TCq2    C8  768   1.542   3.017   9.489  0.7590  0.2884 -0.0794
   50TCq2    O4  769   1.588   3.130   9.507  0.0508 -0.4862 -0.0675
   50TCq2    C9  770   1.990   2.909   9.552  0.4675 -0.6957  0.2151
   50TCq2    O5  771   2.085   2.839   9.517  0.1897 -0.0238 -0.2256
   50TCq2    O6  772   1.995   3.017   9.616  0.1878 -0.5767  0.4280
   50TCq2    H2  773   1.945   2.707   9.381 -1.1980 -1.7524 -0.8335
   50TCq2    H3  774   1.784   3.026   9.582 -0.4531  1.5271 -1.0903
   50TCq2    H4  775   1.527   2.784   9.345  1.6302 -0.0246 -3.1120
   51MPD2     C  776   1.169   1.533   0.543  0.3082  0.0369  0.4089
   51MPD2    C1  777   1.303   1.545   0.576 -0.6367  0.6798  0.5445
   51MPD2    C2  778   1.382   1.647   0.527  0.3269 -0.1379 -0.6790
   51MPD2    C3  779   1.323   1.755   0.459 -0.4819 -0.0143 -0.2816
   51MPD2    C4  780   1.187   1.740   0.432 -0.5415  0.8041  0.7762
   51MPD2    C5  781   1.108   1.637   0.476  0.0568  0.0326 -0.2018
   51MPD2     H  782   1.483   1.651   0.567 -0.3541 -1.4311  1.1480
   51MPD2    H1  783   1.132   1.810   0.369 -1.0003 -0.0709  0.2051
   51MPD2    H2  784   1.111   1.453   0.586 -1.2057  0.8738 -0.0608
   51MPD2    H3  785   1.004   1.637   0.446 -0.3426 -0.2271  1.1755
   51MPD2     N  786   1.393   1.870   0.416 -0.5070 -0.5574 -0.3657
   51MPD2    H5  787   1.339   1.952   0.391  0.7058 -0.1641 -1.7102
   51MPD2    N1  788   1.366   1.451   0.658  0.5568 -0.2747  0.0102
   51MPD2    H7  789   1.467   1.455   0.660  0.5512  1.1352 -2.5028
   52TCq2    C1  790   1.517   1.908   0.449  0.5075  0.4844 -0.1404
   52TCq2    O2  791   1.594   1.845   0.514  0.0290 -0.8471 -0.4739
   52TCq2    C2  792   1.528   2.054   0.437 -0.1451  0.7399 -0.1501
   52TCq2    C3  793   1.444   2.125   0.344  0.3828 -0.3093  0.1470
   52TCq2    C4  794   1.462   2.263   0.347 -0.4916 -0.2697 -0.0279
   52TCq2    C5  795   1.537   2.321   0.446  0.5102  0.2234  0.1506
   52TCq2    C6  796   1.598   2.245   0.540  0.3163 -0.1608  0.2357
   52TCq2    C7  797   1.601   2.109   0.536  0.5617  0.1969  0.3855
   52TCq2    C8  798   1.682   2.317   0.633 -0.9666  0.3546  0.1494
   52TCq2    O4  799   1.731   2.422   0.598  0.2608  0.9839  0.2239
   52TCq2    C9  800   1.398   2.346   0.245  0.8800 -0.1338  0.0495
   52TCq2    O5  801   1.402   2.472   0.253 -0.1324  0.3777 -0.2861
   52TCq2    O6  802   1.343   2.276   0.152  0.1079  0.0104  0.4931
   52TCq2    H2  803   1.379   2.084   0.268  1.4261  0.1269 -0.9776
   52TCq2    H3  804   1.539   2.428   0.461 -1.4921  0.1988  0.6272
   52TCq2    H4  805   1.660   2.050   0.605  1.8112  0.7424 -0.2380
   53TMC2    C1  806   2.851   0.112  12.166  0.5622  0.1302 -0.4065
   53TMC2    C2  807   2.936   0.174  12.264 -0.5708 -0.2681  0.0707
   53TMC2    C3  808   2.879   0.269  12.346  0.0598  0.9612  0.0750
   53TMC2    C4  809   2.717   0.147  12.159  0.0854 -0.6293  0.2941
   53TMC2    C5  810   2.662   0.231  12.255 -0.5756 -0.0673 -0.1593
   53TMC2    C6  811   2.746   0.286  12.354  0.4461 -0.1798  0.0175
   53TMC2     C  812   2.924   0.071  12.046 -0.2841  0.4801  0.1736
   53TMC2     O  813   3.047   0.076  12.036 -0.6167 -0.0921  0.1102
   53TMC2     H  814   3.043   0.161  12.279 -0.5818  1.0518  1.2650
   53TMC2    H1  815   2.656   0.110  12.077 -1.9619 -0.0192  1.5506
   53TMC2    H2  816   2.704   0.342  12.437 -2.6451  0.8397 -2.2331
   53TMC2    C7  817   2.521   0.250  12.256 -0.6804 -0.0927 -0.7614
   53TMC2    C8  818   2.961   0.319  12.456  0.5053  0.1100  0.4543
   53TMC2    O1  819   2.451   0.210  12.165 -0.0301  0.8576 -0.0875
   53TMC2    O2  820   3.058   0.258  12.505 -0.7406 -0.4148  0.1161
   53TMC2    O5  821   2.913   0.447  12.486 -0.0508  0.8705  1.0938
   53TMC2    H5  822   2.852   0.479  12.417  0.8459 -1.2765 -0.6873
   54MPD2     C  823   2.971   4.721  11.769  0.3369  0.2729  0.4016
   54MPD2    C1  824   2.855   4.703  11.834 -0.3016  0.3031  0.1674
   54MPD2    C2  825   2.744   4.658  11.774 -0.7174 -0.2281 -0.3611
   54MPD2    C3  826   2.731   4.641  11.637 -0.0436  0.6192  0.3198
   54MPD2    C4  827   2.846   4.657  11.572  0.6994  0.1698  0.4566
   54MPD2    C5  828   2.964   4.694  11.634 -0.2441 -0.4689 -0.2076
   54MPD2     H  829   2.663   4.647  11.846 -0.5511  0.4374 -0.0779
   54MPD2    H1  830   2.851   4.637  11.465 -0.1970 -0.6375  0.5546
   54MPD2    H2  831   3.064   0.036  11.809  0.2639 -0.0902  0.9223
   54MPD2    H3  832   3.053   4.695  11.572  0.6935  1.9991  1.2083
   54MPD2     N  833   2.611   4.605  11.574 -0.0189 -0.1867  0.3128
   54MPD2    H5  834   2.621   4.570  11.479 -0.3960  1.9245 -0.4864
   54MPD2    N1  835   2.841   0.006  11.969  0.0841 -0.4582 -0.2217
   54MPD2    H7  836   2.747   0.005  12.007  0.4873  2.1366  0.7977
   55MPD2     C  837   2.964   2.362  17.674 -0.2707  0.0896 -0.2812
   55MPD2    C1  838   2.845   2.305   0.020 -0.7262 -0.1920 -0.1646
   55MPD2    C2  839   2.726   2.367   0.029  0.2754  0.2810  0.3253
   55MPD2    C3  840   2.733   2.507   0.019 -0.2968  0.1113 -0.3089
   55MPD2    C4  841   2.850   2.577  17.694 -0.1083 -0.4932 -0.2070
   55MPD2    C5  842   2.965   2.500  17.671  0.4544  0.3077  0.2846
   55MPD2     H  843   2.631   2.316   0.040  0.2881  0.8696  3.2762
   55MPD2    H1  844   2.864   2.682  17.670 -1.5820 -0.3351 -0.3993
   55MPD2    H2  845   3.052   2.302  17.656 -1.1729 -1.2987 -0.0354
   55MPD2    H3  846   3.052   2.561  17.647  2.3204 -1.9328  1.4308
   55MPD2     N  847   2.611   2.581   0.030 -0.0121  0.2729  0.3549
   55MPD2    H5  848   2.528   2.526   0.050 -0.7906  2.1012  2.2003
   55MPD2    N1  849   2.851   2.171   0.059 -0.1808  0.5910  0.2474
   55MPD2    H7  850   2.944   2.130   0.062 -0.9448 -1.1679 -0.0311
   56TCq2    C1  851   2.750   2.093   0.101 -0.5211  0.5759  0.1936
   56TCq2    O2  852   2.639   2.126   0.145 -0.2931  0.4380  0.2747
   56TCq2    C2  853   2.798   1.957   0.144 -0.7516  0.0654  0.3978
   56TCq2    C3  854   2.890   1.899   0.066 -0.5193  0.2564 -0.0940
   56TCq2    C4  855   2.948   1.791   0.111 -0.4971  0.0137 -1.0112
   56TCq2    C5  856   2.919   1.733   0.234 -0.3474  0.1909  0.3703
   56TCq2    C6  857   2.827   1.795   0.312  0.5873  0.4905 -0.5780
   56TCq2    C7  858   2.757   1.904   0.258 -0.0256  0.6209 -0.8703
   56TCq2    C8  859   2.824   1.769   0.453  0.0152  0.0521  0.6982
   56TCq2    O4  860   2.895   1.683   0.506 -0.2160  0.0099 -0.1856
   56TCq2    C9  861   3.057   1.728   0.036  0.1997 -0.0407 -0.1799
   56TCq2    O5  862   3.149   1.667   0.101  0.1559 -0.0937 -0.0154
   56TCq2    O6  863   3.068   1.766  17.616  0.4633  0.5962  0.1912
   56TCq2    H2  864   2.909   1.937  17.662 -2.5790 -2.9729 -1.6890
   56TCq2    H3  865   2.971   1.642   0.260  0.1404  0.7139  1.2020
   56TCq2    H4  866   2.692   1.968   0.317 -0.9859 -2.2870  1.2493
   57TMC2    C1  867   2.205   3.724  13.625 -0.1896 -0.7013  0.4853
   57TMC2    C2  868   2.096   3.634  13.598 -0.8937  0.1246 -0.1326
   57TMC2    C3  869   2.115   3.526  13.510  0.5367  0.4271  0.2449
   57TMC2    C4  870   2.331   3.684  13.583  1.2305  0.1313  0.2553
   57TMC2    C5  871   2.344   3.580  13.492  0.3702  0.0240 -0.7780
   57TMC2    C6  872   2.237   3.504  13.450 -0.1201  0.2056 -0.3993
   57TMC2     C  873   2.174   3.810  13.738 -0.3739  0.2178  0.4390
   57TMC2     O  874   2.058   3.822  13.767 -0.2741 -0.1241 -0.0069
   57TMC2     H  875   1.998   3.652  13.640  0.9596  3.0970  2.9103
   57TMC2    H1  876   2.416   3.751  13.592 -0.3091  2.0152  0.8130
   57TMC2    H2  877   2.256   3.424  13.379 -1.6605 -0.9940  0.5365
   57TMC2    C7  878   2.479   3.532  13.477 -0.4721 -0.0622 -0.7975
   57TMC2    C8  879   1.992   3.455  13.475  0.6071  0.4400  0.2671
   57TMC2    O1  880   2.557   3.577  13.558  0.4486 -0.5828  0.0656
   57TMC2    O2  881   1.874   3.487  13.504 -0.1018 -0.1248 -0.3268
   57TMC2    O5  882   2.032   3.326  13.468 -0.1237 -0.2339 -0.3564
   57TMC2    H5  883   2.128   3.309  13.455 -0.1928  0.1025 -1.3335
   58MPD2     C  884   2.288   4.146  14.113 -0.6496  0.1079  0.2038
   58MPD2    C1  885   2.175   4.126  14.035 -0.7811  0.8694  0.4458
   58MPD2    C2  886   2.165   4.031  13.933  0.2516 -0.8391  0.1063
   58MPD2    C3  887   2.273   3.948  13.913  0.4037  0.4099 -0.2906
   58MPD2    C4  888   2.383   3.957  13.992  0.7342  0.2628 -0.8254
   58MPD2    C5  889   2.389   4.053  14.087 -0.7152 -0.4685 -0.1658
   58MPD2     H  890   2.076   4.032  13.871 -0.5913  3.4525  1.3414
   58MPD2    H1  891   2.458   3.879  13.991  1.1583  0.6090  1.9221
   58MPD2    H2  892   2.300   4.209  14.200  1.4001  2.2051 -1.5921
   58MPD2    H3  893   2.473   4.066  14.153  0.6969  0.2767 -2.1192
   58MPD2     N  894   2.283   3.852  13.812 -0.4299 -1.0409  0.5502
   58MPD2    H5  895   2.375   3.812  13.798  0.2220  0.7279 -0.2640
   58MPD2    N1  896   2.062   4.211  14.052 -0.2721  0.5175  0.1311
   58MPD2    H7  897   1.995   4.219  13.976  0.1724 -1.4940 -0.4944
   59MPD2     C  898   4.552   3.520  13.235  0.4101 -0.7469  0.7252
   59MPD2    C1  899   4.593   3.596  13.124  0.8207  0.0651  0.5278
   59MPD2    C2  900   4.694   3.689  13.144  0.5713 -0.3531  0.0266
   59MPD2    C3  901   0.040   3.704  13.267  0.4990  0.2617  0.4740
   59MPD2    C4  902   4.710   3.634  13.366  0.0528  0.1996 -0.4701
   59MPD2    C5  903   4.612   3.549  13.351 -0.3759  0.1705  0.3971
   59MPD2     H  904   4.723   3.736  13.050 -1.1688 -2.0577 -1.3608
   59MPD2    H1  905   0.013   3.647  13.470  1.3432 -0.8944 -0.6716
   59MPD2    H2  906   4.477   3.441  13.238  0.9055 -1.1789  1.5836
   59MPD2    H3  907   4.576   3.496  13.438  2.0541 -0.2168  1.1593
   59MPD2     N  908   0.150   3.794  13.291 -0.0830 -0.2771 -0.2915
   59MPD2    H5  909   0.184   3.813  13.385 -0.7364 -2.2439  0.3518
   59MPD2    N1  910   4.533   3.587  12.999  0.0877  0.4660  0.0116
   59MPD2    H7  911   4.579   3.652  12.935 -1.0271  1.0235 -0.2259
   60TCq2    C1  912   4.443   3.493  12.967  0.2624  0.2787  0.5818
   60TCq2    O2  913   4.372   3.423  13.038 -0.3919 -0.5792 -0.3057
   60TCq2    C2  914   4.403   3.528  12.831 -0.1650  0.5590  0.0748
   60TCq2    C3  915   4.273   3.512  12.803 -0.7352 -0.4977  0.2407
   60TCq2    C4  916   4.228   3.565  12.688 -0.2458 -0.2577 -0.4406
   60TCq2    C5  917   4.319   3.620  12.603 -0.0839  0.1830 -0.3553
   60TCq2    C6  918   4.451   3.607  12.619  0.0585 -0.1050 -0.2928
   60TCq2    C7  919   4.501   3.575  12.746  0.5134 -0.2719  0.2830
   60TCq2    C8  920   4.537   3.679  12.528 -0.0821  0.2005 -0.3409
   60TCq2    O4  921   4.656   3.640  12.533 -0.0577  0.2884  0.2254
   60TCq2    C9  922   4.084   3.577  12.669  0.5870 -0.2919  0.5130
   60TCq2    O5  923   4.055   3.637  12.560 -0.7791  0.0078 -0.6460
   60TCq2    O6  924   4.007   3.568  12.773  0.2474 -0.3518  0.3746
   60TCq2    H2  925   4.203   3.502  12.885  0.2047  1.7664  1.3300
   60TCq2    H3  926   4.279   3.647  12.506  0.4962  0.4493 -0.5167
   60TCq2    H4  927   4.608   3.577  12.768  0.3361  0.6524  1.0912
   61MPD2     C  928   4.356   0.265  15.184  0.9070 -0.0895  0.2189
   61MPD2    C1  929   4.263   0.352  15.143 -0.9202 -0.1479 -0.1481
   61MPD2    C2  930   4.248   0.379  15.007  0.3845  0.3699  0.5132
   61MPD2    C3  931   4.319   0.318  14.913  0.0477 -0.5423 -0.1777
   61MPD2    C4  932   4.424   0.239  14.955 -0.0385  0.2529 -0.1059
   61MPD2    C5  933   4.438   0.212  15.087 -0.6121 -0.0244  0.2799
   61MPD2     H  934   4.176   0.454  14.977 -0.2169 -0.0813  0.8163
   61MPD2    H1  935   4.492   0.190  14.887  0.3880  2.6717 -1.4385
   61MPD2    H2  936   4.365   0.248  15.291  1.3574 -0.6209  0.0981
   61MPD2    H3  937   4.522   0.149  15.113  0.2488  1.0185  0.0452
   61MPD2     N  938   4.297   0.343  14.774  0.3076  0.1151  0.0748
   61MPD2    H5  939   4.366   0.303  14.711  0.4500 -0.9037  0.8813
   61MPD2    N1  940   4.180   0.423  15.231 -0.5464 -0.0381  0.0971
   61MPD2    H7  941   4.122   0.497  15.192 -2.0786 -0.5364  1.4524
   62TCq2    C1  942   4.184   0.411  15.370  0.6702 -0.4663  0.5088
   62TCq2    O2  943   4.228   0.325  15.447 -0.1649  0.7680 -0.2073
   62TCq2    C2  944   4.093   0.500  15.440 -0.6084 -0.4796 -0.5775
   62TCq2    C3  945   4.071   0.455  15.570  0.3122  0.0705  0.0239
   62TCq2    C4  946   4.014   0.550  15.648 -0.2529  0.6096 -0.4143
   62TCq2    C5  947   3.977   0.673  15.601 -0.1406 -0.8627  0.3970
   62TCq2    C6  948   3.997   0.702  15.468 -1.0586  0.4433 -0.0954
   62TCq2    C7  949   4.053   0.615  15.382  1.2547 -0.0287  0.2938
   62TCq2    C8  950   3.970   0.840  15.429 -0.0919 -0.0370 -0.2986
   62TCq2    O4  951   3.966   0.861  15.309 -0.3853 -0.3814 -0.2409
   62TCq2    C9  952   3.990   0.524  15.788  0.5746 -0.4045  0.2462
   62TCq2    O5  953   3.943   0.620  15.853  0.5895  0.3160  0.0092
   62TCq2    O6  954   4.026   0.407  15.829 -0.3059 -0.2366 -0.3940
   62TCq2    H2  955   4.099   0.358  15.611 -2.9627 -0.6205  0.5938
   62TCq2    H3  956   3.927   0.741  15.669  0.5236  0.6231 -0.5997
   62TCq2    H4  957   4.083   0.642  15.282  2.1690 -0.8859  0.3371
   63TMC2    C1  958   3.875   0.423  10.684 -0.0239 -0.1621 -0.0623
   63TMC2    C2  959   3.997   0.484  10.695  0.2371 -0.6296  0.6671
   63TMC2    C3  960   4.042   0.555  10.585  0.3566 -0.0492  0.5826
   63TMC2    C4  961   3.793   0.445  10.573  0.2597 -0.1566 -0.1519
   63TMC2    C5  962   3.847   0.509  10.469  1.0181  0.0844 -0.4997
   63TMC2    C6  963   3.968   0.571  10.471  0.1111  0.1389  0.0588
   63TMC2     C  964   3.829   0.347  10.791 -0.2317  0.4657 -0.0587
   63TMC2     O  965   3.882   0.366  10.902 -0.6276 -0.8092  0.6618
   63TMC2     H  966   4.058   0.470  10.783 -0.0134 -0.3264  0.8909
   63TMC2    H1  967   3.686   0.430  10.569  0.0787  1.0894  0.1292
   63TMC2    H2  968   4.012   0.623  10.387 -0.4933 -0.0885 -0.4033
   63TMC2    C7  969   3.758   0.555  10.357  0.3455  0.1713  0.5045
   63TMC2    C8  970   4.188   0.573  10.569 -0.8221  0.2349 -0.7198
   63TMC2    O1  971   3.665   0.479  10.324  0.2950  0.0055 -0.1348
   63TMC2    O2  972   4.252   0.529  10.478 -0.0541 -0.4379 -0.0235
   63TMC2    O5  973   4.236   0.646  10.671 -0.2771  0.0243 -0.0654
   63TMC2    H5  974   4.173   0.669  10.744 -2.6970 -2.8884 -1.2318
   64MPD2     C  975   3.615   4.677  11.012 -0.5127  0.3643 -0.0458
   64MPD2    C1  976   3.616   4.648  10.874  0.7495 -0.6503  0.5933
   64MPD2    C2  977   3.652   0.024  10.791  0.0344 -0.8537  0.1326
   64MPD2    C3  978   3.687   0.150  10.839 -0.3691  0.2280  0.0292
   64MPD2    C4  979   3.683   0.178  10.975 -0.2902  0.5837 -0.4551
   64MPD2    C5  980   3.642   0.082  11.067 -0.6534  0.1150 -0.2586
   64MPD2     H  981   3.657   4.720  10.687  2.1745 -0.2474  0.0730
   64MPD2    H1  982   3.706   0.275  11.017  0.4369 -0.0325  0.5825
   64MPD2    H2  983   3.593   4.597  11.083  0.5057 -0.9415 -1.2038
   64MPD2    H3  984   3.647   0.098  11.174  2.4374 -0.1054 -0.3718
   64MPD2     N  985   3.745   0.245  10.750  0.1787 -0.3368  0.5126
   64MPD2    H5  986   3.746   0.226  10.650 -0.7775  1.4858  0.1677
   64MPD2    N1  987   3.591   4.519  10.821  0.1014 -0.3606  0.2339
   64MPD2    H7  988   3.626   4.513  10.726  2.1554  0.8638  0.9019
   65MPD2     C  989   0.001   4.582  15.561  0.8487 -0.0344  0.5991
   65MPD2    C1  990   0.065   4.576  15.440 -0.1414 -0.1076  0.0740
   65MPD2    C2  991   0.093   4.458  15.379 -0.2063 -0.0956 -0.1180
   65MPD2    C3  992   0.035   4.340  15.430 -0.4378  0.7984 -0.3818
   65MPD2    C4  993   4.684   4.343  15.545 -0.4086  0.2820  0.1635
   65MPD2    C5  994   4.672   4.465  15.615 -0.1489 -0.1374  0.0339
   65MPD2     H  995   0.148   4.461  15.285  2.3881 -0.1903  1.3945
   65MPD2    H1  996   4.636   4.256  15.588  0.0937  0.1150  0.3732
   65MPD2    H2  997   4.713   4.666  15.629  2.3427 -0.2411  1.0966
   65MPD2    H3  998   4.620   4.467  15.710 -2.4599 -0.4875 -1.2274
   65MPD2     N  999   0.030   4.224  15.356  0.2808  0.2795  0.0003
   65MPD2    H5 1000   4.700   4.146  15.394 -0.2209  2.1071  3.0810
   65MPD2    N1 1001   0.108   4.693  15.379 -0.0758 -0.0959 -0.0108
   65MPD2    H7 1002   0.151   4.687  15.287  1.8878  0.1233  0.8972
   66TCq2    C1 1003   0.076   0.096  15.424  0.0818 -0.7921 -0.6831
   66TCq2    O2 1004   0.019   0.131  15.520 -0.0381 -0.0097  0.2026
   66TCq2    C2 1005   0.093   0.197  15.320 -0.1731 -0.1083  0.4167
   66TCq2    C3 1006   0.127   0.160  15.187  0.3416  0.2052 -0.5941
   66TCq2    C4 1007   0.105   0.251  15.092 -0.3995  0.6308  0.4290
   66TCq2    C5 1008   0.039   0.370  15.116 -0.6806  0.4134 -0.3566
   66TCq2    C6 1009   4.718   0.396  15.244  0.1485  0.5712 -0.2919
   66TCq2    C7 1010   0.028   0.314  15.351  0.6695  0.0448 -0.2509
   66TCq2    C8 1011   4.632   0.515  15.263  0.5168  0.6506  0.8871
   66TCq2    O4 1012   4.624   0.588  15.167 -0.3102 -0.3870 -0.8590
   66TCq2    C9 1013   0.151   0.222  14.957 -0.3539  0.9378 -0.1892
   66TCq2    O5 1014   0.237   0.131  14.943 -0.4088  0.2790  0.2550
   66TCq2    O6 1015   0.089   0.284  14.865 -0.7462 -0.0455 -0.2595
   66TCq2    H2 1016   0.179   0.066  15.173  2.3607  1.1895  0.2508
   66TCq2    H3 1017   0.025   0.434  15.029 -1.0064 -0.5992 -1.0514
   66TCq2    H4 1018   0.013   0.345  15.454  0.7543  1.2707 -0.6091
   67MPD2     C 1019   4.646   4.079  14.076  0.3802  0.6858 -0.2394
   67MPD2    C1 1020   4.569   4.151  14.160  0.2767 -0.0914  0.6223
   67MPD2    C2 1021   4.442   4.179  14.128  0.7571  0.2920  0.3401
   67MPD2    C3 1022   4.393   4.166  14.000 -0.7932  0.0253 -0.1646
   67MPD2    C4 1023   4.479   4.115  13.908 -0.5878 -0.0409  0.2866
   67MPD2    C5 1024   4.600   4.064  13.953  0.3404  0.3052  0.9638
   67MPD2     H 1025   4.379   4.214  14.209  0.2200 -0.1271  0.0961
   67MPD2    H1 1026   4.438   4.106  13.808 -0.9290  0.0071  0.4218
   67MPD2    H2 1027   0.020   4.044  14.107  0.3432  0.5637 -0.2611
   67MPD2    H3 1028   4.651   3.989  13.892 -2.2456  0.1204 -0.9988
   67MPD2     N 1029   4.266   4.210  13.960  0.3174 -0.0236  0.5050
   67MPD2    H5 1030   4.242   4.195  13.863  0.1781 -3.6787  1.0925
   67MPD2    N1 1031   4.617   4.196  14.287  0.3644  0.1485  0.0253
   67MPD2    H7 1032   4.554   4.247  14.349  0.4911  2.5554 -1.8299
   68TCq2    C1 1033   0.024   4.194  14.340 -0.0105  0.0610  0.2158
   68TCq2    O2 1034   0.126   4.146  14.282  0.1117  0.0510  0.1253
   68TCq2    C2 1035   0.047   4.251  14.473 -0.2716 -0.0311 -0.6059
   68TCq2    C3 1036   4.668   4.296  14.551  0.2950  0.5252  0.3942
   68TCq2    C4 1037   4.703   4.328  14.678 -0.3042 -0.2749  0.2062
   68TCq2    C5 1038   0.107   4.339  14.728 -0.8323  0.2776 -0.1959
   68TCq2    C6 1039   0.207   4.301  14.646  0.4536  0.2657 -0.3877
   68TCq2    C7 1040   0.178   4.251  14.518 -0.3090 -0.0296  0.0566
   68TCq2    C8 1041   0.344   4.267  14.703 -0.4025  1.2361 -0.2548
   68TCq2    O4 1042   0.429   4.228  14.625  0.0954 -0.8587 -0.5271
   68TCq2    C9 1043   4.589   4.346  14.768 -0.2729 -0.5612 -1.0044
   68TCq2    O5 1044   4.607   4.414  14.868  0.3178 -0.3330 -0.3711
   68TCq2    O6 1045   4.469   4.315  14.733  0.8972  0.2028 -0.2509
   68TCq2    H2 1046   4.561   4.305  14.533  0.3674  0.5117 -0.0390
   68TCq2    H3 1047   0.122   4.382  14.827 -1.0970  1.7275 -0.7955
   68TCq2    H4 1048   0.263   4.222  14.458  1.4330 -0.2532  2.6432
   69TMC2    C1 1049   2.155   0.749  12.590  0.5649  0.2133  0.2427
   69TMC2    C2 1050   2.026   0.752  12.534  0.1396 -0.7611 -0.0166
   69TMC2    C3 1051   2.011   0.727  12.407 -0.1991 -0.6938  0.5044
   69TMC2    C4 1052   2.265   0.724  12.515  0.5729 -0.3989  0.3596
   69TMC2    C5 1053   2.248   0.719  12.380  0.5851  1.2121  0.4878
   69TMC2    C6 1054   2.120   0.715  12.329 -0.1046  0.0562 -0.0546
   69TMC2     C 1055   2.160   0.720  12.735  0.0307  0.2738 -0.3304
   69TMC2     O 1056   2.057   0.705  12.801  0.6459  0.0136  0.2228
   69TMC2     H 1057   1.936   0.766  12.593 -0.0510 -0.3326 -0.4166
   69TMC2    H1 1058   2.363   0.700  12.554  0.2768 -3.0389 -0.5564
   69TMC2    H2 1059   2.103   0.698  12.223  0.8137  1.0684 -0.3738
   69TMC2    C7 1060   2.355   0.669  12.303 -0.4609  0.9148  0.2983
   69TMC2    C8 1061   1.881   0.760  12.353  0.7199 -0.1572  0.1944
   69TMC2    O1 1062   2.452   0.615  12.350  0.2607 -0.1910 -0.0696
   69TMC2    O2 1063   1.845   0.736  12.239  0.0436 -0.0830  0.1360
   69TMC2    O5 1064   1.855   0.883  12.413  0.4513 -0.1768  0.3392
   69TMC2    H5 1065   1.927   0.895  12.479  0.3675  0.4501  0.3162
   70MPD2     C 1066   2.467   0.605  12.900  0.1067  0.0066 -1.1508
   70MPD2    C1 1067   2.332   0.612  12.879  0.2766  0.7399 -0.0889
   70MPD2    C2 1068   2.252   0.508  12.929  0.7718 -0.6862 -0.0811
   70MPD2    C3 1069   2.305   0.412  13.015 -0.0301  0.3151  0.0374
   70MPD2    C4 1070   2.443   0.411  13.038  0.5855  0.7282 -0.7753
   70MPD2    C5 1071   2.519   0.506  12.970  0.6101  0.4281  0.4420
   70MPD2     H 1072   2.147   0.519  12.902  1.3598  3.2652 -0.8494
   70MPD2    H1 1073   2.484   0.326  13.090 -1.4675 -0.2762 -0.7814
   70MPD2    H2 1074   2.534   0.667  12.843  0.5170 -1.7990 -2.6328
   70MPD2    H3 1075   2.624   0.479  12.975  1.2225  2.3824 -1.8948
   70MPD2     N 1076   2.217   0.302  13.056  0.5444  0.3481 -0.6710
   70MPD2    H5 1077   2.265   0.236  13.117 -1.5909 -0.3482  0.2325
   70MPD2    N1 1078   2.292   0.711  12.780 -0.1834  0.0294 -0.1859
   70MPD2    H7 1079   2.364   0.761  12.729  0.5404  0.7999  1.6095
   71TMC2    C1 1080   4.499   1.236   1.337  0.1711 -0.6063 -0.0828
   71TMC2    C2 1081   4.631   1.241   1.366 -0.2048  0.0500  0.1229
   71TMC2    C3 1082   4.662   1.202   1.493  0.1282  0.3355  0.3652
   71TMC2    C4 1083   4.392   1.203   1.419  0.5548  0.3655  0.5331
   71TMC2    C5 1084   4.431   1.173   1.548  0.6663 -0.1509  0.1197
   71TMC2    C6 1085   4.564   1.164   1.584  0.5434 -0.1114  0.0693
   71TMC2     C 1086   4.464   1.207   1.192 -0.4125  0.4670 -0.0914
   71TMC2     O 1087   4.362   1.260   1.148 -0.3722 -0.3770  0.2570
   71TMC2     H 1088   4.701   1.271   1.288  0.3205 -1.0055  0.1901
   71TMC2    H1 1089   4.294   1.209   1.373  0.2922 -2.0311  0.8035
   71TMC2    H2 1090   4.595   1.131   1.682  1.1765 -0.9364 -0.4070
   71TMC2    C7 1091   4.330   1.177   1.650  0.1289  0.0126  0.1977
   71TMC2    C8 1092   0.072   1.228   1.544 -0.0368 -0.1339  1.2654
   71TMC2    O1 1093   4.370   1.167   1.766 -0.8490 -0.4099  0.0053
   71TMC2    O2 1094   0.086   1.260   1.660 -0.2139 -0.1600  0.0342
   71TMC2    O5 1095   0.141   1.283   1.440 -0.1201  0.7071  0.0568
   71TMC2    H5 1096   0.116   1.227   1.364 -2.2991  0.6859  0.7888
   72MPD2     C 1097   4.592   1.129   0.711  0.3923 -0.2746 -0.4151
   72MPD2    C1 1098   4.502   1.223   0.759  0.3089  0.2244 -0.6601
   72MPD2    C2 1099   4.499   1.242   0.892  0.0840  0.1073 -0.2438
   72MPD2    C3 1100   4.573   1.159   0.981  0.2683  0.4605  0.4039
   72MPD2    C4 1101   4.662   1.066   0.933 -1.0950  0.1134  0.0714
   72MPD2    C5 1102   4.675   1.057   0.797 -0.0908  0.0406 -0.2009
   72MPD2     H 1103   4.436   1.318   0.937  0.6551  0.9101 -0.8170
   72MPD2    H1 1104   4.721   1.009   1.004 -1.3284 -2.2634 -1.6510
   72MPD2    H2 1105   4.602   1.110   0.605  0.2168  0.8868 -0.6436
   72MPD2    H3 1106   0.012   0.977   0.755  0.7331  0.5201  0.0878
   72MPD2     N 1107   4.565   1.156   1.120  0.2668 -0.8092 -0.1405
   72MPD2    H5 1108   4.633   1.105   1.174  0.4883 -1.2998 -0.8775
   72MPD2    N1 1109   4.401   1.281   0.676 -0.2512 -0.4962  0.4311
   72MPD2    H7 1110   4.339   1.348   0.720  0.7867  0.2191  0.7809
   73TMC2    C1 1111   4.253   2.611  13.899 -1.0798 -1.0487 -0.4120
   73TMC2    C2 1112   4.252   2.473  13.875 -0.6496 -0.6520  0.5429
   73TMC2    C3 1113   4.369   2.404  13.913  0.2363 -0.1976  0.3822
   73TMC2    C4 1114   4.363   2.666  13.969 -0.1986  0.2312  0.6066
   73TMC2    C5 1115   4.478   2.592  13.994 -1.4143  0.0074  0.0110
   73TMC2    C6 1116   4.477   2.461  13.969  0.1709 -0.1306  0.1317
   73TMC2     C 1117   4.198   2.697  13.798 -0.2143  0.0725 -0.2385
   73TMC2     O 1118   4.264   2.799  13.792  0.7515 -0.6201 -0.0987
   73TMC2     H 1119   4.182   2.417  13.814 -0.5362 -0.3329  0.1210
   73TMC2    H1 1120   4.371   2.773  13.988  2.0997  0.1755  0.0669
   73TMC2    H2 1121   4.577   2.419  13.970  0.0960 -0.2725  2.4776
   73TMC2    C7 1122   4.601   2.647  13.929  0.3091 -0.1947  0.3793
   73TMC2    C8 1123   4.374   2.270  13.876  0.8072  0.0067 -0.5088
   73TMC2    O1 1124   4.711   2.591  13.945 -0.0381  0.0480  0.6990
   73TMC2    O2 1125   4.278   2.208  13.824  0.5229  0.0915  0.1475
   73TMC2    O5 1126   4.475   2.209  13.945  0.1108 -0.0223 -0.1738
   73TMC2    H5 1127   4.546   2.264  13.985 -0.0258  1.3656 -1.8350
   74MPD2     C 1128   3.924   2.849  13.401  0.0199  0.0819  0.4079
   74MPD2    C1 1129   4.054   2.884  13.428  0.1481 -0.1481 -0.7031
   74MPD2    C2 1130   4.110   2.816  13.535  0.0711 -0.7469 -0.1917
   74MPD2    C3 1131   4.044   2.720  13.607  0.1705  0.1118 -0.4724
   74MPD2    C4 1132   3.921   2.674  13.558 -0.1781 -0.0479  0.4203
   74MPD2    C5 1133   3.861   2.736  13.452  0.2937 -0.0801 -0.2565
   74MPD2     H 1134   4.212   2.844  13.562 -0.2416  1.1938 -1.0179
   74MPD2    H1 1135   3.857   2.600  13.605  1.4289 -1.8281 -0.1877
   74MPD2    H2 1136   3.873   2.903  13.322  0.3202  1.2254  1.0070
   74MPD2    H3 1137   3.771   2.699  13.405  0.4261 -1.8195  0.8684
   74MPD2     N 1138   4.098   2.652  13.718  0.5406  0.4108 -0.1041
   74MPD2    H5 1139   4.045   2.572  13.752  2.3297 -0.5499  0.4340
   74MPD2    N1 1140   4.125   2.981  13.349 -0.7761  0.1813 -0.2950
   74MPD2    H7 1141   4.072   3.038  13.283  0.0297  1.0062 -0.2426
   75TCq2    C1 1142   4.165   4.240  14.047  0.1626 -0.9037  0.0156
   75TCq2    O2 1143   4.163   4.220  14.169 -0.3954 -0.3281  0.0769
   75TCq2    C2 1144   4.041   4.275  13.981 -0.4244 -0.4721  0.1715
   75TCq2    C3 1145   3.924   4.253  14.054  0.3014 -0.3773  0.0561
   75TCq2    C4 1146   3.808   4.294  13.995  0.5485  0.1808  0.1570
   75TCq2    C5 1147   3.801   4.358  13.869  0.8161  0.1751  0.1751
   75TCq2    C6 1148   3.924   4.377  13.807  0.5697 -0.3442  0.1383
   75TCq2    C7 1149   4.043   4.337  13.861  0.0110 -0.0062  0.5780
   75TCq2    C8 1150   3.923   4.422  13.672  0.3729  0.3473  0.5093
   75TCq2    O4 1151   3.996   4.367  13.591  0.5460 -0.3923  0.5813
   75TCq2    C9 1152   3.687   4.266  14.060 -0.1583  0.5567 -0.0634
   75TCq2    O5 1153   3.691   4.200  14.168 -1.2641 -0.6293  0.4320
   75TCq2    O6 1154   3.591   4.268  13.974  0.4522 -0.0203 -0.6556
   75TCq2    H2 1155   3.918   4.190  14.142  0.3628 -1.6792 -0.8856
   75TCq2    H3 1156   3.707   4.393  13.828  1.2396  1.6951  0.4971
   75TCq2    H4 1157   4.135   4.374  13.817 -0.7070 -1.2036 -1.9187
   76MPD2     C 1158   3.617   0.483  12.275  0.0178 -0.0101  0.1520
   76MPD2    C1 1159   3.539   0.374  12.234 -0.0354 -0.3828  0.2254
   76MPD2    C2 1160   3.586   0.243  12.242  0.0216  0.2643  0.2083
   76MPD2    C3 1161   3.709   0.215  12.312 -0.1231  0.0209 -0.9171
   76MPD2    C4 1162   3.779   0.328  12.360 -0.3389  0.6102  0.4530
   76MPD2    C5 1163   3.739   0.455  12.334 -0.8919  0.3651 -0.5212
   76MPD2     H 1164   3.524   0.162  12.206  1.9544 -0.1853 -2.1586
   76MPD2    H1 1165   3.868   0.317  12.421  0.4822 -2.8594 -1.3676
   76MPD2    H2 1166   3.590   0.586  12.257  0.3157 -0.1405 -1.0661
   76MPD2    H3 1167   3.773   0.542  12.389 -1.4904  0.3104 -0.0639
   76MPD2     N 1168   3.765   0.091  12.338 -0.0050  0.7860 -0.0517
   76MPD2    H5 1169   3.855   0.093  12.385  0.9286 -0.7501 -1.7591
   76MPD2    N1 1170   3.407   0.389  12.182 -0.0630 -0.2880  0.0956
   76MPD2    H7 1171   3.362   0.308  12.141  1.0879 -0.3248 -1.0781
   77TCq2    C1 1172   3.710   4.692  12.299  0.3560  0.3302 -0.1340
   77TCq2    O2 1173   3.603   4.671  12.238 -0.5827 -0.3398 -0.6001
   77TCq2    C2 1174   3.787   4.576  12.342 -0.0076 -0.0594  0.2582
   77TCq2    C3 1175   3.790   4.470  12.257  0.3910 -0.0152  0.9341
   77TCq2    C4 1176   3.870   4.359  12.275  0.1877 -0.8412  0.1905
   77TCq2    C5 1177   3.957   4.360  12.382  0.3723  0.1566 -0.2797
   77TCq2    C6 1178   3.955   4.469  12.463 -0.6633 -0.1363 -0.8906
   77TCq2    C7 1179   3.868   4.572  12.451  0.2423  0.1283 -0.6137
   77TCq2    C8 1180   4.039   4.448  12.580  0.1726 -0.0414 -0.4695
   77TCq2    O4 1181   4.112   4.352  12.576 -0.7303 -0.3808  0.0979
   77TCq2    C9 1182   3.874   4.251  12.173  0.2792  0.0236  0.3571
   77TCq2    O5 1183   3.960   4.162  12.180  0.0084 -0.0392 -0.3586
   77TCq2    O6 1184   3.777   4.250  12.092 -0.2487 -0.7020 -0.1528
   77TCq2    H2 1185   3.727   4.482  12.169 -1.2622  1.5884  2.3430
   77TCq2    H3 1186   4.033   4.282  12.382 -1.3581 -1.5189 -1.0537
   77TCq2    H4 1187   3.875   4.656  12.519 -1.0318 -0.4767  0.2773
   78MPD1     C 1188   3.910   1.117   0.878 -0.0017 -0.1439 -0.0796
   78MPD1    C1 1189   4.043   1.109   0.911  0.3688 -0.7417 -0.0684
   78MPD1    C2 1190   4.080   1.038   1.022  0.1856 -0.8922 -0.3906
   78MPD1    C3 1191   3.983   0.990   1.109  0.5198 -0.2059 -0.4356
   78MPD1    C4 1192   3.854   1.006   1.081 -0.1032  0.2614 -0.3308
   78MPD1    C5 1193   3.819   1.066   0.963  0.0221 -0.2995 -0.1344
   78MPD1     H 1194   4.181   1.018   1.054 -0.4884 -2.1806  0.9525
   78MPD1    H1 1195   3.771   0.968   1.140 -1.4141  0.4258 -2.0596
   78MPD1    H2 1196   3.887   1.144   0.775 -2.3707  2.7485  1.2030
   78MPD1    H3 1197   3.716   1.063   0.929 -0.1319  1.0629  0.2320
   78MPD1     N 1198   4.010   0.932   1.239  0.6298 -0.5789  0.1293
   78MPD1    H5 1199   3.931   0.902   1.294 -0.5404  1.0728 -0.6523
   78MPD1    N1 1200   4.136   1.153   0.814  0.2056  0.8055 -0.6189
   78MPD1    H6 1201   4.112   1.242   0.769  1.1808  0.0803 -2.5875
   78MPD1    H7 1202   4.232   1.150   0.849  0.1404 -0.6239 -0.5992
   79TCq2    C1 1203   4.133   0.912   1.287  0.0740  0.9769 -0.3182
   79TCq2    O2 1204   4.240   0.912   1.231  0.1726  0.7149 -0.1328
   79TCq2    C2 1205   4.129   0.857   1.425 -0.5067 -0.1308 -1.0242
   79TCq2    C3 1206   4.013   0.828   1.495  0.3345  0.2030 -0.2742
   79TCq2    C4 1207   4.024   0.766   1.615  0.1479 -0.1793 -0.5038
   79TCq2    C5 1208   4.143   0.731   1.663  0.2590  0.0191  0.0689
   79TCq2    C6 1209   4.254   0.742   1.591 -0.3093  0.1212  0.5275
   79TCq2    C7 1210   4.249   0.809   1.472 -0.5115 -0.2739  0.2933
   79TCq2    C8 1211   4.375   0.677   1.629 -0.5861 -0.5812 -0.3120
   79TCq2    O4 1212   4.480   0.733   1.600  0.2897 -0.0195  0.3237
   79TCq2    C9 1213   3.899   0.709   1.661 -0.3229  1.2121  0.2879
   79TCq2    O5 1214   3.895   0.640   1.770  0.1542 -0.1031 -0.5406
   79TCq2    O6 1215   3.803   0.703   1.580 -0.3079 -0.0558  0.0245
   79TCq2    H2 1216   3.913   0.851   1.459  0.3379 -0.0946 -0.4733
   79TCq2    H3 1217   4.147   0.687   1.762 -0.8685 -1.9121 -0.7323
   79TCq2    H4 1218   4.336   0.834   1.413 -0.8633  2.0529  0.7671
   80MPD2     C 1219   2.689   4.542  12.303  0.1936 -0.6815  0.0564
   80MPD2    C1 1220   2.573   4.510  12.241  0.3610  1.2491 -0.6007
   80MPD2    C2 1221   2.448   4.546  12.296  0.3110  0.0344  0.2110
   80MPD2    C3 1222   2.450   4.605  12.422 -0.1495  0.2882 -0.4352
   80MPD2    C4 1223   2.569   4.624  12.488  0.7332 -0.1072 -0.1135
   80MPD2    C5 1224   2.688   4.598  12.426  0.3402  0.1891  0.0883
   80MPD2     H 1225   2.357   4.537  12.238 -0.1849 -0.9962  1.1680
   80MPD2    H1 1226   2.580   4.660  12.589  1.2474  0.3241 -0.3263
   80MPD2    H2 1227   2.787   4.519  12.262 -0.9813 -0.7816 -2.6565
   80MPD2    H3 1228   2.785   4.619  12.469  1.6396 -1.7232 -1.8834
   80MPD2     N 1229   2.335   4.639  12.493  0.3356 -0.8928  0.0712
   80MPD2    H5 1230   2.348   4.634  12.593 -1.6240 -2.8170  0.2290
   80MPD2    N1 1231   2.570   4.444  12.113  0.0533  0.3540 -0.3599
   80MPD2    H7 1232   2.480   4.429  12.069 -0.0085  0.2494 -0.1987
   81TCq2    C1 1233   2.679   4.391  12.050 -0.5846 -0.2341 -0.1011
   81TCq2    O2 1234   2.803   4.409  12.055  0.0574 -0.2145  0.2293
   81TCq2    C2 1235   2.639   4.315  11.937  0.3168  1.0032 -0.0129
   81TCq2    C3 1236   2.717   4.310  11.826  0.8227 -0.2033 -0.3177
   81TCq2    C4 1237   2.665   4.263  11.716 -0.0322 -0.4552  0.6894
   81TCq2    C5 1238   2.533   4.229  11.712  0.2364 -0.3637  0.0940
   81TCq2    C6 1239   2.466   4.214  11.830  0.3143  0.4867 -0.6507
   81TCq2    C7 1240   2.512   4.261  11.943  0.0635 -0.8350 -0.3408
   81TCq2    C8 1241   2.334   4.154  11.808 -0.5112 -0.3607 -0.5002
   81TCq2    O4 1242   2.305   4.134  11.687 -0.0873  0.1296 -0.5801
   81TCq2    C9 1243   2.738   4.265  11.588  0.2181  0.2029 -0.6327
   81TCq2    O5 1244   2.668   4.260  11.483 -0.4281 -0.1254 -0.3901
   81TCq2    O6 1245   2.862   4.263  11.593  0.0705  0.4813  0.7898
   81TCq2    H2 1246   2.818   4.349  11.817 -0.4576  2.5308 -2.5725
   81TCq2    H3 1247   2.501   4.183  11.619 -1.8627 -1.4304  1.3723
   81TCq2    H4 1248   2.460   4.242  12.037 -1.9523 -1.3471 -1.5675
   82MPD2     C 1249   0.878   4.024  10.134  0.0819 -0.3781  0.5548
   82MPD2    C1 1250   0.787   3.920  10.134 -0.5362 -0.5410 -0.3540
   82MPD2    C2 1251   0.828   3.799  10.194 -0.3074  0.6442 -0.0763
   82MPD2    C3 1252   0.943   3.780  10.266  0.0297 -0.4861  0.2389
   82MPD2    C4 1253   1.021   3.896  10.272  0.7632 -0.4633 -0.9423
   82MPD2    C5 1254   0.995   4.012  10.206 -0.4227  0.0685 -0.0214
   82MPD2     H 1255   0.766   3.711  10.180 -0.2465 -0.1073  4.2555
   82MPD2    H1 1256   1.109   3.909  10.334 -0.1330  0.0646  0.2322
   82MPD2    H2 1257   0.844   4.120  10.096 -0.1706 -1.0803 -1.0012
   82MPD2    H3 1258   1.055   4.098  10.232 -0.4090  0.0283  0.0791
   82MPD2     N 1259   0.983   3.657  10.333  0.6994 -0.1350 -0.6488
   82MPD2    H5 1260   1.055   3.663  10.405 -0.2988  2.5861  0.1356
   82MPD2    N1 1261   0.655   3.950  10.084 -0.0060 -0.3450  0.7604
   82MPD2    H7 1262   0.639   4.045  10.052 -3.4519 -0.7141  1.3237
   83TCq2    C1 1263   0.912   3.539  10.325 -0.2123  0.2746 -0.1976
   83TCq2    O2 1264   0.829   3.505  10.243  0.5290 -0.1900  0.5436
   83TCq2    C2 1265   0.949   3.433  10.416 -0.3561 -0.3435 -0.6532
   83TCq2    C3 1266   1.051   3.449  10.509 -0.3061 -0.6143 -0.4974
   83TCq2    C4 1267   1.052   3.353  10.604 -0.1817 -0.7097 -0.2600
   83TCq2    C5 1268   0.954   3.264  10.619  0.1645 -0.2691  0.0092
   83TCq2    C6 1269   0.855   3.262  10.531  0.4492  0.3178  0.1667
   83TCq2    C7 1270   0.850   3.338  10.416  0.4577 -0.1847  0.5163
   83TCq2    C8 1271   0.728   3.204  10.584 -0.3852  0.0189  0.3036
   83TCq2    O4 1272   0.730   3.174  10.702  0.5190  0.4634 -0.9137
   83TCq2    C9 1273   1.150   3.365  10.708 -0.1570 -0.1892 -0.5907
   83TCq2    O5 1274   1.222   3.468  10.702 -0.3342 -0.0340  0.0480
   83TCq2    O6 1275   1.157   3.260  10.781  0.2124 -0.1961 -0.2454
   83TCq2    H2 1276   1.125   3.527  10.493 -1.2140  0.5683  1.1443
   83TCq2    H3 1277   0.950   3.208  10.711 -2.5651  2.1570  1.3638
   83TCq2    H4 1278   0.780   3.312  10.338 -1.0424  1.4262  1.3241
   84TCq2    C1 1279   1.280   2.145   9.449  0.3312  0.4133 -0.3225
   84TCq2    O2 1280   1.307   2.236   9.530 -0.4992  0.3003 -0.2463
   84TCq2    C2 1281   1.181   2.048   9.483 -0.2973  0.5061  0.6473
   84TCq2    C3 1282   1.220   1.917   9.464 -0.4144  0.3340  0.1268
   84TCq2    C4 1283   1.179   1.828   9.556  0.4508 -0.5640  0.1806
   84TCq2    C5 1284   1.123   1.871   9.673 -0.0882 -0.1210 -0.1328
   84TCq2    C6 1285   1.105   1.996   9.699 -0.3651  0.7268 -0.3591
   84TCq2    C7 1286   1.115   2.088   9.597 -0.0730  0.2502  0.3059
   84TCq2    C8 1287   1.128   2.040   9.834 -0.1196 -0.0456 -0.1177
   84TCq2    O4 1288   1.103   1.959   9.923 -0.7826 -0.1514 -0.1208
   84TCq2    C9 1289   1.198   1.693   9.532 -1.0189  0.1469 -0.3879
   84TCq2    O5 1290   1.186   1.661   9.411  0.3242 -0.1432 -0.1483
   84TCq2    O6 1291   1.231   1.622   9.637  0.4160 -0.3637  0.7061
   84TCq2    H2 1292   1.267   1.868   9.380 -0.7480 -1.1761  0.8244
   84TCq2    H3 1293   1.107   1.803   9.757  1.2691  1.1241  1.1205
   84TCq2    H4 1294   1.075   2.189   9.606  1.6569  1.0690 -1.2398
   85MPD2     C 1295   1.906   0.823  16.087 -0.5358 -0.1188  0.2778
   85MPD2    C1 1296   1.906   0.843  15.949 -0.1230  0.5874  0.1844
   85MPD2    C2 1297   1.981   0.951  15.903 -0.3029  0.2314  0.2589
   85MPD2    C3 1298   2.050   1.032  15.992 -0.2975  0.1822 -0.3370
   85MPD2    C4 1299   2.048   1.008  16.128 -0.3027 -0.2175 -0.0759
   85MPD2    C5 1300   1.971   0.905  16.177 -0.0625  0.3831 -0.1836
   85MPD2     H 1301   1.991   0.951  15.795 -1.2536 -0.8532  0.1727
   85MPD2    H1 1302   2.115   1.061  16.195 -0.1127  0.4567 -0.8021
   85MPD2    H2 1303   1.844   0.740  16.121  0.5958 -0.8866  0.4794
   85MPD2    H3 1304   1.965   0.895  16.284 -0.3566  0.4724 -0.1915
   85MPD2     N 1305   2.121   1.141  15.932  0.0191 -0.1527  0.5524
   85MPD2    H5 1306   2.111   1.150  15.831 -0.2729 -3.1574  0.3375
   85MPD2    N1 1307   1.843   0.759  15.855 -0.0986 -0.5003 -0.2710
   85MPD2    H7 1308   1.864   0.784  15.759 -3.1870  0.0487 -0.7917
   86TCq2    C1 1309   2.215   1.215  15.999 -0.2946  0.6605  0.0107
   86TCq2    O2 1310   2.270   1.198  16.105 -0.3011 -0.0521 -0.0591
   86TCq2    C2 1311   2.291   1.306  15.917 -0.3068 -0.2454 -0.1135
   86TCq2    C3 1312   2.220   1.380  15.825  0.0750 -0.1479 -0.2628
   86TCq2    C4 1313   2.292   1.476  15.751  0.1477 -0.0579  0.7184
   86TCq2    C5 1314   2.429   1.488  15.759  0.5398 -0.6330 -0.0642
   86TCq2    C6 1315   2.490   1.392  15.829  1.2743 -0.2618  0.0928
   86TCq2    C7 1316   2.427   1.298  15.903  0.0500  0.5168 -0.5135
   86TCq2    C8 1317   2.634   1.373  15.819  0.2964 -0.5520  0.1246
   86TCq2    O4 1318   2.686   1.269  15.862 -0.0904  0.0654  0.5915
   86TCq2    C9 1319   2.224   1.573  15.677  0.9252  0.3445 -0.5409
   86TCq2    O5 1320   2.299   1.666  15.643 -0.7840  0.3341  0.3991
   86TCq2    O6 1321   2.100   1.579  15.686 -0.2734  0.4443  0.5966
   86TCq2    H2 1322   2.113   1.393  15.839  0.4534  0.3675  2.1176
   86TCq2    H3 1323   2.487   1.550  15.691 -0.7663 -0.5158 -1.0845
   86TCq2    H4 1324   2.490   1.229  15.959 -1.6278 -1.0141 -0.5389
   87MPD2     C 1325   4.674   0.016   1.146 -0.3644  0.0972 -0.5995
   87MPD2    C1 1326   4.584   4.708   1.241 -0.5971  0.6057 -0.4183
   87MPD2    C2 1327   4.502   0.088   1.283 -0.2618 -0.8510  0.3285
   87MPD2    C3 1328   4.521   0.220   1.239 -0.1743  0.4494 -0.4579
   87MPD2    C4 1329   4.620   0.250   1.152 -0.7064  0.0623 -0.8838
   87MPD2    C5 1330   4.694   0.146   1.106  0.0191 -0.3917  0.1579
   87MPD2     H 1331   4.436   0.066   1.366 -1.9864  0.2714 -0.7391
   87MPD2    H1 1332   4.635   0.353   1.124 -1.1725  0.3490 -0.0730
   87MPD2    H2 1333   0.013   4.659   1.109  0.8145  0.6469  0.1786
   87MPD2    H3 1334   0.053   0.173   1.042 -0.4730 -1.0315 -0.7448
   87MPD2     N 1335   4.447   0.329   1.291  0.2373 -0.2718  0.2301
   87MPD2    H5 1336   4.465   0.424   1.258  0.3774 -0.5355 -0.4469
   87MPD2    N1 1337   4.570   4.573   1.284  0.4598  0.3051  0.1462
   87MPD2    H7 1338   4.620   4.503   1.229  2.5271 -0.1257  2.5773
   88TCq2    C1 1339   4.495   4.522   1.388 -0.5664 -0.4881 -0.2932
   88TCq2    O2 1340   4.444   4.585   1.477  0.3137 -0.0495 -0.4975
   88TCq2    C2 1341   4.491   4.378   1.391 -0.3115 -0.0938  0.1131
   88TCq2    C3 1342   4.482   4.316   1.516  0.1186  0.4811  0.1611
   88TCq2    C4 1343   4.466   4.183   1.519  0.4306 -0.4963 -0.2353
   88TCq2    C5 1344   4.458   4.107   1.406  0.2303  1.5545 -0.3622
   88TCq2    C6 1345   4.455   4.175   1.287 -0.4879  0.1997 -0.2110
   88TCq2    C7 1346   4.470   4.309   1.271 -0.1562 -0.0022 -0.4513
   88TCq2    C8 1347   4.518   4.102   1.172  0.5519 -0.5060  0.1019
   88TCq2    O4 1348   4.614   4.162   1.122 -0.3529  0.0316  0.2730
   88TCq2    C9 1349   4.464   4.115   1.643 -0.1706  0.0547 -0.3850
   88TCq2    O5 1350   4.473   3.995   1.640  0.0470  0.0733 -0.1829
   88TCq2    O6 1351   4.423   4.186   1.738  0.2302  0.3232 -0.1507
   88TCq2    H2 1352   4.500   4.370   1.608 -1.6360 -0.6319  1.1769
   88TCq2    H3 1353   4.464   3.999   1.405 -0.1768  1.5278  0.5290
   88TCq2    H4 1354   4.479   4.359   1.176 -1.5216 -0.0460 -0.6160
   89MPD2     C 1355   0.555   1.540   1.662 -0.3315  0.7709  1.2361
   89MPD2    C1 1356   0.450   1.629   1.634  0.6524 -0.5036  0.2328
   89MPD2    C2 1357   0.470   1.719   1.534 -0.4575  0.8094  0.2686
   89MPD2    C3 1358   0.586   1.725   1.463  0.2417 -0.2318 -0.6554
   89MPD2    C4 1359   0.688   1.630   1.489 -0.2529 -0.1046 -0.3200
   89MPD2    C5 1360   0.670   1.538   1.587  0.1422 -0.1890 -0.1025
   89MPD2     H 1361   0.392   1.793   1.519  1.3792  2.8770  0.8540
   89MPD2    H1 1362   0.782   1.641   1.436  0.0593 -2.4267 -0.2395
   89MPD2    H2 1363   0.555   1.465   1.740  0.3332  2.0884  2.4907
   89MPD2    H3 1364   0.751   1.472   1.616 -1.1144 -1.8645 -0.4321
   89MPD2     N 1365   0.605   1.830   1.369  0.2448  0.1382 -0.3722
   89MPD2    H5 1366   0.541   1.909   1.378  0.4914  0.3860 -0.8330
   89MPD2    N1 1367   0.320   1.615   1.684 -0.0225  0.1432 -0.4841
   89MPD2    H7 1368   0.247   1.672   1.642  0.5339  1.4888  0.3864
   90TCq2    C1 1369   0.711   1.841   1.275  0.4408  0.2489 -0.5488
   90TCq2    O2 1370   0.773   1.748   1.228 -0.5929 -0.2548 -0.0715
   90TCq2    C2 1371   0.715   1.970   1.207 -0.0103  0.6798 -0.7779
   90TCq2    C3 1372   0.682   2.082   1.270 -0.5178  0.1355  0.1572
   90TCq2    C4 1373   0.661   2.194   1.194  0.5000 -0.5812 -0.3086
   90TCq2    C5 1374   0.660   2.184   1.062  0.2136 -0.9413  0.0386
   90TCq2    C6 1375   0.694   2.074   1.003  1.0404  0.2704  0.0574
   90TCq2    C7 1376   0.725   1.965   1.071  0.5748 -0.2260  0.2121
   90TCq2    C8 1377   0.714   2.067   0.858  0.7557  0.6614 -0.6583
   90TCq2    O4 1378   0.730   1.954   0.809 -0.6885 -0.1336  0.6364
   90TCq2    C9 1379   0.629   2.324   1.252 -0.4440  0.6868 -0.6693
   90TCq2    O5 1380   0.653   2.338   1.369  0.5586 -0.1562 -0.5926
   90TCq2    O6 1381   0.616   2.417   1.173 -0.5098  0.5325  0.6012
   90TCq2    H2 1382   0.680   2.100   1.377 -0.7007 -2.4387  0.5866
   90TCq2    H3 1383   0.619   2.265   1.002 -1.6807 -1.0823  1.1403
   90TCq2    H4 1384   0.734   1.866   1.029 -1.6260 -0.5594  0.5276
   91TMC2    C1 1385   2.617   1.950  16.420  1.0647 -0.2297 -0.0342
   91TMC2    C2 1386   2.627   2.019  16.302 -0.2675 -0.1699 -0.8092
   91TMC2    C3 1387   2.515   2.027  16.221  0.8036 -0.2267  0.1338
   91TMC2    C4 1388   2.499   1.881  16.453  0.3938 -1.4467 -0.2748
   91TMC2    C5 1389   2.391   1.902  16.373  0.3335  0.4587  0.0727
   91TMC2    C6 1390   2.391   1.982  16.259 -0.4740 -0.4567  0.0779
   91TMC2     C 1391   2.727   1.913  16.508  0.0834  0.7101  0.2223
   91TMC2     O 1392   2.717   1.807  16.574  0.6859 -0.1227 -0.7165
   91TMC2     H 1393   2.714   2.079  16.279  0.6684 -1.5317 -0.7324
   91TMC2    H1 1394   2.494   1.821  16.544  2.5340  0.4109  1.0507
   91TMC2    H2 1395   2.307   2.002  16.194 -0.6866 -0.7922  0.2488
   91TMC2    C7 1396   2.269   1.837  16.420 -0.1049 -0.2330 -0.3675
   91TMC2    C8 1397   2.510   2.104  16.103 -0.2321 -0.5893 -0.2833
   91TMC2    O1 1398   2.249   1.838  16.540 -0.2069  0.1426 -0.6241
   91TMC2    O2 1399   2.411   2.163  16.067 -0.0221 -0.0087 -0.0666
   91TMC2    O5 1400   2.597   2.042  16.014  0.8682 -0.5614 -0.1563
   91TMC2    H5 1401   2.654   1.982  16.067  1.4746  1.1795  1.1904
   92MPD2     C 1402   3.004   1.858  16.632 -0.4412 -0.2838  0.3148
   92MPD2    C1 1403   2.970   1.967  16.560  0.6648 -0.0355 -0.0857
   92MPD2    C2 1404   3.071   2.055  16.530  0.7005  0.0750  0.5903
   92MPD2    C3 1405   3.199   2.032  16.570 -0.7460  0.0455  0.2700
   92MPD2    C4 1406   3.228   1.917  16.650 -0.2527  0.3545 -0.3904
   92MPD2    C5 1407   3.127   1.841  16.681  0.4076 -0.2197  0.4457
   92MPD2     H 1408   3.041   2.142  16.473  0.5692 -1.1605 -1.2540
   92MPD2    H1 1409   3.324   1.882  16.687 -0.4165 -0.0011 -0.3021
   92MPD2    H2 1410   2.935   1.784  16.671 -0.2954 -0.3828  0.3885
   92MPD2    H3 1411   3.146   1.747  16.731 -3.1111 -0.2869  1.6267
   92MPD2     N 1412   3.299   2.115  16.521 -1.0783 -0.4927  0.7011
   92MPD2    H5 1413   3.268   2.192  16.462 -2.7116 -1.3810  0.3962
   92MPD2    N1 1414   2.844   1.995  16.497  0.6768 -0.3471  0.6516
   92MPD2    H7 1415   2.847   2.065  16.423  0.8612  1.5694  2.4698
   93MPD2     C 1416   3.452   2.198  13.693 -0.3672 -0.5050  0.7273
   93MPD2    C1 1417   3.484   2.099  13.605  0.6223  0.0731  0.3123
   93MPD2    C2 1418   3.378   2.037  13.535 -0.2644 -0.4886  0.0192
   93MPD2    C3 1419   3.248   2.083  13.549  0.7510  0.1955  0.0103
   93MPD2    C4 1420   3.224   2.183  13.639 -0.3869  0.2400  0.2686
   93MPD2    C5 1421   3.326   2.246  13.708 -1.0299 -0.2064  0.2671
   93MPD2     H 1422   3.407   1.957  13.468 -1.5897  0.2395 -1.4205
   93MPD2    H1 1423   3.127   2.223  13.665 -0.6296  0.0060 -0.2666
   93MPD2    H2 1424   3.533   2.249  13.745 -0.3752  1.8803 -1.6168
   93MPD2    H3 1425   3.307   2.324  13.780  0.0834  0.0234  0.3199
   93MPD2     N 1426   3.137   2.040  13.472  0.4524  0.2472  0.6400
   93MPD2    H5 1427   3.045   2.082  13.482  1.5713  3.3754 -2.3299
   93MPD2    N1 1428   3.623   2.070  13.594 -0.3164  0.1983 -0.7190
   93MPD2    H7 1429   3.687   2.121  13.655  0.0092  0.1329 -1.0008
   94TCq2    C1 1430   3.679   1.969  13.518 -0.0148  1.2746  0.1537
   94TCq2    O2 1431   3.619   1.868  13.476 -0.2648 -0.1154 -0.2177
   94TCq2    C2 1432   3.827   1.984  13.505  0.8436 -0.2443 -0.1398
   94TCq2    C3 1433   3.895   1.869  13.487  0.4213 -0.8188 -0.1940
   94TCq2    C4 1434   4.028   1.869  13.474  0.4893  0.3110  0.2850
   94TCq2    C5 1435   4.100   1.981  13.486 -0.2264  0.2629 -0.1627
   94TCq2    C6 1436   4.028   2.100  13.500 -0.2634  0.3436  0.5213
   94TCq2    C7 1437   3.889   2.105  13.503 -0.0169 -0.4505  0.2963
   94TCq2    C8 1438   4.094   2.233  13.473  0.4405  0.5020 -0.1263
   94TCq2    O4 1439   4.033   2.337  13.482  0.5837  0.1582  0.1021
   94TCq2    C9 1440   4.101   1.745  13.472 -0.0277 -0.3680 -0.2696
   94TCq2    O5 1441   4.223   1.748  13.499 -0.5179 -0.1293 -0.7107
   94TCq2    O6 1442   4.035   1.640  13.443 -0.0399  0.0844  0.1873
   94TCq2    H2 1443   3.841   1.775  13.481  0.3898 -0.8713  0.9775
   94TCq2    H3 1444   4.208   1.974  13.485 -0.0784  2.3755  2.0723
   94TCq2    H4 1445   3.838   2.200  13.497 -0.9707 -0.9778  0.1343
   95TMC2    C1 1446   3.988   3.446  15.630  0.5262  0.2986  0.1545
   95TMC2    C2 1447   3.962   3.416  15.757  0.2707  0.1641  0.5092
   95TMC2    C3 1448   3.869   3.503  15.816 -0.1584  0.1730 -0.0717
   95TMC2    C4 1449   3.912   3.526  15.555  0.1056  0.2751  0.1413
   95TMC2    C5 1450   3.806   3.588  15.617 -0.1933  0.3829 -0.5578
   95TMC2    C6 1451   3.790   3.587  15.750  0.8247 -0.1308  0.4755
   95TMC2     C 1452   4.113   3.391  15.572  0.5490 -0.6805 -0.0384
   95TMC2     O 1453   4.147   3.282  15.611 -0.0904 -0.0418  0.6871
   95TMC2     H 1454   4.037   3.367  15.816 -0.5516 -1.2139  0.4076
   95TMC2    H1 1455   3.918   3.523  15.447  0.1993  1.7525  0.1028
   95TMC2    H2 1456   3.720   3.640  15.813  0.8917 -0.5988  0.9452
   95TMC2    C7 1457   3.725   3.685  15.548 -0.6693 -0.2447 -0.1825
   95TMC2    C8 1458   3.864   3.497  15.959  0.2298  0.7261  0.3299
   95TMC2    O1 1459   3.634   3.737  15.614 -0.1710  0.4509 -0.0622
   95TMC2    O2 1460   3.834   3.592  16.031 -0.5683  0.5840 -0.0653
   95TMC2    O5 1461   3.809   3.377  15.977 -0.1690 -0.2746 -0.1394
   95TMC2    H5 1462   3.797   3.336  15.888 -1.5533 -1.9606  0.8422
   96MPD2     C 1463   4.503   3.457  15.270 -0.3332  0.6585  0.0455
   96MPD2    C1 1464   4.470   3.585  15.316 -0.3923 -0.4664 -0.8710
   96MPD2    C2 1465   4.364   3.599  15.400 -0.6885  0.3050  0.3597
   96MPD2    C3 1466   4.294   3.482  15.436 -0.5558  0.0101 -0.6222
   96MPD2    C4 1467   4.341   3.362  15.399  0.2783 -0.8265 -0.7619
   96MPD2    C5 1468   4.450   3.351  15.321  0.1253  0.3541  0.0318
   96MPD2     H 1469   4.323   3.693  15.434 -0.6044  0.5199 -0.1327
   96MPD2    H1 1470   4.300   3.267  15.432  1.5775 -1.0400  0.2255
   96MPD2    H2 1471   4.593   3.441  15.212 -0.0539  1.2130  0.3225
   96MPD2    H3 1472   4.490   3.254  15.293  1.9566  0.9776  0.5098
   96MPD2     N 1473   4.174   3.496  15.505  0.3556  0.1060  0.2920
   96MPD2    H5 1474   4.124   3.584  15.512  0.4430  0.1997 -0.2849
   96MPD2    N1 1475   4.540   3.693  15.258  0.0347 -0.2207 -0.8087
   96MPD2    H7 1476   4.622   3.674  15.200 -0.3553 -2.8625 -0.4547
   97MPD2     C 1477   1.134   1.062   0.776  0.4952 -0.1189 -0.5004
   97MPD2    C1 1478   1.222   0.990   0.855  0.2373 -0.3382 -0.3293
   97MPD2    C2 1479   1.333   0.929   0.796 -0.3964  0.3640  0.1233
   97MPD2    C3 1480   1.358   0.954   0.662 -0.8534 -0.0723 -0.2324
   97MPD2    C4 1481   1.272   1.031   0.586 -0.7809 -0.0946  0.3901
   97MPD2    C5 1482   1.163   1.075   0.647  0.6271 -0.1400  0.9035
   97MPD2     H 1483   1.402   0.866   0.850 -1.0096  1.1108  1.7814
   97MPD2    H1 1484   1.288   1.057   0.482 -1.1223 -1.7126 -0.0770
   97MPD2    H2 1485   1.033   1.083   0.810  0.4519 -0.9053 -0.1294
   97MPD2    H3 1486   1.099   1.124   0.575  1.3857  0.7144  0.8156
   97MPD2     N 1487   1.465   0.892   0.588  0.6284 -0.3717  0.2856
   97MPD2    H5 1488   1.472   0.907   0.488 -2.3260  1.1067  0.3012
   97MPD2    N1 1489   1.184   0.970   0.990  0.2295  0.2179  0.1923
   97MPD2    H7 1490   1.090   1.002   1.010  0.1719  0.6648 -0.7751
   98TCq2    C1 1491   1.544   0.787   0.635 -0.0448 -0.2397 -0.6283
   98TCq2    O2 1492   1.543   0.734   0.745 -0.1525  0.1802 -0.0352
   98TCq2    C2 1493   1.627   0.736   0.526 -0.7543  0.0960 -0.0142
   98TCq2    C3 1494   1.641   0.602   0.497  0.2008  0.2821  0.6343
   98TCq2    C4 1495   1.715   0.562   0.392 -0.0878 -0.0755  0.3569
   98TCq2    C5 1496   1.779   0.652   0.308 -0.7768  0.3702  0.7747
   98TCq2    C6 1497   1.757   0.788   0.337  0.1514  0.2367  0.2472
   98TCq2    C7 1498   1.685   0.829   0.445  0.3066  0.1933  1.0453
   98TCq2    C8 1499   1.817   0.902   0.265 -0.1662 -0.4161  0.0748
   98TCq2    O4 1500   1.858   0.985   0.346 -1.1766  0.4663  0.6201
   98TCq2    C9 1501   1.745   0.418   0.375 -0.5834 -0.4692  0.2337
   98TCq2    O5 1502   1.678   0.336   0.447  0.5453 -0.1608  0.4452
   98TCq2    O6 1503   1.830   0.394   0.284  0.0041  0.2427  0.3271
   98TCq2    H2 1504   1.602   0.527   0.564  0.5776 -0.7060 -0.2386
   98TCq2    H3 1505   1.848   0.622   0.230 -0.1199  0.2513  1.3985
   98TCq2    H4 1506   1.684   0.935   0.464  3.2127  0.4475 -0.1746
   99MPD2     C 1507   0.054   2.790   1.901  0.0743  0.3206  0.2145
   99MPD2    C1 1508   4.653   2.849   1.871  0.1048  0.1182 -0.1003
   99MPD2    C2 1509   4.615   2.856   1.741  0.2452  0.0255 -0.1645
   99MPD2    C3 1510   4.679   2.795   1.641  0.5273  0.3542  0.0647
   99MPD2    C4 1511   0.065   2.716   1.673 -0.2379  0.1520  0.0129
   99MPD2    C5 1512   0.120   2.715   1.803 -0.5295 -0.2621  0.0130
   99MPD2     H 1513   4.522   2.905   1.714  0.3691 -0.1423 -0.8808
   99MPD2    H1 1514   0.111   2.643   1.608  1.1333  1.2034 -0.1880
   99MPD2    H2 1515   0.101   2.796   1.999 -1.3224  0.7464  0.8705
   99MPD2    H3 1516   0.209   2.658   1.825 -0.5977 -0.5290 -0.4168
   99MPD2     N 1517   4.622   2.808   1.512 -0.4606 -0.8959  0.5358
   99MPD2    H5 1518   4.530   2.850   1.504 -0.1337  0.3711  3.2559
   99MPD2    N1 1519   4.579   2.916   1.970 -0.0293 -0.2761  0.3980
   99MPD2    H7 1520   4.495   2.959   1.932  0.6723  0.8420  0.1145
  100TCq2    C1 1521   4.625   2.936   2.101 -0.4314 -0.3026  0.0124
  100TCq2    O2 1522   0.009   2.919   2.156 -0.1806 -0.3645 -0.6496
  100TCq2    C2 1523   4.539   3.016   2.190  0.5934 -0.3248 -0.7169
  100TCq2    C3 1524   4.605   3.108   2.268  0.7123  0.3518 -0.1501
  100TCq2    C4 1525   4.531   3.197   2.340  0.1113 -0.5493  0.0397
  100TCq2    C5 1526   4.393   3.194   2.344  0.3010 -0.1282 -0.3192
  100TCq2    C6 1527   4.338   3.100   2.268 -0.5251  0.5514 -0.1902
  100TCq2    C7 1528   4.405   3.007   2.191  0.5150 -0.5453  0.3035
  100TCq2    C8 1529   4.193   3.096   2.265 -0.2644  0.0924 -0.1844
  100TCq2    O4 1530   4.131   3.150   2.356  0.0895 -0.4033  0.2851
  100TCq2    C9 1531   4.595   3.291   2.430 -0.6639 -0.3288  0.3213
  100TCq2    O5 1532   4.722   3.286   2.444  0.0170 -0.0467  0.1014
  100TCq2    O6 1533   4.525   3.367   2.502 -0.3046  0.3844  0.2465
  100TCq2    H2 1534   4.713   3.112   2.274  0.9141 -2.6232 -1.9208
  100TCq2    H3 1535   4.332   3.267   2.397 -0.3136 -0.2977 -0.7866
  100TCq2    H4 1536   4.357   2.917   2.154  0.6510 -0.3308 -0.3907
  101MPD2     C 1537   0.951   4.396  12.838 -0.0010 -0.9317  0.0747
  101MPD2    C1 1538   0.874   4.484  12.915  0.0087 -0.1717 -0.4083
  101MPD2    C2 1539   0.786   4.414  13.000  0.4202 -0.3118 -0.0104
  101MPD2    C3 1540   0.765   4.281  12.996 -0.1993 -0.3675  0.3974
  101MPD2    C4 1541   0.840   4.204  12.912 -0.4372  0.3584 -0.9319
  101MPD2    C5 1542   0.931   4.266  12.838  0.0146  0.2440  0.8051
  101MPD2     H 1543   0.719   4.468  13.066  0.4059 -1.9356  1.3180
  101MPD2    H1 1544   0.840   4.096  12.907 -0.4841  0.3388 -0.5326
  101MPD2    H2 1545   1.035   4.434  12.780  0.9147  1.3997  2.9392
  101MPD2    H3 1546   1.004   4.205  12.786  1.7999  1.4280  1.9428
  101MPD2     N 1547   0.663   4.225  13.075 -0.7326 -0.1811  0.0823
  101MPD2    H5 1548   0.607   4.294  13.124 -1.6108  0.7619 -2.2488
  101MPD2    N1 1549   0.883   4.625  12.896 -0.5965  0.1997  0.0119
  101MPD2    H7 1550   0.961   4.667  12.846 -0.7791  1.8690  1.1394
  102TCq2    C1 1551   1.018   0.271  12.659 -0.5097  0.0058  0.0826
  102TCq2    O2 1552   1.129   0.233  12.690  0.1827 -0.0506 -0.2308
  102TCq2    C2 1553   0.906   0.244  12.753  0.8220  0.5105  0.1105
  102TCq2    C3 1554   0.790   0.310  12.728  0.0061 -0.0215 -0.8870
  102TCq2    C4 1555   0.680   0.284  12.801 -0.0618  0.2190 -0.0698
  102TCq2    C5 1556   0.686   0.182  12.886 -0.2592  0.4088 -0.7210
  102TCq2    C6 1557   0.807   0.120  12.907 -0.5208  0.8664 -0.7218
  102TCq2    C7 1558   0.922   0.150  12.849  0.2244  0.0766  0.0668
  102TCq2    C8 1559   0.785   4.709  12.946 -0.1889  0.1656 -0.1054
  102TCq2    O4 1560   0.682   4.680  13.004 -0.1015 -0.2277 -0.1335
  102TCq2    C9 1561   0.553   0.343  12.766 -0.1181 -0.3844  0.5445
  102TCq2    O5 1562   0.528   0.359  12.646  0.5803  0.2464  0.0776
  102TCq2    O6 1563   0.476   0.351  12.864 -0.1635  0.3625 -1.0484
  102TCq2    H2 1564   0.782   0.389  12.654 -0.6011  2.6697  2.0676
  102TCq2    H3 1565   0.588   0.148  12.915 -0.8536  2.4392 -0.3253
  102TCq2    H4 1566   1.017   0.117  12.890  1.3110  1.6506 -1.1797
  103TMC2    C1 1567   4.000   0.195  13.207 -0.0843  0.3960  0.7230
  103TMC2    C2 1568   3.941   0.317  13.177 -0.2727  0.7541 -0.2113
  103TMC2    C3 1569   3.869   0.377  13.279  1.1074  0.2303  0.9648
  103TMC2    C4 1570   4.007   0.145  13.332 -0.4000  0.5127 -0.0271
  103TMC2    C5 1571   3.952   0.215  13.431 -0.6048 -0.0598 -0.3778
  103TMC2    C6 1572   3.873   0.327  13.407  0.4713  0.5631  0.3227
  103TMC2     C 1573   4.036   0.118  13.092  1.0861 -0.0051 -0.6417
  103TMC2     O 1574   4.012   0.164  12.982  0.2566 -0.2108  0.1331
  103TMC2     H 1575   3.939   0.352  13.074 -0.4454  0.4472 -0.3115
  103TMC2    H1 1576   4.060   0.055  13.361 -1.3634  0.1420  0.5655
  103TMC2    H2 1577   3.815   0.379  13.483  0.4303  0.4067  0.3981
  103TMC2    C7 1578   3.950   0.157  13.564  0.8201 -0.3433 -0.6349
  103TMC2    C8 1579   3.786   0.494  13.260  0.2831  0.4381  1.1624
  103TMC2    O1 1580   4.033   0.070  13.584  0.0716  0.3095 -0.5833
  103TMC2    O2 1581   3.692   0.525  13.326 -0.8700 -0.2662 -0.1080
  103TMC2    O5 1582   3.866   0.584  13.194  0.0973 -0.2935  0.3596
  103TMC2    H5 1583   3.961   0.560  13.195  0.4649  1.2151  2.4088
  104MPD2     C 1584   4.201   4.519  13.060 -0.6624  0.2557  0.4354
  104MPD2    C1 1585   4.118   4.620  13.023 -0.7494 -0.6768  0.3611
  104MPD2    C2 1586   4.054   4.620  12.904  0.6992  0.2936  0.1607
  104MPD2    C3 1587   4.085   4.527  12.812 -0.3333  0.6642 -0.9609
  104MPD2    C4 1588   4.187   4.440  12.838  0.5331  0.4875 -0.5092
  104MPD2    C5 1589   4.240   4.431  12.964  0.3603 -0.4477  0.1794
  104MPD2     H 1590   3.972   4.690  12.889 -0.0935 -0.5857  0.3735
  104MPD2    H1 1591   4.235   4.376  12.764 -0.8002 -0.2447 -0.7330
  104MPD2    H2 1592   4.253   4.523  13.154 -0.5682 -3.4038  0.5252
  104MPD2    H3 1593   4.316   4.355  12.981 -0.2374 -1.6893 -2.6677
  104MPD2     N 1594   4.015   4.529  12.686  0.3030 -0.5045 -0.1184
  104MPD2    H5 1595   3.946   4.601  12.666  0.8159  0.0266  0.0330
  104MPD2    N1 1596   4.091   4.723  13.118  0.1047  0.1002 -0.6728
  104MPD2    H7 1597   4.125   4.709  13.212 -1.2789  0.8982 -0.0610
  105MPD2     C 1598   0.635   3.791  17.540  0.5385 -0.3448 -0.5958
  105MPD2    C1 1599   0.526   3.869  17.501  0.3862  0.0448 -0.3022
  105MPD2    C2 1600   0.422   3.878  17.593 -0.1534 -0.3244  0.1356
  105MPD2    C3 1601   0.424   3.816   0.019  0.5937  0.6556  0.2264
  105MPD2    C4 1602   0.539   3.756   0.055  0.5579 -0.6845 -0.4820
  105MPD2    C5 1603   0.638   3.728  17.662  0.2092  0.1300  0.8726
  105MPD2     H 1604   0.338   3.945  17.577 -0.7752 -1.0958  0.1777
  105MPD2    H1 1605   0.567   3.731   0.157  0.0153  3.6507  0.7125
  105MPD2    H2 1606   0.725   3.791  17.479 -1.2812 -0.8188 -3.2628
  105MPD2    H3 1607   0.732   3.688   0.002  1.1812  0.0467 -1.7273
  105MPD2     N 1608   0.322   3.854   0.110  0.2925  0.0356 -0.5454
  105MPD2    H5 1609   0.251   3.920   0.079 -1.2299 -0.8543  1.0318
  105MPD2    N1 1610   0.511   3.935  17.377  0.4107  0.0957  0.5347
  105MPD2    H7 1611   0.423   3.983  17.359  1.5634  1.8322 -0.4499
  106TCq2    C1 1612   0.305   3.814   0.241  0.6650 -1.0147  0.1835
  106TCq2    O2 1613   0.381   3.739   0.302  0.5178 -0.3142 -0.1978
  106TCq2    C2 1614   0.193   3.877   0.307 -0.1468  0.1785 -0.7071
  106TCq2    C3 1615   0.141   3.992   0.256 -0.2114  0.5535 -0.4416
  106TCq2    C4 1616   0.036   4.052   0.325 -0.4423 -0.3591  0.3424
  106TCq2    C5 1617   4.712   3.986   0.443  0.1122 -0.0756 -0.7449
  106TCq2    C6 1618   0.058   3.886   0.497  0.3378  0.5931 -0.1557
  106TCq2    C7 1619   0.157   3.820   0.423 -0.0920 -0.7624 -0.0315
  106TCq2    C8 1620   0.001   3.814   0.613 -0.0960 -1.0328 -0.3167
  106TCq2    O4 1621   0.037   3.697   0.627  0.1350 -0.1153 -0.5153
  106TCq2    C9 1622   4.688   4.160   0.265 -0.3126 -0.6812  0.8393
  106TCq2    O5 1623   4.582   4.193   0.322  0.1864  0.1389 -0.5208
  106TCq2    O6 1624   0.028   4.231   0.181  0.2266 -0.3881  0.4341
  106TCq2    H2 1625   0.189   4.047   0.176  0.4295 -2.2074 -1.9433
  106TCq2    H3 1626   4.624   4.022   0.495  1.3889  1.8909  0.0843
  106TCq2    H4 1627   0.187   3.718   0.445 -2.0537 -1.2401  0.4277
  107TMC2    C1 1628   1.083   2.357  10.756 -0.3967  0.5395  0.0789
  107TMC2    C2 1629   1.040   2.233  10.783 -0.5167 -0.6568  0.2646
  107TMC2    C3 1630   1.068   2.138  10.687  0.1888  0.3169 -0.7854
  107TMC2    C4 1631   1.122   2.392  10.630 -0.0641 -0.3107  0.0146
  107TMC2    C5 1632   1.148   2.304  10.532 -0.0342  0.3035  0.8197
  107TMC2    C6 1633   1.117   2.174  10.560  0.3207  0.1371 -0.0782
  107TMC2     C 1634   1.060   2.461  10.851 -0.1738  0.1041  0.2002
  107TMC2     O 1635   1.040   2.423  10.966  0.3220  1.0460  0.2986
  107TMC2     H 1636   1.026   2.205  10.887  1.3617 -0.4075  0.5893
  107TMC2    H1 1637   1.171   2.488  10.614  0.4857 -0.3139  1.6576
  107TMC2    H2 1638   1.139   2.098  10.486  0.2823 -0.9730  1.0510
  107TMC2    C7 1639   1.200   2.354  10.406  0.0919  0.0682 -0.3951
  107TMC2    C8 1640   1.089   2.003  10.738  0.6310 -0.5940  0.4600
  107TMC2    O1 1641   1.224   2.472  10.403  0.3223  0.5319 -0.0651
  107TMC2    O2 1642   1.154   1.983  10.836 -0.8631 -0.4986  0.2899
  107TMC2    O5 1643   1.034   1.920  10.657 -0.0108 -0.2965  0.4733
  107TMC2    H5 1644   0.971   1.969  10.600 -1.1843 -0.6458  1.4774
  108MPD2     C 1645   0.951   2.803  10.782  0.1786 -0.1984  0.1185
  108MPD2    C1 1646   0.993   2.701  10.863  0.2952  0.6652  0.3220
  108MPD2    C2 1647   0.974   2.707  10.999 -0.0743  0.5326  0.0605
  108MPD2    C3 1648   0.934   2.823  11.065  0.3999  0.0982 -0.1166
  108MPD2    C4 1649   0.910   2.933  10.980 -0.9297  0.9258  0.1614
  108MPD2    C5 1650   0.911   2.920  10.845 -0.5852  0.0028 -0.5228
  108MPD2     H 1651   0.999   2.619  11.057 -1.4796 -0.5149 -0.9336
  108MPD2    H1 1652   0.881   3.028  11.023 -1.7002  1.2422 -1.0756
  108MPD2    H2 1653   0.943   2.788  10.674 -0.9017 -0.3119  0.2162
  108MPD2    H3 1654   0.882   3.005  10.785  1.5852  0.9688 -0.1721
  108MPD2     N 1655   0.941   2.854  11.206 -0.0337 -0.0407 -1.3689
  108MPD2    H5 1656   0.928   2.953  11.225  2.5595 -0.2689  1.5820
  108MPD2    N1 1657   1.030   2.582  10.794  0.3794 -0.0971 -0.5310
  108MPD2    H7 1658   1.030   2.593  10.693 -0.1802  2.6032 -0.2434
  109MPD2     C 1659   0.690   4.712   2.043  0.2946  0.2335 -0.3410
  109MPD2    C1 1660   0.736   0.098   1.974 -0.6114 -0.5721  0.5169
  109MPD2    C2 1661   0.873   0.122   1.970  0.1248  0.0206 -0.5162
  109MPD2    C3 1662   0.967   0.025   2.018 -0.5848 -0.4957  0.1698
  109MPD2    C4 1663   0.919   4.643   2.092  0.2334 -0.0608 -0.0464
  109MPD2    C5 1664   0.780   4.627   2.101 -0.3424 -0.5245  0.2432
  109MPD2     H 1665   0.904   0.200   1.901  1.1511 -0.8723 -1.0739
  109MPD2    H1 1666   0.976   4.569   2.147 -0.2324  1.0078  1.8619
  109MPD2    H2 1667   0.584   4.696   2.055  0.6444 -1.4998  0.5723
  109MPD2    H3 1668   0.751   4.542   2.162 -1.3883  0.1640  0.7028
  109MPD2     N 1669   1.107   0.033   1.992 -0.2198 -0.7918 -0.0720
  109MPD2    H5 1670   1.146   0.112   1.943  1.3627 -2.3419 -1.2757
  109MPD2    N1 1671   0.640   0.174   1.903 -0.1586 -0.3304  0.4756
  109MPD2    H7 1672   0.542   0.155   1.915 -0.4257  0.0534 -1.1303
  110TCq2    C1 1673   1.204   4.678   2.049 -0.5530 -0.8553  0.1999
  110TCq2    O2 1674   1.197   4.577   2.119 -0.3286 -0.2665  0.3688
  110TCq2    C2 1675   1.338   0.011   2.031  0.4024  0.9624  0.2307
  110TCq2    C3 1676   1.444   4.655   2.061 -0.8325 -0.0152 -0.0373
  110TCq2    C4 1677   1.567   4.690   2.015  0.0194  0.6994  0.2180
  110TCq2    C5 1678   1.588   0.088   1.961 -0.9567  0.1766 -0.3014
  110TCq2    C6 1679   1.481   0.172   1.945 -0.2686 -0.2715  0.1589
  110TCq2    C7 1680   1.357   0.135   1.978  0.0544 -0.0293  0.0437
  110TCq2    C8 1681   1.513   0.316   1.937 -0.1491 -0.3665 -0.2569
  110TCq2    O4 1682   1.623   0.355   1.975 -0.0052  0.0400  0.3350
  110TCq2    C9 1683   1.679   4.606   2.017 -0.4180 -0.3830  0.3273
  110TCq2    O5 1684   1.664   4.484   2.053  0.5214 -0.1369  0.3912
  110TCq2    O6 1685   1.787   4.649   1.978  0.2574  0.0990 -0.6524
  110TCq2    H2 1686   1.431   4.556   2.103  3.7950 -1.0691 -1.1779
  110TCq2    H3 1687   1.690   0.123   1.946 -0.3480 -2.1101 -1.3867
  110TCq2    H4 1688   1.279   0.210   1.982 -0.0391 -0.1799  0.9260
  111TMC2    C1 1689   1.698   4.389  11.136 -0.0338  0.4127 -0.6801
  111TMC2    C2 1690   1.798   4.334  11.069  0.1782 -0.8632  0.5478
  111TMC2    C3 1691   1.921   4.344  11.124 -0.2065  0.1832 -0.1127
  111TMC2    C4 1692   1.713   4.439  11.263 -0.0523 -0.6173 -0.0731
  111TMC2    C5 1693   1.837   4.439  11.318  0.4164 -0.6786 -0.5473
  111TMC2    C6 1694   1.944   4.396  11.252  0.7031 -0.0957 -0.9371
  111TMC2     C 1695   1.569   4.397  11.079 -0.5864 -0.9653  1.0428
  111TMC2     O 1696   1.559   4.381  10.957 -0.3045  0.6938 -0.0677
  111TMC2     H 1697   1.774   4.302  10.968 -1.4710 -0.0212  0.6763
  111TMC2    H1 1698   1.635   4.503  11.302 -1.4681 -1.6770 -1.1562
  111TMC2    H2 1699   2.043   4.388  11.296 -0.1435 -1.5062  0.7029
  111TMC2    C7 1700   1.852   4.555  11.411  0.3737 -0.4728  0.7813
  111TMC2    C8 1701   2.041   4.354  11.042 -0.3585  0.6402 -0.0308
  111TMC2    O1 1702   1.748   4.585  11.472  0.3268  0.0161 -0.1726
  111TMC2    O2 1703   2.122   4.441  11.074 -0.3365 -0.7106 -0.2138
  111TMC2    O5 1704   1.988   4.341  10.917  0.3803  0.6772  0.2995
  111TMC2    H5 1705   1.962   4.247  10.907 -2.2414  1.5820 -1.3409
  112MPD2     C 1706   1.091   4.563  11.163 -0.8045 -0.0409 -0.2146
  112MPD2    C1 1707   1.170   4.559  11.047 -0.1990  0.0047 -0.2791
  112MPD2    C2 1708   1.292   4.486  11.042  0.9009  0.0507  0.3348
  112MPD2    C3 1709   1.345   4.437  11.162  0.2432  0.0290 -0.3562
  112MPD2    C4 1710   1.266   4.439  11.278  0.5434  0.5273  1.1875
  112MPD2    C5 1711   1.143   4.503  11.275  0.6480 -0.0111 -0.6522
  112MPD2     H 1712   1.350   4.487  10.951  0.8192 -3.3805  0.2411
  112MPD2    H1 1713   1.297   4.392  11.371  1.9445 -0.7454  0.0836
  112MPD2    H2 1714   0.990   4.602  11.167 -0.5601  0.2277  3.3471
  112MPD2    H3 1715   1.080   4.493  11.363  0.2408 -1.2547 -1.0823
  112MPD2     N 1716   1.479   4.399  11.179  0.3391 -0.0388  0.3490
  112MPD2    H5 1717   1.500   4.368  11.273 -1.9540  2.0041  1.5553
  112MPD2    N1 1718   1.129   4.640  10.933 -0.4211  0.0469 -0.1573
  112MPD2    H7 1719   1.177   4.621  10.846 -0.5257  1.3077 -0.4869
  113MPD2     C 1720   4.044   3.331   0.865 -0.0530  0.1219  0.0730
  113MPD2    C1 1721   3.960   3.251   0.938  0.9018  0.1046 -0.0118
  113MPD2    C2 1722   3.849   3.193   0.877 -0.0350 -0.3400  0.2723
  113MPD2    C3 1723   3.836   3.207   0.737 -0.1589  0.0980 -0.0595
  113MPD2    C4 1724   3.921   3.284   0.669  0.2594  0.3837  0.6132
  113MPD2    C5 1725   4.023   3.349   0.731  0.1954 -0.7160 -0.9563
  113MPD2     H 1726   3.784   3.132   0.938 -2.1816  1.5023 -0.1727
  113MPD2    H1 1727   3.893   3.300   0.566  1.3378 -1.0782  0.0923
  113MPD2    H2 1728   4.133   3.372   0.913  1.3059 -3.6952  0.8794
  113MPD2    H3 1729   4.086   3.419   0.678 -0.1272  0.5672  0.3483
  113MPD2     N 1730   3.740   3.146   0.658  0.4226  0.1295  0.1070
  113MPD2    H5 1731   3.732   3.162   0.558 -0.5296  0.0336  0.1697
  113MPD2    N1 1732   3.982   3.215   1.073  0.3341  0.1931  0.4270
  113MPD2    H7 1733   3.909   3.161   1.118  0.7740 -0.1076  0.7696
  114TCq2    C1 1734   3.652   3.053   0.704  0.0421 -1.1898 -0.2030
  114TCq2    O2 1735   3.617   3.028   0.819 -0.5622  0.2044 -0.5179
  114TCq2    C2 1736   3.576   2.978   0.600  0.1757 -0.7316  0.4053
  114TCq2    C3 1737   3.614   2.990   0.470 -0.7456  0.0743 -0.2950
  114TCq2    C4 1738   3.551   2.914   0.374 -0.4364  0.2405 -0.6753
  114TCq2    C5 1739   3.438   2.848   0.401 -0.3605  0.1343 -0.6655
  114TCq2    C6 1740   3.403   2.830   0.532 -0.4110 -0.4434  0.4957
  114TCq2    C7 1741   3.471   2.895   0.633 -0.1905 -0.4688 -0.0883
  114TCq2    C8 1742   3.275   2.768   0.557 -1.1203 -0.0189 -0.1515
  114TCq2    O4 1743   3.202   2.747   0.460  0.0112 -0.0253  0.1111
  114TCq2    C9 1744   3.613   2.896   0.249  0.1507  0.6862  0.0659
  114TCq2    O5 1745   3.727   2.944   0.231  0.3864 -0.5178 -0.8038
  114TCq2    O6 1746   3.541   2.862   0.158 -0.1755  0.2836  0.2811
  114TCq2    H2 1747   3.708   3.041   0.449  0.0695 -0.2396  2.5007
  114TCq2    H3 1748   3.401   2.774   0.330 -1.9731 -0.6087  0.9238
  114TCq2    H4 1749   3.434   2.879   0.734  0.1667 -0.8742 -0.0209
  115TMC2    C1 1750   0.102   1.175  17.205  0.5283 -0.0550  0.4317
  115TMC2    C2 1751   0.212   1.101  17.225 -0.2593 -0.1962 -0.0169
  115TMC2    C3 1752   0.330   1.172  17.222  0.1572  0.3790  0.1969
  115TMC2    C4 1753   0.105   1.301  17.167  1.1202  0.4544  0.6367
  115TMC2    C5 1754   0.222   1.368  17.166  0.1415  0.0255  0.2990
  115TMC2    C6 1755   0.341   1.307  17.197  0.2733 -0.2212  0.7011
  115TMC2     C 1756   4.696   1.122  17.254 -0.0391  1.2223  0.1790
  115TMC2     O 1757   4.683   1.002  17.237 -0.4718 -0.0350 -0.1680
  115TMC2     H 1758   0.200   1.005  17.272 -0.8049 -0.0466  0.1484
  115TMC2    H1 1759   0.016   1.354  17.137  0.1561 -1.2579  0.4820
  115TMC2    H2 1760   0.431   1.366  17.208  0.0995 -0.2683  2.3854
  115TMC2    C7 1761   0.208   1.515  17.172  0.8111  0.2756  0.3306
  115TMC2    C8 1762   0.457   1.101  17.249  0.4972 -0.8276 -0.1263
  115TMC2    O1 1763   0.097   1.564  17.185  0.8746  0.6056 -0.5502
  115TMC2    O2 1764   0.556   1.157  17.288 -0.3578  0.2182  0.2651
  115TMC2    O5 1765   0.451   0.981  17.180  0.3515 -0.6832 -0.0225
  115TMC2    H5 1766   0.363   0.953  17.147  0.1160  1.6658 -1.3828
  116MPD2     C 1767   4.230   1.183  17.439 -0.0939  0.5974 -0.4942
  116MPD2    C1 1768   4.294   1.068  17.404  0.1505 -0.0066 -0.0920
  116MPD2    C2 1769   4.427   1.078  17.369  0.4647 -0.2073 -0.4158
  116MPD2    C3 1770   4.499   1.203  17.362  0.1831  0.2205 -0.8069
  116MPD2    C4 1771   4.434   1.308  17.410  0.4594 -0.1115 -0.7644
  116MPD2    C5 1772   4.303   1.296  17.454 -0.1087  0.1027  0.0907
  116MPD2     H 1773   4.470   0.985  17.334  0.5158 -0.1546 -0.4922
  116MPD2    H1 1774   4.482   1.406  17.407  0.2670 -0.0593 -1.8717
  116MPD2    H2 1775   4.125   1.184  17.464  0.1521  3.0812  0.3832
  116MPD2    H3 1776   4.260   1.383  17.502  1.6293  2.6089 -2.8760
  116MPD2     N 1777   4.625   1.220  17.311  0.4602 -0.2824  0.0718
  116MPD2    H5 1778   4.661   1.315  17.315  0.4091 -0.2732  0.3281
  116MPD2    N1 1779   4.222   0.948  17.401  0.2936  0.0480 -0.0574
  116MPD2    H7 1780   4.122   0.946  17.418  0.0675  1.3999 -1.1636
  117TMC2    C1 1781   3.159   2.427  14.086 -0.0214 -0.1453  0.1850
  117TMC2    C2 1782   3.153   2.393  14.227  0.7916 -0.1955 -0.3387
  117TMC2    C3 1783   3.244   2.442  14.315 -0.1498 -0.9008 -0.8255
  117TMC2    C4 1784   3.263   2.501  14.041  0.0493  0.1303 -0.1775
  117TMC2    C5 1785   3.346   2.549  14.133  0.7247 -0.4112  0.2789
  117TMC2    C6 1786   3.341   2.522  14.269  0.4756 -0.0564 -0.0338
  117TMC2     C 1787   3.039   2.390  14.009  0.1455  0.5834  0.1335
  117TMC2     O 1788   2.988   2.287  14.046  0.1114  0.4005 -0.0068
  117TMC2     H 1789   3.083   2.318  14.263  0.3162  1.2255  1.6707
  117TMC2    H1 1790   3.273   2.538  13.940  0.0077 -1.9518 -0.9319
  117TMC2    H2 1791   3.401   2.579  14.339  0.3320 -0.0298  0.0649
  117TMC2    C7 1792   3.467   2.622  14.093  0.3184 -0.2376 -0.5054
  117TMC2    C8 1793   3.238   2.438  14.461 -0.6810  1.3127  0.2714
  117TMC2    O1 1794   3.461   2.659  13.976  0.7160 -0.4035  0.5208
  117TMC2    O2 1795   3.117   2.435  14.498 -0.4252  0.4760 -0.0280
  117TMC2    O5 1796   3.358   2.432  14.525 -0.5987  0.0062  0.1144
  117TMC2    H5 1797   3.434   2.420  14.464 -0.6466  0.9441 -0.1239
  118MPD2     C 1798   3.818   2.549  14.188 -0.3098  0.6536  0.3423
  118MPD2    C1 1799   3.711   2.611  14.133  0.1775  0.5089  0.0512
  118MPD2    C2 1800   3.736   2.713  14.034 -0.4398  0.3794  0.5812
  118MPD2    C3 1801   3.863   2.759  14.008  0.7327 -0.1280  0.3463
  118MPD2    C4 1802   3.964   2.707  14.087 -0.1879  0.3826  0.7514
  118MPD2    C5 1803   3.943   2.603  14.171 -0.2967 -0.2197 -0.1843
  118MPD2     H 1804   3.654   2.773  13.997  1.3293  0.5499 -3.0419
  118MPD2    H1 1805   4.066   2.739  14.076 -0.6458  1.7232  0.3916
  118MPD2    H2 1806   3.810   2.474  14.266  2.3422 -0.6802 -0.6499
  118MPD2    H3 1807   4.022   2.561  14.232  0.6788  1.2794 -0.4097
  118MPD2     N 1808   3.890   2.857  13.914 -0.3027 -0.2131  0.2819
  118MPD2    H5 1809   3.984   2.896  13.915 -0.2829 -0.2657  0.4738
  118MPD2    N1 1810   3.575   2.582  14.167  0.4887 -0.2298 -0.3244
  118MPD2    H7 1811   3.561   2.518  14.244 -0.4753  0.5165  0.1216
  119MPD2     C 1812   2.126   4.566  13.711  0.5174 -0.0267  0.2689
  119MPD2    C1 1813   2.003   4.539  13.766 -0.1583 -0.3495 -0.0212
  119MPD2    C2 1814   1.946   4.410  13.751  0.4231  0.5634 -0.2169
  119MPD2    C3 1815   2.013   4.316  13.678 -0.2068 -0.4832 -0.1460
  119MPD2    C4 1816   2.135   4.348  13.629  0.1260  0.4471 -0.0063
  119MPD2    C5 1817   2.195   4.467  13.647 -0.4990 -0.8119  0.3216
  119MPD2     H 1818   1.851   4.384  13.796  0.4089 -0.7741 -1.0149
  119MPD2    H1 1819   2.193   4.280  13.567 -0.7407  0.4420 -0.7974
  119MPD2    H2 1820   2.174   4.663  13.723  1.4356 -0.2353 -1.6666
  119MPD2    H3 1821   2.293   4.488  13.608 -0.3867 -0.1984  0.9289
  119MPD2     N 1822   1.953   4.189  13.656  0.0114  0.0074  0.0952
  119MPD2    H5 1823   1.985   4.133  13.578 -0.6049  1.1375 -0.9822
  119MPD2    N1 1824   1.953   4.646  13.844  0.2766 -0.0204 -0.3712
  119MPD2    H7 1825   1.988   0.014  13.821 -0.5917  0.8373  1.7374
  120TCq2    C1 1826   1.843   4.138  13.729 -0.2137  1.1535  0.8198
  120TCq2    O2 1827   1.822   4.157  13.852  0.6409  0.0868  0.0654
  120TCq2    C2 1828   1.780   4.030  13.658 -0.6036  0.0482  0.9614
  120TCq2    C3 1829   1.811   4.000  13.531  0.0593 -0.6596 -0.7072
  120TCq2    C4 1830   1.784   3.877  13.474  0.8506  0.7376 -1.0015
  120TCq2    C5 1831   1.698   3.802  13.541  0.0020 -0.1580 -1.1412
  120TCq2    C6 1832   1.663   3.833  13.674 -0.9339 -0.5582 -0.0966
  120TCq2    C7 1833   1.712   3.940  13.733 -0.0253  1.3094  0.4706
  120TCq2    C8 1834   1.534   3.786  13.724  0.2545 -0.1035 -0.3986
  120TCq2    O4 1835   1.517   3.771  13.838 -0.1221  0.2643 -0.2592
  120TCq2    C9 1836   1.828   3.838  13.338  0.3654 -0.0999 -0.2144
  120TCq2    O5 1837   1.758   3.753  13.278 -0.5046  0.3064  0.4757
  120TCq2    O6 1838   1.934   3.891  13.297  0.5411  0.7844 -0.1831
  120TCq2    H2 1839   1.878   4.066  13.477 -1.1197  0.5217 -0.7146
  120TCq2    H3 1840   1.667   3.707  13.500 -1.6092 -0.8552  1.6998
  120TCq2    H4 1841   1.680   3.955  13.835 -1.2572 -0.5737  0.3616
  121TMC2    C1 1842   2.792   0.831  13.725  0.0397  0.4200  0.3055
  121TMC2    C2 1843   2.801   0.696  13.719 -0.0135 -0.5932 -0.7284
  121TMC2    C3 1844   2.703   0.628  13.661  0.1970  0.0996 -0.4963
  121TMC2    C4 1845   2.685   0.895  13.669  0.0159  0.2939 -0.0879
  121TMC2    C5 1846   2.578   0.822  13.626 -0.1659 -0.1316 -0.6328
  121TMC2    C6 1847   2.589   0.683  13.620 -0.3291 -0.6592  0.0701
  121TMC2     C 1848   2.912   0.911  13.721 -0.5961  0.3164  0.3860
  121TMC2     O 1849   3.001   0.882  13.798  0.0202 -0.6903  0.4342
  121TMC2     H 1850   2.896   0.649  13.740  0.6703  2.0352  1.9439
  121TMC2    H1 1851   2.679   1.003  13.676  3.6983  0.3477  2.2695
  121TMC2    H2 1852   2.504   0.635  13.573 -1.0263  0.0067  0.6486
  121TMC2    C7 1853   2.464   0.893  13.572 -0.2119 -0.0947 -0.8116
  121TMC2    C8 1854   2.692   0.479  13.695  0.6977 -0.6302 -0.2495
  121TMC2    O1 1855   2.482   1.001  13.516 -0.3123  0.0538 -0.1944
  121TMC2    O2 1856   2.605   0.409  13.647 -0.3039 -0.0407 -0.1151
  121TMC2    O5 1857   2.752   0.450  13.811  0.0927 -0.1687  0.7849
  121TMC2    H5 1858   2.769   0.528  13.868  0.2903  1.1994 -1.1439
  122MPD2     C 1859   3.136   1.097  13.656  0.2098  0.4349  0.7687
  122MPD2    C1 1860   3.025   1.077  13.579 -1.6012  0.0511 -0.0498
  122MPD2    C2 1861   3.019   1.150  13.462  0.2197  0.1556  0.0392
  122MPD2    C3 1862   3.113   1.236  13.409 -0.2328 -0.4945  0.0154
  122MPD2    C4 1863   3.221   1.261  13.498  0.0283 -0.4618 -1.0226
  122MPD2    C5 1864   3.235   1.190  13.612 -0.0733  0.6102 -0.6694
  122MPD2     H 1865   2.931   1.124  13.405  0.6889 -1.9530  0.2911
  122MPD2    H1 1866   3.303   1.320  13.460 -1.5725 -0.2658 -4.1517
  122MPD2    H2 1867   3.154   1.037  13.743  1.7290 -0.3916 -0.1168
  122MPD2    H3 1868   3.315   1.219  13.679  0.1935 -1.8814  0.0875
  122MPD2     N 1869   3.106   1.309  13.289  0.4574  0.5098  0.1842
  122MPD2    H5 1870   3.174   1.385  13.288  2.2693 -1.1295 -1.4515
  122MPD2    N1 1871   2.922   0.991  13.617  0.2674  0.0457  0.3853
  122MPD2    H7 1872   2.844   0.990  13.552  0.8019 -1.3633 -0.2316
  123MPD2     C 1873   1.563   2.873   9.004  0.6183  0.4788  0.0075
  123MPD2    C1 1874   1.515   2.982   9.067 -0.0027  0.5916 -0.0967
  123MPD2    C2 1875   1.599   3.068   9.125  0.8585  0.1769 -0.1244
  123MPD2    C3 1876   1.733   3.045   9.136 -0.9602  0.4799  0.2339
  123MPD2    C4 1877   1.785   2.925   9.088  0.2153 -0.1342 -0.0099
  123MPD2    C5 1878   1.700   2.844   9.014  0.5884 -0.5345  0.0759
  123MPD2     H 1879   1.563   3.159   9.170 -0.6165  0.1493 -1.2263
  123MPD2    H1 1880   1.891   2.904   9.095  0.4135  0.9178  0.1857
  123MPD2    H2 1881   1.505   2.802   8.947 -0.6135  0.7983  0.8664
  123MPD2    H3 1882   1.745   2.761   8.961 -0.5241 -2.0055  1.4355
  123MPD2     N 1883   1.805   3.140   9.213 -0.6671 -0.5326 -0.4153
  123MPD2    H5 1884   1.767   3.229   9.241  1.0361 -1.0046  3.4353
  123MPD2    N1 1885   1.370   3.004   9.062  0.4113  0.2756  0.1483
  123MPD2    H7 1886   1.318   2.933   9.012 -0.7437  1.8755 -0.9176
  124TCq2    C1 1887   1.935   3.116   9.258 -0.4798  0.4353 -0.3414
  124TCq2    O2 1888   2.011   3.025   9.250 -0.1559 -0.0142 -0.0370
  124TCq2    C2 1889   1.994   3.245   9.282  0.9480  0.3331 -0.2203
  124TCq2    C3 1890   1.949   3.358   9.223  1.1231 -0.6428 -0.3655
  124TCq2    C4 1891   2.006   3.479   9.257 -0.1330 -0.5570 -0.4688
  124TCq2    C5 1892   2.105   3.483   9.359 -0.7942 -0.4038 -0.3652
  124TCq2    C6 1893   2.142   3.365   9.412  0.5541 -0.0827 -0.4819
  124TCq2    C7 1894   2.092   3.242   9.376 -0.1655 -0.1032 -1.3667
  124TCq2    C8 1895   2.248   3.354   9.514 -0.3985 -0.1593  0.2873
  124TCq2    O4 1896   2.230   3.264   9.595  0.7958 -0.1710 -0.1250
  124TCq2    C9 1897   1.962   3.602   9.209  0.2365  0.0915 -0.5397
  124TCq2    O5 1898   1.924   3.609   9.087 -0.5344 -0.1523 -0.1560
  124TCq2    O6 1899   1.962   3.690   9.306  0.2898 -0.0387  0.2824
  124TCq2    H2 1900   1.870   3.361   9.149  0.3261 -2.3816  0.4313
  124TCq2    H3 1901   2.155   3.575   9.388  0.6509 -1.8949  1.9048
  124TCq2    H4 1902   2.136   3.149   9.411 -2.4915 -0.6944 -0.0240
  125TMC2    C1 1903   2.014   0.663   9.602 -0.0278 -0.1544 -0.1183
  125TMC2    C2 1904   1.910   0.723   9.540 -0.0614  0.4571 -0.9684
  125TMC2    C3 1905   1.923   0.758   9.408  0.5442 -0.1411 -0.4055
  125TMC2    C4 1906   2.136   0.642   9.542 -0.3579 -0.1675  0.1989
  125TMC2    C5 1907   2.146   0.689   9.417  0.0722  0.0751 -0.5609
  125TMC2    C6 1908   2.045   0.748   9.349 -0.3765  0.0136  0.3363
  125TMC2     C 1909   2.014   0.660   9.752  0.9542 -0.2354 -0.1876
  125TMC2     O 1910   2.115   0.614   9.802 -0.7146  0.1053  0.0549
  125TMC2     H 1911   1.817   0.741   9.593 -0.4055  0.4653 -1.5680
  125TMC2    H1 1912   2.214   0.583   9.588  0.4253  0.3444 -0.4859
  125TMC2    H2 1913   2.065   0.785   9.249  0.3453  0.5669  0.6889
  125TMC2    C7 1914   2.264   0.652   9.336  0.1413  0.0696 -0.1188
  125TMC2    C8 1915   1.828   0.861   9.362 -0.1727  0.5496 -0.0730
  125TMC2    O1 1916   2.253   0.635   9.217 -0.2178  0.4972  0.3351
  125TMC2    O2 1917   1.846   0.966   9.301 -0.1478  0.6081  0.1920
  125TMC2    O5 1918   1.702   0.827   9.406  0.4822  0.3256 -0.1360
  125TMC2    H5 1919   1.696   0.735   9.438 -0.3510  0.9628  1.4889
  126MPD1     C 1920   1.742   0.614  10.187  0.7036 -0.2945  0.4711
  126MPD1    C1 1921   1.695   0.721  10.117 -0.4185  0.2548  0.3186
  126MPD1    C2 1922   1.746   0.750   9.994 -0.2639  0.1566 -0.3740
  126MPD1    C3 1923   1.859   0.687   9.939 -0.2422 -0.3646  0.4463
  126MPD1    C4 1924   1.900   0.575  10.012 -0.3043  0.0354  0.1587
  126MPD1    C5 1925   1.843   0.543  10.137 -0.8497 -0.7143  0.6234
  126MPD1     H 1926   1.716   0.831   9.929  1.8631  0.1318 -1.3973
  126MPD1    H1 1927   1.973   0.508   9.969  1.0055  1.5718  0.0191
  126MPD1    H2 1928   1.707   0.596  10.288  1.6221  0.7130  0.9792
  126MPD1    H3 1929   1.878   0.463  10.201 -2.4720 -2.6774 -0.9305
  126MPD1     N 1930   1.896   0.708   9.806  0.0795  0.1470 -0.4593
  126MPD1    H5 1931   1.851   0.784   9.757 -0.7611 -0.9300 -1.3480
  126MPD1    N1 1932   1.584   0.780  10.166 -0.0003  0.8096  0.1345
  126MPD1    H6 1933   1.582   0.880  10.146 -0.9452  1.1445  1.8665
  126MPD1    H7 1934   1.575   0.768  10.267  1.1518  0.6991  0.2214
  127MPD2     C 1935   3.701   4.366   9.252 -0.6304  0.2639  0.0631
  127MPD2    C1 1936   3.637   4.345   9.374 -0.3230  0.1425 -0.2731
  127MPD2    C2 1937   3.704   4.403   9.487 -0.0415  0.2291 -0.2537
  127MPD2    C3 1938   3.820   4.478   9.480  0.0225  0.3917 -0.3172
  127MPD2    C4 1939   3.881   4.490   9.356 -0.6490  0.1408  0.4569
  127MPD2    C5 1940   3.818   4.436   9.246 -0.1188  0.4849  0.3724
  127MPD2     H 1941   3.672   4.372   9.586 -0.5334 -1.1795 -0.8481
  127MPD2    H1 1942   3.973   4.545   9.339 -0.1630 -0.0332  2.4902
  127MPD2    H2 1943   3.666   4.322   9.160 -2.2651 -1.9002  1.7431
  127MPD2    H3 1944   3.862   4.439   9.147  0.5372 -0.4855  0.6353
  127MPD2     N 1945   3.876   4.534   9.598 -0.0546  0.5252  0.1626
  127MPD2    H5 1946   3.828   4.522   9.687 -3.0812 -2.3974 -1.8634
  127MPD2    N1 1947   3.531   4.242   9.394 -0.4334  0.1548  0.1146
  127MPD2    H7 1948   3.496   4.225   9.487  0.9122 -0.3908  0.5245
  128TCq2    C1 1949   3.465   4.176   9.291 -0.5371 -0.3284 -0.2932
  128TCq2    O2 1950   3.463   4.218   9.176 -0.5681  0.1139  0.1387
  128TCq2    C2 1951   3.371   4.071   9.336 -0.2764 -0.3303 -0.5724
  128TCq2    C3 1952   3.388   4.014   9.462  0.2019 -0.4514 -0.8235
  128TCq2    C4 1953   3.323   3.893   9.491  0.8143 -0.5235 -0.8025
  128TCq2    C5 1954   3.237   3.840   9.401 -0.1143  0.1289 -0.2563
  128TCq2    C6 1955   3.221   3.906   9.277  0.1094 -0.2176 -0.0157
  128TCq2    C7 1956   3.289   4.019   9.239  0.2441 -0.0891 -0.3603
  128TCq2    C8 1957   3.118   3.874   9.184  0.2237 -0.4829  0.6649
  128TCq2    O4 1958   3.126   3.920   9.071 -0.1520 -0.3284 -0.0761
  128TCq2    C9 1959   3.329   3.830   9.622  0.1879  0.4524 -0.6910
  128TCq2    O5 1960   3.257   3.728   9.641  0.9080  0.4412 -0.1289
  128TCq2    O6 1961   3.417   3.874   9.702  0.1106 -0.3086 -0.1809
  128TCq2    H2 1962   3.466   4.047   9.530  0.8549 -0.6137 -1.4886
  128TCq2    H3 1963   3.191   3.744   9.419  1.3978 -0.4904  0.2700
  128TCq2    H4 1964   3.266   4.074   9.149  2.4346  1.2845 -0.0832
  129MPD2     C 1965   1.583   0.916   1.585 -0.1030  0.3981  0.0303
  129MPD2    C1 1966   1.578   0.830   1.482 -0.2077  0.1034 -0.1742
  129MPD2    C2 1967   1.538   0.882   1.358  0.5045  0.8604 -0.2976
  129MPD2    C3 1968   1.510   1.016   1.340  0.2235 -0.0232  0.3249
  129MPD2    C4 1969   1.516   1.102   1.447  0.2837  0.2133 -0.2670
  129MPD2    C5 1970   1.545   1.047   1.567 -0.3899 -0.4869  0.6064
  129MPD2     H 1971   1.521   0.807   1.282  0.9089 -1.6713  2.1071
  129MPD2    H1 1972   1.503   1.209   1.432  3.1182  0.6242  0.0945
  129MPD2    H2 1973   1.616   0.894   1.685 -1.5935  1.2251  0.6994
  129MPD2    H3 1974   1.537   1.107   1.658 -0.1663 -0.4663  0.6108
  129MPD2     N 1975   1.490   1.066   1.209  0.5786  0.1058  0.1068
  129MPD2    H5 1976   1.522   1.005   1.134  0.9736  0.7641 -0.2573
  129MPD2    N1 1977   1.603   0.693   1.501 -0.3542  0.2006  0.3234
  129MPD2    H7 1978   1.572   0.625   1.432 -0.7448 -1.7458  2.4159
  130TCq2    C1 1979   1.679   0.648   1.610 -0.3445  0.1187 -0.2768
  130TCq2    O2 1980   1.754   0.718   1.680  0.0193 -0.8008  0.2974
  130TCq2    C2 1981   1.688   0.505   1.611 -0.1971 -0.3549 -0.7955
  130TCq2    C3 1982   1.815   0.452   1.633  0.2384 -0.0127 -0.1868
  130TCq2    C4 1983   1.819   0.309   1.638  0.9766  0.5301  0.3281
  130TCq2    C5 1984   1.715   0.230   1.609  0.7102 -0.7252  0.6910
  130TCq2    C6 1985   1.593   0.289   1.578  0.3267  0.0570  1.2184
  130TCq2    C7 1986   1.576   0.424   1.577 -0.4155  0.7615 -0.3387
  130TCq2    C8 1987   1.469   0.212   1.600  0.5056 -0.5669  0.1290
  130TCq2    O4 1988   1.360   0.268   1.585  0.1645 -0.2915 -0.3370
  130TCq2    C9 1989   1.944   0.246   1.688 -0.4456  0.1211 -0.3877
  130TCq2    O5 1990   2.029   0.322   1.738 -0.2895  0.6712  0.1463
  130TCq2    O6 1991   1.937   0.121   1.705 -0.1874  0.5855 -0.8333
  130TCq2    H2 1992   1.903   0.511   1.658  0.1394  1.3611 -3.1066
  130TCq2    H3 1993   1.730   0.123   1.615 -3.0897 -1.2788  0.0439
  130TCq2    H4 1994   1.478   0.467   1.558 -0.8560 -0.8528 -1.6799
  131MPD2     C 1995   0.932   3.919   9.020  0.6905  0.2916  0.2373
  131MPD2    C1 1996   1.057   3.872   9.063 -0.0566  0.5744  0.3750
  131MPD2    C2 1997   1.089   3.736   9.058  0.4996 -0.3208  0.1473
  131MPD2    C3 1998   0.992   3.646   9.020  0.5981 -0.3331  0.4091
  131MPD2    C4 1999   0.875   3.695   8.964  0.8053  0.4098 -0.7143
  131MPD2    C5 2000   0.840   3.825   8.972  1.0173  0.4222  0.3326
  131MPD2     H 2001   1.184   3.698   9.092  0.2913 -2.1503 -1.3390
  131MPD2    H1 2002   0.794   3.625   8.946 -0.1595  1.3077  0.1467
  131MPD2    H2 2003   0.909   4.024   9.033  0.9674  0.4883 -0.8795
  131MPD2    H3 2004   0.741   3.852   8.938  1.6319  0.3641 -1.4742
  131MPD2     N 2005   1.015   3.509   9.042  0.1396  0.7305 -0.0435
  131MPD2    H5 2006   1.105   3.497   9.086 -1.2107 -2.1678  1.9561
  131MPD2    N1 2007   1.142   3.966   9.122  0.0355 -0.2265 -0.4409
  131MPD2    H7 2008   1.108   4.060   9.138 -1.0742 -0.9814  1.5365
  132TCq2    C1 2009   1.643   4.261   9.197  0.1562 -0.5513  0.1439
  132TCq2    O2 2010   1.687   4.215   9.096 -1.0543  0.6880 -0.0166
  132TCq2    C2 2011   1.510   4.215   9.231 -0.4385 -0.2224 -0.2691
  132TCq2    C3 2012   1.432   4.283   9.318 -0.0408 -0.5771  0.2352
  132TCq2    C4 2013   1.303   4.250   9.341  0.1473 -0.0481 -0.1697
  132TCq2    C5 2014   1.244   4.141   9.277 -0.6447  0.0855 -0.4762
  132TCq2    C6 2015   1.334   4.065   9.203 -0.3275  0.6056  0.6651
  132TCq2    C7 2016   1.464   4.103   9.175  0.0343  0.7298  0.8041
  132TCq2    C8 2017   1.278   3.954   9.131 -0.1363 -0.4305 -0.2521
  132TCq2    O4 2018   1.357   3.873   9.074 -0.0379  0.5673 -0.0070
  132TCq2    C9 2019   1.229   4.341   9.414 -0.8820 -0.2548 -0.3604
  132TCq2    O5 2020   1.132   4.298   9.476 -0.0238 -0.6229 -0.5013
  132TCq2    O6 2021   1.252   4.462   9.384 -0.3164 -0.3340  0.2626
  132TCq2    H2 2022   1.471   4.374   9.362  0.8783 -0.6807 -0.3561
  132TCq2    H3 2023   1.144   4.113   9.307 -0.9615  1.5997 -0.0791
  132TCq2    H4 2024   1.515   4.048   9.096  2.1186  2.3002  1.0629
  133MPD2     C 2025   1.107   0.661   9.079  0.0712 -0.5097  0.1840
  133MPD2    C1 2026   0.975   0.691   9.062 -0.3462 -0.6270  0.3423
  133MPD2    C2 2027   0.886   0.588   9.063 -0.1945 -0.0534  1.0266
  133MPD2    C3 2028   0.927   0.458   9.078  0.1573  0.7083 -0.0994
  133MPD2    C4 2029   1.065   0.428   9.097 -0.6392  0.3289  0.4137
  133MPD2    C5 2030   1.151   0.535   9.101 -0.8790  0.1948 -0.4952
  133MPD2     H 2031   0.780   0.606   9.050 -0.1339  0.3356  1.0786
  133MPD2    H1 2032   1.097   0.326   9.115 -1.3405  0.0163 -0.1432
  133MPD2    H2 2033   1.185   0.736   9.080  3.1479 -3.6837 -0.1760
  133MPD2    H3 2034   1.253   0.520   9.132 -0.5459  1.3703 -1.0324
  133MPD2     N 2035   0.844   0.340   9.091 -0.6354 -0.5467  0.0985
  133MPD2    H5 2036   0.882   0.246   9.097 -2.3921 -1.4227 -2.4725
  133MPD2    N1 2037   0.933   0.824   9.056  0.3738 -0.0211  0.1919
  133MPD2    H7 2038   1.006   0.895   9.055 -0.7226  1.1108  0.8904
  134TCq2    C1 2039   0.808   0.873   9.026  0.7581  0.1524  0.2504
  134TCq2    O2 2040   0.701   0.813   9.018  0.3381 -0.1687 -0.0229
  134TCq2    C2 2041   0.803   1.017   9.027 -0.0438 -0.9743  0.1795
  134TCq2    C3 2042   0.918   1.099   9.040  0.0067  0.5167  0.4168
  134TCq2    C4 2043   0.910   1.235   9.039  0.0207  0.0418  0.3376
  134TCq2    C5 2044   0.783   1.291   9.033 -0.2203  0.2775 -0.1341
  134TCq2    C6 2045   0.665   1.211   9.033 -0.1362  1.1104  0.5071
  134TCq2    C7 2046   0.679   1.079   9.032  0.3615 -0.2453  0.0699
  134TCq2    C8 2047   0.526   1.262   9.037  0.2983  0.4022 -0.3179
  134TCq2    O4 2048   0.434   1.181   9.034 -0.5859 -0.5850 -0.1078
  134TCq2    C9 2049   1.032   1.311   9.039 -0.2469 -0.5231 -0.4782
  134TCq2    O5 2050   1.016   1.430   8.995 -0.5314  0.3195 -0.2477
  134TCq2    O6 2051   1.141   1.258   9.053  0.7346 -0.4303 -0.3566
  134TCq2    H2 2052   1.016   1.057   9.021 -0.5255  0.6482 -2.4755
  134TCq2    H3 2053   0.774   1.399   9.028 -1.0716  0.1743 -0.8807
  134TCq2    H4 2054   0.591   1.016   9.028 -0.0996  0.4868 -1.3206
  135MPD2     C 2055   1.809   1.154   9.893  0.3440  0.7529 -0.2129
  135MPD2    C1 2056   1.921   1.073   9.909  0.8792  0.3224 -0.6997
  135MPD2    C2 2057   2.008   1.048   9.810  0.0437 -0.8083 -0.1421
  135MPD2    C3 2058   1.978   1.115   9.690  0.9332  0.4166  0.0599
  135MPD2    C4 2059   1.864   1.187   9.671 -0.9062  0.1804 -0.0369
  135MPD2    C5 2060   1.779   1.212   9.772 -0.3455 -0.4932  0.2967
  135MPD2     H 2061   2.088   0.977   9.827 -0.3031 -0.9380  0.9541
  135MPD2    H1 2062   1.848   1.234   9.575  0.3791 -1.6386 -1.1516
  135MPD2    H2 2063   1.742   1.179   9.975  0.8635 -0.3295  0.5485
  135MPD2    H3 2064   1.693   1.278   9.764 -0.3311 -0.5443 -0.2563
  135MPD2     N 2065   2.057   1.102   9.573  0.0905 -0.4297 -0.3032
  135MPD2    H5 2066   2.024   1.151   9.491 -0.0628  0.1909  0.1271
  135MPD2    N1 2067   1.956   1.005  10.030 -0.5317  0.1322 -0.3063
  135MPD2    H7 2068   2.032   0.940  10.011 -1.6742 -0.8098 -1.6847
  136TCq2    C1 2069   1.894   1.009  10.148 -0.1994  0.5036  0.0265
  136TCq2    O2 2070   1.789   1.070  10.176  0.7615 -0.0123  0.1525
  136TCq2    C2 2071   1.965   0.946  10.255 -0.5450  0.1953  0.0953
  136TCq2    C3 2072   1.900   0.933  10.379  0.2565 -0.3055  0.5156
  136TCq2    C4 2073   1.921   0.822  10.457  0.0558  0.0487  0.4174
  136TCq2    C5 2074   2.010   0.727  10.427  0.0221 -0.1248  0.3473
  136TCq2    C6 2075   2.074   0.741  10.305  0.2588  0.0162 -0.0822
  136TCq2    C7 2076   2.061   0.854  10.223  0.1844 -0.2186 -0.4163
  136TCq2    C8 2077   2.199   0.667  10.291  0.5548  0.7802  0.4395
  136TCq2    O4 2078   2.295   0.723  10.232 -0.0935 -0.2043  0.2019
  136TCq2    C9 2079   1.843   0.830  10.580  0.4981  0.3576 -0.5864
  136TCq2    O5 2080   1.729   0.882  10.577  0.1596  0.3656 -0.2411
  136TCq2    O6 2081   1.860   0.730  10.656 -0.2749  0.0631 -0.3595
  136TCq2    H2 2082   1.833   1.012  10.412  0.3332  0.0259 -0.1211
  136TCq2    H3 2083   2.018   0.642  10.494  2.0063 -1.2953 -1.3317
  136TCq2    H4 2084   2.130   0.866  10.141 -0.7505 -1.6694 -1.4053
  137MPD2     C 2085   3.496   0.020  10.076  0.6754  0.0014 -0.5085
  137MPD2    C1 2086   3.358   0.015  10.080 -0.6642  0.0385 -0.3913
  137MPD2    C2 2087   3.299   4.708  10.198  0.5487  0.3668  0.6716
  137MPD2    C3 2088   3.379   4.657  10.301  0.3727 -0.2674 -0.1967
  137MPD2    C4 2089   3.517   4.650  10.291  0.4262 -0.0016  0.0208
  137MPD2    C5 2090   3.574   4.693  10.175 -0.4602  0.0739  0.2934
  137MPD2     H 2091   3.195   0.015  10.210  0.4535  0.6251 -0.7433
  137MPD2    H1 2092   3.587   4.609  10.364 -0.1159 -0.5744  0.2167
  137MPD2    H2 2093   3.550   0.055   9.989 -0.5675  0.3981 -1.1261
  137MPD2    H3 2094   3.682   4.692  10.165 -0.4574 -1.0594  0.4121
  137MPD2     N 2095   3.319   4.611  10.424 -0.3346 -0.3045 -0.1703
  137MPD2    H5 2096   3.219   4.626  10.435 -0.7019 -1.2128 -2.2950
  137MPD2    N1 2097   3.291   0.083   9.974  0.8915 -0.3651 -0.0243
  137MPD2    H7 2098   3.347   0.111   9.894  0.0929  0.2448 -0.3716
  138TCq2    C1 2099   3.156   0.108   9.963 -0.6697 -0.4304 -0.0351
  138TCq2    O2 2100   3.059   0.072  10.029  0.5812  0.1248 -0.0878
  138TCq2    C2 2101   3.120   0.157   9.832  0.3368  0.5285 -0.2609
  138TCq2    C3 2102   3.203   0.162   9.728 -0.2751  0.2990 -0.0176
  138TCq2    C4 2103   3.168   0.225   9.610  0.5568 -0.5719  0.6364
  138TCq2    C5 2104   3.041   0.273   9.594 -0.2158  0.1242 -0.4654
  138TCq2    C6 2105   2.965   0.268   9.703 -0.4627 -0.9447  0.2473
  138TCq2    C7 2106   2.990   0.201   9.821 -0.0005  0.2496  0.2539
  138TCq2    C8 2107   2.830   0.313   9.689 -0.8125  0.1860  0.1538
  138TCq2    O4 2108   2.775   0.287   9.587 -0.1685 -0.0464  0.3456
  138TCq2    C9 2109   3.274   0.234   9.506 -0.7261 -0.1555 -0.3564
  138TCq2    O5 2110   3.392   0.229   9.550 -0.4598 -0.2398  0.2118
  138TCq2    O6 2111   3.233   0.281   9.396  1.2436 -0.0470  0.1010
  138TCq2    H2 2112   3.311   0.158   9.742 -0.8273 -1.8676  3.7102
  138TCq2    H3 2113   3.012   0.333   9.507 -1.2905  0.4505  0.1221
  138TCq2    H4 2114   2.914   0.195   9.898  0.2287  1.1962  0.5505
  139TMC2    C1 2115   3.507   3.372  13.093  0.4610 -0.1701 -0.0598
  139TMC2    C2 2116   3.479   3.471  13.000 -0.1714  0.0308 -0.2980
  139TMC2    C3 2117   3.413   3.583  13.046 -0.5031 -0.5299  0.0251
  139TMC2    C4 2118   3.469   3.384  13.226 -0.0166 -0.8186  0.0847
  139TMC2    C5 2119   3.400   3.499  13.267 -0.0807 -0.5393 -0.0890
  139TMC2    C6 2120   3.372   3.590  13.176 -0.1389 -0.5149  0.0274
  139TMC2     C 2121   3.559   3.250  13.030  0.0882 -0.4409  0.1167
  139TMC2     O 2122   3.553   3.240  12.913 -0.7951 -0.0383  0.2557
  139TMC2     H 2123   3.515   3.464  12.898  0.9638 -1.1327  0.1819
  139TMC2    H1 2124   3.488   3.308  13.301  1.9068 -0.0892  0.3625
  139TMC2    H2 2125   3.320   3.681  13.206  1.5393  0.9665 -1.5464
  139TMC2    C7 2126   3.378   3.533  13.411 -0.1938 -0.9005 -0.4476
  139TMC2    C8 2127   3.440   3.706  12.973  0.4357 -0.7128 -0.7151
  139TMC2    O1 2128   3.452   3.472  13.491 -0.0025  0.3056 -0.0891
  139TMC2    O2 2129   3.483   3.805  13.031 -0.2152  0.3768  0.3442
  139TMC2    O5 2130   3.452   3.684  12.842  0.4345  0.4515  0.5763
  139TMC2    H5 2131   3.385   3.622  12.806 -0.5129  2.3396 -0.9728
  140MPD2     C 2132   3.578   2.929  13.202 -0.4464  0.5130 -0.3203
  140MPD2    C1 2133   3.566   3.008  13.091 -0.5847  0.4897 -1.0511
  140MPD2    C2 2134   3.574   2.949  12.963 -0.1009 -0.2516  0.4656
  140MPD2    C3 2135   3.586   2.808  12.946  0.1786  0.5464  0.4240
  140MPD2    C4 2136   3.582   2.730  13.065  0.5332  0.1057  0.2785
  140MPD2    C5 2137   3.574   2.785  13.190 -0.1895  0.3062 -0.2709
  140MPD2     H 2138   3.581   3.014  12.877 -0.6181 -1.0198 -0.1521
  140MPD2    H1 2139   3.584   2.622  13.055 -1.8362  0.0578  0.3395
  140MPD2    H2 2140   3.579   2.964  13.304 -0.9463 -0.4769  0.0239
  140MPD2    H3 2141   3.580   2.721  13.277 -0.8012  1.9525  0.9733
  140MPD2     N 2142   3.580   2.758  12.816 -0.4038  0.0455  0.7365
  140MPD2    H5 2143   3.555   2.819  12.739  2.5635 -0.1791 -0.4129
  140MPD2    N1 2144   3.568   3.149  13.128  0.0811  0.1510  0.1428
  140MPD2    H7 2145   3.578   3.161  13.228 -2.6171 -1.8180  0.6386
  141TCq2    C1 2146   3.657   0.001  14.968  0.4909 -0.2569  0.1971
  141TCq2    O2 2147   3.640   0.042  14.854 -0.7516 -0.1860 -0.3969
  141TCq2    C2 2148   3.612   0.091  15.071  0.6677 -0.0903  0.1425
  141TCq2    C3 2149   3.654   0.074  15.199 -0.2460  0.2133  0.0129
  141TCq2    C4 2150   3.618   0.174  15.291 -0.0143 -0.0056  0.1172
  141TCq2    C5 2151   3.544   0.281  15.246 -0.9273  0.1283  0.2896
  141TCq2    C6 2152   3.495   0.286  15.119  0.4698 -0.0741 -0.1428
  141TCq2    C7 2153   3.528   0.193  15.027  0.5607  0.4707 -0.1396
  141TCq2    C8 2154   3.485   0.420  15.070 -0.0849 -0.2052  0.0368
  141TCq2    O4 2155   3.437   0.501  15.146 -0.4280  0.1280  0.2982
  141TCq2    C9 2156   3.658   0.161  15.431  0.7807  0.6820  0.5119
  141TCq2    O5 2157   3.650   0.268  15.496 -0.1454  0.5142  0.7508
  141TCq2    O6 2158   3.708   0.053  15.469 -0.7195  0.1660  0.3008
  141TCq2    H2 2159   3.716   4.719  15.241  0.1073  0.0965 -0.7086
  141TCq2    H3 2160   3.521   0.355  15.321 -0.6656 -0.4972  0.9858
  141TCq2    H4 2161   3.492   0.192  14.925  0.8268 -0.6486 -0.2318
  142MPD2     C 2162   1.795   2.783  10.385  0.1031 -0.0206 -0.6673
  142MPD2    C1 2163   1.832   2.848  10.271 -0.1094  0.4936  0.3148
  142MPD2    C2 2164   1.970   2.886  10.253 -0.0160  0.0763 -0.3260
  142MPD2    C3 2165   2.065   2.854  10.347 -0.0907  0.2288 -0.3925
  142MPD2    C4 2166   2.026   2.800  10.467 -0.0159 -1.1606  0.1555
  142MPD2    C5 2167   1.892   2.768  10.487 -0.0832 -0.5480 -0.2842
  142MPD2     H 2168   2.008   2.944  10.170  0.4878  1.8603  1.1478
  142MPD2    H1 2169   2.101   2.781  10.543  0.0918  1.7067  0.7637
  142MPD2    H2 2170   1.692   2.760  10.409  0.6154 -1.4811  0.1700
  142MPD2    H3 2171   1.863   2.717  10.579 -2.8491 -0.2449 -0.9824
  142MPD2     N 2172   2.199   2.892  10.335 -0.8482  0.8654 -0.3777
  142MPD2    H5 2173   2.254   2.919  10.416 -2.2747  0.9847  0.5525
  142MPD2    N1 2174   1.729   2.891  10.180  0.3993 -0.1846 -0.0825
  142MPD2    H7 2175   1.648   2.831  10.182  2.2080 -2.6253 -0.1124
  143TCq2    C1 2176   2.263   2.888  10.211  0.0818 -1.0770  0.5833
  143TCq2    O2 2177   2.211   2.853  10.102  0.0082 -0.1843  0.2006
  143TCq2    C2 2178   2.390   2.954  10.202  0.4198 -0.4821 -0.3257
  143TCq2    C3 2179   2.452   3.011  10.308  0.0630 -0.6099 -0.2882
  143TCq2    C4 2180   2.551   3.103  10.287  0.3098 -0.4199 -0.0769
  143TCq2    C5 2181   2.574   3.161  10.161 -0.2160 -0.6818  0.3831
  143TCq2    C6 2182   2.509   3.105  10.051 -0.1384  0.0019 -1.2305
  143TCq2    C7 2183   2.421   3.002  10.076  0.2563 -0.1720  0.2722
  143TCq2    C8 2184   2.505   3.168   9.921 -0.9012  0.2149 -0.2823
  143TCq2    O4 2185   2.421   3.129   9.840  0.0625  0.1644  0.2652
  143TCq2    C9 2186   2.632   3.159  10.399 -0.0238 -0.6399  0.2407
  143TCq2    O5 2187   2.608   3.114  10.516 -0.2749 -0.5062  0.0197
  143TCq2    O6 2188   2.739   3.216  10.371 -0.6043 -0.0113 -0.0269
  143TCq2    H2 2189   2.440   2.965  10.405  0.6702  1.8730  0.9543
  143TCq2    H3 2190   2.639   3.248  10.158  0.0858 -0.8867  1.0967
  143TCq2    H4 2191   2.369   2.967   9.987 -0.8863 -0.5757  1.0996
  144MPD2     C 2192   3.556   2.518   0.487 -0.6287  0.8201 -0.2501
  144MPD2    C1 2193   3.640   2.482   0.387  0.0479  0.1712 -0.0289
  144MPD2    C2 2194   3.771   2.472   0.418  0.2979  0.5363 -0.2546
  144MPD2    C3 2195   3.822   2.493   0.547  0.3460  1.0025  0.9943
  144MPD2    C4 2196   3.736   2.532   0.641  0.6519  0.5098  0.3165
  144MPD2    C5 2197   3.607   2.545   0.610 -0.3945  0.0676 -0.6440
  144MPD2     H 2198   3.833   2.452   0.331  0.3504 -0.5485  0.0333
  144MPD2    H1 2199   3.768   2.546   0.744 -0.6323  0.0611  0.7756
  144MPD2    H2 2200   3.450   2.533   0.473 -0.8809 -1.5621 -0.8364
  144MPD2    H3 2201   3.539   2.558   0.694  0.8521 -0.9303  0.5388
  144MPD2     N 2202   3.957   2.470   0.583  0.2237 -0.4418 -0.0852
  144MPD2    H5 2203   3.975   2.457   0.682 -0.3866  0.3760  0.1371
  144MPD2    N1 2204   3.604   2.454   0.249 -0.2201 -0.5404  0.0396
  144MPD2    H7 2205   3.673   2.438   0.176 -0.4667 -1.7614  0.0728
  145TCq2    C1 2206   4.059   2.454   0.496 -0.3534  0.0670 -0.2028
  145TCq2    O2 2207   4.061   2.479   0.374  0.3825  0.0461  0.6932
  145TCq2    C2 2208   4.173   2.372   0.551 -0.6287  0.1097 -0.3970
  145TCq2    C3 2209   4.246   2.300   0.461  0.0921  0.1855  0.4382
  145TCq2    C4 2210   4.348   2.228   0.519  0.3614  0.2337  0.0978
  145TCq2    C5 2211   4.385   2.239   0.650 -0.0757  0.0820  0.5578
  145TCq2    C6 2212   4.318   2.323   0.728  0.0865  0.2218 -0.5686
  145TCq2    C7 2213   4.200   2.389   0.684 -0.1257  0.0433  0.0791
  145TCq2    C8 2214   4.333   2.298   0.869  0.5816 -0.3301  0.0645
  145TCq2    O4 2215   4.432   2.236   0.904 -0.4514  0.4635 -0.3096
  145TCq2    C9 2216   4.405   2.136   0.430  0.5270  0.3988 -0.1713
  145TCq2    O5 2217   4.356   2.134   0.310  0.4946  0.0333  0.2141
  145TCq2    O6 2218   4.497   2.057   0.480  0.5502 -0.3801  0.1851
  145TCq2    H2 2219   4.236   2.310   0.353  0.6209 -2.0750  0.1897
  145TCq2    H3 2220   4.455   2.165   0.687 -0.8162 -2.4870 -3.0553
  145TCq2    H4 2221   4.149   2.450   0.758  0.0476 -0.7484  0.8567
  146TMC2    C1 2222   0.284   1.570  12.767 -0.4684 -0.6798  0.2720
  146TMC2    C2 2223   0.188   1.658  12.728  0.1664 -0.4418 -0.0563
  146TMC2    C3 2224   0.143   1.649  12.604 -0.3738 -0.2282 -0.1791
  146TMC2    C4 2225   0.319   1.463  12.688  0.4623  0.3883  0.2907
  146TMC2    C5 2226   0.257   1.452  12.567 -0.2759 -0.0600 -0.8683
  146TMC2    C6 2227   0.173   1.546  12.522 -0.6050 -0.2052  0.3612
  146TMC2     C 2228   0.365   1.600  12.884 -0.1518 -0.1004  0.6528
  146TMC2     O 2229   0.372   1.718  12.924  0.0308  0.1108 -0.3565
  146TMC2     H 2230   0.160   1.742  12.790 -0.4860 -0.6373 -0.0958
  146TMC2    H1 2231   0.395   1.392  12.720  0.1531  0.0433  0.2640
  146TMC2    H2 2232   0.142   1.549  12.418 -1.0741 -1.6059  0.4678
  146TMC2    C7 2233   0.301   1.342  12.479 -0.0828 -0.3015 -0.0421
  146TMC2    C8 2234   0.050   1.753  12.560  0.1211 -0.2711  0.1071
  146TMC2    O1 2235   0.278   1.356  12.362  0.2316 -0.0409 -0.9742
  146TMC2    O2 2236   4.706   1.819  12.638  0.6189  0.6378  0.5380
  146TMC2    O5 2237   0.045   1.760  12.425 -0.0773  0.1107  0.0012
  146TMC2    H5 2238   0.112   1.704  12.382 -0.9347 -0.3884 -0.6845
  147MPD2     C 2239   0.516   0.888  12.377  0.0420 -0.2535  0.1721
  147MPD2    C1 2240   0.516   0.910  12.509  0.1724  0.2943 -0.1934
  147MPD2    C2 2241   0.458   1.024  12.566  0.1004  0.4415  0.2279
  147MPD2    C3 2242   0.401   1.118  12.484 -0.8145  0.1543  0.0926
  147MPD2    C4 2243   0.401   1.097  12.346  0.2563  0.5347  0.0721
  147MPD2    C5 2244   0.461   0.981  12.298 -0.1932  0.0660 -0.1059
  147MPD2     H 2245   0.470   1.041  12.672 -1.3006 -0.2416  0.4911
  147MPD2    H1 2246   0.358   1.165  12.274  1.7657 -0.3592 -1.6831
  147MPD2    H2 2247   0.560   0.803  12.326 -2.7331 -0.8426 -1.2120
  147MPD2    H3 2248   0.459   0.977  12.190 -2.2821 -0.1104 -0.0599
  147MPD2     N 2249   0.345   1.230  12.543 -0.0171  0.0457  0.3485
  147MPD2    H5 2250   0.343   1.232  12.645  1.1584 -0.1601  0.3790
  147MPD2    N1 2251   0.585   0.814  12.589 -0.3635 -0.0746 -0.7137
  147MPD2    H7 2252   0.631   0.738  12.541  0.5397  0.3174 -0.4713
  148MPD2     C 2253   0.881   4.513  10.141  0.9191 -0.3842 -0.4940
  148MPD2    C1 2254   0.954   4.422  10.075 -0.0964  0.4480 -0.5076
  148MPD2    C2 2255   0.896   4.354   9.970 -0.6076 -0.0981 -0.0185
  148MPD2    C3 2256   0.772   4.381   9.922  0.3768 -0.6347  0.9417
  148MPD2    C4 2257   0.708   4.484   9.987 -0.4456  0.2735  0.1509
  148MPD2    C5 2258   0.757   4.541  10.093 -0.3142 -1.1188  0.8275
  148MPD2     H 2259   0.954   4.287   9.909 -0.5485  0.1262 -0.2085
  148MPD2    H1 2260   0.608   4.516   9.958 -0.8643 -0.1455  1.1377
  148MPD2    H2 2261   0.922   4.569  10.224  1.7008 -1.2018 -0.3228
  148MPD2    H3 2262   0.698   4.613  10.150  0.6385 -1.3576  2.1121
  148MPD2     N 2263   0.703   4.312   9.820  0.4768  0.1082  0.4088
  148MPD2    H5 2264   0.604   4.333   9.809  0.7440  1.5424  0.7254
  148MPD2    N1 2265   1.092   4.387  10.108 -0.0645  0.1993 -0.3454
  148MPD2    H7 2266   1.129   4.326  10.036 -0.7064  0.7792 -1.1763
  149TCq2    C1 2267   1.164   4.438  10.211 -0.7310  0.4680  0.4068
  149TCq2    O2 2268   1.133   4.518  10.298 -0.2644 -0.3515 -0.0515
  149TCq2    C2 2269   1.307   4.383  10.219 -0.0676  0.0376  0.3443
  149TCq2    C3 2270   1.374   4.400  10.339 -0.0176  0.2788  0.1047
  149TCq2    C4 2271   1.458   4.305  10.374  0.1495  0.1956 -0.4713
  149TCq2    C5 2272   1.461   4.184  10.310 -0.4788  0.4979  0.3307
  149TCq2    C6 2273   1.407   4.178  10.184 -0.3346  0.7075 -0.0449
  149TCq2    C7 2274   1.333   4.279  10.135 -0.3277 -0.7495 -0.0532
  149TCq2    C8 2275   1.376   4.048  10.117 -0.2242  0.1067 -0.4936
  149TCq2    O4 2276   1.310   4.055  10.012  0.3742  0.4498  0.4385
  149TCq2    C9 2277   1.493   4.292  10.513  0.0776 -0.0793 -0.8417
  149TCq2    O5 2278   1.518   4.178  10.552 -0.3533  0.2893  0.1131
  149TCq2    O6 2279   1.487   4.388  10.590  0.1274 -0.9441  0.3244
  149TCq2    H2 2280   1.355   4.481  10.409 -0.7090  2.1129 -2.2069
  149TCq2    H3 2281   1.516   4.100  10.351  2.1081  2.6914  1.3585
  149TCq2    H4 2282   1.312   4.283  10.029  0.8663 -2.7726 -0.3674
  150MPD2     C 2283   2.475   3.822  12.041 -0.5267 -0.3035 -1.2535
  150MPD2    C1 2284   2.529   3.846  11.921 -0.6137 -0.1600  0.3594
  150MPD2    C2 2285   2.666   3.880  11.913 -0.1060 -0.2051  0.0953
  150MPD2    C3 2286   2.749   3.875  12.026 -0.8772  0.4645 -0.0950
  150MPD2    C4 2287   2.697   3.848  12.149 -0.2735 -0.2911 -0.4637
  150MPD2    C5 2288   2.560   3.824  12.152  0.1433  0.4006 -0.4237
  150MPD2     H 2289   2.713   3.893  11.816  1.6042 -0.6196  0.8634
  150MPD2    H1 2290   2.760   3.839  12.237 -2.4798 -0.3162  1.1080
  150MPD2    H2 2291   2.369   3.809  12.056  0.1328 -1.2436  2.5420
  150MPD2    H3 2292   2.517   3.793  12.247 -0.0842  2.6699  0.2097
  150MPD2     N 2293   2.892   3.889  12.034  0.8293 -0.4992  0.2449
  150MPD2    H5 2294   2.943   3.860  12.117  0.5200  1.7077  1.2063
  150MPD2    N1 2295   2.440   3.837  11.807 -0.5682 -0.6341  0.6673
  150MPD2    H7 2296   2.349   3.798  11.826 -1.1037  0.0755 -0.4342
  151TCq2    C1 2297   2.963   3.935  11.930  0.6969 -0.2216  0.1343
  151TCq2    O2 2298   2.928   3.960  11.816  0.7822  0.8059 -0.0062
  151TCq2    C2 2299   3.104   3.934  11.953 -0.1179  0.4617 -1.0173
  151TCq2    C3 2300   3.174   4.020  11.878  0.1820  0.1195 -0.4994
  151TCq2    C4 2301   3.311   4.035  11.894  0.3954  0.2278 -0.1986
  151TCq2    C5 2302   3.376   3.963  11.988  0.7930 -0.2661  0.7975
  151TCq2    C6 2303   3.302   3.883  12.078 -0.0568 -0.4379 -0.0461
  151TCq2    C7 2304   3.168   3.860  12.050 -0.4509  0.3569  0.2207
  151TCq2    C8 2305   3.373   3.810  12.184  0.1778 -0.0811  0.2369
  151TCq2    O4 2306   3.326   3.703  12.230  0.1213  0.3408  0.0145
  151TCq2    C9 2307   3.393   4.112  11.803  0.3020  0.4650  0.7044
  151TCq2    O5 2308   3.351   4.112  11.683  0.3722  0.0374 -0.6976
  151TCq2    O6 2309   3.513   4.148  11.836  0.2029  0.1142 -0.1281
  151TCq2    H2 2310   3.127   4.085  11.804  0.4702  1.5137  0.5497
  151TCq2    H3 2311   3.483   3.973  12.002  0.9180  1.2403 -1.2133
  151TCq2    H4 2312   3.100   3.793  12.103  0.8048 -2.0589 -1.2675
  152MPD2     C 2313   2.531   3.324  12.747  0.2134 -0.1798 -0.1025
  152MPD2    C1 2314   2.545   3.439  12.675 -0.7908  0.6427 -0.2916
  152MPD2    C2 2315   2.438   3.490  12.610 -0.3351 -0.2742 -0.1588
  152MPD2    C3 2316   2.319   3.419  12.615 -0.0760  0.1069  0.1562
  152MPD2    C4 2317   2.309   3.294  12.675  0.3496  0.3412  0.5772
  152MPD2    C5 2318   2.417   3.248  12.742  0.7312  0.1756 -0.6379
  152MPD2     H 2319   2.432   3.585  12.558 -3.3803  0.5340  1.6791
  152MPD2    H1 2320   2.225   3.225  12.675 -0.5252  1.3986  2.0424
  152MPD2    H2 2321   2.616   3.279  12.798 -0.6082 -1.5480  0.0694
  152MPD2    H3 2322   2.420   3.161  12.806 -0.7203 -0.6957 -1.7569
  152MPD2     N 2323   2.212   3.479  12.551 -0.3238  0.5981 -0.4781
  152MPD2    H5 2324   2.222   3.566  12.500 -1.4057  1.9251  1.5570
  152MPD2    N1 2325   2.678   3.497  12.657  0.6753 -0.4428  0.2369
  152MPD2    H7 2326   2.753   3.451  12.708 -0.6387 -2.1618  0.6071
  153TCq2    C1 2327   2.720   3.600  12.571  0.1799 -0.0163  0.1953
  153TCq2    O2 2328   2.658   3.662  12.490  0.1250  0.1011 -0.4185
  153TCq2    C2 2329   2.864   3.615  12.562  0.2944  0.1636  0.1537
  153TCq2    C3 2330   2.940   3.557  12.652 -0.2113 -0.5370 -0.7856
  153TCq2    C4 2331   3.073   3.583  12.663  0.4788 -0.3606 -0.0475
  153TCq2    C5 2332   3.132   3.664  12.576 -0.3838  0.1935  0.2803
  153TCq2    C6 2333   3.053   3.716  12.475  0.4588 -0.0576 -0.4121
  153TCq2    C7 2334   2.920   3.691  12.466 -0.3260  0.7567  0.1781
  153TCq2    C8 2335   3.094   3.837  12.407 -0.8365 -0.5180  0.1845
  153TCq2    O4 2336   3.016   3.881  12.322  0.1757 -0.6609  0.2991
  153TCq2    C9 2337   3.144   3.523  12.773 -0.3924  0.0634 -0.1238
  153TCq2    O5 2338   3.095   3.417  12.830 -0.0366  1.4836  0.3768
  153TCq2    O6 2339   3.265   3.533  12.751  0.6885 -0.5183  0.4413
  153TCq2    H2 2340   2.907   3.493  12.733 -3.0644  1.4579 -0.3592
  153TCq2    H3 2341   3.235   3.694  12.590 -0.0426 -0.9504  0.2057
  153TCq2    H4 2342   2.868   3.745  12.388 -0.4844  0.7195  0.2580
  154MPD2     C 2343   4.387   4.128   0.702 -0.2318  0.5565 -1.0015
  154MPD2    C1 2344   4.299   4.024   0.742 -0.7188 -0.4600 -0.2289
  154MPD2    C2 2345   4.215   4.044   0.845  0.3241  0.3221 -0.3431
  154MPD2    C3 2346   4.239   4.150   0.932 -0.4067  0.4465  0.3865
  154MPD2    C4 2347   4.334   4.251   0.904  0.3540  0.0808  0.4073
  154MPD2    C5 2348   4.406   4.239   0.785 -0.3438  0.1495 -0.7519
  154MPD2     H 2349   4.151   3.961   0.875  0.1151  0.9433  0.9353
  154MPD2    H1 2350   4.339   4.342   0.961  1.6449  0.8935 -0.9956
  154MPD2    H2 2351   4.444   4.130   0.610  2.7540  2.4472  0.8884
  154MPD2    H3 2352   4.483   4.313   0.766 -0.2787 -0.1561 -1.7042
  154MPD2     N 2353   4.164   4.154   1.054  0.1665 -0.4837  0.1289
  154MPD2    H5 2354   4.105   4.073   1.073 -0.8348  0.7439  2.2029
  154MPD2    N1 2355   4.306   3.906   0.665 -0.5814 -0.8389  0.0017
  154MPD2    H7 2356   4.368   3.905   0.585  0.9570 -0.2690  1.1716
  155TCq2    C1 2357   4.264   3.784   0.714 -0.6127  0.9658  0.2418
  155TCq2    O2 2358   4.221   3.755   0.824  0.2873  0.0291  0.7101
  155TCq2    C2 2359   4.307   3.673   0.636 -0.2784 -0.4697 -0.2102
  155TCq2    C3 2360   4.303   3.545   0.696 -0.1353  0.3424 -0.3718
  155TCq2    C4 2361   4.383   3.449   0.655 -1.0144  0.3749 -0.3332
  155TCq2    C5 2362   4.456   3.470   0.542  0.2846  0.0378 -0.1404
  155TCq2    C6 2363   4.451   3.589   0.480 -0.2559  0.2014 -0.3346
  155TCq2    C7 2364   4.367   3.692   0.515 -0.5667 -0.0881  0.4056
  155TCq2    C8 2365   4.551   3.611   0.378 -0.3302  0.2944 -0.4268
  155TCq2    O4 2366   4.634   3.516   0.369  0.6054 -0.2135 -0.1914
  155TCq2    C9 2367   4.396   3.329   0.731  0.7951 -0.3501 -0.7021
  155TCq2    O5 2368   4.470   3.235   0.682  0.0262 -0.4006  0.3682
  155TCq2    O6 2369   4.347   3.329   0.846 -0.1406 -0.2537  0.2428
  155TCq2    H2 2370   4.246   3.530   0.787 -0.7003 -0.7596 -0.9021
  155TCq2    H3 2371   4.528   3.395   0.512  2.6243  1.6873  1.3197
  155TCq2    H4 2372   4.377   3.787   0.462  0.1768  0.0914  0.8509
  156MPD2     C 2373   2.202   1.142  11.441  0.3320 -0.0533  0.0508
  156MPD2    C1 2374   2.224   1.279  11.440  0.3883 -0.4864 -0.0009
  156MPD2    C2 2375   2.332   1.339  11.500 -0.3459 -1.1096  0.1128
  156MPD2    C3 2376   2.413   1.260  11.576 -0.1887 -0.5455 -0.1260
  156MPD2    C4 2377   2.402   1.124  11.577 -0.1472  0.8199  0.4577
  156MPD2    C5 2378   2.293   1.061  11.512  0.3815  0.0332  0.1488
  156MPD2     H 2379   2.351   1.446  11.497  1.8176 -1.5393 -2.0092
  156MPD2    H1 2380   2.465   1.061  11.639  0.9180 -0.4134 -1.8796
  156MPD2    H2 2381   2.117   1.100  11.388 -0.5479  0.4127  1.0859
  156MPD2    H3 2382   2.286   0.953  11.511 -1.6105  0.1678 -1.1157
  156MPD2     N 2383   2.516   1.331  11.641  0.5704  0.3955 -0.0591
  156MPD2    H5 2384   2.517   1.430  11.622 -0.3277  0.5584  0.7856
  156MPD2    N1 2385   2.129   1.351  11.365 -0.1506 -0.2317  0.0237
  156MPD2    H7 2386   2.072   1.294  11.304 -0.7413  0.9399 -0.5257
  157TCq2    C1 2387   2.109   1.488  11.376  0.1241 -0.3926  0.2454
  157TCq2    O2 2388   2.167   1.570  11.451  0.6941  0.1513 -0.0401
  157TCq2    C2 2389   1.998   1.533  11.294 -0.0509  0.4682 -0.3163
  157TCq2    C3 2390   1.970   1.473  11.172 -0.2766 -0.0062  0.1720
  157TCq2    C4 2391   1.938   1.552  11.062 -0.1595 -0.1294 -0.5286
  157TCq2    C5 2392   1.931   1.692  11.077 -0.2498  0.0894 -0.2026
  157TCq2    C6 2393   1.949   1.740  11.204  0.0026  1.0599 -0.5870
  157TCq2    C7 2394   1.964   1.664  11.318  0.2117  0.3619  0.3658
  157TCq2    C8 2395   1.985   1.883  11.217 -0.2541 -1.0416 -0.3666
  157TCq2    O4 2396   2.031   1.945  11.117 -0.0344  0.3417 -0.2534
  157TCq2    C9 2397   1.910   1.489  10.936  0.1516  0.2963 -0.3770
  157TCq2    O5 2398   1.932   1.365  10.935  0.8290 -0.0550  0.0002
  157TCq2    O6 2399   1.836   1.554  10.859 -0.0559 -0.2928 -0.1351
  157TCq2    H2 2400   1.970   1.365  11.156  1.5664  0.2430 -1.4201
  157TCq2    H3 2401   1.914   1.763  10.998  0.3932 -0.4804 -0.8515
  157TCq2    H4 2402   1.988   1.702  11.417 -1.9428 -0.2261  1.1134
  158TMC2    C1 2403   2.980   0.165  13.152 -0.5221 -0.7677 -0.4614
  158TMC2    C2 2404   3.022   0.175  13.020 -0.0556 -0.9159  0.6591
  158TMC2    C3 2405   2.942   0.107  12.930 -0.0592  0.1524  0.1709
  158TMC2    C4 2406   2.878   0.084  13.198 -0.1447  0.2101 -0.3963
  158TMC2    C5 2407   2.814   0.011  13.108 -0.0011 -0.1305  0.1155
  158TMC2    C6 2408   2.839   0.029  12.975 -0.2169 -0.1801  0.4525
  158TMC2     C 2409   3.064   0.245  13.238 -0.0338 -0.5050 -0.1444
  158TMC2     O 2410   3.138   0.329  13.185 -0.0045 -0.1782 -0.1338
  158TMC2     H 2411   3.077   0.259  12.978 -0.9524 -0.1496  1.0120
  158TMC2    H1 2412   2.847   0.083  13.301  2.4448  3.0863  0.4224
  158TMC2    H2 2413   2.787   4.696  12.898  1.8346 -0.9792 -0.3573
  158TMC2    C7 2414   2.686   4.683  13.148 -0.4236 -0.1098  0.0915
  158TMC2    C8 2415   2.944   0.143  12.792 -0.5008  0.0447 -0.6376
  158TMC2    O1 2416   2.582   0.007  13.106  0.1455  0.3110 -0.1226
  158TMC2    O2 2417   2.851   0.104  12.724  0.0892 -0.2852  0.1552
  158TMC2    O5 2418   3.072   0.171  12.758  0.4642 -0.2929  0.3390
  158TMC2    H5 2419   3.066   0.191  12.663 -1.1871  0.2548  0.5591
  159MPD2     C 2420   3.117   0.503  13.670 -0.7693 -0.5988  0.3399
  159MPD2    C1 2421   3.092   0.371  13.704  0.4131  0.3986 -0.8014
  159MPD2    C2 2422   3.072   0.284  13.598 -0.0469  0.4307  0.7337
  159MPD2    C3 2423   3.093   0.323  13.469  0.3725  0.4227  0.5107
  159MPD2    C4 2424   3.129   0.455  13.437  0.1501  0.0007  0.0882
  159MPD2    C5 2425   3.142   0.541  13.541 -0.6415  0.1054 -0.0940
  159MPD2     H 2426   3.059   0.178  13.615 -0.3754  0.3391 -0.1192
  159MPD2    H1 2427   3.146   0.486  13.335  1.7630 -0.1217  0.3157
  159MPD2    H2 2428   3.143   0.572  13.749 -0.4086 -3.1849  2.4752
  159MPD2    H3 2429   3.160   0.645  13.517 -0.4919  0.3705  1.1979
  159MPD2     N 2430   3.046   0.227  13.375 -0.3439  0.0017 -0.0188
  159MPD2    H5 2431   3.009   0.141  13.415 -0.3967  1.1391  2.3677
  159MPD2    N1 2432   3.088   0.335  13.835  0.0306 -0.0779  0.7903
  159MPD2    H7 2433   3.089   0.403  13.911 -2.1353  2.4832 -1.4714
  160TMC2    C1 2434   2.775   3.098   1.017  0.2899  0.2148  0.2707
  160TMC2    C2 2435   2.713   2.988   1.055  0.2141 -0.1894  0.2578
  160TMC2    C3 2436   2.733   2.879   0.978  0.3146 -0.6751 -0.0968
  160TMC2    C4 2437   2.870   3.102   0.927 -0.1353 -0.3321 -0.4078
  160TMC2    C5 2438   2.898   2.986   0.854  0.2873 -0.1102 -0.8149
  160TMC2    C6 2439   2.830   2.870   0.881 -0.1452  0.5572 -0.8988
  160TMC2     C 2440   2.787   3.207   1.114  0.2716  0.6165 -0.1093
  160TMC2     O 2441   2.898   3.249   1.132  0.6164  0.5042  0.2908
  160TMC2     H 2442   2.644   2.990   1.138 -0.2091 -2.2786 -0.0475
  160TMC2    H1 2443   2.908   3.198   0.893  0.5295 -0.0845  1.0208
  160TMC2    H2 2444   2.830   2.789   0.809  1.0351 -1.2010  1.0661
  160TMC2    C7 2445   2.981   2.999   0.742  0.7634  0.0830 -0.5708
  160TMC2    C8 2446   2.696   2.749   1.033 -0.2294  0.2591  0.9578
  160TMC2    O1 2447   2.968   2.912   0.656 -0.0531 -0.6228 -0.0298
  160TMC2    O2 2448   2.680   2.649   0.966  0.6716  0.2635 -0.4570
  160TMC2    O5 2449   2.750   2.741   1.153 -0.3972 -0.3327  0.7884
  160TMC2    H5 2450   2.752   2.828   1.199  0.3365  0.1829 -0.2052
  161MPD2     C 2451   2.734   3.441   1.283 -0.2882  0.6781  0.1706
  161MPD2    C1 2452   2.636   3.355   1.242 -0.5338  0.0739  0.4076
  161MPD2    C2 2453   2.504   3.390   1.265 -0.7512 -0.1786  0.4382
  161MPD2    C3 2454   2.483   3.499   1.353  0.2472  0.9294  0.3753
  161MPD2    C4 2455   2.580   3.582   1.397 -0.2857 -0.0064  0.1774
  161MPD2    C5 2456   2.700   3.548   1.360  0.3298  0.1118  0.4814
  161MPD2     H 2457   2.426   3.322   1.232 -1.3097  1.1187 -0.8862
  161MPD2    H1 2458   2.563   3.684   1.428  2.0830  0.5543 -0.3679
  161MPD2    H2 2459   2.839   3.436   1.256 -0.3155 -0.3255  0.2502
  161MPD2    H3 2460   2.786   3.602   1.398  1.3359 -0.0730 -1.5336
  161MPD2     N 2461   2.345   3.535   1.385 -0.4971 -0.6069 -0.2419
  161MPD2    H5 2462   2.343   3.621   1.440 -0.6596 -0.2270 -0.8451
  161MPD2    N1 2463   2.666   3.235   1.172  0.6490 -0.0027  0.4053
  161MPD2    H7 2464   2.588   3.188   1.126 -0.5708  1.9522  0.4398
  162TMC2    C1 2465   0.453   0.583   0.936  0.2104  0.6890 -0.3181
  162TMC2    C2 2466   0.442   0.717   0.959 -0.4989 -0.2346  0.6167
  162TMC2    C3 2467   0.359   0.764   1.056 -0.1158  0.7496  0.0468
  162TMC2    C4 2468   0.385   0.495   1.021  0.3591  0.3805 -0.0553
  162TMC2    C5 2469   0.297   0.551   1.105  0.1322 -0.2169  0.6239
  162TMC2    C6 2470   0.280   0.686   1.129  0.5450  0.6208  0.2496
  162TMC2     C 2471   0.543   0.521   0.835  0.1085 -0.1952 -0.3585
  162TMC2     O 2472   0.532   0.402   0.813 -0.0406  0.2229  0.1474
  162TMC2     H 2473   0.485   0.795   0.897 -3.7348 -0.7062 -2.2557
  162TMC2    H1 2474   0.397   0.388   1.004  1.8463  0.3339  1.2943
  162TMC2    H2 2475   0.218   0.722   1.210  1.0218  0.1441  0.8229
  162TMC2    C7 2476   0.225   0.476   1.204 -0.0082  0.1548 -0.4280
  162TMC2    C8 2477   0.325   0.908   1.047  0.0166  0.0846  0.1541
  162TMC2    O1 2478   0.116   0.518   1.243  0.1411 -0.0259 -0.1057
  162TMC2    O2 2479   0.409   0.991   1.012  0.5672 -0.0748  0.2665
  162TMC2    O5 2480   0.189   0.918   1.049  0.0620  0.7941 -0.3068
  162TMC2    H5 2481   0.157   0.826   1.036  1.6711  0.0493  0.8634
  163MPD2     C 2482   0.877   0.581   0.438 -0.0936 -0.3221 -0.2369
  163MPD2    C1 2483   0.830   0.466   0.496 -1.2379 -0.5437 -0.5301
  163MPD2    C2 2484   0.743   0.467   0.607  0.1814  1.0184  0.2394
  163MPD2    C3 2485   0.695   0.590   0.649  0.2609  0.2243  0.4269
  163MPD2    C4 2486   0.733   0.700   0.583 -0.1728 -0.7478  0.3923
  163MPD2    C5 2487   0.824   0.694   0.480  0.0579 -0.0232 -0.0985
  163MPD2     H 2488   0.705   0.381   0.661  2.7783 -0.2417  0.1189
  163MPD2    H1 2489   0.699   0.798   0.613  0.5941 -1.1147  2.4262
  163MPD2    H2 2490   0.954   0.593   0.362 -1.1848 -0.3736 -1.3515
  163MPD2    H3 2491   0.859   0.783   0.430  1.5486 -0.2094  0.6084
  163MPD2     N 2492   0.599   0.614   0.756  0.3654  0.2505  0.0246
  163MPD2    H5 2493   0.571   0.710   0.771 -0.6173 -0.0037 -0.1710
  163MPD2    N1 2494   0.876   0.341   0.434 -0.0471 -0.0009  0.1821
  163MPD2    H7 2495   0.926   0.356   0.347  0.8993  0.0726  0.7285
  164TCq2    C1 2496   1.187   3.728  11.503  0.4507  0.4304 -0.5805
  164TCq2    O2 2497   1.175   3.615  11.548  0.2797  0.2875 -0.0148
  164TCq2    C2 2498   1.166   3.836  11.595 -0.2947 -0.2495  0.1833
  164TCq2    C3 2499   1.235   3.831  11.711 -0.6214  0.1807  0.6107
  164TCq2    C4 2500   1.244   3.943  11.792  0.4683 -0.5183  0.3562
  164TCq2    C5 2501   1.197   4.059  11.746 -0.2084  0.0532  0.9893
  164TCq2    C6 2502   1.140   4.070  11.622 -0.3364  0.1069 -0.0017
  164TCq2    C7 2503   1.126   3.954  11.546 -0.1152  0.2201  0.8484
  164TCq2    C8 2504   1.077   4.189  11.567 -0.3763  0.4935 -0.1646
  164TCq2    O4 2505   1.025   4.181  11.456 -0.3468 -0.6370  0.2937
  164TCq2    C9 2506   1.317   3.940  11.924  0.2582  0.2030  0.4302
  164TCq2    O5 2507   1.376   3.832  11.954 -0.2114  0.5580  0.3420
  164TCq2    O6 2508   1.340   4.059  11.966 -0.2592  0.6001  0.2052
  164TCq2    H2 2509   1.278   3.740  11.750 -1.0360  0.5952  2.0473
  164TCq2    H3 2510   1.203   4.135  11.823  0.3467  1.6734 -0.6498
  164TCq2    H4 2511   1.086   3.956  11.445  1.5614 -1.0981  0.1752
  165MPD2     C 2512   1.692   2.226   0.984 -0.5227  0.1668  0.0086
  165MPD2    C1 2513   1.719   2.294   0.874  0.2787 -0.2676 -0.0303
  165MPD2    C2 2514   1.779   2.420   0.885 -0.1194 -0.2321 -0.6791
  165MPD2    C3 2515   1.818   2.462   1.011  0.3450 -1.0480 -0.6348
  165MPD2    C4 2516   1.805   2.374   1.115 -0.1114  0.3844 -0.1492
  165MPD2    C5 2517   1.742   2.256   1.107  0.6119 -0.4924  0.2151
  165MPD2     H 2518   1.812   2.471   0.796  0.3187 -0.6498 -0.7540
  165MPD2    H1 2519   1.854   2.404   1.207  0.1585  1.1497 -0.5445
  165MPD2    H2 2520   1.635   2.134   0.973 -0.7882  0.1605  1.4489
  165MPD2    H3 2521   1.722   2.202   1.198 -0.8984 -2.5090 -1.3309
  165MPD2     N 2522   1.889   2.576   1.038  0.3100  0.1926 -0.2062
  165MPD2    H5 2523   1.910   2.602   1.133  0.7073  0.0029 -0.2411
  165MPD2    N1 2524   1.674   2.249   0.753 -0.2315 -0.6300  0.2022
  165MPD2    H7 2525   1.615   2.166   0.750  0.1480 -0.8656 -1.0026
  166TCq2    C1 2526   1.943   2.663   0.946  0.7861  0.6838  0.5048
  166TCq2    O2 2527   1.919   2.667   0.823 -0.1304 -0.0819 -0.2467
  166TCq2    C2 2528   2.027   2.766   0.993  0.0447 -1.0511 -0.5678
  166TCq2    C3 2529   2.045   2.874   0.913 -0.0798 -0.0232  0.5653
  166TCq2    C4 2530   2.148   2.959   0.946  0.8994  0.8224 -0.3674
  166TCq2    C5 2531   2.226   2.943   1.057  0.8264 -0.4407 -0.4295
  166TCq2    C6 2532   2.213   2.820   1.122 -0.4953  0.4060 -0.0927
  166TCq2    C7 2533   2.113   2.736   1.096 -0.4769 -0.7031 -0.9376
  166TCq2    C8 2534   2.326   2.778   1.199  1.0584  0.4746 -0.3546
  166TCq2    O4 2535   2.426   2.845   1.191  0.0481  0.3948  0.1882
  166TCq2    C9 2536   2.173   3.074   0.864  0.2783  0.4745 -0.0516
  166TCq2    O5 2537   2.091   3.090   0.769  0.4961  0.2600 -0.4832
  166TCq2    O6 2538   2.239   3.169   0.918  0.4294  0.2087 -0.4544
  166TCq2    H2 2539   1.980   2.906   0.833  1.6932 -0.2596 -0.9732
  166TCq2    H3 2540   2.305   3.014   1.081 -1.3852  2.0678 -0.6320
  166TCq2    H4 2541   2.120   2.631   1.121 -0.3827 -0.2314  1.0099
  167TMC2    C1 2542   0.433   4.257  12.746  0.2004  0.4561  0.2419
  167TMC2    C2 2543   0.325   4.274  12.825 -0.0136  0.8864 -0.2548
  167TMC2    C3 2544   0.256   4.161  12.854 -0.3695  0.0928  0.1611
  167TMC2    C4 2545   0.493   4.136  12.706  0.2811  0.2704  0.6873
  167TMC2    C5 2546   0.423   4.023  12.743  0.9468  0.3263  0.1737
  167TMC2    C6 2547   0.304   4.042  12.817 -0.6364  0.1522  0.5365
  167TMC2     C 2548   0.503   4.388  12.724 -0.1114  0.5172 -0.0871
  167TMC2     O 2549   0.454   4.486  12.776  0.1363 -0.2794  0.0920
  167TMC2     H 2550   0.271   4.366  12.845 -0.7229  0.5550 -0.6368
  167TMC2    H1 2551   0.578   4.135  12.638 -0.8049 -0.5913 -0.6787
  167TMC2    H2 2552   0.254   3.950  12.848 -1.3546  0.3225 -0.1088
  167TMC2    C7 2553   0.476   3.888  12.727 -0.0717  0.7580  0.6533
  167TMC2    C8 2554   0.122   4.180  12.907  0.3541  0.1648  0.0968
  167TMC2    O1 2555   0.404   3.792  12.759 -0.0158  0.0956 -0.1523
  167TMC2    O2 2556   0.080   4.291  12.927  0.3979  0.0167  0.4149
  167TMC2    O5 2557   0.086   4.074  12.986 -0.6323  0.5108  0.4302
  167TMC2    H5 2558   0.140   3.993  12.981 -1.5096 -0.0255 -0.5386
  168MPD2     C 2559   0.671   4.616  12.597 -0.1429 -0.2727  0.3532
  168MPD2    C1 2560   0.651   4.487  12.546 -0.9331  0.8202  0.1191
  168MPD2    C2 2561   0.719   4.461  12.431  0.0820 -0.1029 -0.4845
  168MPD2    C3 2562   0.792   4.556  12.358 -0.1493 -0.1855 -0.1036
  168MPD2    C4 2563   0.812   4.679  12.415 -0.1334 -0.7307  0.2484
  168MPD2    C5 2564   0.746   4.711  12.531  0.0720 -0.1371 -0.4092
  168MPD2     H 2565   0.712   4.358  12.400  0.1374  0.3832 -2.1045
  168MPD2    H1 2566   0.876   0.030  12.368 -2.6551  1.0840 -0.3256
  168MPD2    H2 2567   0.624   4.643  12.691  1.0300  0.7227  0.6580
  168MPD2    H3 2568   0.765   0.079  12.586 -0.8899 -0.9592  1.3066
  168MPD2     N 2569   0.862   4.524  12.233  0.6141  0.1490  0.2123
  168MPD2    H5 2570   0.934   4.588  12.199 -0.1377  1.0958  0.4117
  168MPD2    N1 2571   0.582   4.384  12.610 -0.5578  0.7769 -0.4861
  168MPD2    H7 2572   0.569   4.304  12.550 -0.8087  0.8044 -0.4679
  169MPD1     C 2573   3.357   3.350  10.067  0.6994 -0.6924 -0.0928
  169MPD1    C1 2574   3.367   3.478  10.013 -0.4325 -0.4901  0.5107
  169MPD1    C2 2575   3.332   3.506   9.878  0.1221 -0.0588  0.1161
  169MPD1    C3 2576   3.295   3.408   9.799 -0.1528 -0.9472 -0.0031
  169MPD1    C4 2577   3.281   3.279   9.851  0.0729 -0.4427  0.4951
  169MPD1    C5 2578   3.311   3.256   9.987  0.3669 -0.5261  0.5154
  169MPD1     H 2579   3.337   3.598   9.822 -0.1763 -0.7895 -1.1049
  169MPD1    H1 2580   3.253   3.191   9.795 -0.1900 -0.1860  0.2206
  169MPD1    H2 2581   3.378   3.338  10.173  3.8944 -0.2102 -0.6647
  169MPD1    H3 2582   3.294   3.155  10.021  0.7494 -0.4251  1.0054
  169MPD1     N 2583   3.262   3.445   9.672 -0.1297  0.6182  0.5662
  169MPD1    H5 2584   3.272   3.543   9.648  0.0655  0.7060  1.0099
  169MPD1    N1 2585   3.447   3.563  10.094 -0.2030 -0.6929 -0.2605
  169MPD1    H6 2586   3.441   3.659  10.064  0.1892 -0.3476  0.7618
  169MPD1    H7 2587   3.424   3.552  10.193  0.8577 -0.6790 -0.0043
  170MPD1     C 2588   0.670   1.918  13.367  0.4119 -0.2573 -0.4889
  170MPD1    C1 2589   0.748   1.899  13.485 -0.5811  0.0723 -0.1280
  170MPD1    C2 2590   0.881   1.871  13.472  0.4612 -0.6068  0.1196
  170MPD1    C3 2591   0.950   1.894  13.355 -0.5431  0.1410  0.0986
  170MPD1    C4 2592   0.881   1.934  13.245 -0.0321 -0.1808 -0.7107
  170MPD1    C5 2593   0.744   1.939  13.253  0.3348  0.4289 -0.4012
  170MPD1     H 2594   0.937   1.843  13.560 -0.8886  0.3514  1.2618
  170MPD1    H1 2595   0.930   1.960  13.151  2.6100 -3.7203 -0.3225
  170MPD1    H2 2596   0.562   1.911  13.363  0.3678 -0.8982  2.3005
  170MPD1    H3 2597   0.693   1.950  13.158 -0.6270 -1.1078 -0.0703
  170MPD1     N 2598   1.087   1.884  13.364  0.0792 -0.2412  0.4091
  170MPD1    H5 2599   1.127   1.829  13.438 -0.6974 -0.4745  0.6535
  170MPD1    N1 2600   0.684   1.865  13.602  0.4551 -0.6152  0.6342
  170MPD1    H6 2601   0.733   1.895  13.687  0.9870 -1.9808  0.8119
  170MPD1    H7 2602   0.592   1.907  13.596  0.3599 -1.2531 -2.2559
  171MPD1     C 2603   0.513   3.447  15.158  0.1991  0.0868  0.6565
  171MPD1    C1 2604   0.439   3.333  15.121  0.0711 -0.2834 -0.5180
  171MPD1    C2 2605   0.452   3.216  15.192 -0.4430 -0.4830  0.4949
  171MPD1    C3 2606   0.552   3.199  15.287 -0.0903  1.0786  0.5662
  171MPD1    C4 2607   0.633   3.307  15.315  0.1131 -0.1923 -0.9250
  171MPD1    C5 2608   0.605   3.423  15.252 -0.2108  0.4549 -0.9586
  171MPD1     H 2609   0.389   3.137  15.153  2.0599 -2.7051  0.9425
  171MPD1    H1 2610   0.723   3.305  15.377 -0.0979  3.0487 -0.4960
  171MPD1    H2 2611   0.506   3.546  15.115  0.7594  0.4426  1.3854
  171MPD1    H3 2612   0.663   3.513  15.273 -0.3534  0.4595 -0.5974
  171MPD1     N 2613   0.583   3.077  15.354 -0.9598  0.0325 -0.3859
  171MPD1    H5 2614   0.668   3.076  15.410 -0.5547  2.0585 -0.9465
  171MPD1    N1 2615   0.327   3.355  15.037  0.2833 -1.3402 -0.8575
  171MPD1    H6 2616   0.350   3.419  14.961  0.1313  0.1839  0.3690
  171MPD1    H7 2617   0.278   3.272  15.005  0.0693 -1.7807  0.6086
  172MPD1     C 2618   3.687   1.896   0.133 -0.1669 -0.6603 -0.3697
  172MPD1    C1 2619   3.695   2.009   0.209  1.1789 -0.8728  0.2639
  172MPD1    C2 2620   3.789   2.107   0.172 -0.3097  0.7339  0.7721
  172MPD1    C3 2621   3.867   2.090   0.061  0.3222  0.3288 -0.3015
  172MPD1    C4 2622   3.865   1.965  17.690  0.3913 -0.7480  0.4206
  172MPD1    C5 2623   3.775   1.869   0.035 -0.3263  0.3187 -0.1793
  172MPD1     H 2624   3.805   2.200   0.226 -1.5308  0.3189  1.8766
  172MPD1    H1 2625   3.927   1.952  17.601  0.6427  0.5665  0.3983
  172MPD1    H2 2626   3.607   1.826   0.155 -3.1771  2.9091  0.0467
  172MPD1    H3 2627   3.763   1.779  17.672 -0.9300  0.4522 -0.2584
  172MPD1     N 2628   3.961   2.186   0.019  0.1584 -0.5042 -0.3443
  172MPD1    H5 2629   4.038   2.157  17.656  1.4468  1.7618  0.2064
  172MPD1    N1 2630   3.602   2.042   0.309 -0.3278 -0.2424  1.3820
  172MPD1    H6 2631   3.623   2.119   0.373  1.1484 -0.9467  1.7524
  172MPD1    H7 2632   3.583   1.966   0.374  0.8347 -0.6206  1.2877
  173MPD1     C 2633   0.850   2.674  13.652 -0.1302 -0.0710 -0.6307
  173MPD1    C1 2634   0.765   2.581  13.597  0.2038 -0.1158  0.0906
  173MPD1    C2 2635   0.690   2.510  13.692  0.1504 -0.0431  0.1416
  173MPD1    C3 2636   0.708   2.520  13.829 -0.6128  0.9513  0.6576
  173MPD1    C4 2637   0.810   2.595  13.874  0.1742 -0.2570 -0.8144
  173MPD1    C5 2638   0.883   2.671  13.785 -0.1363 -0.6795 -0.7669
  173MPD1     H 2639   0.605   2.446  13.673 -1.6832  3.1292 -2.3367
  173MPD1    H1 2640   0.843   2.600  13.977  2.8552  0.1827 -1.7193
  173MPD1    H2 2641   0.909   2.739  13.589  1.2694 -0.5009  0.2220
  173MPD1    H3 2642   0.965   2.734  13.818 -0.9712 -0.6099  1.2347
  173MPD1     N 2643   0.637   2.427  13.911  0.1228 -0.2833 -0.5410
  173MPD1    H5 2644   0.578   2.362  13.860  0.1700  0.4758 -1.5532
  173MPD1    N1 2645   0.724   2.577  13.459  0.2255  1.1370 -0.8678
  173MPD1    H6 2646   0.790   2.617  13.392  0.6421  0.3129 -0.9463
  173MPD1    H7 2647   0.698   2.484  13.427  1.7937 -0.6864  3.1932
  174MPD1     C 2648   4.696   1.777  13.747 -0.7302 -0.1185 -0.3637
  174MPD1    C1 2649   4.653   1.885  13.815 -0.8067  0.6368 -0.3172
  174MPD1    C2 2650   0.025   1.965  13.879  0.0592  0.1776  0.0369
  174MPD1    C3 2651   0.155   1.919  13.894 -0.5830 -0.3033  0.8287
  174MPD1    C4 2652   0.192   1.798  13.847 -0.1202 -0.2624 -0.2043
  174MPD1    C5 2653   0.098   1.729  13.779 -0.5535 -0.2187  0.1765
  174MPD1     H 2654   4.715   2.055  13.929 -0.0877  0.3663 -0.4065
  174MPD1    H1 2655   0.292   1.758  13.859  0.2735  0.6233 -0.5372
  174MPD1    H2 2656   4.634   1.718  13.680 -1.0021  0.6122 -0.7705
  174MPD1    H3 2657   0.121   1.633  13.734  1.6747  0.8550 -0.9508
  174MPD1     N 2658   0.250   1.997  13.952  0.8752 -0.4865 -0.0876
  174MPD1    H5 2659   0.329   1.946  13.988  1.0301 -0.0183  0.2284
  174MPD1    N1 2660   4.533   1.941  13.784 -0.9643 -0.3165 -0.5806
  174MPD1    H6 2661   4.459   1.874  13.766  0.1135 -2.1339  1.7420
  174MPD1    H7 2662   4.499   2.005  13.856 -0.1019  0.5201 -0.9187
  175MPD1     C 2663   4.348   2.984  14.963  0.1983 -0.0499 -0.2057
  175MPD1    C1 2664   4.228   3.047  14.954 -0.6524 -0.4080 -0.0988
  175MPD1    C2 2665   4.156   3.054  15.071  0.1986 -0.4532 -0.4037
  175MPD1    C3 2666   4.219   3.033  15.197  0.3277  0.1359  0.0156
  175MPD1    C4 2667   4.349   2.974  15.199 -0.0439 -0.1102 -0.4626
  175MPD1    C5 2668   4.410   2.949  15.080 -0.0631 -0.1536  0.0387
  175MPD1     H 2669   4.056   3.096  15.065  0.4475  0.2854  0.6880
  175MPD1    H1 2670   4.402   2.952  15.291 -0.3906 -0.1258 -0.2672
  175MPD1    H2 2671   4.409   2.969  14.874 -1.9106 -2.2230 -1.2745
  175MPD1    H3 2672   4.497   2.885  15.068 -1.2485 -1.6249 -0.7919
  175MPD1     N 2673   4.155   3.038  15.322  0.3696  0.3554  0.1545
  175MPD1    H5 2674   4.206   3.029  15.409 -1.1215  0.8057  1.0621
  175MPD1    N1 2675   4.171   3.097  14.831 -0.8214 -0.1016 -0.2466
  175MPD1    H6 2676   4.106   3.175  14.840  0.3949  0.8811  0.1448
  175MPD1    H7 2677   4.237   3.097  14.753  0.2159 -0.9716  0.6345
  176MPD1     C 2678   0.837   4.429  17.219  0.1468 -0.2778  0.2720
  176MPD1    C1 2679   0.864   4.474  17.341 -0.6114 -0.6682 -0.0298
  176MPD1    C2 2680   0.883   4.607  17.371 -0.2070  0.1292  0.3200
  176MPD1    C3 2681   0.885   4.702  17.272 -0.1223  0.3259 -0.8820
  176MPD1    C4 2682   0.868   4.648  17.142  0.9333  0.3917  0.2664
  176MPD1    C5 2683   0.848   4.516  17.117  0.2355  0.7624  0.0642
  176MPD1     H 2684   0.897   4.637  17.474 -0.6813 -0.5308  0.5778
  176MPD1    H1 2685   0.854   4.722  17.064  0.8104  0.0132 -0.0712
  176MPD1    H2 2686   0.801   4.331  17.190 -0.7092 -0.0280  0.4798
  176MPD1    H3 2687   0.821   4.498  17.013  0.1567  1.2411  0.0029
  176MPD1     N 2688   0.875   0.115  17.305 -0.1963  0.1431 -0.5641
  176MPD1    H5 2689   0.874   0.132  17.405  0.3240  2.3979 -0.9392
  176MPD1    N1 2690   0.847   4.382  17.445 -0.1584  0.0463  0.0686
  176MPD1    H6 2691   0.896   4.294  17.428 -1.4978 -0.7684  0.4436
  176MPD1    H7 2692   0.873   4.408  17.540 -0.2214 -2.2794  0.7434
  177MPD1     C 2693   4.683   4.491  10.187  0.2482 -0.4853  0.2581
  177MPD1    C1 2694   4.604   4.387  10.143 -0.7333  0.0522  0.0338
  177MPD1    C2 2695   4.502   4.428  10.057  1.1901  0.4272 -0.1756
  177MPD1    C3 2696   4.473   4.562  10.029 -0.0017 -0.6808 -0.4856
  177MPD1    C4 2697   4.549   4.660  10.096 -0.4395  0.7282  0.2368
  177MPD1    C5 2698   4.655   4.625  10.168  0.2595  0.1655  0.0901
  177MPD1     H 2699   4.458   4.350   9.996 -0.4422  1.7810 -0.7448
  177MPD1    H1 2700   4.551   0.044  10.079 -0.5589  0.5554 -0.8906
  177MPD1    H2 2701   0.051   4.472  10.242  0.4085 -1.6320 -0.4042
  177MPD1    H3 2702   4.719   4.705  10.201  1.0946  0.1167 -1.4387
  177MPD1     N 2703   4.355   4.593   9.954 -0.2969 -0.0994  0.3063
  177MPD1    H5 2704   4.308   4.519   9.903  0.2561  1.4254 -2.3838
  177MPD1    N1 2705   4.634   4.253  10.167 -0.0430  0.3280 -0.0996
  177MPD1    H6 2706   4.553   4.193  10.173 -0.3405  0.6549 -0.8572
  177MPD1    H7 2707   4.681   4.234  10.256  0.6751 -0.0162 -0.5588
  178MPD1     C 2708   1.434   1.341  17.646  1.3226 -0.1909 -0.4779
  178MPD1    C1 2709   1.364   1.256  17.565  0.3177  0.0187  0.1398
  178MPD1    C2 2710   1.426   1.191  17.453 -0.5757  0.1485  0.0164
  178MPD1    C3 2711   1.558   1.232  17.416 -0.4168 -0.6637 -0.0623
  178MPD1    C4 2712   1.617   1.324  17.502 -0.0968  0.2870 -0.0195
  178MPD1    C5 2713   1.560   1.382  17.614  0.8185  0.4694  0.2980
  178MPD1     H 2714   1.374   1.122  17.388 -1.8494  1.4836 -0.3927
  178MPD1    H1 2715   1.722   1.344  17.484 -0.5316  0.1823 -2.6538
  178MPD1    H2 2716   1.383   1.398   0.026 -1.6983 -1.5251 -1.4880
  178MPD1    H3 2717   1.616   1.454  17.673 -0.2872  0.7388  1.0207
  178MPD1     N 2718   1.632   1.175  17.304  0.2453  0.3056  0.6197
  178MPD1    H5 2719   1.724   1.214  17.286 -0.7233  2.1499 -0.2772
  178MPD1    N1 2720   1.238   1.212  17.605 -0.1903 -0.5107  0.2515
  178MPD1    H6 2721   1.166   1.205  17.533  1.3159  1.3379 -1.4204
  178MPD1    H7 2722   1.200   1.283  17.667 -1.2737 -2.2648  1.6082
  179MPD1     C 2723   1.048   4.570  15.184  0.5914 -0.0915  0.5173
  179MPD1    C1 2724   1.110   4.562  15.305 -0.2817 -0.1170 -1.0582
  179MPD1    C2 2725   1.145   4.435  15.348 -0.2920  0.2175  0.4576
  179MPD1    C3 2726   1.141   4.322  15.264  0.5892  0.2552  0.8783
  179MPD1    C4 2727   1.089   4.339  15.136  0.7631  0.5648  0.4629
  179MPD1    C5 2728   1.047   4.466  15.096  0.2679  0.4010  0.0129
  179MPD1     H 2729   1.185   4.419  15.448  1.2721  1.1927 -0.0184
  179MPD1    H1 2730   1.089   4.260  15.062 -1.0090 -0.0266  1.0941
  179MPD1    H2 2731   1.008   4.657  15.133 -1.8645  1.2601  4.7386
  179MPD1    H3 2732   1.003   4.477  14.998 -0.0947 -0.1511  0.1138
  179MPD1     N 2733   1.179   4.192  15.302 -0.8890  0.2718  0.9762
  179MPD1    H5 2734   1.176   4.117  15.234 -2.0590  2.1497 -1.0385
  179MPD1    N1 2735   1.114   4.669  15.392 -0.4220  0.2294  0.1855
  179MPD1    H6 2736   1.116   0.031  15.337 -0.6445  0.0751 -0.0664
  179MPD1    H7 2737   1.197   4.670  15.451  0.8927  1.4310 -1.6452
  180MPD1     C 2738   1.718   1.039  15.247 -0.3464 -0.4435 -0.3489
  180MPD1    C1 2739   1.761   0.981  15.125  0.1711  0.0805  0.0578
  180MPD1    C2 2740   1.662   0.969  15.029  0.3577 -0.2216  0.6014
  180MPD1    C3 2741   1.526   0.998  15.045 -0.4596  0.0467  0.1691
  180MPD1    C4 2742   1.488   1.046  15.166 -0.7046  0.0028 -0.1734
  180MPD1    C5 2743   1.585   1.066  15.269  0.4069 -0.1942 -0.1226
  180MPD1     H 2744   1.701   0.938  14.933 -0.4247 -3.2758  1.2557
  180MPD1    H1 2745   1.386   1.075  15.186 -0.3434  0.3112  1.2422
  180MPD1    H2 2746   1.793   1.040  15.325  0.3531 -0.5834 -1.0176
  180MPD1    H3 2747   1.556   1.096  15.369  1.4280  1.0222 -0.1931
  180MPD1     N 2748   1.439   0.983  14.932  0.3277 -0.2022  0.0241
  180MPD1    H5 2749   1.482   0.965  14.843  0.0149 -0.9448  0.0191
  180MPD1    N1 2750   1.898   1.000  15.099 -0.0043  0.7207 -0.1457
  180MPD1    H6 2751   1.932   0.935  15.028  0.2654  0.8353 -0.1218
  180MPD1    H7 2752   1.955   0.981  15.181  0.2589  0.8019 -0.3085
  181MPD1     C 2753   1.886   2.589   8.786 -0.4920  0.2072  0.7312
  181MPD1    C1 2754   1.976   2.624   8.690 -0.0288 -0.0912  0.1954
  181MPD1    C2 2755   2.110   2.618   8.712  0.3856 -0.3221  0.2910
  181MPD1    C3 2756   2.155   2.569   8.828 -0.0168  0.2145  0.5021
  181MPD1    C4 2757   2.061   2.531   8.925 -0.2609  0.6099 -0.6155
  181MPD1    C5 2758   1.930   2.532   8.903  0.1572  0.2734  0.1695
  181MPD1     H 2759   2.186   2.654   8.643 -1.0788  1.3044 -0.4657
  181MPD1    H1 2760   2.095   2.494   9.021  1.9719 -0.2057 -1.7321
  181MPD1    H2 2761   1.778   2.591   8.772 -0.6782  1.3128  2.3196
  181MPD1    H3 2762   1.851   2.520   8.977 -0.9070  1.4561 -0.7661
  181MPD1     N 2763   2.293   2.565   8.867  0.5614 -0.1627  0.2093
  181MPD1    H5 2764   2.310   2.530   8.961  2.3096  0.4618  0.1343
  181MPD1    N1 2765   1.928   2.657   8.564  0.2248  0.4896  0.2812
  181MPD1    H6 2766   2.002   2.714   8.523 -1.2000  0.9405 -1.6545
  181MPD1    H7 2767   1.845   2.714   8.578 -0.4609 -0.5725  0.5589
  182MPD1     C 2768   3.736   1.440   1.405 -0.7617  0.7608 -0.3172
  182MPD1    C1 2769   3.755   1.375   1.291 -0.1259 -0.0448  0.2784
  182MPD1    C2 2770   3.663   1.401   1.188  0.3832 -0.0116 -0.4205
  182MPD1    C3 2771   3.571   1.505   1.195  0.6219 -0.1315 -0.3325
  182MPD1    C4 2772   3.570   1.578   1.309 -0.2614 -0.3776 -0.1057
  182MPD1    C5 2773   3.653   1.545   1.415 -0.9262  0.1689  0.3551
  182MPD1     H 2774   3.674   1.337   1.101  0.5879 -0.1913 -0.2623
  182MPD1    H1 2775   3.502   1.660   1.327  0.7849  0.3696  0.3930
  182MPD1    H2 2776   3.790   1.412   1.494 -0.7774  0.5345 -0.3793
  182MPD1    H3 2777   3.623   1.586   1.511 -1.5931  1.4496 -0.4008
  182MPD1     N 2778   3.487   1.545   1.086 -0.3682 -0.2269  0.3024
  182MPD1    H5 2779   3.419   1.619   1.103 -2.3970 -1.9920 -0.1957
  182MPD1    N1 2780   3.854   1.275   1.275 -0.3747  0.7454 -0.0830
  182MPD1    H6 2781   3.868   1.260   1.175 -0.1125 -0.4690  0.1393
  182MPD1    H7 2782   3.839   1.187   1.322  0.8978  0.5912  0.0216
  183MPD1     C 2783   0.048   2.268   9.078  0.6664 -0.0236 -0.7229
  183MPD1    C1 2784   4.673   2.174   9.052 -0.3970  0.2826  0.5006
  183MPD1    C2 2785   4.672   2.064   9.141 -0.2523 -0.4393 -0.3558
  183MPD1    C3 2786   0.047   2.041   9.238  0.3981  0.5005  0.0892
  183MPD1    C4 2787   0.143   2.141   9.253  0.1696 -0.2004 -0.1458
  183MPD1    C5 2788   0.142   2.257   9.176  0.0769 -0.3149 -0.0832
  183MPD1     H 2789   4.591   1.993   9.135 -1.0939  0.4872  0.0508
  183MPD1    H1 2790   0.221   2.138   9.328 -0.6262 -2.5913  0.5824
  183MPD1    H2 2791   0.055   2.360   9.020 -1.5874  2.1355  2.4014
  183MPD1    H3 2792   0.224   2.327   9.180 -0.1356 -0.0912  0.3963
  183MPD1     N 2793   0.031   1.932   9.320  0.1954  0.1371 -0.4672
  183MPD1    H5 2794   4.681   1.866   9.295 -2.3117  2.0970  1.7352
  183MPD1    N1 2795   4.560   2.197   8.973  0.2386  0.2107 -0.2867
  183MPD1    H6 2796   4.501   2.117   8.950 -1.5016  1.5914 -0.5946
  183MPD1    H7 2797   4.585   2.253   8.892 -1.3162  0.7202 -0.4055
  184MPD1     C 2798   3.111   4.128  10.497 -0.7409 -0.6454  0.0293
  184MPD1    C1 2799   3.031   4.191  10.402  0.3943  0.2937  0.6907
  184MPD1    C2 2800   3.081   4.266  10.301  0.9145  0.0860  0.0997
  184MPD1    C3 2801   3.221   4.277  10.309  0.0371 -0.1065  0.1489
  184MPD1    C4 2802   3.297   4.237  10.411 -0.5464 -0.1472 -0.3371
  184MPD1    C5 2803   3.244   4.153  10.499 -0.3077 -0.0544  0.3529
  184MPD1     H 2804   3.014   4.309  10.227  0.2929 -0.1733  0.5111
  184MPD1    H1 2805   3.404   4.249  10.411 -0.6308  0.6017 -1.4187
  184MPD1    H2 2806   3.071   4.062  10.573 -0.5803 -0.1276  0.5587
  184MPD1    H3 2807   3.308   4.102  10.571  0.1854  1.4091  0.9611
  184MPD1     N 2808   3.292   4.335  10.200 -0.4013 -0.0431 -0.1397
  184MPD1    H5 2809   3.392   4.338  10.217 -0.2583 -0.7755 -0.8560
  184MPD1    N1 2810   2.893   4.165  10.391  0.2100  0.2282 -0.2466
  184MPD1    H6 2811   2.852   4.131  10.478  1.2017 -0.4057 -0.0289
  184MPD1    H7 2812   2.833   4.243  10.363 -1.4539 -0.0887  2.4052
  185MPD1     C 2813   3.088   4.336   9.225 -0.3204 -0.2247  0.3324
  185MPD1    C1 2814   3.140   4.460   9.255 -0.4718 -0.0041 -0.1362
  185MPD1    C2 2815   3.213   4.474   9.373 -0.8492  0.3076  0.0903
  185MPD1    C3 2816   3.204   4.387   9.477 -0.7657 -0.4917  0.2575
  185MPD1    C4 2817   3.136   4.267   9.455 -0.1392  0.0674  0.0064
  185MPD1    C5 2818   3.085   4.240   9.328  0.1035  0.3348 -0.2393
  185MPD1     H 2819   3.240   4.578   9.392  0.1968  0.2999 -1.3919
  185MPD1    H1 2820   3.120   4.194   9.533  1.3949  0.0706  0.3133
  185MPD1    H2 2821   3.042   4.317   9.129 -1.0750 -2.4530  1.1218
  185MPD1    H3 2822   3.050   4.140   9.304  0.9658 -0.3157  1.2533
  185MPD1     N 2823   3.260   4.414   9.604  0.1752  0.4321 -0.2716
  185MPD1    H5 2824   3.236   4.355   9.683  1.5528  0.1086 -0.1006
  185MPD1    N1 2825   3.159   4.544   9.146  0.2996  0.4068 -0.0036
  185MPD1    H6 2826   3.187   4.639   9.168  0.7473  0.2434  0.1298
  185MPD1    H7 2827   3.076   4.538   9.086  1.1973  0.3353 -1.2381
  186MPD1     C 2828   1.020   0.283  15.617  0.4294 -0.2534 -0.1172
  186MPD1    C1 2829   0.979   0.168  15.675  0.3409 -0.5472 -0.3849
  186MPD1    C2 2830   1.072   0.082  15.736 -0.0347 -0.2328  0.2656
  186MPD1    C3 2831   1.210   0.110  15.734  0.4517 -0.6546 -0.0889
  186MPD1    C4 2832   1.252   0.216  15.660 -0.1750  0.9811 -0.6171
  186MPD1    C5 2833   1.156   0.303  15.609 -0.0032 -0.0128  0.0514
  186MPD1     H 2834   1.035   0.006  15.803 -0.9094 -1.2333 -1.3454
  186MPD1    H1 2835   1.357   0.244  15.661 -0.2325  1.2098 -1.6820
  186MPD1    H2 2836   0.959   0.361  15.573  0.3342 -0.1635  0.1759
  186MPD1    H3 2837   1.186   0.396  15.564  0.2983 -0.5680 -0.9015
  186MPD1     N 2838   1.313   0.033  15.791 -0.1013 -0.2850  0.1324
  186MPD1    H5 2839   1.406   0.073  15.802  0.2944 -1.0496 -0.5100
  186MPD1    N1 2840   0.845   0.134  15.676 -0.0559 -0.0396  0.0554
  186MPD1    H6 2841   0.808   0.168  15.588  0.6700  1.6693  0.4120
  186MPD1    H7 2842   0.835   0.033  15.675  0.5646 -0.1034 -0.3667
  187MPD1     C 2843   0.825   0.961   0.090 -0.2175 -0.5482 -0.2888
  187MPD1    C1 2844   0.941   0.986   0.019  0.3948  0.6335 -0.7495
  187MPD1    C2 2845   0.927   1.054  17.599 -0.1275  0.5765 -0.5050
  187MPD1    C3 2846   0.806   1.108  17.549  0.1709  0.9524  0.2530
  187MPD1    C4 2847   0.696   1.083  17.619 -0.0373  0.4109  0.2162
  187MPD1    C5 2848   0.707   1.016   0.040  0.3235  0.3572 -0.7908
  187MPD1     H 2849   1.020   1.057  17.544 -0.1788  2.4219 -0.4865
  187MPD1    H1 2850   0.600   1.120  17.583  1.1935  1.9129 -1.4754
  187MPD1    H2 2851   0.828   0.900   0.180 -2.2739 -0.9636 -0.4982
  187MPD1    H3 2852   0.614   0.988   0.087  1.0085 -2.3642 -1.0745
  187MPD1     N 2853   0.803   1.191  17.438 -0.2080 -0.3778 -0.0494
  187MPD1    H5 2854   0.712   1.216  17.402 -0.5383 -0.8016  0.5001
  187MPD1    N1 2855   1.065   0.922   0.048 -0.1263 -0.2238  0.3148
  187MPD1    H6 2856   1.079   0.930   0.149  3.9025  0.9557 -0.3218
  187MPD1    H7 2857   1.143   0.977   0.014  0.6027 -1.0303  0.6767
  188MPD1     C 2858   0.899   1.343  10.475 -0.6248  0.6173  0.0513
  188MPD1    C1 2859   0.907   1.243  10.569  0.3002  0.3190 -0.1310
  188MPD1    C2 2860   0.923   1.110  10.538  0.5207  0.1239  0.3635
  188MPD1    C3 2861   0.944   1.079  10.404  0.3390  0.2505  0.0648
  188MPD1    C4 2862   0.953   1.177  10.311  0.2630 -0.9596 -0.5105
  188MPD1    C5 2863   0.934   1.305  10.346 -0.2520 -0.2091  0.0338
  188MPD1     H 2864   0.904   1.033  10.611  0.0930 -0.2967 -0.1976
  188MPD1    H1 2865   1.000   1.165  10.213 -0.0397  1.5628 -0.9526
  188MPD1    H2 2866   0.858   1.442  10.488  2.1942  1.5214  2.2694
  188MPD1    H3 2867   0.945   1.387  10.276  0.4667 -1.1501 -0.9373
  188MPD1     N 2868   0.938   0.950  10.366  0.2620 -0.1933 -0.0399
  188MPD1    H5 2869   0.932   0.936  10.266 -1.9206  3.0355 -0.3398
  188MPD1    N1 2870   0.861   1.276  10.703  0.2750  0.2601  0.1571
  188MPD1    H6 2871   0.874   1.375  10.719  0.0900  0.0896  1.4100
  188MPD1    H7 2872   0.925   1.230  10.768  3.1960  2.1133 -1.4468
  189MPD1     C 2873   2.093   1.547   0.956  0.4655 -0.2623 -0.6403
  189MPD1    C1 2874   1.996   1.490   0.875  0.5697  0.4701 -0.0046
  189MPD1    C2 2875   1.999   1.518   0.739 -0.5556  0.4313  0.6749
  189MPD1    C3 2876   2.097   1.598   0.672 -0.3135 -0.5974  0.1651
  189MPD1    C4 2877   2.189   1.666   0.758 -0.3392 -0.5136 -0.3221
  189MPD1    C5 2878   2.180   1.636   0.896  0.6578 -0.3828  0.2461
  189MPD1     H 2879   1.934   1.460   0.676  0.7369  1.3740 -1.5065
  189MPD1    H1 2880   2.270   1.729   0.724  0.6673 -1.9143 -0.5425
  189MPD1    H2 2881   2.081   1.524   1.061  1.6019 -0.0067 -0.4552
  189MPD1    H3 2882   2.244   1.689   0.965 -1.7182  0.2639  1.9754
  189MPD1     N 2883   2.093   1.605   0.535 -0.2753 -0.6383  0.2795
  189MPD1    H5 2884   2.022   1.552   0.486  0.5097  2.0344 -3.7685
  189MPD1    N1 2885   1.902   1.379   0.922 -0.2320  0.6153 -0.2149
  189MPD1    H6 2886   1.814   1.373   0.872  0.1893  0.3295 -0.9163
  189MPD1    H7 2887   1.891   1.382   1.023 -0.0659 -1.1171 -0.1470
  190MPD1     C 2888   1.219   0.635  14.636 -0.0620  0.1229  0.0371
  190MPD1    C1 2889   1.356   0.643  14.599  0.8557 -0.1689  0.2111
  190MPD1    C2 2890   1.451   0.653  14.703  0.0799 -0.1820 -0.2230
  190MPD1    C3 2891   1.409   0.654  14.838  0.6929 -0.0646  0.0211
  190MPD1    C4 2892   1.273   0.651  14.867  0.6538  0.2550  0.2222
  190MPD1    C5 2893   1.182   0.629  14.766  0.1555 -0.0983 -0.6688
  190MPD1     H 2894   1.556   0.657  14.675  0.3744  1.9800  1.1660
  190MPD1    H1 2895   1.230   0.644  14.967 -3.4659  1.0918 -1.4656
  190MPD1    H2 2896   1.152   0.613  14.555  0.7652  1.2067 -0.9404
  190MPD1    H3 2897   1.081   0.601  14.796  0.4428  0.5728  0.9192
  190MPD1     N 2898   1.509   0.664  14.938  0.0742  0.9096 -0.2919
  190MPD1    H5 2899   1.601   0.678  14.900  0.9301 -2.7328  0.4226
  190MPD1    N1 2900   1.397   0.611  14.467  0.1981  0.0617 -0.5723
  190MPD1    H6 2901   1.322   0.637  14.402 -0.9659  2.2540  1.6190
  190MPD1    H7 2902   1.483   0.659  14.441  1.7564 -3.1492 -1.3483
  191MPD1     C 2903   0.908   2.102  12.619  0.0510  0.3760  0.0691
  191MPD1    C1 2904   1.031   2.113  12.557 -0.6496  0.2091  0.3012
  191MPD1    C2 2905   1.042   2.119  12.422  0.8445 -1.2142 -0.0660
  191MPD1    C3 2906   0.935   2.109  12.337  0.0992  0.5189  0.6648
  191MPD1    C4 2907   0.814   2.095  12.394  0.2082 -0.0860  0.1400
  191MPD1    C5 2908   0.800   2.090  12.534  0.4422  1.0772 -0.0870
  191MPD1     H 2909   1.137   2.128  12.371  0.4179 -1.6188 -0.9246
  191MPD1    H1 2910   0.727   2.090  12.329 -0.2149  0.4053  0.6680
  191MPD1    H2 2911   0.904   2.091  12.726  0.3001  2.4321  0.2876
  191MPD1    H3 2912   0.697   2.097  12.568 -0.0636  0.0426 -1.4426
  191MPD1     N 2913   0.956   2.140  12.202 -0.1128  0.1895  0.3234
  191MPD1    H5 2914   1.054   2.164  12.189 -0.8307  3.2434  0.6838
  191MPD1    N1 2915   1.142   2.133  12.645  0.7912  0.7347 -0.4086
  191MPD1    H6 2916   1.128   2.097  12.739  0.5011  0.4913 -0.5456
  191MPD1    H7 2917   1.228   2.092  12.610  0.5479 -0.0241 -0.1129
  192MPD1     C 2918   0.594   2.710  11.454 -0.3252  0.1164  0.3941
  192MPD1    C1 2919   0.679   2.627  11.391 -0.2590 -0.2825  0.1893
  192MPD1    C2 2920   0.756   2.542  11.461 -0.3146 -0.6619  0.3527
  192MPD1    C3 2921   0.740   2.536  11.597 -0.3322  0.0009  1.0448
  192MPD1    C4 2922   0.661   2.632  11.655 -0.0532 -0.1190  0.3034
  192MPD1    C5 2923   0.583   2.717  11.584 -0.5188  0.0095  0.2552
  192MPD1     H 2924   0.812   2.464  11.410 -1.4681 -3.0860  2.7886
  192MPD1    H1 2925   0.640   2.614  11.760 -2.0252 -1.5697 -0.3281
  192MPD1    H2 2926   0.519   2.774  11.409 -0.0345  1.3484  1.6628
  192MPD1    H3 2927   0.513   2.782  11.634  0.0024  0.2297  0.6953
  192MPD1     N 2928   0.797   2.438  11.680  0.2827 -0.0464 -0.2718
  192MPD1    H5 2929   0.746   2.415  11.765 -0.4207  1.3609 -0.3133
  192MPD1    N1 2930   0.660   2.608  11.256 -0.1785 -0.5931  0.0427
  192MPD1    H6 2931   0.744   2.567  11.215  1.0786  1.0978  0.9241
  192MPD1    H7 2932   0.637   2.696  11.210 -1.4100 -0.3377  1.1600
  193MPD1     C 2933   0.240   2.542  16.782 -0.4905 -0.3516  0.7409
  193MPD1    C1 2934   0.371   2.503  16.750 -0.2705  0.0370 -0.3840
  193MPD1    C2 2935   0.467   2.601  16.767  0.2213  0.4467 -0.0668
  193MPD1    C3 2936   0.446   2.726  16.822 -0.6581  0.4385 -0.2087
  193MPD1    C4 2937   0.314   2.754  16.858 -0.7237 -0.3648 -0.1419
  193MPD1    C5 2938   0.213   2.662  16.835  0.1707  0.0154  0.6792
  193MPD1     H 2939   0.562   2.577  16.721 -1.4436  1.8838 -4.2529
  193MPD1    H1 2940   0.273   2.849  16.891 -0.7655  0.1821 -1.7577
  193MPD1    H2 2941   0.153   2.486  16.751  0.4043 -1.8424  0.9616
  193MPD1    H3 2942   0.111   2.688  16.861  0.7855  2.3967  0.7008
  193MPD1     N 2943   0.545   2.825  16.820  0.6032 -0.0864  0.0471
  193MPD1    H5 2944   0.513   2.918  16.842 -3.1089 -0.9469 -1.7382
  193MPD1    N1 2945   0.389   2.384  16.672  0.7664  0.0329 -0.6442
  193MPD1    H6 2946   0.481   2.341  16.661  0.0275 -2.5013  3.1667
  193MPD1    H7 2947   0.324   2.310  16.697  1.3519 -0.4741 -0.6133
  194MPD1     C 2948   2.545   0.311  16.440  0.7991 -0.0380  0.1342
  194MPD1    C1 2949   2.619   0.334  16.551  0.5126  0.0044  0.8795
  194MPD1    C2 2950   2.709   0.239  16.589  0.4150  0.1350  1.0498
  194MPD1    C3 2951   2.728   0.129  16.510  0.0919  0.1671  0.4194
  194MPD1    C4 2952   2.662   0.111  16.391 -0.3644 -0.4664 -0.2320
  194MPD1    C5 2953   2.568   0.204  16.357  0.0590  0.3008 -0.0640
  194MPD1     H 2954   2.769   0.258  16.677  0.6805 -0.8200  1.0779
  194MPD1    H1 2955   2.679   0.034  16.316  2.3625 -0.1022  0.0234
  194MPD1    H2 2956   2.458   0.368  16.410  1.6131  0.1933 -1.8190
  194MPD1    H3 2957   2.510   0.196  16.266  0.8848 -0.0709 -0.5550
  194MPD1     N 2958   2.826   0.028  16.548 -0.2363  0.1135  0.0301
  194MPD1    H5 2959   2.845   4.679  16.480  1.7477  0.9609 -0.3151
  194MPD1    N1 2960   2.596   0.446  16.637  0.3306 -0.0102  0.1286
  194MPD1    H6 2961   2.578   0.535  16.591 -0.6359  0.3404  1.1849
  194MPD1    H7 2962   2.674   0.468  16.698  0.3368  0.5255 -0.0789
  195MPD1     C 2963   0.480   1.629  17.526  0.5337 -0.5302 -0.2072
  195MPD1    C1 2964   0.343   1.646  17.521  0.4875  0.2128 -0.5917
  195MPD1    C2 2965   0.261   1.539  17.534  0.2395  0.6665  0.7867
  195MPD1    C3 2966   0.313   1.410  17.533  1.0890 -0.0691  0.5059
  195MPD1    C4 2967   0.450   1.390  17.527 -0.1933  0.0294 -0.9478
  195MPD1    C5 2968   0.529   1.504  17.520  0.2661  0.4374 -0.0111
  195MPD1     H 2969   0.154   1.554  17.542  0.2725  0.0058  2.5224
  195MPD1    H1 2970   0.497   1.293  17.514  0.0994 -0.1422  1.3814
  195MPD1    H2 2971   0.553   1.710  17.528 -0.3894  0.3097 -0.1907
  195MPD1    H3 2972   0.635   1.483  17.511  0.3814  1.8577 -1.7470
  195MPD1     N 2973   0.237   1.294  17.561  0.1069 -0.1614  0.6755
  195MPD1    H5 2974   0.279   1.202  17.562  1.5510  0.4858  1.2299
  195MPD1    N1 2975   0.293   1.774  17.548  0.5319  0.1384  0.0372
  195MPD1    H6 2976   0.359   1.845  17.516 -2.3205  2.2678 -1.1384
  195MPD1    H7 2977   0.203   1.795  17.506  0.5919 -1.2493 -0.7766
  196MPD1     C 2978   3.712   0.802   0.540 -0.9887 -0.1525 -0.2756
  196MPD1    C1 2979   3.699   0.854   0.408  0.3273 -0.9508  0.2877
  196MPD1    C2 2980   3.783   0.964   0.384  0.3389  0.9554 -0.2795
  196MPD1    C3 2981   3.877   1.012   0.474 -0.5397  0.0068  0.5124
  196MPD1    C4 2982   3.896   0.940   0.587  0.4615  0.3305 -0.3283
  196MPD1    C5 2983   3.814   0.838   0.624  0.7134 -0.0551 -0.1588
  196MPD1     H 2984   3.766   1.015   0.290  0.2775  0.6114 -0.4556
  196MPD1    H1 2985   3.975   0.966   0.658  1.4732  0.2379 -1.4310
  196MPD1    H2 2986   3.650   0.718   0.566 -1.5481  0.3501  0.0119
  196MPD1    H3 2987   3.836   0.785   0.716  0.0860 -2.0935 -1.1806
  196MPD1     N 2988   3.970   1.114   0.452 -0.5953  0.1125  0.3470
  196MPD1    H5 2989   4.044   1.127   0.520 -0.6494 -0.1246  0.4506
  196MPD1    N1 2990   3.587   0.823   0.330  0.4926 -0.6906 -0.2769
  196MPD1    H6 2991   3.609   0.836   0.231  1.0581 -0.2952 -0.1060
  196MPD1    H7 2992   3.551   0.729   0.345  1.6367 -1.1975 -0.6907
  197MPD1     C 2993   3.716   2.599  17.199  0.2761  0.1184 -0.3895
  197MPD1    C1 2994   3.840   2.618  17.258 -0.6021  0.4969 -0.1662
  197MPD1    C2 2995   3.910   2.728  17.212 -0.3615 -0.4716 -0.3126
  197MPD1    C3 2996   3.871   2.798  17.093  0.0888 -0.0904 -0.2475
  197MPD1    C4 2997   3.749   2.774  17.035 -0.2617 -0.6836 -0.2769
  197MPD1    C5 2998   3.666   2.682  17.097  0.6063 -0.7457 -0.1764
  197MPD1     H 2999   4.009   2.749  17.252 -0.5304 -1.9203  0.8618
  197MPD1    H1 3000   3.710   2.840  16.958  0.8959 -2.6856 -2.5978
  197MPD1    H2 3001   3.655   2.521  17.244 -1.5947  2.2916  0.8708
  197MPD1    H3 3002   3.565   2.668  17.062 -0.0258  1.3300  0.8256
  197MPD1     N 3003   3.944   2.910  17.039 -0.5544 -0.4710  0.2168
  197MPD1    H5 3004   3.913   2.937  16.946  1.4800  2.1113  0.2919
  197MPD1    N1 3005   3.879   2.567  17.376  0.1252  0.0181  0.0960
  197MPD1    H6 3006   3.847   2.472  17.394  0.0471  0.1520  0.6721
  197MPD1    H7 3007   3.980   2.554  17.376  0.0910 -0.2520 -0.0624
  198MPD1     C 3008   0.901   2.102  15.557 -0.4488 -0.0002 -0.4790
  198MPD1    C1 3009   1.011   2.090  15.479 -0.1617 -0.8079  0.8102
  198MPD1    C2 3010   1.120   2.030  15.533 -0.5051 -0.4321 -0.3967
  198MPD1    C3 3011   1.118   1.964  15.653 -0.1800 -0.1592 -0.6818
  198MPD1    C4 3012   1.001   1.975  15.729  0.4847 -0.0270  0.4470
  198MPD1    C5 3013   0.891   2.045  15.679 -0.0422 -0.2796 -0.4820
  198MPD1     H 3014   1.209   2.021  15.472  0.1522  0.5288  0.4376
  198MPD1    H1 3015   0.988   1.917  15.820 -1.0648 -1.3546 -0.6238
  198MPD1    H2 3016   0.818   2.153  15.511 -0.0621  0.6126 -0.4936
  198MPD1    H3 3017   0.799   2.037  15.736 -0.8535 -1.9954 -2.0351
  198MPD1     N 3018   1.239   1.902  15.692 -0.6247 -0.0932 -0.1061
  198MPD1    H5 3019   1.315   1.903  15.624  0.2629 -1.3506  0.8559
  198MPD1    N1 3020   1.013   2.154  15.351 -0.1627  0.0650  0.4791
  198MPD1    H6 3021   0.919   2.165  15.313  0.2648  2.3672  0.1008
  198MPD1    H7 3022   1.075   2.099  15.291  0.3029  2.6293 -1.3553
  199MPD1     C 3023   2.927   2.257   9.957 -0.1849 -0.0367 -0.2624
  199MPD1    C1 3024   2.785   2.247   9.943 -0.4682 -0.0377  0.1509
  199MPD1    C2 3025   2.721   2.318   9.842 -0.7752 -0.1374  0.2205
  199MPD1    C3 3026   2.785   2.409   9.764 -0.2434  0.0508 -0.2982
  199MPD1    C4 3027   2.922   2.422   9.784 -1.2478  0.9052  0.2605
  199MPD1    C5 3028   2.991   2.344   9.876 -0.5190  0.4957 -0.6601
  199MPD1     H 3029   2.615   2.299   9.832 -0.5377  0.2015 -2.8103
  199MPD1    H1 3030   2.981   2.480   9.714 -2.7514  0.6820 -1.1932
  199MPD1    H2 3031   2.972   2.195  10.035 -1.2281  1.1812  1.3019
  199MPD1    H3 3032   3.096   2.370   9.880 -0.0104 -1.3162 -2.0091
  199MPD1     N 3033   2.728   2.469   9.651  0.1241  0.2396  0.0423
  199MPD1    H5 3034   2.789   2.523   9.592  0.8662 -1.9112 -1.1499
  199MPD1    N1 3035   2.708   2.162  10.020 -0.0660 -0.0988 -0.1497
  199MPD1    H6 3036   2.750   2.146  10.111 -0.0749 -0.9945 -0.3025
  199MPD1    H7 3037   2.616   2.202  10.039 -1.0519 -2.1945 -0.4618
  200MPD1     C 3038   1.943   2.943  14.975  0.2085 -0.3198  0.8338
  200MPD1    C1 3039   1.938   2.929  14.838 -0.2074 -0.3230  0.5999
  200MPD1    C2 3040   2.056   2.894  14.774  0.5779  0.1213  0.4794
  200MPD1    C3 3041   2.173   2.877  14.840 -0.3333  0.1178 -0.4048
  200MPD1    C4 3042   2.177   2.891  14.981  0.7144  0.6016 -0.3011
  200MPD1    C5 3043   2.060   2.915  15.045  0.2439  0.4668  0.2359
  200MPD1     H 3044   2.060   2.895  14.666  0.8831 -0.7297  0.4836
  200MPD1    H1 3045   2.265   2.883  15.045  0.5479 -0.0139 -0.1403
  200MPD1    H2 3046   1.855   2.964  15.035  1.5862  1.2635  2.2834
  200MPD1    H3 3047   2.059   2.936  15.151 -0.5495 -0.5881  0.4388
  200MPD1     N 3048   2.286   2.852  14.758  0.1818  0.8238 -0.1211
  200MPD1    H5 3049   2.268   2.825  14.661 -0.4856  0.9789 -0.0374
  200MPD1    N1 3050   1.826   2.974  14.765 -0.1912  0.0629  1.0229
  200MPD1    H6 3051   1.809   2.948  14.668  0.3317 -1.5980  1.3851
  200MPD1    H7 3052   1.739   2.966  14.817 -0.4087  0.5287  0.7382
  201MPD1     C 3053   3.966   2.055  13.080 -0.0994  0.3613 -0.0706
  201MPD1    C1 3054   4.018   2.061  12.954 -0.6358 -1.0942 -0.5232
  201MPD1    C2 3055   4.121   1.974  12.928 -0.0278  0.1780  0.6158
  201MPD1    C3 3056   4.161   1.868  13.016  0.1622  0.6252 -0.1557
  201MPD1    C4 3057   4.084   1.845  13.129  0.0769  0.1057  0.3650
  201MPD1    C5 3058   3.990   1.945  13.155 -0.3507  0.4463  0.0909
  201MPD1     H 3059   4.183   1.986  12.840 -0.1388  1.4549  0.7102
  201MPD1    H1 3060   4.083   1.754  13.188  0.2047  0.8352  1.5117
  201MPD1    H2 3061   3.900   2.128  13.125  1.2336  0.9500  0.9163
  201MPD1    H3 3062   3.921   1.931  13.237 -0.4009  4.3057  0.7329
  201MPD1     N 3063   4.270   1.777  12.985  0.2472  0.2082 -0.2329
  201MPD1    H5 3064   4.319   1.784  12.896  0.8824  0.9306  0.1810
  201MPD1    N1 3065   3.991   2.172  12.869 -0.6487  0.6740  0.0602
  201MPD1    H6 3066   3.891   2.192  12.876 -0.7899  0.7527 -2.4975
  201MPD1    H7 3067   4.004   2.148  12.771 -0.3076  1.3352 -0.0498
  202MPD1     C 3068   3.607   1.290  10.465  0.2193 -0.0345  0.0725
  202MPD1    C1 3069   3.679   1.233  10.562 -0.2823 -0.3535  0.0524
  202MPD1    C2 3070   3.799   1.184  10.517 -0.1729 -0.3383  0.1371
  202MPD1    C3 3071   3.871   1.222  10.403 -0.5156  0.6025  0.6699
  202MPD1    C4 3072   3.795   1.293  10.321  1.2527  0.4749 -0.0858
  202MPD1    C5 3073   3.667   1.328  10.345  0.4760 -0.2736  0.3981
  202MPD1     H 3074   3.851   1.121  10.589  1.4354  0.2398 -0.5168
  202MPD1    H1 3075   3.853   1.343  10.244  4.0362 -0.9449  1.0942
  202MPD1    H2 3076   3.503   1.318  10.477  1.0228  2.0662  2.1312
  202MPD1    H3 3077   3.616   1.392  10.274 -2.0890 -0.2303  2.2433
  202MPD1     N 3078   4.009   1.196  10.376 -0.0767  0.0135 -0.1275
  202MPD1    H5 3079   4.035   1.255  10.297 -2.5239  1.9751  0.5294
  202MPD1    N1 3080   3.617   1.172  10.668 -0.4015  0.2341  0.1841
  202MPD1    H6 3081   3.546   1.236  10.705 -0.2686 -1.0613  2.6418
  202MPD1    H7 3082   3.680   1.149  10.744 -0.2403 -0.5220 -0.1884
  203MPD1     C 3083   3.851   2.859  12.349  0.0363 -0.0701  0.8375
  203MPD1    C1 3084   3.840   2.807  12.480  0.5041 -0.7933 -0.2411
  203MPD1    C2 3085   3.815   2.669  12.488  0.3988 -0.3882 -0.3600
  203MPD1    C3 3086   3.816   2.591  12.375 -0.4949 -0.4157 -0.1870
  203MPD1    C4 3087   3.835   2.643  12.249 -0.5571 -0.1069  0.7453
  203MPD1    C5 3088   3.851   2.775  12.239  0.7218  0.5606  0.6419
  203MPD1     H 3089   3.805   2.619  12.583 -2.1142  1.4862  0.3422
  203MPD1    H1 3090   3.835   2.576  12.163 -0.7886  0.3344  0.4057
  203MPD1    H2 3091   3.870   2.964  12.330  0.7400 -0.4420 -0.4869
  203MPD1    H3 3092   3.871   2.822  12.143 -0.0104  1.8590  1.1226
  203MPD1     N 3093   3.787   2.456  12.401 -0.2549 -0.0747 -0.6675
  203MPD1    H5 3094   3.801   2.421  12.495 -1.0988  2.2161  0.3257
  203MPD1    N1 3095   3.825   2.889  12.593 -0.0134  0.0230 -0.3210
  203MPD1    H6 3096   3.892   2.965  12.580  1.4415 -0.9606  1.5288
  203MPD1    H7 3097   3.854   2.840  12.677 -0.2872  0.2990 -0.0623
  204MPD1     C 3098   3.315   3.175   0.027  0.3572 -0.2997  0.4333
  204MPD1    C1 3099   3.283   3.045  17.690  0.4338  0.7349  0.0978
  204MPD1    C2 3100   3.215   3.026  17.575 -0.4050 -0.6702  0.5156
  204MPD1    C3 3101   3.186   3.127  17.486  0.5298 -0.5184  0.4507
  204MPD1    C4 3102   3.219   3.257  17.526  0.3882 -0.6546  0.0797
  204MPD1    C5 3103   3.271   3.277  17.649  0.7438  0.3317  0.1891
  204MPD1     H 3104   3.173   2.928  17.556  1.5550 -1.1974 -1.1737
  204MPD1    H1 3105   3.204   3.342  17.461  2.1031 -0.3019  0.1300
  204MPD1    H2 3106   3.353   3.193   0.126 -0.5984 -1.8913  1.0841
  204MPD1    H3 3107   3.296   3.376  17.684  0.5533 -0.1844  1.7798
  204MPD1     N 3108   3.137   3.091  17.362 -0.1928 -0.6089 -0.4171
  204MPD1    H5 3109   3.129   2.992  17.343  0.7287 -0.9280  0.8045
  204MPD1    N1 3110   3.271   2.941   0.089 -0.6721 -0.0063  0.2034
  204MPD1    H6 3111   3.351   2.937   0.151  0.4342 -1.8868 -1.3673
  204MPD1    H7 3112   3.275   2.847   0.050 -1.2363  0.3984 -0.8251
  205MPD1     C 3113   1.960   2.241  16.281 -0.3036 -1.4068  0.6099
  205MPD1    C1 3114   2.072   2.316  16.269  0.5497  0.1519  0.6858
  205MPD1    C2 3115   2.185   2.286  16.354 -0.3316 -0.2830 -0.4089
  205MPD1    C3 3116   2.174   2.190  16.445  0.3930  0.3191  0.0837
  205MPD1    C4 3117   2.064   2.104  16.445 -0.2976  0.0047  0.2117
  205MPD1    C5 3118   1.961   2.138  16.361  0.1871 -0.5393 -0.6167
  205MPD1     H 3119   2.274   2.347  16.348 -0.7873  0.5672  1.4677
  205MPD1    H1 3120   2.051   2.020  16.512  2.6193 -0.1693  0.5420
  205MPD1    H2 3121   1.878   2.258  16.211 -0.4295  0.2164  1.1363
  205MPD1    H3 3122   1.874   2.074  16.362 -1.2052  1.4320  2.8890
  205MPD1     N 3123   2.276   2.155  16.539  0.5919  0.5517  0.2543
  205MPD1    H5 3124   2.250   2.086  16.609 -0.3936 -0.3753 -1.0260
  205MPD1    N1 3125   2.093   2.393  16.152 -0.0643 -0.7000  0.4364
  205MPD1    H6 3126   2.168   2.463  16.154 -1.8164  1.1461  1.3816
  205MPD1    H7 3127   2.004   2.424  16.114  0.4534  0.4355  0.1165
  206MPD1     C 3128   3.110   0.266  16.524 -0.6476 -0.4680 -0.0793
  206MPD1    C1 3129   3.172   0.180  16.433  0.1132 -0.2156  0.5749
  206MPD1    C2 3130   3.119   0.173  16.311  0.5276  0.3074 -0.4068
  206MPD1    C3 3131   3.012   0.243  16.270  0.5674 -0.4413 -0.4013
  206MPD1    C4 3132   2.959   0.334  16.353 -0.8277  0.2805  0.3866
  206MPD1    C5 3133   3.005   0.345  16.480  0.3427  0.6501  1.0883
  206MPD1     H 3134   3.164   0.097  16.248  2.2276  0.4374  0.6308
  206MPD1    H1 3135   2.872   0.394  16.327 -1.0594 -0.3778 -0.3629
  206MPD1    H2 3136   3.144   0.283  16.626 -1.7044 -2.4978  0.6002
  206MPD1    H3 3137   2.961   0.406  16.558 -0.2471  2.2992 -0.5392
  206MPD1     N 3138   2.953   0.238  16.138  0.3116  0.8082 -0.1724
  206MPD1    H5 3139   2.875   0.298  16.112  0.0343 -0.0187 -1.2696
  206MPD1    N1 3140   3.276   0.092  16.471 -0.0137 -0.0019  0.3089
  206MPD1    H6 3141   3.321   0.119  16.558 -1.3884  0.6896  0.7977
  206MPD1    H7 3142   3.347   0.074  16.400  0.0489 -2.4114  0.9935
  207MPD1     C 3143   1.742   3.629   9.552 -0.2426  0.3903 -0.2452
  207MPD1    C1 3144   1.609   3.626   9.594 -0.6756 -0.1860  0.3886
  207MPD1    C2 3145   1.566   3.519   9.665  0.3507  0.7521 -0.8847
  207MPD1    C3 3146   1.652   3.416   9.693  0.1903  0.2531 -0.1410
  207MPD1    C4 3147   1.784   3.421   9.650  0.2954  0.4059  0.2673
  207MPD1    C5 3148   1.824   3.529   9.580  0.0448  0.0144  0.1793
  207MPD1     H 3149   1.462   3.510   9.695  0.4484  0.3544 -0.6624
  207MPD1    H1 3150   1.857   3.345   9.676  1.6681  2.0637  1.2506
  207MPD1    H2 3151   1.777   3.722   9.509  0.2981 -0.0620 -0.7782
  207MPD1    H3 3152   1.927   3.537   9.548  0.0862  0.8111  0.5185
  207MPD1     N 3153   1.611   3.308   9.773  0.3326  0.4567  0.6368
  207MPD1    H5 3154   1.682   3.238   9.793  0.5296  0.5730  0.3537
  207MPD1    N1 3155   1.517   3.725   9.551 -0.1457  0.0108  0.0095
  207MPD1    H6 3156   1.450   3.740   9.626  1.1473  2.2997  0.7058
  207MPD1    H7 3157   1.561   3.811   9.518  1.9762 -0.7680  0.8432
  208MPD1     C 3158   3.222   1.065  16.971 -0.0525  0.0278 -0.4287
  208MPD1    C1 3159   3.123   1.154  16.939 -0.8964  0.0052 -0.5685
  208MPD1    C2 3160   3.070   1.217  17.046 -0.0863 -0.3582  0.6164
  208MPD1    C3 3161   3.110   1.187  17.180  0.3892  0.2138 -0.4777
  208MPD1    C4 3162   3.202   1.091  17.205  0.5826 -0.7354  0.0497
  208MPD1    C5 3163   3.255   1.029  17.101 -0.0338  0.3750  0.4926
  208MPD1     H 3164   2.988   1.285  17.026 -0.5912 -0.6365  1.7413
  208MPD1    H1 3165   3.217   1.054  17.306  2.4599 -0.8813 -0.2815
  208MPD1    H2 3166   3.282   1.030  16.888  0.7123  2.7915 -1.0692
  208MPD1    H3 3167   3.332   0.954  17.120  0.7037  0.9501 -0.2302
  208MPD1     N 3168   3.051   1.254  17.290  0.3388  1.2376 -0.2736
  208MPD1    H5 3169   2.975   1.319  17.271 -0.7729  0.3111  1.0948
  208MPD1    N1 3170   3.094   1.206  16.809  0.0483  0.3737  0.4011
  208MPD1    H6 3171   3.074   1.128  16.746  2.7336  0.6577 -0.8108
  208MPD1    H7 3172   3.014   1.269  16.818  0.9567  1.2798  1.9643
  209MPD1     C 3173   1.047   1.847   8.722  0.2880 -0.1136  0.6475
  209MPD1    C1 3174   1.127   1.942   8.664 -0.1716 -0.0995 -0.3484
  209MPD1    C2 3175   1.153   2.058   8.743  0.1071 -0.3220  0.5130
  209MPD1    C3 3176   1.097   2.074   8.869  0.2060 -0.0941  0.2422
  209MPD1    C4 3177   1.019   1.979   8.927  0.2367  0.2067  0.2982
  209MPD1    C5 3178   1.005   1.866   8.851  0.0348  0.9647 -0.7615
  209MPD1     H 3179   1.212   2.138   8.699 -1.2373  0.3018 -0.1496
  209MPD1    H1 3180   0.957   1.988   9.015 -1.0314  0.0632 -0.5900
  209MPD1    H2 3181   1.020   1.752   8.678  0.1523  0.8760 -1.3663
  209MPD1    H3 3182   0.944   1.783   8.884  2.1142 -0.2632 -0.0149
  209MPD1     N 3183   1.116   2.199   8.929  0.1191 -0.1157 -1.0959
  209MPD1    H5 3184   1.172   2.263   8.873 -0.6051  0.3114 -1.3320
  209MPD1    N1 3185   1.155   1.934   8.524 -0.0760  0.4423  0.6949
  209MPD1    H6 3186   1.240   1.988   8.511  0.8792 -1.0406  0.7554
  209MPD1    H7 3187   1.183   1.838   8.506  1.6094  0.6995  1.9864
  210MPD1     C 3188   1.337   2.802   8.411  0.6008 -0.5189 -0.4167
  210MPD1    C1 3189   1.355   2.883   8.523 -0.2799  0.4940 -0.8154
  210MPD1    C2 3190   1.321   2.829   8.646  0.1454 -0.3904 -0.2477
  210MPD1    C3 3191   1.292   2.690   8.649 -1.0844 -0.2124  0.0460
  210MPD1    C4 3192   1.293   2.611   8.539 -0.2105 -0.4092 -0.0304
  210MPD1    C5 3193   1.314   2.667   8.416 -0.1427  0.4148 -0.3916
  210MPD1     H 3194   1.312   2.897   8.730 -1.1634 -2.6670  1.4517
  210MPD1    H1 3195   1.274   2.504   8.534 -0.3981 -0.3524 -0.6204
  210MPD1    H2 3196   1.352   2.849   8.314 -0.6973  1.9873  0.5934
  210MPD1    H3 3197   1.309   2.602   8.329 -2.9770  1.6504 -1.1907
  210MPD1     N 3198   1.251   2.623   8.769  0.6318 -0.4949 -0.0534
  210MPD1    H5 3199   1.240   2.522   8.772  0.9365 -0.5155  0.2811
  210MPD1    N1 3200   1.352   3.025   8.494  0.4745  0.0427 -0.2083
  210MPD1    H6 3201   1.386   3.062   8.405  0.9901 -1.0378 -0.4594
  210MPD1    H7 3202   1.378   3.083   8.574  0.8412  1.5080 -1.3746
  211MPD1     C 3203   4.332   2.515  16.435 -0.2193 -0.0677  0.0716
  211MPD1    C1 3204   4.263   2.534  16.312  0.8536  0.2242 -0.0783
  211MPD1    C2 3205   4.128   2.500  16.298 -0.1843  0.0757  0.2678
  211MPD1    C3 3206   4.067   2.428  16.402  0.6664  0.4883 -0.5866
  211MPD1    C4 3207   4.143   2.392  16.514  0.0316  0.5689 -0.0912
  211MPD1    C5 3208   4.268   2.446  16.531 -0.4246 -0.3215  0.1374
  211MPD1     H 3209   4.071   2.530  16.211  0.1538 -2.6604 -0.8896
  211MPD1    H1 3210   4.095   2.345  16.599 -0.8342  1.4448 -0.0908
  211MPD1    H2 3211   4.434   2.549  16.447 -0.4143 -0.0052  1.6105
  211MPD1    H3 3212   4.311   2.439  16.630  1.5010 -1.3224 -0.7825
  211MPD1     N 3213   3.932   2.397  16.396 -0.4616 -0.4198 -0.2796
  211MPD1    H5 3214   3.886   2.438  16.315 -0.5064  0.3843  0.1524
  211MPD1    N1 3215   4.323   2.610  16.212  0.3118  0.6782 -0.4213
  211MPD1    H6 3216   4.308   2.566  16.121  1.1574  1.1485 -0.7932
  211MPD1    H7 3217   4.422   2.627  16.231  0.5464 -1.1228 -0.0421
  212MPD1     C 3218   2.144   0.578  16.246 -0.5006  0.4183 -0.3051
  212MPD1    C1 3219   2.232   0.470  16.225 -0.8922 -0.0858 -0.8016
  212MPD1    C2 3220   2.196   0.348  16.275 -0.1228  0.2683 -1.0984
  212MPD1    C3 3221   2.069   0.331  16.331  0.2126  0.2822  0.0259
  212MPD1    C4 3222   1.981   0.438  16.344 -0.3860 -0.1016 -0.1690
  212MPD1    C5 3223   2.023   0.561  16.300  1.0586 -0.0895 -0.0076
  212MPD1     H 3224   2.263   0.265  16.256  0.6855  0.7939 -0.5244
  212MPD1    H1 3225   1.886   0.434  16.397 -1.2776 -1.5305 -1.9027
  212MPD1    H2 3226   2.179   0.679  16.228  0.2341  0.3378  0.7338
  212MPD1    H3 3227   1.962   0.648  16.323 -0.6428 -1.3705  0.3793
  212MPD1     N 3228   2.027   0.206  16.376 -0.2383  0.2199 -0.1467
  212MPD1    H5 3229   1.932   0.190  16.408 -0.3895  1.7269  0.1687
  212MPD1    N1 3230   2.354   0.494  16.162 -0.0844 -0.0517 -0.2563
  212MPD1    H6 3231   2.350   0.563  16.087 -1.8143 -0.0393 -0.1705
  212MPD1    H7 3232   2.407   0.409  16.141 -0.0112 -1.0507  3.9452
  213MPD1     C 3233   0.830   1.644  15.738  0.0416 -0.0063 -0.1456
  213MPD1    C1 3234   0.912   1.645  15.626  0.2954 -0.4320  0.7450
  213MPD1    C2 3235   0.860   1.560  15.533 -0.8953  0.5298 -0.4545
  213MPD1    C3 3236   0.728   1.550  15.506  0.3315 -0.5017 -0.2136
  213MPD1    C4 3237   0.642   1.588  15.607  0.3214  0.0226 -0.8273
  213MPD1    C5 3238   0.697   1.650  15.716  0.4616  0.0050 -0.4165
  213MPD1     H 3239   0.936   1.502  15.481 -1.1076  0.4298 -0.6534
  213MPD1    H1 3240   0.534   1.580  15.599  0.2121  1.5154 -0.8837
  213MPD1    H2 3241   0.864   1.686  15.832  1.7310  0.4359 -0.9659
  213MPD1    H3 3242   0.629   1.677  15.796  0.7641  0.6338 -0.3701
  213MPD1     N 3243   0.690   1.488  15.386 -0.1616 -0.2821  0.1252
  213MPD1    H5 3244   0.599   1.444  15.393 -0.3712 -0.0126 -0.8724
  213MPD1    N1 3245   1.052   1.636  15.644 -1.1554  0.4822  0.0280
  213MPD1    H6 3246   1.087   1.711  15.703  0.2525  0.2275 -0.4942
  213MPD1    H7 3247   1.102   1.648  15.556 -0.2788  1.5108  0.6660
  214MPD1     C 3248   0.095   0.803  14.976 -0.5155 -0.5005 -0.0352
  214MPD1    C1 3249   0.083   0.884  15.084 -0.1307  0.0197  0.0565
  214MPD1    C2 3250   0.178   0.987  15.105 -0.1004  0.1066  0.1140
  214MPD1    C3 3251   0.300   0.985  15.034  1.1736 -0.3146  0.0459
  214MPD1    C4 3252   0.314   0.894  14.932 -0.4628  0.0099  0.0082
  214MPD1    C5 3253   0.208   0.812  14.898  0.0899  0.8387  0.5860
  214MPD1     H 3254   0.160   1.058  15.185  1.0612  0.4742  0.0424
  214MPD1    H1 3255   0.412   0.898  14.886 -0.7533 -3.4710 -0.9059
  214MPD1    H2 3256   0.012   0.735  14.959 -1.4841  1.0902 -1.6007
  214MPD1    H3 3257   0.218   0.749  14.811  0.5928 -0.2179  1.4018
  214MPD1     N 3258   0.401   1.079  15.051 -0.4624  0.1961  0.5902
  214MPD1    H5 3259   0.481   1.076  14.990 -0.0864  2.8190  0.9467
  214MPD1    N1 3260   4.683   0.883  15.143 -0.1650 -0.3333  0.2097
  214MPD1    H6 3261   4.639   0.792  15.152 -0.7556 -0.0594  0.0616
  214MPD1    H7 3262   4.678   0.924  15.236  1.6300 -1.8988  1.0079
  215MPD1     C 3263   0.749   1.484   9.695 -0.7488 -0.2419 -0.3333
  215MPD1    C1 3264   0.873   1.534   9.689  0.4504  0.0493  0.8427
  215MPD1    C2 3265   0.914   1.620   9.787 -0.4851  0.3572 -0.7069
  215MPD1    C3 3266   0.822   1.669   9.876 -0.2825  0.0673  0.5581
  215MPD1    C4 3267   0.697   1.618   9.878  0.2006  0.0795 -0.8103
  215MPD1    C5 3268   0.662   1.520   9.787  0.4294  0.7344  0.1751
  215MPD1     H 3269   1.018   1.649   9.793 -0.2784 -0.5537 -0.0383
  215MPD1    H1 3270   0.617   1.670   9.928  0.9245  1.2056 -0.8184
  215MPD1    H2 3271   0.728   1.389   9.647 -0.2649  0.4620 -1.9438
  215MPD1    H3 3272   0.565   1.472   9.792  1.5942 -1.4066  2.6898
  215MPD1     N 3273   0.859   1.788   9.953  0.3006  0.0481  0.0254
  215MPD1    H5 3274   0.950   1.828   9.932  0.3779 -1.3215 -2.3740
  215MPD1    N1 3275   0.981   1.463   9.626 -0.3623  0.2481  0.3780
  215MPD1    H6 3276   1.067   1.517   9.617 -0.0827 -0.3926 -0.7447
  215MPD1    H7 3277   0.959   1.419   9.537  1.2712 -0.1455  0.1739
  216MPD1     C 3278   2.212   3.856  16.558 -0.1276 -0.9148  0.2512
  216MPD1    C1 3279   2.147   3.913  16.662 -0.3190  0.3617 -0.4293
  216MPD1    C2 3280   2.213   3.891  16.788 -0.7965  0.0352 -0.3142
  216MPD1    C3 3281   2.316   3.800  16.799 -0.2260 -0.0817  0.4049
  216MPD1    C4 3282   2.365   3.730  16.685 -0.1311  0.1600  0.2474
  216MPD1    C5 3283   2.319   3.773  16.569 -0.3439 -0.8638 -0.3070
  216MPD1     H 3284   2.183   3.937  16.881 -0.1366  0.5520 -0.3569
  216MPD1    H1 3285   2.442   3.654  16.697  1.9614  1.8030 -2.7479
  216MPD1    H2 3286   2.170   3.859  16.457  0.7675 -1.7758 -0.1475
  216MPD1    H3 3287   2.355   3.727  16.478  1.8552 -0.7774  0.5233
  216MPD1     N 3288   2.355   3.762  16.931  0.3410 -0.2542  0.1157
  216MPD1    H5 3289   2.295   3.800  17.005 -1.7332 -1.9985 -0.6722
  216MPD1    N1 3290   2.034   3.993  16.648 -0.5375  0.0800 -0.7898
  216MPD1    H6 3291   1.987   3.989  16.558  0.4833 -0.4761 -1.2890
  216MPD1    H7 3292   2.060   4.088  16.676  0.2050 -0.2456 -0.3844
  217MPD1     C 3293   1.761   1.221   8.827 -0.2749  0.3007  0.2115
  217MPD1    C1 3294   1.852   1.127   8.781 -0.0369 -0.6521 -0.0044
  217MPD1    C2 3295   1.957   1.100   8.868 -0.6975  0.1596  0.0165
  217MPD1    C3 3296   1.953   1.141   8.999  0.1386 -0.4072  0.7747
  217MPD1    C4 3297   1.860   1.229   9.046 -0.3340  0.0660  0.8203
  217MPD1    C5 3298   1.766   1.271   8.956  0.1831 -0.1761  1.0035
  217MPD1     H 3299   2.034   1.033   8.832  1.5318  2.7485  0.0041
  217MPD1    H1 3300   1.860   1.277   9.143 -1.1386 -0.0474  0.8765
  217MPD1    H2 3301   1.677   1.256   8.769  1.9083  2.6952 -1.5448
  217MPD1    H3 3302   1.702   1.353   8.988 -0.1352 -0.4518  1.0699
  217MPD1     N 3303   2.054   1.110   9.096 -0.6774  0.1703 -0.1438
  217MPD1    H5 3304   2.033   1.142   9.190 -2.3540  0.0493 -0.4731
  217MPD1    N1 3305   1.854   1.098   8.642  0.3100 -0.0851 -0.2170
  217MPD1    H6 3306   1.758   1.099   8.608  0.3874 -2.4542 -0.4765
  217MPD1    H7 3307   1.888   1.003   8.629  0.1160  0.0462 -1.7572
  218MPD1     C 3308   0.279   2.691  12.053  0.2985  0.1709  0.3685
  218MPD1    C1 3309   0.182   2.595  12.063  0.2464  0.3094  0.0186
  218MPD1    C2 3310   0.217   2.463  12.032  0.1771  0.6077 -0.3455
  218MPD1    C3 3311   0.343   2.434  11.985  0.7670  0.1770 -0.2952
  218MPD1    C4 3312   0.443   2.532  11.984  0.0592  0.0114  0.2096
  218MPD1    C5 3313   0.401   2.661  12.009  0.2569  0.0622 -0.0477
  218MPD1     H 3314   0.145   2.382  12.035  0.4237  0.4039  0.1966
  218MPD1    H1 3315   0.544   2.503  11.959  0.3828 -0.9968  2.7919
  218MPD1    H2 3316   0.255   2.795  12.073 -0.0445  0.6272 -2.4167
  218MPD1    H3 3317   0.468   2.746  12.017  1.6995 -0.6114 -4.8231
  218MPD1     N 3318   0.372   2.296  11.961 -0.3934  0.4308  0.0216
  218MPD1    H5 3319   0.307   2.228  11.999  0.4572  0.0180  0.7210
  218MPD1    N1 3320   0.046   2.631  12.075  0.2687  0.6865 -0.5059
  218MPD1    H6 3321   0.038   2.702  12.148  0.8015  1.8260 -1.5720
  218MPD1    H7 3322   4.710   2.551  12.098 -1.8514  3.5310  3.9982
  219MPD1     C 3323   1.055   1.923  11.345 -0.5318 -0.6982  0.1518
  219MPD1    C1 3324   1.036   1.819  11.430  0.1893  0.4542  0.7369
  219MPD1    C2 3325   0.936   1.835  11.530 -0.5058 -0.0095  0.1147
  219MPD1    C3 3326   0.855   1.947  11.530  0.2921 -0.1716  0.0253
  219MPD1    C4 3327   0.876   2.047  11.435  0.0121  0.2276  0.0667
  219MPD1    C5 3328   0.973   2.035  11.343 -0.6463  0.1980  0.3739
  219MPD1     H 3329   0.926   1.750  11.595 -2.0512  0.6424  0.7380
  219MPD1    H1 3330   0.828   2.144  11.437  0.0068  0.2434 -0.6334
  219MPD1    H2 3331   1.146   1.932  11.288 -0.5237 -0.3562  0.2231
  219MPD1    H3 3332   1.007   2.119  11.284  1.5246  0.1465  1.5582
  219MPD1     N 3333   0.743   1.970  11.615 -0.1259  0.9678 -0.3596
  219MPD1    H5 3334   0.696   2.059  11.624 -2.0176  0.0854 -1.3167
  219MPD1    N1 3335   1.145   1.725  11.440 -0.5828 -0.4382 -0.3033
  219MPD1    H6 3336   1.184   1.714  11.346 -0.3816  0.5300 -0.3408
  219MPD1    H7 3337   1.120   1.638  11.484  1.8123 -1.9589 -1.9531
  220MPD1     C 3338   4.094   2.674   9.183 -0.4423  0.2611  0.2540
  220MPD1    C1 3339   4.082   2.611   9.302 -1.1254 -0.2575 -0.1575
  220MPD1    C2 3340   4.198   2.545   9.353  0.4401  0.4806 -0.3112
  220MPD1    C3 3341   4.324   2.562   9.299 -0.4837  0.6844  0.3749
  220MPD1    C4 3342   4.325   2.650   9.191 -0.3323 -1.1610 -0.6858
  220MPD1    C5 3343   4.213   2.697   9.129  1.2336 -0.0113 -0.0696
  220MPD1     H 3344   4.181   2.490   9.445  0.1026  0.1093 -0.5964
  220MPD1    H1 3345   4.421   2.673   9.146  1.3245 -1.5646  2.6662
  220MPD1    H2 3346   4.004   2.704   9.131 -0.4743  1.3025  0.9136
  220MPD1    H3 3347   4.226   2.750   9.035 -0.4325  3.7707  1.8114
  220MPD1     N 3348   4.439   2.503   9.362 -0.1311  0.4610 -0.6228
  220MPD1    H5 3349   4.417   2.442   9.440  1.7762  1.5207  0.7495
  220MPD1    N1 3350   3.953   2.575   9.347  0.1225  0.4690 -0.0461
  220MPD1    H6 3351   3.891   2.655   9.353 -1.1956 -0.7350  2.4730
  220MPD1    H7 3352   3.965   2.550   9.445 -2.9078 -1.8888 -0.2665
  221MPD1     C 3353   2.346   1.546  16.212  0.0916 -0.6886  0.0246
  221MPD1    C1 3354   2.385   1.650  16.138  0.2672  0.1528  0.0687
  221MPD1    C2 3355   2.514   1.692  16.154 -0.8852  0.6777 -1.0538
  221MPD1    C3 3356   2.599   1.634  16.251  0.7815 -0.4691  0.3094
  221MPD1    C4 3357   2.541   1.539  16.340  0.3494  0.1536 -0.7850
  221MPD1    C5 3358   2.414   1.503  16.316 -0.1951 -0.1843  0.6360
  221MPD1     H 3359   2.545   1.780  16.097  0.6886 -0.7286 -2.3764
  221MPD1    H1 3360   2.594   1.483  16.416  1.7494 -0.0924 -1.9463
  221MPD1    H2 3361   2.244   1.511  16.212  0.0961 -0.7234 -2.8226
  221MPD1    H3 3362   2.382   1.416  16.372 -2.2178 -0.6185 -1.1939
  221MPD1     N 3363   2.732   1.665  16.270  0.8597  0.1467 -0.5481
  221MPD1    H5 3364   2.773   1.607  16.342 -3.7377 -0.4797  1.5804
  221MPD1    N1 3365   2.296   1.731  16.066  0.2810  0.7059 -0.7178
  221MPD1    H6 3366   2.337   1.783  15.988 -0.6607 -0.1312 -1.7706
  221MPD1    H7 3367   2.221   1.678  16.022  0.1793  0.1824  0.0904
  222MPD1     C 3368   2.423   4.667  16.617  0.0288 -0.0188  0.9879
  222MPD1    C1 3369   2.395   4.563  16.699 -0.4599 -0.2208  0.5027
  222MPD1    C2 3370   2.343   4.583  16.823  0.2593  0.1028  0.0623
  222MPD1    C3 3371   2.295   4.708  16.862  0.2919 -0.6758  0.5379
  222MPD1    C4 3372   2.305   0.089  16.771 -0.1943  0.3065  0.7236
  222MPD1    C5 3373   2.375   0.068  16.654  0.0572  0.0340  1.0278
  222MPD1     H 3374   2.337   4.492  16.882  1.8347  0.2241  0.3868
  222MPD1    H1 3375   2.264   0.188  16.781 -2.1557 -0.7702  3.3357
  222MPD1    H2 3376   2.481   4.652  16.527 -1.3207  0.7403 -0.0111
  222MPD1    H3 3377   2.388   0.160  16.599 -0.3659 -0.7008 -0.2915
  222MPD1     N 3378   2.227   0.019  16.984  0.8411  0.5328 -0.0542
  222MPD1    H5 3379   2.192   0.114  16.995 -0.4513 -0.0166  0.5601
  222MPD1    N1 3380   2.471   4.441  16.671 -0.0687  0.4383 -0.0121
  222MPD1    H6 3381   2.417   4.365  16.711 -1.9719  2.3056  0.9232
  222MPD1    H7 3382   2.465   4.429  16.570 -1.3189 -0.8320  0.2189
  223MPD1     C 3383   1.628   4.206  17.583  0.4245  0.7756 -0.9020
  223MPD1    C1 3384   1.709   4.163  17.477  0.1960 -0.4786 -0.0471
  223MPD1    C2 3385   1.787   4.268  17.427 -0.0856 -0.5169  0.1604
  223MPD1    C3 3386   1.790   4.397  17.475 -0.0728  0.5597  0.2284
  223MPD1    C4 3387   1.722   4.424  17.593  0.2270  0.2252  1.0990
  223MPD1    C5 3388   1.638   4.327  17.644 -0.6210  0.1565 -0.4825
  223MPD1     H 3389   1.846   4.241  17.340 -1.2961 -0.9901 -0.5211
  223MPD1    H1 3390   1.721   4.521  17.640 -0.6888  0.1018  1.3280
  223MPD1    H2 3391   1.551   4.143  17.626  1.5406 -0.6373 -0.9831
  223MPD1    H3 3392   1.565   4.353   0.025  1.3787  1.7680  0.8568
  223MPD1     N 3393   1.862   4.499  17.401 -0.2928  0.2683  0.3115
  223MPD1    H5 3394   1.908   4.470  17.316  0.7353  0.3499  0.8309
  223MPD1    N1 3395   1.691   4.046  17.404  0.3935  0.0357 -0.4691
  223MPD1    H6 3396   1.776   4.007  17.365  0.6072  1.2612 -1.2218
  223MPD1    H7 3397   1.662   3.970  17.466  4.3657 -0.6116  0.5623
  224MPD1     C 3398   3.718   2.324  10.080 -0.7032  0.9117 -0.1154
  224MPD1    C1 3399   3.679   2.355   9.951 -0.2132 -0.2970 -0.5671
  224MPD1    C2 3400   3.559   2.302   9.900 -0.1055 -0.1466 -0.2825
  224MPD1    C3 3401   3.485   2.216   9.975  0.8965 -0.0515  0.2760
  224MPD1    C4 3402   3.521   2.186  10.104 -0.3351  0.3067  0.2853
  224MPD1    C5 3403   3.638   2.238  10.150  0.0581  0.2391  0.6983
  224MPD1     H 3404   3.537   2.313   9.795 -1.3217  0.0346 -0.0132
  224MPD1    H1 3405   3.461   2.125  10.170 -0.9248 -1.5957 -2.0042
  224MPD1    H2 3406   3.806   2.364  10.128  1.0998 -1.9916 -0.9973
  224MPD1    H3 3407   3.664   2.203  10.249  0.4812 -1.0561  0.1232
  224MPD1     N 3408   3.362   2.166   9.929  0.0393  0.1477 -0.9843
  224MPD1    H5 3409   3.304   2.116   9.995  0.3994 -2.2640 -2.4889
  224MPD1    N1 3410   3.766   2.434   9.869 -0.7135  0.0174 -0.4707
  224MPD1    H6 3411   3.809   2.503   9.930 -3.2113  0.3997  0.9003
  224MPD1    H7 3412   3.720   2.495   9.801 -0.1922  0.3611 -0.5131
  225MPD1     C 3413   0.580   3.327  12.361  0.7626 -0.4107 -0.6298
  225MPD1    C1 3414   0.581   3.217  12.282 -0.2742  0.2892 -0.1270
  225MPD1    C2 3415   0.508   3.221  12.167 -0.0257  0.0596 -0.2628
  225MPD1    C3 3416   0.418   3.325  12.145  0.1382  0.7653 -0.1018
  225MPD1    C4 3417   0.413   3.434  12.233 -0.5898  0.3111  0.8683
  225MPD1    C5 3418   0.495   3.430  12.338 -0.4771 -0.2325 -0.9671
  225MPD1     H 3419   0.527   3.145  12.093  0.4093  0.7064 -0.8158
  225MPD1    H1 3420   0.339   3.513  12.219 -1.2754 -0.3786  0.5646
  225MPD1    H2 3421   0.645   3.346  12.446 -1.4930 -0.6154  1.1557
  225MPD1    H3 3422   0.493   3.509  12.412  0.9462  1.7466 -3.0370
  225MPD1     N 3423   0.317   3.322  12.039 -0.4348  0.0131  0.4337
  225MPD1    H5 3424   0.241   3.389  12.046 -0.3275  0.0618  1.0805
  225MPD1    N1 3425   0.681   3.121  12.292  0.5245 -0.1560  0.5382
  225MPD1    H6 3426   0.647   3.042  12.238 -0.5537  0.2243  0.6647
  225MPD1    H7 3427   0.694   3.084  12.386 -0.5949 -1.3117  0.2432
  226MPD1     C 3428   0.024   0.683   9.609 -0.5583 -0.3165 -0.4231
  226MPD1    C1 3429   0.054   0.808   9.575  0.3667  0.3426 -0.0165
  226MPD1    C2 3430   0.180   0.824   9.521  0.6063 -0.4363  0.1653
  226MPD1    C3 3431   0.252   0.717   9.470  0.1574  0.3876  0.7948
  226MPD1    C4 3432   0.214   0.590   9.492  0.1546 -0.4114 -0.2459
  226MPD1    C5 3433   0.107   0.580   9.573 -0.3362 -0.0840  0.0737
  226MPD1     H 3434   0.215   0.925   9.503  1.2417 -0.8267 -0.7677
  226MPD1    H1 3435   0.277   0.505   9.467 -0.9764 -0.8490 -1.6486
  226MPD1    H2 3436   4.670   0.660   9.681 -0.2216  0.8525  0.3123
  226MPD1    H3 3437   0.085   0.479   9.603 -0.6544 -0.4214 -1.2765
  226MPD1     N 3438   0.378   0.745   9.412  0.3435  0.0566  0.1788
  226MPD1    H5 3439   0.413   0.837   9.437 -1.5719  1.2177 -1.4103
  226MPD1    N1 3440   4.709   0.924   9.620  0.1301 -0.4500 -0.0413
  226MPD1    H6 3441   0.020   1.001   9.564 -1.4822  0.5004  0.2669
  226MPD1    H7 3442   4.608   0.911   9.622 -0.0375  0.7514 -0.7725
  227MPD1     C 3443   1.245   0.247   9.633  0.2526 -0.1529 -0.8317
  227MPD1    C1 3444   1.176   0.338   9.712  0.3691  0.1301  0.4181
  227MPD1    C2 3445   1.093   0.422   9.641 -0.5618 -0.4897 -0.1002
  227MPD1    C3 3446   1.063   0.408   9.505 -0.2266  0.5705  1.0611
  227MPD1    C4 3447   1.120   0.308   9.436 -0.0840 -0.4295 -0.1176
  227MPD1    C5 3448   1.214   0.229   9.505 -0.2985 -0.1804 -0.5564
  227MPD1     H 3449   1.043   0.502   9.694  0.7137  0.0512  0.3028
  227MPD1    H1 3450   1.115   0.295   9.329 -1.6769 -1.8629  0.1332
  227MPD1    H2 3451   1.321   0.185   9.680 -0.3736 -0.4810 -0.2475
  227MPD1    H3 3452   1.270   0.159   9.444  0.0247  0.1706 -0.6662
  227MPD1     N 3453   0.968   0.489   9.440 -0.5802  0.4806  0.3737
  227MPD1    H5 3454   0.978   0.482   9.339  1.2666  3.8509  0.3192
  227MPD1    N1 3455   1.195   0.365   9.847 -0.5905 -0.0014  0.0113
  227MPD1    H6 3456   1.118   0.413   9.893 -0.3700 -1.4458  1.8580
  227MPD1    H7 3457   1.224   0.278   9.892  1.4170  0.6766 -0.0032
  228MPD1     C 3458   1.433   0.772  12.479 -0.4430  0.0213  0.5325
  228MPD1    C1 3459   1.336   0.870  12.457  0.0991 -0.7170  0.4256
  228MPD1    C2 3460   1.207   0.860  12.519  0.4266 -0.2163 -0.7319
  228MPD1    C3 3461   1.192   0.754  12.612 -0.1432  0.2415  0.3290
  228MPD1    C4 3462   1.299   0.666  12.642  0.7514 -0.2566 -0.2401
  228MPD1    C5 3463   1.416   0.677  12.573 -0.0425  0.8065  0.1738
  228MPD1     H 3464   1.121   0.917  12.485  0.0908 -0.4962 -0.3412
  228MPD1    H1 3465   1.296   0.575  12.701 -1.9133 -0.1592 -0.1946
  228MPD1    H2 3466   1.531   0.776  12.432 -0.7432 -1.9680 -0.2346
  228MPD1    H3 3467   1.496   0.603  12.579 -0.9070 -0.0809  0.8702
  228MPD1     N 3468   1.067   0.735  12.677 -0.5890 -0.2863  0.1693
  228MPD1    H5 3469   0.997   0.799  12.642  0.5201  0.8185 -0.0200
  228MPD1    N1 3470   1.366   0.956  12.349  0.5219 -0.2017  0.5468
  228MPD1    H6 3471   1.466   0.975  12.343  0.2541  0.3294 -2.3805
  228MPD1    H7 3472   1.317   1.045  12.348  0.0028 -0.5052 -1.0826
  229MPD1     C 3473   1.357   4.644  14.990  0.1865 -0.3875  0.3314
  229MPD1    C1 3474   1.392   4.591  14.866 -0.3052  0.4157 -0.2361
  229MPD1    C2 3475   1.460   4.470  14.860  0.0220 -0.2775 -0.1541
  229MPD1    C3 3476   1.484   4.393  14.972 -0.1282  0.1689  0.1807
  229MPD1    C4 3477   1.433   4.442  15.094  0.1218 -0.4558  0.6958
  229MPD1    C5 3478   1.387   4.567  15.100  0.3715 -0.4153  0.1957
  229MPD1     H 3479   1.479   4.429  14.761  0.2657  3.4704 -1.6637
  229MPD1    H1 3480   1.454   4.383  15.182  0.9605 -0.8371  0.2428
  229MPD1    H2 3481   1.316   0.020  15.003 -0.0431 -0.5080  0.5380
  229MPD1    H3 3482   1.368   4.606  15.199  0.2271  1.2525 -0.4912
  229MPD1     N 3483   1.532   4.261  14.972 -0.3490 -0.2920 -0.1305
  229MPD1    H5 3484   1.523   4.208  15.058 -0.3914  2.7498  1.7565
  229MPD1    N1 3485   1.376   4.667  14.740  0.5801 -0.1196  0.0789
  229MPD1    H6 3486   1.290   4.722  14.743 -0.0777 -1.2384  1.7597
  229MPD1    H7 3487   1.377   4.605  14.659 -0.7660 -1.5725  1.1788
  230MPD1     C 3488   2.144   3.752  15.500  0.4482 -0.1347 -0.0607
  230MPD1    C1 3489   2.023   3.685  15.505 -0.1183  0.1367  0.1021
  230MPD1    C2 3490   1.939   3.692  15.398 -0.2368 -0.6331 -0.4553
  230MPD1    C3 3491   1.957   3.785  15.296 -0.0846 -0.4450 -0.4433
  230MPD1    C4 3492   2.071   3.868  15.303  0.2740 -1.0172 -0.3254
  230MPD1    C5 3493   2.167   3.843  15.395 -0.6487  0.4279  0.1791
  230MPD1     H 3494   1.854   3.626  15.386 -1.7159  1.1960 -0.0119
  230MPD1    H1 3495   2.103   3.940  15.228 -1.4157  0.0499 -0.0263
  230MPD1    H2 3496   2.218   3.727  15.575  1.6193  0.8836 -0.8817
  230MPD1    H3 3497   2.257   3.902  15.386  0.0805 -1.0069 -1.8923
  230MPD1     N 3498   1.864   3.805  15.195  0.3066  0.6842 -0.0246
  230MPD1    H5 3499   1.794   3.733  15.182  0.5884  0.0995  1.7312
  230MPD1    N1 3500   2.014   3.578  15.598 -0.2307  1.2407 -0.5728
  230MPD1    H6 3501   1.915   3.554  15.607  0.3360 -0.4453  0.9483
  230MPD1    H7 3502   2.057   3.605  15.686 -0.4285 -0.0551 -0.0794
  231MPD1     C 3503   4.316   1.152  15.350 -0.3911  0.0489 -0.1116
  231MPD1    C1 3504   4.302   1.154  15.210 -0.6651  0.0574  0.1606
  231MPD1    C2 3505   4.420   1.193  15.148 -0.6445 -0.4561 -0.2368
  231MPD1    C3 3506   4.527   1.250  15.208  0.1142 -1.1066 -0.6671
  231MPD1    C4 3507   4.519   1.272  15.341 -0.7237 -0.1631 -0.0148
  231MPD1    C5 3508   4.412   1.221  15.413 -0.6127  0.4216 -0.0215
  231MPD1     H 3509   4.430   1.161  15.045 -1.1731  0.2833 -0.5222
  231MPD1    H1 3510   4.598   1.321  15.396 -0.5234 -0.3823 -0.1106
  231MPD1    H2 3511   4.241   1.098  15.407 -0.2840  0.9650  0.8833
  231MPD1    H3 3512   4.410   1.223  15.521 -3.3166 -1.2992 -0.0609
  231MPD1     N 3513   4.641   1.280  15.125 -0.1071  1.1392 -0.6370
  231MPD1    H5 3514   4.644   1.241  15.032 -0.2666  0.2856 -0.2837
  231MPD1    N1 3515   4.206   1.080  15.143  0.3100  0.1817  0.3147
  231MPD1    H6 3516   4.222   0.979  15.144 -1.0954 -0.0286  1.2721
  231MPD1    H7 3517   4.121   1.091  15.198  0.5725  0.5030  0.6562
  232MPD1     C 3518   2.098   3.255   0.161 -0.1533  0.7768 -0.0360
  232MPD1    C1 3519   2.027   3.164   0.085  0.1873  0.1463  0.0885
  232MPD1    C2 3520   1.899   3.199   0.043 -1.1592  1.0350  0.2459
  232MPD1    C3 3521   1.852   3.330   0.062  0.0903  0.1276 -0.6438
  232MPD1    C4 3522   1.933   3.425   0.120 -0.6368 -0.3234 -0.2169
  232MPD1    C5 3523   2.056   3.385   0.175  0.8492  1.0349 -0.5885
  232MPD1     H 3524   1.836   3.136  17.678  0.2683 -0.0649 -0.1000
  232MPD1    H1 3525   1.911   3.530   0.131 -4.0158 -1.0444 -0.2273
  232MPD1    H2 3526   2.189   3.227   0.213 -0.0878  0.5721 -0.2630
  232MPD1    H3 3527   2.122   3.458   0.221 -0.7923  1.8668  0.4439
  232MPD1     N 3528   1.726   3.354   0.008 -0.5961 -0.7208  0.2107
  232MPD1    H5 3529   1.681   3.277  17.657  0.1141 -0.7278 -0.4449
  232MPD1    N1 3530   2.073   3.036   0.077 -0.1168 -0.2063 -0.0401
  232MPD1    H6 3531   2.169   3.021   0.107 -0.6229 -1.3781  0.9854
  232MPD1    H7 3532   2.057   2.995  17.681 -1.3864  0.7469 -0.2363
  233MPD1     C 3533   2.097   2.201   1.457  0.1418  0.2161 -0.1748
  233MPD1    C1 3534   2.145   2.128   1.561  0.1711 -0.3515 -0.2934
  233MPD1    C2 3535   2.280   2.107   1.576  0.4129 -0.2989  0.1171
  233MPD1    C3 3536   2.370   2.138   1.470  0.0049  0.4452  0.5820
  233MPD1    C4 3537   2.318   2.216   1.368 -0.2261  0.6553 -1.0963
  233MPD1    C5 3538   2.185   2.238   1.356  0.0335  0.2790 -0.4605
  233MPD1     H 3539   2.319   2.053   1.662  1.5872  0.1533 -0.1346
  233MPD1    H1 3540   2.388   2.253   1.294  0.7194  0.8987 -0.0755
  233MPD1    H2 3541   1.992   2.220   1.436  0.6123 -0.0035 -2.7622
  233MPD1    H3 3542   2.142   2.305   1.282 -1.0427  2.4615  2.1226
  233MPD1     N 3543   2.509   2.104   1.457 -0.0669  0.0895  0.1283
  233MPD1    H5 3544   2.555   2.150   1.379  1.1547  0.8521  1.2804
  233MPD1    N1 3545   2.058   2.099   1.669 -0.4800 -0.0445  0.0712
  233MPD1    H6 3546   2.082   2.015   1.721  0.2208  0.0727 -0.0575
  233MPD1    H7 3547   1.967   2.080   1.629  0.2091 -0.1504 -1.4522
  234MPD1     C 3548   3.874   0.506   9.807  0.4363 -0.0546  0.0472
  234MPD1    C1 3549   3.831   0.589   9.907  0.1626 -0.1276 -0.3362
  234MPD1    C2 3550   3.741   0.691   9.882 -0.1800 -0.4606  0.2359
  234MPD1    C3 3551   3.696   0.699   9.752 -0.0216  0.5543  1.1798
  234MPD1    C4 3552   3.741   0.618   9.650 -0.2020  0.1116 -0.0225
  234MPD1    C5 3553   3.836   0.523   9.670  0.0875  0.5384 -0.7070
  234MPD1     H 3554   3.698   0.754   9.960  0.3246 -0.7301  0.7351
  234MPD1    H1 3555   3.716   0.639   9.546  1.8060  2.3737 -0.0653
  234MPD1    H2 3556   3.958   0.447   9.841  0.7238 -0.3339 -1.1310
  234MPD1    H3 3557   3.882   0.477   9.583  0.2414  1.7755 -1.2807
  234MPD1     N 3558   3.587   0.791   9.738 -0.1930  0.6252  0.2237
  234MPD1    H5 3559   3.556   0.828   9.828 -0.3816 -0.6807  0.6982
  234MPD1    N1 3560   3.885   0.586  10.037  0.1816 -0.3769 -0.2037
  234MPD1    H6 3561   3.952   0.511  10.056 -0.0073 -0.6997 -0.8426
  234MPD1    H7 3562   3.803   0.582  10.098  1.4757 -2.3116  1.4126
  235MPD1     C 3563   0.416   2.731   9.194  0.5554  0.2704  0.1860
  235MPD1    C1 3564   0.534   2.706   9.251 -0.5919 -0.1715 -0.3197
  235MPD1    C2 3565   0.645   2.763   9.199  0.3768 -0.3096 -0.5603
  235MPD1    C3 3566   0.634   2.860   9.098  0.3952  0.0822  0.6637
  235MPD1    C4 3567   0.508   2.878   9.038 -0.5373 -0.3802  0.1317
  235MPD1    C5 3568   0.397   2.825   9.093  0.4921  0.5572  0.4766
  235MPD1     H 3569   0.733   2.762   9.261 -0.6517  0.1410  0.9050
  235MPD1    H1 3570   0.492   2.940   8.951  1.6132 -1.0754 -0.7658
  235MPD1    H2 3571   0.327   2.677   9.224 -0.2483  0.8806 -1.1035
  235MPD1    H3 3572   0.304   2.840   9.040 -0.3851 -2.2102  1.2233
  235MPD1     N 3573   0.738   2.940   9.060 -0.0201  0.0464  0.8060
  235MPD1    H5 3574   0.720   3.018   8.998 -1.1537 -2.0435 -1.4884
  235MPD1    N1 3575   0.548   2.594   9.338  0.1661  0.0376 -0.1828
  235MPD1    H6 3576   0.464   2.573   9.391  0.3520 -2.4866 -0.9041
  235MPD1    H7 3577   0.622   2.614   9.405 -2.3874  0.5342  2.4904
  236MPD1     C 3578   4.593   4.448   9.635  0.3687 -0.0957  0.8879
  236MPD1    C1 3579   4.606   4.334   9.558  0.0355 -0.4209  0.0226
  236MPD1    C2 3580   0.014   4.280   9.543 -0.1948  0.2534 -0.2177
  236MPD1    C3 3581   0.118   4.334   9.623  0.3863  0.4027 -0.2547
  236MPD1    C4 3582   0.092   4.440   9.707  0.4096 -0.2754 -0.1605
  236MPD1    C5 3583   4.697   4.504   9.706  0.6787  0.8843  0.7065
  236MPD1     H 3584   0.026   4.187   9.489 -0.1626 -0.4739  1.0335
  236MPD1    H1 3585   0.172   4.486   9.764 -0.0845  2.2712 -1.5444
  236MPD1    H2 3586   4.496   4.496   9.646  0.2570 -0.1419  0.0998
  236MPD1    H3 3587   4.686   4.591   9.770  0.4361 -0.8218  2.9619
  236MPD1     N 3588   0.249   4.285   9.623 -0.1183 -0.8739 -0.7119
  236MPD1    H5 3589   0.315   4.313   9.696 -1.6015 -2.8517  1.3458
  236MPD1    N1 3590   4.499   4.288   9.479  0.0494 -0.7834 -0.3080
  236MPD1    H6 3591   4.485   4.187   9.468 -1.3387 -0.6590  0.4046
  236MPD1    H7 3592   4.411   4.330   9.506  1.3240  1.4156  0.3558
  237MPD1     C 3593   0.355   2.116  15.254 -0.6248  0.5030  0.4573
  237MPD1    C1 3594   0.253   2.113  15.350  0.5716 -0.5831 -0.0323
  237MPD1    C2 3595   0.122   2.126  15.303  0.0730  0.8103  0.1612
  237MPD1    C3 3596   0.094   2.141  15.168  0.2871  0.0352  0.2326
  237MPD1    C4 3597   0.197   2.157  15.079 -0.0644  0.0607  0.7463
  237MPD1    C5 3598   0.325   2.135  15.123 -0.1494  0.4864  0.8058
  237MPD1     H 3599   0.046   2.117  15.379 -0.1028 -1.5416 -0.2716
  237MPD1    H1 3600   0.190   2.175  14.972  0.4977 -0.8025  0.5649
  237MPD1    H2 3601   0.457   2.102  15.288 -0.2870  0.5463 -0.5512
  237MPD1    H3 3602   0.394   2.125  15.040 -1.6478 -0.5551 -0.3139
  237MPD1     N 3603   4.690   2.145  15.104  0.8143  0.2819  0.1919
  237MPD1    H5 3604   4.687   2.155  15.003  0.6164  0.7260  0.2430
  237MPD1    N1 3605   0.286   2.071  15.480 -0.3722  0.7903  0.3560
  237MPD1    H6 3606   0.224   2.097  15.557 -1.2563 -3.0713  0.9498
  237MPD1    H7 3607   0.380   2.098  15.509 -0.7429  3.3807 -0.8987
  238MPD1     C 3608   1.920   1.733  15.007  0.1516  0.4926 -0.0384
  238MPD1    C1 3609   1.802   1.776  15.048 -0.3798  0.6015  0.1539
  238MPD1    C2 3610   1.691   1.713  14.996  0.1437  0.8067  0.3636
  238MPD1    C3 3611   1.698   1.614  14.899  0.5861 -0.2276  0.3207
  238MPD1    C4 3612   1.820   1.583  14.849 -1.2250  0.1222  0.6205
  238MPD1    C5 3613   1.929   1.645  14.905 -0.1690  0.0734  0.2201
  238MPD1     H 3614   1.603   1.720  15.060 -0.0505  0.9546  0.0807
  238MPD1    H1 3615   1.832   1.504  14.776 -1.2313  0.7256 -0.0327
  238MPD1    H2 3616   2.014   1.766  15.049  0.6043  1.4790 -1.7954
  238MPD1    H3 3617   2.025   1.614  14.866 -0.9201  0.8262 -2.2123
  238MPD1     N 3618   1.584   1.550  14.834 -0.0280 -0.0335 -0.1176
  238MPD1    H5 3619   1.608   1.491  14.755 -0.8902  0.8666 -1.0383
  238MPD1    N1 3620   1.783   1.861  15.165 -0.8863 -0.1197  0.3980
  238MPD1    H6 3621   1.862   1.923  15.176  0.1312 -1.0261 -1.7258
  238MPD1    H7 3622   1.693   1.904  15.185 -0.5608  1.1364 -0.8879
  239MPD1     C 3623   1.642   1.880  14.670 -0.0487 -0.6123  0.1542
  239MPD1    C1 3624   1.774   1.920  14.645 -0.4156  0.1848  0.4828
  239MPD1    C2 3625   1.797   1.964  14.518  1.5289  0.2955  0.0522
  239MPD1    C3 3626   1.714   1.937  14.411  0.3691 -0.0038  0.0665
  239MPD1    C4 3627   1.591   1.877  14.439 -0.1603  0.9201  0.5059
  239MPD1    C5 3628   1.560   1.839  14.570 -0.2067  0.3623 -1.0829
  239MPD1     H 3629   1.890   2.016  14.498  1.8816 -0.9899 -1.6676
  239MPD1    H1 3630   1.516   1.855  14.364 -1.5762  1.8193  1.6640
  239MPD1    H2 3631   1.624   1.856  14.774  2.2983  0.2897  0.7645
  239MPD1    H3 3632   1.470   1.782  14.586  0.8532 -1.2833 -1.0457
  239MPD1     N 3633   1.732   1.994  14.282  0.0986 -0.2659  0.8240
  239MPD1    H5 3634   1.649   2.002  14.224 -0.3084 -2.2375  1.1423
  239MPD1    N1 3635   1.858   1.953  14.753  1.1153 -1.0555 -0.2556
  239MPD1    H6 3636   1.842   1.889  14.830 -0.0612  0.4658  0.7732
  239MPD1    H7 3637   1.954   1.933  14.726  1.0943  0.9300 -1.8494
  240MPD1     C 3638   1.079   2.336  13.511 -1.1913  0.6322  0.2568
  240MPD1    C1 3639   1.191   2.285  13.567 -0.2081  0.5707 -0.2833
  240MPD1    C2 3640   1.190   2.175  13.651 -0.7448 -0.6508  0.1188
  240MPD1    C3 3641   1.069   2.128  13.699 -0.5705  0.2369 -0.3973
  240MPD1    C4 3642   0.948   2.183  13.650  0.0883  0.3634 -0.2169
  240MPD1    C5 3643   0.960   2.275  13.550 -0.3502 -0.4535  0.0780
  240MPD1     H 3644   1.286   2.143  13.689  1.2483  2.8486 -1.9159
  240MPD1    H1 3645   0.849   2.168  13.692  0.1278 -0.7713 -0.5235
  240MPD1    H2 3646   1.079   2.409  13.431 -1.1843 -0.3792 -0.6632
  240MPD1    H3 3647   0.870   2.327  13.516 -0.5086 -0.8351 -0.0874
  240MPD1     N 3648   1.075   2.033  13.800  0.0686 -0.0474  0.8538
  240MPD1    H5 3649   1.166   1.991  13.808  0.7300  1.0275 -0.8795
  240MPD1    N1 3650   1.314   2.332  13.518  0.1091  0.0160 -0.8199
  240MPD1    H6 3651   1.398   2.312  13.572 -0.1989  0.8102 -0.0405
  240MPD1    H7 3652   1.317   2.427  13.484 -1.7100  0.4200  0.1699
  241MPD1     C 3653   1.176   1.801  14.746 -0.3273  0.4219 -0.1846
  241MPD1    C1 3654   1.236   1.888  14.644  0.3324  0.3803  0.0010
  241MPD1    C2 3655   1.203   1.867  14.510  0.2195 -0.7199  0.2282
  241MPD1    C3 3656   1.130   1.754  14.473  0.0695  0.5342 -0.1723
  241MPD1    C4 3657   1.077   1.675  14.570 -0.1175 -0.5601  0.1603
  241MPD1    C5 3658   1.089   1.700  14.707 -0.2286 -0.7230  0.9182
  241MPD1     H 3659   1.215   1.945  14.436 -0.0072 -1.9893 -1.1582
  241MPD1    H1 3660   1.013   1.590  14.548 -1.1874 -0.0299  1.2428
  241MPD1    H2 3661   1.188   1.814  14.853 -2.4848 -0.4485  0.1641
  241MPD1    H3 3662   1.043   1.638  14.783  1.8194 -2.6161  0.5860
  241MPD1     N 3663   1.102   1.717  14.339  0.0926  0.0513 -0.3542
  241MPD1    H5 3664   1.042   1.639  14.316 -0.0064  0.6107 -1.9765
  241MPD1    N1 3665   1.297   2.010  14.683  0.1637 -0.2441  0.5229
  241MPD1    H6 3666   1.338   2.010  14.777 -0.1484  1.0217  0.6601
  241MPD1    H7 3667   1.366   2.044  14.616 -0.4637  2.4513  1.2310
  242MPD1     C 3668   0.935   0.636  15.471 -0.1324 -0.5372  0.1553
  242MPD1    C1 3669   0.863   0.558  15.380 -0.1216 -0.9807  0.2210
  242MPD1    C2 3670   0.942   0.494  15.285  0.1321 -0.1161  0.4694
  242MPD1    C3 3671   1.078   0.510  15.269 -0.2465 -0.4815  0.0157
  242MPD1    C4 3672   1.137   0.597  15.349 -0.7107 -0.1312 -0.4281
  242MPD1    C5 3673   1.072   0.659  15.453 -0.5503 -0.1811 -0.9221
  242MPD1     H 3674   0.890   0.423  15.222 -0.5641 -0.7973  1.8139
  242MPD1    H1 3675   1.238   0.630  15.327 -0.1043 -2.2592 -0.8583
  242MPD1    H2 3676   0.885   0.674  15.559 -1.9398 -0.4194 -0.9256
  242MPD1    H3 3677   1.126   0.730  15.514 -0.4619 -1.2236  0.2348
  242MPD1     N 3678   1.150   0.470  15.161 -0.4393 -0.5175 -0.0225
  242MPD1    H5 3679   1.247   0.498  15.153 -0.0578 -1.8741 -0.1300
  242MPD1    N1 3680   0.730   0.529  15.391 -0.1902 -0.6756  0.0446
  242MPD1    H6 3681   0.687   0.480  15.313 -0.3525  0.1322 -0.3679
  242MPD1    H7 3682   0.674   0.605  15.427  1.8171  0.7900  0.0428
  243MPD1     C 3683   3.662   3.468  17.334  0.1830 -0.6595 -0.8391
  243MPD1    C1 3684   3.550   3.391  17.372 -0.4880 -0.2638 -0.2047
  243MPD1    C2 3685   3.435   3.393  17.295  0.0614  0.1163  0.1946
  243MPD1    C3 3686   3.413   3.490  17.196  1.1601  0.1202 -0.0493
  243MPD1    C4 3687   3.516   3.576  17.178 -0.4471  0.7519  0.3267
  243MPD1    C5 3688   3.637   3.560  17.235  0.4212 -0.2370 -0.2265
  243MPD1     H 3689   3.365   3.312  17.311  0.3686 -0.6781 -2.5018
  243MPD1    H1 3690   3.510   3.655  17.104 -0.5638 -0.2678 -0.7491
  243MPD1    H2 3691   3.762   3.460  17.376 -0.4937 -2.4657  0.4491
  243MPD1    H3 3692   3.727   3.616  17.213 -0.3575  0.6676 -1.1419
  243MPD1     N 3693   3.287   3.484  17.136  0.0695 -0.4242 -0.2263
  243MPD1    H5 3694   3.220   3.420  17.176  1.1385 -0.8508  0.8668
  243MPD1    N1 3695   3.570   3.280  17.461 -0.5854  0.2050 -0.7386
  243MPD1    H6 3696   3.486   3.246  17.506 -0.9821  1.4511 -0.5252
  243MPD1    H7 3697   3.651   3.303  17.519 -1.4524  0.8349  0.2268
  244MPD1     C 3698   2.685   3.091  17.529 -0.4819 -0.4514 -0.2945
  244MPD1    C1 3699   2.812   3.152  17.548 -0.2597 -0.5648 -0.1104
  244MPD1    C2 3700   2.854   3.246  17.455  0.6136 -0.5494 -0.1643
  244MPD1    C3 3701   2.784   3.276  17.344  0.8528 -0.2283  0.2830
  244MPD1    C4 3702   2.674   3.203  17.313 -0.4925 -0.2142  0.2008
  244MPD1    C5 3703   2.624   3.114  17.407 -0.6300 -0.6654  0.0345
  244MPD1     H 3704   2.934   3.314  17.481  0.6174 -0.2297 -1.0212
  244MPD1    H1 3705   2.609   3.222  17.228  0.5952 -3.1378 -1.2714
  244MPD1    H2 3706   2.642   3.025  17.603 -3.0768 -0.8564 -2.1931
  244MPD1    H3 3707   2.533   3.063  17.377 -0.1207 -1.2453 -0.5247
  244MPD1     N 3708   2.837   3.374  17.254  0.4914  0.1157 -0.1688
  244MPD1    H5 3709   2.930   3.408  17.277  0.8704 -0.6130 -0.5838
  244MPD1    N1 3710   2.881   3.141  17.666  0.5624  0.1008 -0.5886
  244MPD1    H6 3711   2.895   3.046   0.004  0.1425  0.4024  0.4204
  244MPD1    H7 3712   2.975   3.180  17.665  0.2696  0.8242  0.4949
  245MPD1     C 3713   4.227   3.554  13.396  0.4336 -0.1822  0.4893
  245MPD1    C1 3714   4.299   3.598  13.510 -0.2851 -0.6151 -0.4993
  245MPD1    C2 3715   4.385   3.703  13.492  0.2582 -0.2571 -0.1620
  245MPD1    C3 3716   4.394   3.772  13.370 -0.0649  0.7299  0.7148
  245MPD1    C4 3717   4.317   3.728  13.262  0.7746 -0.4644  0.1100
  245MPD1    C5 3718   4.233   3.627  13.277 -0.9108 -1.0514 -0.4664
  245MPD1     H 3719   4.439   3.751  13.573 -0.5430  1.2711 -0.5347
  245MPD1    H1 3720   4.304   3.785  13.170 -0.8694 -2.2204 -0.7320
  245MPD1    H2 3721   4.158   3.471  13.403 -0.4734  0.5542  0.3413
  245MPD1    H3 3722   4.167   3.609  13.193  1.6284 -0.7726 -2.4928
  245MPD1     N 3723   4.484   3.886  13.363 -0.1276 -0.3525  0.0935
  245MPD1    H5 3724   4.536   3.903  13.449  2.3724  0.4815 -1.5861
  245MPD1    N1 3725   4.263   3.554  13.640  0.0697  0.3285  0.4029
  245MPD1    H6 3726   4.225   3.460  13.631  0.8436  0.0948 -0.3861
  245MPD1    H7 3727   4.348   3.547  13.695  0.9635  1.3659 -0.8512
  246MPD1     C 3728   0.171   1.635   9.152  0.7194  0.0776 -0.0565
  246MPD1    C1 3729   0.301   1.696   9.150 -1.1851  0.7872 -0.3421
  246MPD1    C2 3730   0.401   1.617   9.099 -0.3067 -0.4006  0.2425
  246MPD1    C3 3731   0.393   1.480   9.086 -0.0418 -0.5491 -0.7070
  246MPD1    C4 3732   0.273   1.424   9.124  0.2760 -0.2430  0.4444
  246MPD1    C5 3733   0.163   1.500   9.155 -0.6921 -0.8304 -0.3094
  246MPD1     H 3734   0.493   1.668   9.074  0.7528 -0.8537  3.2010
  246MPD1    H1 3735   0.248   1.320   9.107 -0.2519 -0.3213  1.6743
  246MPD1    H2 3736   0.085   1.699   9.161 -0.9821 -2.1041 -0.8729
  246MPD1    H3 3737   0.064   1.455   9.158 -1.2181  0.4257  0.8513
  246MPD1     N 3738   0.514   1.401   9.054 -0.0904  0.3290  0.4973
  246MPD1    H5 3739   0.606   1.443   9.045  0.0842 -0.1051  0.2579
  246MPD1    N1 3740   0.317   1.835   9.164  0.4862 -0.1234  0.7266
  246MPD1    H6 3741   0.240   1.877   9.215  0.2251  0.7673 -0.3987
  246MPD1    H7 3742   0.406   1.847   9.211  0.8620 -0.4907  0.1172
  247MPD1     C 3743   3.549   3.924  15.147  0.2490  0.4300  1.1263
  247MPD1    C1 3744   3.494   3.900  15.265  0.0769 -0.4898 -0.1267
  247MPD1    C2 3745   3.577   3.838  15.354 -0.0917  0.3447  0.0521
  247MPD1    C3 3746   3.700   3.782  15.323  0.4772  0.1502  0.6274
  247MPD1    C4 3747   3.751   3.808  15.202  0.8221 -0.2896  0.5216
  247MPD1    C5 3748   3.670   3.875  15.110 -1.2336  0.2876  0.3374
  247MPD1     H 3749   3.531   3.827  15.452  0.4042  1.5624  0.4179
  247MPD1    H1 3750   3.848   3.766  15.177  1.7626  2.8521 -1.1462
  247MPD1    H2 3751   3.491   3.976  15.072  0.9866 -1.3973 -0.7320
  247MPD1    H3 3752   3.708   3.893  15.010  0.1216 -1.3850  0.5625
  247MPD1     N 3753   3.769   3.704  15.420 -0.0293  0.0518 -0.2233
  247MPD1    H5 3754   3.848   3.647  15.391 -1.0055 -1.0947 -0.6234
  247MPD1    N1 3755   3.370   3.958  15.302  0.0228  0.0152 -0.1560
  247MPD1    H6 3756   3.353   3.933  15.399  0.6821  0.4519  0.0713
  247MPD1    H7 3757   3.293   3.924  15.244 -0.2864 -1.3229  1.0364
  248MPD1     C 3758   0.001   3.776  17.623  0.5869  0.0187 -0.1699
  248MPD1    C1 3759   4.627   3.862  17.669  0.3995 -0.1963 -0.3424
  248MPD1    C2 3760   4.579   3.849   0.103  0.1908 -0.2853 -0.3356
  248MPD1    C3 3761   4.614   3.741   0.180  0.6502 -0.4776 -0.2213
  248MPD1    C4 3762   4.701   3.650   0.125 -0.4595  0.1085  0.7883
  248MPD1    C5 3763   0.033   3.675   0.005  0.1436 -0.4438  0.0631
  248MPD1     H 3764   4.501   3.918   0.137  0.5652 -0.8303  1.6181
  248MPD1    H1 3765   0.001   3.553   0.167 -0.6615 -0.8293 -1.2439
  248MPD1    H2 3766   0.043   3.795  17.525 -0.0032  2.7384  0.1184
  248MPD1    H3 3767   0.112   3.608  17.670  0.3530  0.2290 -0.8587
  248MPD1     N 3768   4.544   3.725   0.306 -0.1642 -0.0610  0.3591
  248MPD1    H5 3769   4.488   3.804   0.337  0.0702 -0.0456  0.7295
  248MPD1    N1 3770   4.590   3.970  17.591 -0.6171  0.6386 -0.1570
  248MPD1    H6 3771   4.491   3.991  17.602 -0.3072  1.1779  1.5804
  248MPD1    H7 3772   4.609   3.950  17.493 -0.9543  2.3088 -0.5569
  249MPD1     C 3773   1.068   3.202   9.422 -0.2765  0.3954  0.1942
  249MPD1    C1 3774   1.058   3.064   9.401 -0.4065  0.5086 -0.1466
  249MPD1    C2 3775   1.175   2.987   9.418  0.0239  0.1598  0.4751
  249MPD1    C3 3776   1.296   3.056   9.454  0.2305  0.1233 -0.1554
  249MPD1    C4 3777   1.301   3.194   9.470  0.5667 -0.5232 -0.0274
  249MPD1    C5 3778   1.180   3.261   9.455  0.2373  0.1288  0.0126
  249MPD1     H 3779   1.170   2.880   9.403 -1.9237 -0.0281  2.5080
  249MPD1    H1 3780   1.386   3.255   9.501  1.9702 -2.7377  0.4529
  249MPD1    H2 3781   0.978   3.262   9.416 -1.8658 -1.8497  1.3808
  249MPD1    H3 3782   1.175   3.364   9.488  0.2071  0.1401 -0.0278
  249MPD1     N 3783   1.409   2.976   9.465 -0.2401 -0.5551  0.5124
  249MPD1    H5 3784   1.390   2.882   9.430  2.1103 -1.2179  0.9660
  249MPD1    N1 3785   0.930   2.998   9.405 -0.0225  0.2683 -0.2378
  249MPD1    H6 3786   0.863   3.046   9.345  0.0480 -0.1641 -0.6652
  249MPD1    H7 3787   0.934   2.904   9.367 -2.3683 -0.4098  1.2320
  250MPD2     C 3788   2.379   2.433  13.083  0.5369 -0.5567  0.3671
  250MPD2    C1 3789   2.383   2.472  12.955 -0.6697  0.8350  0.8607
  250MPD2    C2 3790   2.371   2.380  12.855 -0.4649  0.3731  0.1584
  250MPD2    C3 3791   2.343   2.247  12.880  0.1829  0.6555  0.5730
  250MPD2    C4 3792   2.345   2.202  13.006 -0.4544 -0.0609 -0.1747
  250MPD2    C5 3793   2.361   2.298  13.110 -0.1556 -0.8258 -0.2448
  250MPD2     H 3794   2.379   2.414  12.752 -0.8957  1.9125  0.6428
  250MPD2    H1 3795   2.337   2.095  13.018 -0.9564 -0.2837 -2.4263
  250MPD2    H2 3796   2.404   2.504  13.160  0.6519 -1.0379  0.7778
  250MPD2    H3 3797   2.358   2.268  13.214 -0.8595  1.9262  0.5207
  250MPD2     N 3798   2.328   2.158  12.773 -0.3393  0.2247 -0.1209
  250MPD2    H5 3799   2.285   2.068  12.790  0.3292 -0.2629 -0.9965
  250MPD2    N1 3800   2.442   2.605  12.930  0.5878  0.0967 -0.3338
  250MPD2    H7 3801   2.454   2.666  13.010 -2.4899  0.1544  0.0835
  251TMC3    C1 3802   2.532   2.785  12.808 -0.3302  0.8538 -0.2465
  251TMC3    C2 3803   2.532   2.859  12.923 -0.4020  0.2504  0.0467
  251TMC3    C3 3804   2.622   2.955  12.955  0.6010 -0.6119  0.9007
  251TMC3    C4 3805   2.637   2.812  12.722 -0.1183 -0.1490 -0.1586
  251TMC3    C5 3806   2.724   2.915  12.754  0.1162 -0.2675  0.1409
  251TMC3    C6 3807   2.720   2.983  12.869 -0.5642  0.1084 -0.8950
  251TMC3     C 3808   2.484   2.652  12.804 -0.0246  0.0543  0.4153
  251TMC3     O 3809   2.510   2.595  12.700 -0.0920 -0.1656 -0.2170
  251TMC3     H 3810   2.448   2.860  12.991 -0.3141 -2.4455  0.1963
  251TMC3    H1 3811   2.636   2.771  12.621 -0.3168 -0.6710  0.0541
  251TMC3    H2 3812   2.786   3.069  12.880 -0.5314  0.1884 -1.6920
  251TMC3    C7 3813   2.840   2.918  12.666  0.4542  0.8372 -0.3869
  251TMC3    C8 3814   2.608   3.025  13.080 -0.0297  0.3799 -0.3124
  251TMC3    O1 3815   2.869   2.808  12.616 -0.1084  0.0237 -0.2199
  251TMC3    O2 3816   2.518   2.995  13.156  0.3840 -0.1407  0.3866
  252TMC3    C1 3817   3.213   3.408   9.448 -0.2442  0.6290  0.1625
  252TMC3    C2 3818   3.319   3.485   9.406 -0.6369  0.4557 -0.6446
  252TMC3    C3 3819   3.324   3.517   9.270 -0.3061  0.8000  0.0768
  252TMC3    C4 3820   3.118   3.355   9.367 -0.7790 -0.1066 -0.0553
  252TMC3    C5 3821   3.142   3.377   9.235 -0.2541  0.5406 -0.0119
  252TMC3    C6 3822   3.236   3.461   9.188 -0.1253 -0.1099  0.0986
  252TMC3     C 3823   3.219   3.360   9.578 -0.1738  0.6848  0.4779
  252TMC3     O 3824   3.178   3.246   9.589  0.5237  0.5182 -0.2882
  252TMC3     H 3825   3.397   3.489   9.482 -0.6961 -2.0493 -0.4654
  252TMC3    H1 3826   3.029   3.305   9.404 -1.6353 -0.2498 -2.2786
  252TMC3    H2 3827   3.249   3.462   9.080  0.0424  1.4594  0.1434
  252TMC3    C7 3828   3.054   3.321   9.135 -0.2435  0.2613 -0.6315
  252TMC3    C8 3829   3.439   3.587   9.224  0.0454 -0.0230  0.3339
  252TMC3    O1 3830   3.067   3.353   9.018  0.4810  0.1412  0.0424
  252TMC3    O2 3831   3.447   3.599   9.101 -0.8558 -0.1624  0.3450
  253MPD2     C 3832   4.329   2.577  14.789  0.1606  0.1951  0.9857
  253MPD2    C1 3833   4.207   2.622  14.831 -0.6485  0.5570  0.7309
  253MPD2    C2 3834   4.178   2.633  14.968 -0.4176  0.2021 -0.2824
  253MPD2    C3 3835   4.265   2.598  15.068  0.2911 -0.2361  0.0955
  253MPD2    C4 3836   4.392   2.561  15.025  0.7259 -0.5829 -0.0194
  253MPD2    C5 3837   4.416   2.551  14.891  0.4751 -0.0377 -1.3526
  253MPD2     H 3838   4.079   2.660  15.001  0.3327 -0.6167  2.6049
  253MPD2    H1 3839   4.474   2.534  15.091  1.7105  1.8784 -0.2298
  253MPD2    H2 3840   4.351   2.556  14.684  0.2799  0.3250  0.9856
  253MPD2    H3 3841   4.519   2.525  14.871  1.2601  0.7818  1.7058
  253MPD2     N 3842   4.228   2.605  15.204  0.8272 -0.7105  0.1952
  253MPD2    H5 3843   4.134   2.642  15.219  1.5414  0.3899  1.8655
  253MPD2    N1 3844   4.097   2.641  14.744 -0.2681  0.4618 -0.1886
  253MPD2    H7 3845   4.007   2.647  14.791 -0.4118  1.2917 -0.5794
  254TMC3    C1 3846   4.222   2.543  15.426  0.2814  0.1631  0.2195
  254TMC3    C2 3847   4.100   2.605  15.439  0.5167 -0.4277 -0.3620
  254TMC3    C3 3848   4.018   2.558  15.542  0.1858  0.6046  0.5072
  254TMC3    C4 3849   4.274   2.460  15.521 -0.2562  0.2501  0.3616
  254TMC3    C5 3850   4.188   2.422  15.618  0.0230 -0.2892 -0.6004
  254TMC3    C6 3851   4.060   2.465  15.632  0.3189 -0.3416 -0.3570
  254TMC3     C 3852   4.296   2.551  15.300 -0.1602 -0.3289  0.1054
  254TMC3     O 3853   4.403   2.493  15.295  0.0350 -0.4032 -0.4604
  254TMC3     H 3854   4.058   2.674  15.367 -0.3090 -1.8909 -1.2867
  254TMC3    H1 3855   4.364   2.406  15.494  0.0237  1.0176 -0.2346
  254TMC3    H2 3856   4.006   2.439  15.722 -1.5986  1.9761 -0.8485
  254TMC3    C7 3857   4.248   2.370  15.740  0.2414  0.2399  0.3101
  254TMC3    C8 3858   3.908   2.642  15.584  0.6868  0.1291  0.2289
  254TMC3    O1 3859   4.171   2.325  15.824 -0.0686 -0.3503  0.6320
  254TMC3    O2 3860   3.917   2.668  15.706 -0.4905 -0.5305  0.3105
  255MPD2     C 3861   2.640   4.080  10.669 -0.3659 -0.0027  0.1789
  255MPD2    C1 3862   2.621   4.210  10.658 -0.8074 -0.4725  0.6060
  255MPD2    C2 3863   2.720   4.294  10.689 -0.4699 -0.6145 -0.0343
  255MPD2    C3 3864   2.848   4.244  10.725 -0.8369 -0.2397  0.5008
  255MPD2    C4 3865   2.869   4.111  10.740 -0.1003 -0.0459 -0.2144
  255MPD2    C5 3866   2.765   4.030  10.704  0.3458 -0.0076  0.4286
  255MPD2     H 3867   2.707   4.401  10.685  1.0895 -0.3434  2.1515
  255MPD2    H1 3868   2.965   4.079  10.778  0.6068 -0.2547 -2.1492
  255MPD2    H2 3869   2.562   4.009  10.645 -2.0444  1.5487  1.0647
  255MPD2    H3 3870   2.766   3.922  10.714  1.2732 -0.0355  0.0767
  255MPD2     N 3871   2.951   4.337  10.744 -0.2898 -0.2868  0.2617
  255MPD2    H5 3872   2.923   4.433  10.725 -1.6590 -1.0477 -1.6162
  255MPD2    N1 3873   2.502   4.270  10.612 -0.3326 -0.1402 -0.1969
  255MPD2    H7 3874   2.503   4.371  10.601  1.3993 -0.0456  0.7358
  256TMC3    C1 3875   2.324   4.333  10.493 -0.4004 -0.3167  0.7400
  256TMC3    C2 3876   2.399   4.445  10.458 -0.2019 -0.3452  0.5426
  256TMC3    C3 3877   2.327   4.559  10.448  0.2208 -0.2152  0.3231
  256TMC3    C4 3878   2.189   4.329  10.478 -0.5261 -0.8724 -0.2764
  256TMC3    C5 3879   2.123   4.448  10.453 -0.4552  0.2258  0.0243
  256TMC3    C6 3880   2.190   4.565  10.439  0.6194 -0.3747 -0.1245
  256TMC3     C 3881   2.393   4.221  10.553 -0.9005  0.1829 -0.3600
  256TMC3     O 3882   2.350   4.105  10.539  0.4633 -0.0876 -0.6152
  256TMC3     H 3883   2.505   4.435  10.442 -0.6960 -1.5153 -2.0522
  256TMC3    H1 3884   2.131   4.238  10.482 -0.8510 -0.6764 -0.5119
  256TMC3    H2 3885   2.142   4.661  10.422 -0.6528 -0.6472  1.9675
  256TMC3    C7 3886   1.996   4.436  10.387 -0.0429  0.5524  0.5153
  256TMC3    C8 3887   2.406   4.680  10.414  0.3162 -0.6334  0.4954
  256TMC3    O1 3888   1.909   4.358  10.428  0.2029  0.2190 -0.4407
  256TMC3    O2 3889   2.521   4.655  10.384 -0.1806 -0.4761  0.6136
  257MPD2     C 3890   1.640   2.618  13.031  0.7812  0.3326  0.4730
  257MPD2    C1 3891   1.665   2.505  12.957 -0.6064  0.8441  0.0027
  257MPD2    C2 3892   1.642   2.380  13.016  0.3437 -0.6450  0.2347
  257MPD2    C3 3893   1.615   2.363  13.150  0.0093 -0.0281  0.4188
  257MPD2    C4 3894   1.585   2.484  13.222  0.4820 -0.6684 -0.4999
  257MPD2    C5 3895   1.605   2.606  13.162 -0.1196  0.5467 -0.0785
  257MPD2     H 3896   1.666   2.286  12.967 -1.3246 -0.8800 -0.1288
  257MPD2    H1 3897   1.548   2.484  13.324 -0.6211  0.5820 -0.9012
  257MPD2    H2 3898   1.667   2.717  12.996  0.4222  0.2379 -0.0696
  257MPD2    H3 3899   1.579   2.697  13.215  1.0968  1.2759 -0.7332
  257MPD2     N 3900   1.588   2.233  13.202  0.3967  0.6570  0.0765
  257MPD2    H5 3901   1.596   2.153  13.141 -1.0438  0.7810 -0.2708
  257MPD2    N1 3902   1.684   2.527  12.817  0.1325  0.0122 -0.4093
  257MPD2    H7 3903   1.676   2.620  12.776 -0.1520  1.3466  2.6848
  258TMC3    C1 3904   1.509   2.088  13.372 -0.8132 -0.5083 -0.0310
  258TMC3    C2 3905   1.405   2.045  13.289  0.0692  0.4927 -0.0701
  258TMC3    C3 3906   1.311   1.967  13.344  0.5982 -0.2850 -0.1293
  258TMC3    C4 3907   1.539   2.028  13.489 -0.3750 -0.4807 -0.1759
  258TMC3    C5 3908   1.436   1.965  13.544 -0.2305 -0.5907  0.0039
  258TMC3    C6 3909   1.326   1.931  13.475 -0.1579  0.3472  0.0184
  258TMC3     C 3910   1.582   2.209  13.335 -0.0494 -0.5196 -0.3678
  258TMC3     O 3911   1.642   2.265  13.422  0.0864  0.5453  0.0802
  258TMC3     H 3912   1.390   2.080  13.187 -0.9038 -1.3198 -0.5356
  258TMC3    H1 3913   1.640   2.043  13.528 -0.7048 -0.2732  0.6112
  258TMC3    H2 3914   1.254   1.872  13.530 -0.1714 -0.5406 -0.9546
  258TMC3    C7 3915   1.435   1.922  13.681  0.1166 -0.1382 -0.5729
  258TMC3    C8 3916   1.177   1.959  13.292 -0.1095  0.5315 -0.0376
  258TMC3    O1 3917   1.336   1.891  13.745  0.0406  0.2335 -0.3348
  258TMC3    O2 3918   1.153   2.025  13.194 -0.1253 -0.5500 -0.4594
  259MPD2     C 3919   0.065   4.220   0.847  0.0773  0.0681 -0.2763
  259MPD2    C1 3920   0.149   4.111   0.870  0.2490 -0.1634  0.5224
  259MPD2    C2 3921   0.247   4.069   0.778 -0.5237 -0.7626 -0.3675
  259MPD2    C3 3922   0.256   4.146   0.662  0.5659 -0.2733 -0.9228
  259MPD2    C4 3923   0.167   4.255   0.634  0.3579 -0.0413  0.2591
  259MPD2    C5 3924   0.072   4.289   0.734  0.2456 -0.6759 -0.0697
  259MPD2     H 3925   0.311   3.982   0.791 -0.4347 -0.7229 -0.5377
  259MPD2    H1 3926   0.185   4.325   0.553 -1.7012 -0.3151 -0.4292
  259MPD2    H2 3927   4.718   4.247   0.925  2.0141  0.8055  1.2198
  259MPD2    H3 3928   0.008   4.375   0.717 -0.0144 -1.1343 -1.4075
  259MPD2     N 3929   0.347   4.100   0.567  0.3085  0.0399  0.3569
  259MPD2    H5 3930   0.408   4.025   0.599 -0.4103 -0.8848 -0.4177
  259MPD2    N1 3931   0.125   4.039   0.989  0.2810 -0.1734  0.3481
  259MPD2    H7 3932   0.059   4.081   1.053  0.1851  0.9243 -0.4722
  260TMC3    C1 3933   0.505   4.089   0.398 -0.4296 -0.0058 -0.1747
  260TMC3    C2 3934   0.589   4.168   0.328  0.1211  0.2726 -0.6636
  260TMC3    C3 3935   0.709   4.119   0.322  0.2569 -0.2248 -0.7483
  260TMC3    C4 3936   0.537   3.973   0.465  0.7174  0.1667 -0.5264
  260TMC3    C5 3937   0.670   3.935   0.462 -0.6504  0.5292  0.4708
  260TMC3    C6 3938   0.755   4.004   0.384  0.8013 -0.6942 -0.3710
  260TMC3     C 3939   0.375   4.151   0.438  0.3044 -0.1628  0.7172
  260TMC3     O 3940   0.331   4.253   0.385  0.1368 -0.2564 -0.4546
  260TMC3     H 3941   0.549   4.257   0.281 -1.4880  0.9986  2.0723
  260TMC3    H1 3942   0.464   3.905   0.506  0.1717 -0.5903 -2.7763
  260TMC3    H2 3943   0.862   3.985   0.389  0.6384 -1.6418 -0.3960
  260TMC3    C7 3944   0.703   3.800   0.467 -0.1427 -0.3891 -0.1171
  260TMC3    C8 3945   0.757   4.119   0.182  0.2222 -0.4193 -0.1833
  260TMC3    O1 3946   0.797   3.783   0.392  0.0495 -0.1073 -0.1452
  260TMC3    O2 3947   0.717   4.213   0.108  0.0103  0.2862 -0.2709
  261MPD2     C 3948   2.363   2.201  11.898 -0.2506  0.6968  0.3782
  261MPD2    C1 3949   2.393   2.254  12.023 -0.2323  0.1698 -0.2420
  261MPD2    C2 3950   2.444   2.386  12.034 -0.2454 -0.0079 -0.0820
  261MPD2    C3 3951   2.456   2.462  11.916  0.1447 -0.1170 -0.8964
  261MPD2    C4 3952   2.445   2.404  11.804  0.9919 -0.2326  0.2841
  261MPD2    C5 3953   2.391   2.277  11.790 -0.6082  0.1643  0.5402
  261MPD2     H 3954   2.485   2.410  12.131 -1.7851 -1.3880  0.9131
  261MPD2    H1 3955   2.487   2.448  11.715  2.0827  0.2241  1.0236
  261MPD2    H2 3956   2.331   2.098  11.889 -1.8813  1.3829 -1.5504
  261MPD2    H3 3957   2.396   2.224  11.695  1.2340  0.8351  0.2670
  261MPD2     N 3958   2.514   2.589  11.926 -0.5577  0.2856  0.0696
  261MPD2    H5 3959   2.562   2.634  11.849 -1.6588  0.7618 -0.3288
  261MPD2    N1 3960   2.396   2.185  12.148  1.1197 -0.2836  0.1191
  261MPD2    H7 3961   2.447   2.220  12.229  0.9089  0.9023 -0.2683
  262TMC3    C1 3962   2.524   2.801  12.007  0.5627 -0.1075 -0.5172
  262TMC3    C2 3963   2.430   2.895  12.015 -0.1419  0.3394  0.5084
  262TMC3    C3 3964   2.461   3.025  11.981  1.3029 -0.1786  0.4425
  262TMC3    C4 3965   2.654   2.834  11.977 -0.2609  0.4578  0.7546
  262TMC3    C5 3966   2.686   2.961  11.955 -0.3694 -0.4691  0.0721
  262TMC3    C6 3967   2.593   3.060  11.964  0.0028 -0.2467  0.4929
  262TMC3     C 3968   2.487   2.669  12.031 -0.1944 -0.1209  0.0853
  262TMC3     O 3969   2.413   2.649  12.126 -0.3124  0.2004  0.3819
  262TMC3     H 3970   2.327   2.862  12.025 -0.4251  1.0814  0.0705
  262TMC3    H1 3971   2.736   2.766  11.962  0.2029  1.4908 -1.3301
  262TMC3    H2 3972   2.632   3.161  11.955 -0.2748 -0.1020  0.8779
  262TMC3    C7 3973   2.779   2.990  11.846  0.5412 -0.2151  0.3416
  262TMC3    C8 3974   2.381   3.109  11.902 -0.6267  0.3932 -0.5949
  262TMC3    O1 3975   2.896   2.960  11.863  0.0010 -0.1362  0.4667
  262TMC3    O2 3976   2.454   3.179  11.834  0.1024 -1.0641  0.4225
  263MPD2     C 3977   3.198   1.585  11.244 -0.5936  0.5625  0.2213
  263MPD2    C1 3978   3.328   1.622  11.233  0.1625 -0.3797 -0.2117
  263MPD2    C2 3979   3.366   1.677  11.116  0.1289 -0.5168  0.6805
  263MPD2    C3 3980   3.296   1.667  11.006 -0.8206 -0.3543 -0.4945
  263MPD2    C4 3981   3.176   1.616  11.007  0.0659  0.1458  0.6085
  263MPD2    C5 3982   3.120   1.579  11.126 -0.4138 -0.5075 -0.1277
  263MPD2     H 3983   3.469   1.708  11.106 -0.0773 -0.1898 -0.3653
  263MPD2    H1 3984   3.122   1.626  10.914 -0.3647  0.0838  0.8506
  263MPD2    H2 3985   3.145   1.553  11.333  0.7714  0.0118  0.8304
  263MPD2    H3 3986   3.013   1.561  11.133 -0.2260 -1.1697  1.1356
  263MPD2     N 3987   3.356   1.711  10.886  0.0368 -0.0356  0.9030
  263MPD2    H5 3988   3.444   1.761  10.893  0.1857 -0.2654  0.6379
  263MPD2    N1 3989   3.416   1.592  11.346  0.2977  0.3507 -0.4417
  263MPD2    H7 3990   3.381   1.541  11.427  1.4863  0.5139  0.1713
  264TMC3    C1 3991   3.404   1.754  10.653 -0.2948 -0.7287 -0.3234
  264TMC3    C2 3992   3.408   1.893  10.660  0.0090  0.4799  0.0262
  264TMC3    C3 3993   3.440   1.970  10.558  0.4552 -0.0477 -0.6386
  264TMC3    C4 3994   3.438   1.694  10.536 -0.0701  0.7318 -0.3051
  264TMC3    C5 3995   3.467   1.771  10.424 -0.0912 -0.4627 -0.5641
  264TMC3    C6 3996   3.462   1.909  10.436 -0.3161  0.6362 -0.0533
  264TMC3     C 3997   3.334   1.674  10.754 -0.1578 -0.7108  0.3764
  264TMC3     O 3998   3.255   1.593  10.716 -0.2684 -0.7646  0.0982
  264TMC3     H 3999   3.378   1.935  10.755  1.4318 -0.8031  1.0368
  264TMC3    H1 4000   3.438   1.585  10.534 -0.8717  0.6954  1.5635
  264TMC3    H2 4001   3.493   1.974  10.355  0.8953  0.1682  0.0349
  264TMC3    C7 4002   3.548   1.713  10.326 -0.9263 -0.2110  0.9874
  264TMC3    C8 4003   3.407   2.114  10.552  0.7084  0.1557  0.1464
  264TMC3    O1 4004   3.651   1.653  10.362 -0.3046  0.5355 -0.2046
  264TMC3    O2 4005   3.436   2.185  10.453  0.7095 -0.0771  0.1583
  265MPD2     C 4006   0.674   2.226  15.262 -0.3749  0.4652  0.0122
  265MPD2    C1 4007   0.681   2.351  15.204 -0.6231  0.6088 -0.1636
  265MPD2    C2 4008   0.710   2.367  15.069  0.5472  0.7717 -0.0865
  265MPD2    C3 4009   0.751   2.252  15.003 -0.0749  0.1124 -0.4747
  265MPD2    C4 4010   0.752   2.129  15.063 -0.3012  0.3560 -0.3187
  265MPD2    C5 4011   0.711   2.118  15.188 -0.5500 -0.7890  0.0201
  265MPD2     H 4012   0.697   2.462  15.020 -1.9895 -0.8767 -2.6168
  265MPD2    H1 4013   0.777   2.034  15.017 -0.1383 -0.0300  0.5634
  265MPD2    H2 4014   0.643   2.210  15.364 -2.2766  0.8168 -0.4977
  265MPD2    H3 4015   0.717   2.019  15.232  1.3767 -1.6508 -2.1907
  265MPD2     N 4016   0.814   2.250  14.880 -0.5111  0.9902  0.7450
  265MPD2    H5 4017   0.843   2.160  14.844  0.8371  1.5027  0.5502
  265MPD2    N1 4018   0.644   2.472  15.268 -0.0109  0.7478 -0.4187
  265MPD2    H7 4019   0.655   2.558  15.215  0.6811  0.6272 -0.4650
  266TMC3    C1 4020   0.592   2.625  15.446 -0.4607 -0.5612  0.1188
  266TMC3    C2 4021   0.621   2.644  15.571  0.4552  0.3015  0.6865
  266TMC3    C3 4022   0.614   2.766  15.623 -0.2880  0.7929  0.5668
  266TMC3    C4 4023   0.547   2.724  15.358 -0.1975  0.7314  0.2986
  266TMC3    C5 4024   0.557   2.849  15.408 -0.5386 -0.4282 -0.4154
  266TMC3    C6 4025   0.581   2.873  15.542 -0.1002  0.1689 -0.6553
  266TMC3     C 4026   0.607   2.487  15.399 -0.3917 -0.2888 -1.0652
  266TMC3     O 4027   0.597   2.405  15.486 -0.2327  0.1862  0.2902
  266TMC3     H 4028   0.651   2.563  15.635 -0.1645 -0.0798  0.4959
  266TMC3    H1 4029   0.538   2.702  15.252  0.8709  1.1459  0.1179
  266TMC3    H2 4030   0.593   2.975  15.576  0.0258 -0.0969  0.0857
  266TMC3    C7 4031   0.516   2.960  15.325 -0.1428 -0.2336 -0.8599
  266TMC3    C8 4032   0.694   2.796  15.745  0.3151 -0.4066  0.9822
  266TMC3    O1 4033   0.432   2.939  15.242  0.5321 -0.0183  0.3778
  266TMC3    O2 4034   0.753   2.700  15.793 -0.3846 -0.1837 -0.0042
  267MPD2     C 4035   3.135   3.599  17.678 -0.0441 -0.4246 -0.0734
  267MPD2    C1 4036   3.146   3.649  17.552  0.2210  0.1033  0.1239
  267MPD2    C2 4037   3.038   3.669  17.472  0.2474 -0.2643  0.1687
  267MPD2    C3 4038   2.912   3.636  17.529  0.8653 -1.1829 -0.1502
  267MPD2    C4 4039   2.903   3.588  17.659 -0.1421 -0.6514 -0.9642
  267MPD2    C5 4040   3.016   3.561   0.036  0.1262 -0.8463 -0.5785
  267MPD2     H 4041   3.048   3.711  17.372 -1.7972 -0.5898 -0.1741
  267MPD2    H1 4042   2.802   3.570  17.692  0.0512  1.2534  0.6586
  267MPD2    H2 4043   3.217   3.586   0.051 -1.4228 -0.3199  1.5933
  267MPD2    H3 4044   2.999   3.520   0.135 -0.2810  2.0728  0.5446
  267MPD2     N 4045   2.791   3.649  17.461 -0.8664  0.4683 -0.7673
  267MPD2    H5 4046   2.715   3.598  17.506 -1.1897  0.5908 -1.1731
  267MPD2    N1 4047   3.275   3.681  17.514  0.6326 -0.3555 -0.2156
  267MPD2    H7 4048   3.340   3.666  17.590  0.1717  0.0349  0.2635
  268TMC3    C1 4049   3.441   3.807  17.420 -0.1487 -0.3353 -0.3235
  268TMC3    C2 4050   3.483   3.905  17.331  0.0101 -0.1528 -0.4274
  268TMC3    C3 4051   3.607   3.957  17.345  0.5516 -0.1170 -0.9295
  268TMC3    C4 4052   3.526   3.754  17.519 -0.3829  0.2809 -0.4334
  268TMC3    C5 4053   3.647   3.810  17.524  0.2062 -0.4779 -0.3254
  268TMC3    C6 4054   3.693   3.902  17.435 -0.0713  0.2196  0.1806
  268TMC3     C 4055   3.310   3.749  17.404  0.6259 -0.9513 -0.4063
  268TMC3     O 4056   3.237   3.789  17.315  0.2177  0.1333  0.1253
  268TMC3     H 4057   3.407   3.938  17.261  1.5701  0.7084 -1.7253
  268TMC3    H1 4058   3.504   3.657  17.561  2.4669  0.0260  0.4645
  268TMC3    H2 4059   3.796   3.936  17.433 -0.4933  1.4782 -0.1980
  268TMC3    C7 4060   3.724   3.783  17.642  0.2538  0.5857  0.1561
  268TMC3    C8 4061   3.654   4.074  17.264 -0.0301  0.3961 -0.0128
  268TMC3    O1 4062   3.706   3.680  17.695 -0.1683 -0.2572 -0.6123
  268TMC3    O2 4063   3.772   4.110  17.272  0.3145 -0.5979 -0.1876
  269MPD2     C 4064   3.272   2.785  15.242  0.2609  0.3147 -0.4337
  269MPD2    C1 4065   3.180   2.838  15.321 -0.8689 -0.4127 -0.2947
  269MPD2    C2 4066   3.151   2.973  15.310 -0.9071 -0.0668 -0.9766
  269MPD2    C3 4067   3.218   3.053  15.224 -0.6075 -0.4003  0.1196
  269MPD2    C4 4068   3.323   3.000  15.151 -0.0918  0.2293  0.0776
  269MPD2    C5 4069   3.348   2.866  15.167  0.2340 -0.8786 -0.7415
  269MPD2     H 4070   3.076   3.021  15.372 -0.4622 -0.8970  0.2124
  269MPD2    H1 4071   3.388   3.056  15.084  1.4086  1.4039  2.5288
  269MPD2    H2 4072   3.292   2.678  15.233  0.0538  0.1306  1.3039
  269MPD2    H3 4073   3.417   2.819  15.098  2.2355 -1.1048  1.3943
  269MPD2     N 4074   3.178   3.192  15.216  0.3257  0.0402  0.2907
  269MPD2    H5 4075   3.109   3.225  15.283 -0.2808 -0.0043 -0.3043
  269MPD2    N1 4076   3.104   2.748  15.401 -0.2689  0.6467 -0.3308
  269MPD2    H7 4077   3.133   2.650  15.402 -0.3105  0.6118 -1.6054
  270TMC3    C1 4078   2.922   2.669  15.513 -0.1086 -0.3743  0.3678
  270TMC3    C2 4079   2.786   2.665  15.499 -0.2910 -0.5968  0.2062
  270TMC3    C3 4080   2.727   2.563  15.557 -0.1258  0.4174 -0.5199
  270TMC3    C4 4081   2.992   2.572  15.584 -0.3734  0.8955  0.4381
  270TMC3    C5 4082   2.925   2.468  15.635 -0.0820  0.0755 -0.3561
  270TMC3    C6 4083   2.787   2.456  15.615  0.2954  0.0815  0.8037
  270TMC3     C 4084   2.995   2.791  15.472 -0.0739 -0.1630 -0.6071
  270TMC3     O 4085   2.926   2.893  15.473  0.0216  0.4963 -0.3545
  270TMC3     H 4086   2.723   2.740  15.453 -1.0283  0.0547  2.2506
  270TMC3    H1 4087   3.095   2.589  15.614 -0.1208 -1.4827  0.8999
  270TMC3    H2 4088   2.719   2.375  15.641 -1.6925  1.4380 -0.1132
  270TMC3    C7 4089   2.999   2.364  15.707  0.4335 -0.0118  0.0466
  270TMC3    C8 4090   2.614   2.512  15.489 -0.1151  0.0286 -0.1692
  270TMC3    O1 4091   3.124   2.371  15.701 -0.3212 -0.0951  0.3373
  270TMC3    O2 4092   2.502   2.565  15.509  0.1208  0.2506 -0.5256
  271MPD2     C 4093   2.149   2.391  13.771 -0.1032 -0.2133 -0.2082
  271MPD2    C1 4094   2.080   2.397  13.890 -0.4287  0.2018  0.2987
  271MPD2    C2 4095   1.954   2.452  13.879 -0.5742  0.2282 -0.8557
  271MPD2    C3 4096   1.891   2.493  13.763 -0.6346  0.1823 -0.0701
  271MPD2    C4 4097   1.962   2.468  13.647  0.1869 -0.6321  0.2864
  271MPD2    C5 4098   2.089   2.415  13.653 -0.3261 -0.2658  0.2875
  271MPD2     H 4099   1.905   2.470  13.974 -0.1598 -0.6734 -0.4727
  271MPD2    H1 4100   1.928   2.508  13.552 -0.5681 -1.3659  0.2487
  271MPD2    H2 4101   2.251   2.356  13.762  0.6403  2.4315 -2.1070
  271MPD2    H3 4102   2.144   2.402  13.561  1.2457 -2.7040  1.5618
  271MPD2     N 4103   1.764   2.563  13.753 -0.5911  0.3592  0.1795
  271MPD2    H5 4104   1.731   2.600  13.664 -0.1585 -0.4983 -0.3443
  271MPD2    N1 4105   2.128   2.355  14.013  0.2596  0.3541 -0.9370
  271MPD2    H7 4106   2.077   2.381  14.096 -1.1731 -2.6971 -0.8646
  272TMC3    C1 4107   2.253   2.220  14.172  0.2240  0.6873 -1.0991
  272TMC3    C2 4108   2.346   2.123  14.187  0.5227 -0.1166  0.7758
  272TMC3    C3 4109   2.402   2.098  14.304 -0.0030 -0.5515 -0.1233
  272TMC3    C4 4110   2.217   2.299  14.273 -1.0441 -0.9145  0.2238
  272TMC3    C5 4111   2.281   2.270  14.393  0.0763  0.4409  0.3841
  272TMC3    C6 4112   2.378   2.173  14.413 -0.5373  0.4662  0.7325
  272TMC3     C 4113   2.229   2.258  14.030 -0.1988  0.0135 -0.4845
  272TMC3     O 4114   2.293   2.201  13.942  0.0865  0.7894  0.0822
  272TMC3     H 4115   2.377   2.063  14.102 -0.3322 -1.0203  1.0917
  272TMC3    H1 4116   2.144   2.378  14.265 -1.1670 -1.1273 -0.7990
  272TMC3    H2 4117   2.421   2.157  14.511 -0.8842  3.6434  1.4213
  272TMC3    C7 4118   2.214   2.326  14.510 -0.3727 -0.2700  1.1760
  272TMC3    C8 4119   2.537   2.039  14.293  0.3386  0.0956  0.5463
  272TMC3    O1 4120   2.104   2.377  14.488  0.8503 -0.6654 -0.5354
  272TMC3    O2 4121   2.572   2.001  14.185  0.0146  0.6279 -0.3850
  273MPD2     C 4122   3.402   0.791  12.014 -0.0978  0.4314 -0.6332
  273MPD2    C1 4123   3.520   0.743  11.973 -0.1926 -0.1827 -0.0733
  273MPD2    C2 4124   3.522   0.669  11.857  0.0875 -0.2689 -0.6958
  273MPD2    C3 4125   3.404   0.632  11.789  0.6491 -0.2714 -0.1334
  273MPD2    C4 4126   3.285   0.681  11.837  0.2390 -0.8479 -0.2172
  273MPD2    C5 4127   3.286   0.752  11.951  0.2648 -0.0804 -0.0948
  273MPD2     H 4128   3.621   0.633  11.832  0.7951  0.6342  0.8185
  273MPD2    H1 4129   3.187   0.672  11.790  0.4074  0.3336 -0.8140
  273MPD2    H2 4130   3.392   0.850  12.105 -0.4528 -2.5582  1.2622
  273MPD2    H3 4131   3.195   0.800  11.984 -0.6372 -1.0442 -1.1596
  273MPD2     N 4132   3.398   0.564  11.662  0.6000  0.1933  0.0452
  273MPD2    H5 4133   3.314   0.563  11.605 -0.2163 -1.1462  1.2792
  273MPD2    N1 4134   3.629   0.774  12.049 -0.0851  0.5991 -0.1940
  273MPD2    H7 4135   3.618   0.799  12.146 -2.2810 -2.7843  0.4396
  274TMC3    C1 4136   3.500   0.501  11.468 -0.3421 -0.7791  0.0133
  274TMC3    C2 4137   3.382   0.475  11.399  0.8961 -0.8552  0.7779
  274TMC3    C3 4138   3.376   0.487  11.269 -0.5897  1.4274 -0.3604
  274TMC3    C4 4139   3.609   0.547  11.401  0.0132  0.3876 -0.2307
  274TMC3    C5 4140   3.601   0.551  11.266  0.7605  0.2122  0.4665
  274TMC3    C6 4141   3.484   0.520  11.200 -0.5352  0.2443  0.4572
  274TMC3     C 4142   3.506   0.506  11.610 -0.0173 -0.5432  0.1880
  274TMC3     O 4143   3.613   0.482  11.660 -0.2316 -0.3458  0.0976
  274TMC3     H 4144   3.291   0.463  11.457  0.0205  0.2545 -0.3797
  274TMC3    H1 4145   3.701   0.567  11.455  0.6935  1.5341 -1.8226
  274TMC3    H2 4146   3.477   0.564  11.101  1.2067  0.1833  0.2964
  274TMC3    C7 4147   3.671   0.675  11.215  0.3788 -0.3769  1.4321
  274TMC3    C8 4148   3.252   0.531  11.210 -0.2618 -0.3477 -0.8550
  274TMC3    O1 4149   3.671   0.693  11.094 -0.6469 -0.1660 -0.4196
  274TMC3    O2 4150   3.186   0.605  11.275  0.5238 -0.0873 -0.2119
  275MPD2     C 4151   3.836   3.202  14.189  0.7630  0.0331  0.0163
  275MPD2    C1 4152   3.743   3.292  14.220  0.0340 -0.7101 -0.2604
  275MPD2    C2 4153   3.610   3.258  14.226 -0.5418 -0.6446  0.0746
  275MPD2    C3 4154   3.567   3.127  14.196  0.2753 -0.4938  0.4094
  275MPD2    C4 4155   3.662   3.043  14.146 -0.1639 -0.2500 -0.0078
  275MPD2    C5 4156   3.799   3.076  14.154  0.6473 -0.2754  0.2723
  275MPD2     H 4157   3.541   3.332  14.264 -1.4013 -1.1256 -0.5651
  275MPD2    H1 4158   3.628   2.949  14.105  2.4260 -1.1115 -0.1860
  275MPD2    H2 4159   3.941   3.226  14.181  0.1311  2.7139 -0.2653
  275MPD2    H3 4160   3.878   3.007  14.127  0.3248 -0.6839  0.3843
  275MPD2     N 4161   3.433   3.084  14.198 -0.5427  0.2111 -0.4586
  275MPD2    H5 4162   3.414   3.002  14.141 -0.1131  1.4677 -2.4135
  275MPD2    N1 4163   3.770   3.428  14.245 -0.7653 -0.3115 -0.4346
  275MPD2    H7 4164   3.697   3.480  14.294  0.9552  0.4035  1.3504
  276TMC3    C1 4165   3.915   3.620  14.283  1.6045 -0.1262 -0.3567
  276TMC3    C2 4166   3.812   3.653  14.373 -0.5272 -0.2474  0.7477
  276TMC3    C3 4167   3.848   3.708  14.489  0.7202  0.2243  0.1072
  276TMC3    C4 4168   4.048   3.629  14.316  0.0157  0.1256 -0.1681
  276TMC3    C5 4169   4.077   3.687  14.436 -0.0605  0.2891  0.5785
  276TMC3    C6 4170   3.979   3.722  14.521  0.4379  0.3958  0.2502
  276TMC3     C 4171   3.892   3.497  14.211  0.1184  0.3919  0.7685
  276TMC3     O 4172   3.992   3.457  14.149 -0.2460 -0.7434  0.3130
  276TMC3     H 4173   3.708   3.648  14.344 -0.1204  0.7301 -0.8434
  276TMC3    H1 4174   4.129   3.582  14.261 -0.0212 -1.8740  1.4769
  276TMC3    H2 4175   4.000   3.777  14.612 -0.3286  3.1073 -1.1895
  276TMC3    C7 4176   4.209   3.680  14.501 -0.6173  0.3992  0.5923
  276TMC3    C8 4177   3.782   3.638  14.600  0.3147  0.0512 -0.7267
  276TMC3    O1 4178   4.204   3.648  14.621 -0.4497 -0.0849 -0.3346
  276TMC3    O2 4179   3.797   3.676  14.719  0.2010  0.2798 -0.5247
  277MPD2     C 4180   0.748   2.574  12.907 -0.8189  0.4418 -0.0890
  277MPD2    C1 4181   0.615   2.557  12.888 -0.2373  0.0873  0.0698
  277MPD2    C2 4182   0.534   2.503  12.988 -0.0184  0.5223  0.2271
  277MPD2    C3 4183   0.595   2.450  13.098 -0.3978 -0.2254  0.8036
  277MPD2    C4 4184   0.735   2.462  13.110 -0.4156 -0.4010  0.0111
  277MPD2    C5 4185   0.808   2.523  13.013  0.0965  0.3280 -0.3338
  277MPD2     H 4186   0.428   2.490  12.969 -0.6592  2.5217  2.4861
  277MPD2    H1 4187   0.785   2.439  13.203  2.6868 -1.7788 -2.0153
  277MPD2    H2 4188   0.805   2.631  12.835 -0.2541  1.0053  0.8001
  277MPD2    H3 4189   0.912   2.552  13.021  0.1391 -0.3010  1.3204
  277MPD2     N 4190   0.512   2.401  13.201  0.1369 -0.2894 -0.3898
  277MPD2    H5 4191   0.414   2.413  13.180  0.3138 -0.6762 -1.4401
  277MPD2    N1 4192   0.567   2.612  12.761 -0.2638  0.0115 -0.4448
  277MPD2    H7 4193   0.638   2.654  12.700  0.3336 -0.3599 -0.0077
  278TMC3    C1 4194   0.439   2.326  13.405 -0.1672 -0.0696  0.4013
  278TMC3    C2 4195   0.453   2.220  13.487 -0.0838  0.8439  0.6280
  278TMC3    C3 4196   0.341   2.178  13.555 -0.2013  0.2554 -0.0279
  278TMC3    C4 4197   0.314   2.383  13.386  0.5928  0.4295  0.3229
  278TMC3    C5 4198   0.204   2.336  13.451 -0.0394 -0.5186 -0.0639
  278TMC3    C6 4199   0.216   2.230  13.538 -0.4365  0.0721 -0.1036
  278TMC3     C 4200   0.551   2.351  13.323  0.4192 -0.2509 -0.4245
  278TMC3     O 4201   0.663   2.326  13.361 -0.2416 -0.0683  0.1254
  278TMC3     H 4202   0.551   2.174  13.496 -0.5562 -1.2429 -5.2304
  278TMC3    H1 4203   0.312   2.476  13.331  2.1398 -1.4855 -2.9841
  278TMC3    H2 4204   0.142   2.195  13.609 -0.3674 -2.4540 -1.2672
  278TMC3    C7 4205   0.079   2.415  13.469  0.4154 -0.6169 -0.2997
  278TMC3    C8 4206   0.341   2.038  13.577 -0.2242  0.5094 -0.0053
  278TMC3    O1 4207   0.092   2.534  13.449  0.2939 -0.0384  0.6463
  278TMC3    O2 4208   0.447   1.995  13.619 -0.3372 -0.4342  0.3392
  279MPD2     C 4209   4.641   2.120   0.105  0.4787 -0.2295 -0.0290
  279MPD2    C1 4210   4.597   2.240   0.053  1.2147  0.2422 -0.3761
  279MPD2    C2 4211   4.678   2.313  17.663  0.0845 -0.2408 -0.1121
  279MPD2    C3 4212   0.078   2.268  17.625 -0.6853  0.0943 -0.4512
  279MPD2    C4 4213   0.112   2.143  17.672 -0.0648  0.3827 -0.6590
  279MPD2    C5 4214   0.039   2.079   0.065  0.2514 -1.1554 -0.4483
  279MPD2     H 4215   4.639   2.405  17.623  0.4296 -0.6196 -1.3239
  279MPD2    H1 4216   0.210   2.105  17.648  1.4751  3.3448  1.0181
  279MPD2    H2 4217   4.581   2.067   0.178  0.7244 -1.2924 -0.5941
  279MPD2    H3 4218   0.058   1.977   0.098  0.1175 -0.5030  1.6901
  279MPD2     N 4219   0.159   2.347  17.541  0.1719  0.0984 -0.5208
  279MPD2    H5 4220   0.125   2.438  17.510 -0.2343  0.0534 -0.2002
  279MPD2    N1 4221   4.464   2.286   0.092 -0.0136  0.1423  0.1040
  279MPD2    H7 4222   4.418   2.243   0.172 -0.3403  1.0193  0.3813
  280TMC3    C1 4223   4.281   2.438   0.096 -0.0132  0.2088  0.2862
  280TMC3    C2 4224   4.187   2.344   0.058  0.4971 -0.9741  0.0437
  280TMC3    C3 4225   4.065   2.397   0.026  0.8133 -0.6847  0.7050
  280TMC3    C4 4226   4.254   2.575   0.117 -0.3597  0.2786  0.2878
  280TMC3    C5 4227   4.133   2.620   0.084  0.1291 -0.4208  0.3997
  280TMC3    C6 4228   4.043   2.531   0.025  0.2095  0.3682  0.0338
  280TMC3     C 4229   4.416   2.416   0.059  0.1878  0.0656  0.2488
  280TMC3     O 4230   4.471   2.515   0.017 -0.0839 -0.4149 -0.0161
  280TMC3     H 4231   4.209   2.248   0.013 -0.2991 -0.8818 -0.5612
  280TMC3    H1 4232   4.334   2.642   0.145  0.8546 -0.8641 -0.4326
  280TMC3    H2 4233   3.942   2.571   0.021 -0.4146 -1.1834  0.2839
  280TMC3    C7 4234   4.125   2.763   0.084 -0.7766  0.0552 -0.1227
  280TMC3    C8 4235   3.947   2.319   0.057 -0.0154  0.1029  0.3312
  280TMC3    O1 4236   4.196   2.825   0.163 -0.3236 -0.0344 -0.1173
  280TMC3    O2 4237   3.857   2.381   0.113 -0.0734 -0.1250 -0.2595
  281TMC3    C1 4238   3.547   2.602  12.647  0.8156  0.2146 -0.1082
  281TMC3    C2 4239   3.504   2.698  12.561  0.0477 -0.3158 -0.1894
  281TMC3    C3 4240   3.427   2.680  12.452  0.1592 -0.2349 -0.0800
  281TMC3    C4 4241   3.518   2.474  12.612 -0.1245  0.1336 -0.0114
  281TMC3    C5 4242   3.438   2.451  12.505  0.5780 -0.1098  0.1906
  281TMC3    C6 4243   3.400   2.550  12.421  0.8970  0.1188 -0.7089
  281TMC3     C 4244   3.583   2.624  12.782 -0.2680 -0.8426 -0.0193
  281TMC3     O 4245   3.618   2.526  12.844 -0.0472  0.1566  0.1126
  281TMC3     H 4246   3.528   2.799  12.592  0.2058 -0.8166  1.2949
  281TMC3    H1 4247   3.549   2.396  12.681 -0.8125 -0.8270 -0.7853
  281TMC3    H2 4248   3.327   2.518  12.347  1.9561 -0.5091 -1.4731
  281TMC3    C7 4249   3.381   2.317  12.483 -0.7258 -0.1538  0.4983
  281TMC3    C8 4250   3.305   2.758  12.453 -0.4976 -0.1852 -0.1382
  281TMC3    O1 4251   3.389   2.262  12.375 -0.1212 -0.1239  0.7998
  281TMC3    O2 4252   3.197   2.698  12.448  0.3251 -0.2469  0.7936
  282MPD2     C 4253   0.633   4.188  15.111  0.4375 -0.1167 -0.0525
  282MPD2    C1 4254   0.524   4.261  15.150  0.2169  0.3793  0.8214
  282MPD2    C2 4255   0.440   4.305  15.054 -0.4822 -0.0099  0.1226
  282MPD2    C3 4256   0.459   4.264  14.925  0.2627 -0.3009  0.0420
  282MPD2    C4 4257   0.572   4.200  14.892  0.4415  0.4943  0.5382
  282MPD2    C5 4258   0.660   4.156  14.985  0.0720  0.8862  0.6064
  282MPD2     H 4259   0.353   4.363  15.083 -0.2032 -0.2284  1.3811
  282MPD2    H1 4260   0.580   4.152  14.795  0.7295 -3.0724  2.3273
  282MPD2    H2 4261   0.701   4.150  15.186  0.1321  0.6129  0.5912
  282MPD2    H3 4262   0.745   4.090  14.968 -0.1950  1.1258 -1.5959
  282MPD2     N 4263   0.352   4.293  14.840 -0.0159 -0.1004 -0.6847
  282MPD2    H5 4264   0.272   4.338  14.883  0.1411 -1.0194  0.5749
  282MPD2    N1 4265   0.480   4.293  15.281 -0.5437 -0.0857  0.0813
  282MPD2    H7 4266   0.397   4.351  15.291 -0.1414  0.3201  0.9917
  283TMC3    C1 4267   0.459   4.301  15.508 -0.8232  0.8248 -0.2993
  283TMC3    C2 4268   0.455   4.436  15.523 -0.4129  0.2473 -0.7873
  283TMC3    C3 4269   0.359   4.478  15.608  0.1718  0.4155 -0.2014
  283TMC3    C4 4270   0.391   4.207  15.585 -0.5072 -0.5151  0.6422
  283TMC3    C5 4271   0.299   4.253  15.666  0.2083 -0.2663 -0.2637
  283TMC3    C6 4272   0.280   4.391  15.681 -0.1665  0.2047 -0.3648
  283TMC3     C 4273   0.541   4.250  15.403 -0.3208 -0.5133 -0.6895
  283TMC3     O 4274   0.614   4.152  15.419 -0.3094  0.9146  0.4025
  283TMC3     H 4275   0.508   4.510  15.464 -1.4082  1.5175 -0.0918
  283TMC3    H1 4276   0.421   4.104  15.574  2.1666  0.3372 -0.1474
  283TMC3    H2 4277   0.199   4.422  15.745  0.6579  0.0616  0.7382
  283TMC3    C7 4278   0.186   4.170  15.706 -0.3232  0.4384 -0.9074
  283TMC3    C8 4279   0.340   4.619  15.635 -0.5055 -0.1504  0.2944
  283TMC3    O1 4280   0.111   4.208  15.796  0.4845  0.0997  0.7056
  283TMC3    O2 4281   0.285   4.647  15.743 -0.5348 -0.9427 -0.1116
  284MPD2     C 4282   3.282   3.644  11.740 -0.0894 -0.0753 -0.5189
  284MPD2    C1 4283   3.375   3.583  11.660  0.2133 -0.2581 -0.1464
  284MPD2    C2 4284   3.455   3.485  11.716  0.8443  1.2408  0.2035
  284MPD2    C3 4285   3.460   3.463  11.858  0.3243  0.3179 -0.1277
  284MPD2    C4 4286   3.364   3.526  11.930  0.0617 -0.0510 -0.6192
  284MPD2    C5 4287   3.276   3.612  11.872  0.7083 -0.6930  0.2496
  284MPD2     H 4288   3.523   3.424  11.659 -1.2387 -1.1356  0.2845
  284MPD2    H1 4289   3.348   3.504  12.035 -1.5838  1.7886 -0.4797
  284MPD2    H2 4290   3.200   3.705  11.704  0.4066  1.2350  0.5974
  284MPD2    H3 4291   3.204   3.661  11.936  1.1167  0.9547 -0.5465
  284MPD2     N 4292   3.541   3.374  11.928 -1.4590 -0.7137  0.5020
  284MPD2    H5 4293   3.533   3.375  12.029  0.4372 -3.4557  0.6917
  284MPD2    N1 4294   3.380   3.592  11.522  0.6579 -0.5762  0.2523
  284MPD2    H7 4295   3.424   3.521  11.463  1.1904 -0.9888  1.1376
  285TMC3    C1 4296   3.365   3.694  11.316 -0.7471  0.2384 -0.0095
  285TMC3    C2 4297   3.375   3.577  11.245 -0.0931 -0.0454  0.0427
  285TMC3    C3 4298   3.460   3.566  11.138 -0.0644  0.0522 -0.1762
  285TMC3    C4 4299   3.433   3.802  11.281  0.2283 -0.0713 -0.0074
  285TMC3    C5 4300   3.510   3.790  11.166 -0.3605  0.5301 -0.0848
  285TMC3    C6 4301   3.531   3.675  11.100  0.8074  0.5990  0.9470
  285TMC3     C 4302   3.333   3.702  11.457  0.0717  0.6859  0.0267
  285TMC3     O 4303   3.287   3.805  11.501  0.1770 -0.5014 -0.1473
  285TMC3     H 4304   3.325   3.485  11.272  1.7779 -1.8766 -2.6763
  285TMC3    H1 4305   3.430   3.891  11.343 -0.0014 -0.4691  0.5511
  285TMC3    H2 4306   3.594   3.671  11.012 -0.4997 -2.7319  0.1654
  285TMC3    C7 4307   3.593   3.900  11.130  0.1746 -0.0169  0.1681
  285TMC3    C8 4308   3.492   3.442  11.070  0.5403  0.0852  0.5152
  285TMC3    O1 4309   3.696   3.875  11.065 -1.0352 -0.1327  0.0673
  285TMC3    O2 4310   3.548   3.461  10.966 -0.3669  0.1191  0.2436
  286MPD2     C 4311   3.502   2.210   1.711 -0.2331  0.0189 -0.6294
  286MPD2    C1 4312   3.469   2.205   1.576  0.3886 -0.0765  0.1755
  286MPD2    C2 4313   3.544   2.115   1.497  0.3720  0.5736  0.2303
  286MPD2    C3 4314   3.643   2.031   1.547  0.5010 -0.1839 -0.7412
  286MPD2    C4 4315   3.673   2.042   1.681 -0.7841  0.5886  0.3397
  286MPD2    C5 4316   3.604   2.131   1.760  0.5404 -0.1107  0.0898
  286MPD2     H 4317   3.515   2.115   1.392 -1.1942 -1.6536  0.6541
  286MPD2    H1 4318   3.754   1.986   1.725 -0.4995 -0.4427 -1.5017
  286MPD2    H2 4319   3.455   2.277   1.782  1.8035 -0.6535  1.3617
  286MPD2    H3 4320   3.628   2.140   1.865  1.7049 -1.5816 -0.0491
  286MPD2     N 4321   3.726   1.946   1.467 -0.3497  0.2431 -0.1702
  286MPD2    H5 4322   3.817   1.911   1.497 -1.3476  0.4355  3.0425
  286MPD2    N1 4323   3.366   2.285   1.523 -0.0591  0.9548 -0.9579
  286MPD2    H7 4324   3.350   2.266   1.425 -0.1269  1.1519 -0.9841
  287TMC3    C1 4325   3.785   1.839   1.259  0.8294 -0.9153  0.1574
  287TMC3    C2 4326   3.758   1.821   1.125  0.3319 -0.2932 -0.9061
  287TMC3    C3 4327   3.835   1.728   1.063 -0.2110  0.0457 -0.4177
  287TMC3    C4 4328   3.897   1.787   1.321  0.2039 -0.7047  0.1430
  287TMC3    C5 4329   3.986   1.716   1.237 -1.1431  0.2055 -0.0843
  287TMC3    C6 4330   3.948   1.671   1.115 -0.0007 -0.2693 -0.3273
  287TMC3     C 4331   3.691   1.918   1.335  0.2518  0.1218 -0.0388
  287TMC3     O 4332   3.592   1.940   1.266 -0.8433 -0.0211  0.0195
  287TMC3     H 4333   3.672   1.867   1.079  0.3473  0.1827 -0.4646
  287TMC3    H1 4334   3.928   1.802   1.424 -1.5367 -1.4393  0.7716
  287TMC3    H2 4335   3.993   1.587   1.063  1.3324 -0.7236  1.5827
  287TMC3    C7 4336   4.123   1.696   1.288 -0.2749  0.2059 -0.1866
  287TMC3    C8 4337   3.819   1.706   0.918  0.0927 -0.6799  0.5648
  287TMC3    O1 4338   4.146   1.740   1.400 -1.0512  0.1804  0.4475
  287TMC3    O2 4339   3.892   1.624   0.863 -0.4303 -0.5681  0.4386
  288TMC3    C1 4340   0.341   2.186  14.058  0.5848  1.0138  0.1861
  288TMC3    C2 4341   0.373   2.113  14.164  0.5651  0.5730  0.6803
  288TMC3    C3 4342   0.476   2.145  14.246  0.0543 -0.4037 -0.6957
  288TMC3    C4 4343   0.424   2.283  14.010 -0.0733 -0.3243 -0.0704
  288TMC3    C5 4344   0.530   2.322  14.094  0.0913 -0.4693  0.0628
  288TMC3    C6 4345   0.550   2.251  14.211 -0.0894  0.2563  0.3991
  288TMC3     C 4346   0.248   2.133  13.960 -0.3057 -0.5769  0.5421
  288TMC3     O 4347   0.156   2.213  13.931 -0.0998 -0.4686  0.3733
  288TMC3     H 4348   0.301   2.040  14.200 -0.3452  0.5416 -1.2295
  288TMC3    H1 4349   0.411   2.320  13.910 -1.7994 -0.2688  0.1740
  288TMC3    H2 4350   0.635   2.291  14.264  0.5466 -0.8845  0.2464
  288TMC3    C7 4351   0.643   2.398  14.044  0.3774  0.4087 -0.3580
  288TMC3    C8 4352   0.469   2.135  14.392 -0.1391 -0.2626 -0.4815
  288TMC3    O1 4353   0.739   2.421  14.115 -0.5050 -0.5044  0.2699
  288TMC3    O2 4354   0.518   2.232  14.450  0.4452  0.4483  0.5000
  289MPD2     C 4355   0.819   1.162  14.066 -0.2183 -1.0049  1.0778
  289MPD2    C1 4356   0.761   1.290  14.047  0.2562  0.2683 -0.5057
  289MPD2    C2 4357   0.625   1.301  14.043  0.0470  0.4131  0.0377
  289MPD2    C3 4358   0.542   1.190  14.052 -0.1689 -0.0320 -0.2599
  289MPD2    C4 4359   0.597   1.065  14.074  0.4687 -0.6384 -0.4462
  289MPD2    C5 4360   0.737   1.055  14.077 -0.0601 -0.6478 -0.2344
  289MPD2     H 4361   0.583   1.400  14.025  0.1405  0.1553 -1.6159
  289MPD2    H1 4362   0.538   0.975  14.088 -0.0083 -0.1939  0.4306
  289MPD2    H2 4363   0.926   1.148  14.076  0.1623  0.6691 -0.7722
  289MPD2    H3 4364   0.781   0.956  14.080  1.0766 -0.1180  0.5703
  289MPD2     N 4365   0.402   1.187  14.046  0.8685 -0.0184 -0.4277
  289MPD2    H5 4366   0.353   1.101  14.070  1.7843 -1.2021 -2.7372
  289MPD2    N1 4367   0.846   1.405  14.044 -0.0786 -0.0177  0.0192
  289MPD2    H7 4368   0.942   1.374  14.053 -0.0548  0.1122  0.1974
  290TMC3    C1 4369   0.185   1.268  13.995 -0.2121 -0.2948  0.9247
  290TMC3    C2 4370   0.106   1.374  14.023  0.6346 -0.4607  0.0078
  290TMC3    C3 4371   4.693   1.355  13.998 -0.0847  0.1924  0.5441
  290TMC3    C4 4372   0.135   1.142  13.980 -0.3740 -0.2134  0.2089
  290TMC3    C5 4373   0.004   1.131  13.962  0.0668 -0.3971 -0.1967
  290TMC3    C6 4374   4.643   1.231  13.970 -0.0043 -0.6049 -0.0824
  290TMC3     C 4375   0.330   1.295  13.998  0.8242  0.6082 -0.4675
  290TMC3     O 4376   0.362   1.411  13.982 -0.1835 -0.1507 -0.5216
  290TMC3     H 4377   0.142   1.477  14.028 -1.5208  0.3388 -0.7597
  290TMC3    H1 4378   0.205   1.065  13.948  0.3784  0.2189  0.8048
  290TMC3    H2 4379   4.536   1.215  13.974 -0.0183 -0.6517 -0.5779
  290TMC3    C7 4380   4.662   1.009  13.964 -0.0322 -0.0751 -0.1568
  290TMC3    C8 4381   4.594   1.460  14.019  0.1379 -0.3018 -0.4609
  290TMC3    O1 4382   4.548   1.011  13.925 -0.3259 -0.1131 -0.1118
  290TMC3    O2 4383   4.485   1.445  13.962 -0.8506  0.1180 -0.2269
  291MPD2     C 4384   3.968   1.017   0.076  0.2837 -0.2500 -0.2629
  291MPD2    C1 4385   4.053   0.912   0.110 -0.0438 -0.3584 -0.0236
  291MPD2    C2 4386   4.190   0.941   0.118 -0.5136 -0.8630 -0.7479
  291MPD2    C3 4387   4.251   1.067   0.091 -0.1919 -0.4737 -0.5749
  291MPD2    C4 4388   4.161   1.166   0.042 -0.9536  0.4862  0.4134
  291MPD2    C5 4389   4.027   1.139   0.038 -0.7239 -0.4343 -0.3642
  291MPD2     H 4390   4.253   0.856   0.142  0.1573  0.3607  1.8347
  291MPD2    H1 4391   4.195   1.265   0.015  0.0548 -0.5024 -1.9276
  291MPD2    H2 4392   3.861   1.006   0.062  0.8102 -2.3829 -2.7275
  291MPD2    H3 4393   3.964   1.224   0.019  0.9487  0.9264  0.1629
  291MPD2     N 4394   4.392   1.090   0.079  0.0479 -0.6525  0.2817
  291MPD2    H5 4395   4.409   1.189   0.063 -0.9004 -0.9519 -2.5730
  291MPD2    N1 4396   4.012   0.791   0.157 -0.7504 -0.0932  0.4412
  291MPD2    H7 4397   4.086   0.746   0.210 -1.9894 -3.7856 -1.0100
  292TMC3    C1 4398   3.896   0.609   0.232 -0.1499 -0.3588  0.1788
  292TMC3    C2 4399   3.949   0.629   0.358 -0.0928  0.1691 -0.0672
  292TMC3    C3 4400   3.958   0.518   0.433 -0.4251  0.6260 -0.0641
  292TMC3    C4 4401   3.858   0.495   0.175  0.1462 -0.0077 -0.3185
  292TMC3    C5 4402   3.854   0.393   0.269 -0.2982 -0.1984 -0.0529
  292TMC3    C6 4403   3.919   0.400   0.389  0.5858  0.7385 -0.0759
  292TMC3     C 4404   3.890   0.732   0.152 -0.0202 -0.4441  0.4890
  292TMC3     O 4405   3.797   0.736   0.071  0.3473  0.2331  0.7303
  292TMC3     H 4406   3.975   0.726   0.398 -0.7169  0.4456 -0.3311
  292TMC3    H1 4407   3.826   0.480   0.073  0.6512  0.7988 -0.5918
  292TMC3    H2 4408   3.910   0.325   0.466  2.2614  1.0281  0.3955
  292TMC3    C7 4409   3.850   0.262   0.216  0.6457 -0.5949  0.8157
  292TMC3    C8 4410   4.020   0.525   0.565  0.3807 -0.0969 -0.6783
  292TMC3    O1 4411   3.910   0.176   0.281  0.2645 -0.7291  0.2118
  292TMC3    O2 4412   3.971   0.451   0.650 -0.1179  0.3624 -0.9670
  293MPD2     C 4413   2.055   2.254  12.136  0.8579  0.0892 -0.9877
  293MPD2    C1 4414   1.976   2.175  12.219  0.5209 -0.1927 -0.0167
  293MPD2    C2 4415   1.971   2.200  12.353  0.0695  0.3240 -0.7347
  293MPD2    C3 4416   2.048   2.289  12.422 -0.1969 -0.5342  0.5191
  293MPD2    C4 4417   2.127   2.372  12.339  0.0481 -0.7567 -0.5012
  293MPD2    C5 4418   2.140   2.344  12.199  0.5438  0.0656  0.2680
  293MPD2     H 4419   1.917   2.133  12.419 -2.0254  2.4790 -0.2571
  293MPD2    H1 4420   2.188   2.453  12.377 -1.4330  0.3816 -0.5753
  293MPD2    H2 4421   2.067   2.249  12.028  1.9574  1.4810 -0.9329
  293MPD2    H3 4422   2.205   2.401  12.134 -2.0144  0.3070 -2.1035
  293MPD2     N 4423   2.038   2.298  12.563  0.7170  0.4723 -0.0574
  293MPD2    H5 4424   1.977   2.231  12.609  0.5718 -0.3670 -1.4627
  293MPD2    N1 4425   1.891   2.074  12.162  0.1910  1.1378  0.3438
  293MPD2    H7 4426   1.904   2.057  12.062  1.5134 -1.7144  1.0260
  294TMC3    C1 4427   1.710   1.927  12.136 -0.3465 -0.0342 -0.8932
  294TMC3    C2 4428   1.579   1.942  12.146  0.9510  0.8362  0.2619
  294TMC3    C3 4429   1.495   1.906  12.045  0.7070  0.1419 -1.0617
  294TMC3    C4 4430   1.769   1.892  12.016 -0.1685  0.3493  0.0402
  294TMC3    C5 4431   1.687   1.864  11.910  0.0789 -0.0723  0.0022
  294TMC3    C6 4432   1.548   1.866  11.923  0.3417  0.0605  0.7198
  294TMC3     C 4433   1.792   1.999  12.231  0.5886 -0.0326  0.1469
  294TMC3     O 4434   1.750   1.999  12.348  0.5796 -0.7424  0.2483
  294TMC3     H 4435   1.542   1.992  12.235  3.4243 -0.0607  1.7795
  294TMC3    H1 4436   1.876   1.879  12.018 -0.1987  0.1612  0.4063
  294TMC3    H2 4437   1.490   1.812  11.848 -0.4443  0.3936  1.0825
  294TMC3    C7 4438   1.742   1.868  11.775 -0.1637 -0.1218 -0.5410
  294TMC3    C8 4439   1.353   1.896  12.078  0.3679  0.3682 -0.2288
  294TMC3    O1 4440   1.850   1.816  11.753 -0.2530 -0.6025  0.6004
  294TMC3    O2 4441   1.319   1.937  12.189 -0.0584  0.5379 -0.0982
  295MPD2     C 4442   2.068   0.724   0.663  0.4190 -0.2417  0.8054
  295MPD2    C1 4443   2.035   0.835   0.596  0.3769 -0.0714  0.1503
  295MPD2    C2 4444   1.926   0.914   0.650  0.4654  0.0343 -0.2796
  295MPD2    C3 4445   1.869   0.885   0.771 -0.1058  0.6634 -0.0702
  295MPD2    C4 4446   1.899   0.769   0.838 -0.0570  1.2986 -0.4881
  295MPD2    C5 4447   2.003   0.691   0.779  0.6510  0.7615  0.4586
  295MPD2     H 4448   1.900   0.997   0.585  2.9597  0.2614 -0.9697
  295MPD2    H1 4449   1.855   0.738   0.932 -0.8091 -0.7655 -1.5207
  295MPD2    H2 4450   2.148   0.659   0.628  0.0499 -1.1396  1.6212
  295MPD2    H3 4451   2.052   0.607   0.829 -2.1723 -1.5508 -0.6810
  295MPD2     N 4452   1.769   0.970   0.826  0.8035 -0.2838 -0.3356
  295MPD2    H5 4453   1.709   0.938   0.901  0.2323  2.9412  0.5870
  295MPD2    N1 4454   2.094   0.875   0.479 -1.1583  0.4971  0.2983
  295MPD2    H7 4455   2.049   0.955   0.435  0.9449  1.3147 -0.3601
  296TMC3    C1 4456   1.612   1.166   0.844  0.6511  0.2684  0.1912
  296TMC3    C2 4457   1.530   1.238   0.759  0.3600 -0.1950 -0.0332
  296TMC3    C3 4458   1.418   1.293   0.823  0.2641 -0.2193  0.6307
  296TMC3    C4 4459   1.590   1.147   0.974 -0.2703 -0.4223 -0.2551
  296TMC3    C5 4460   1.487   1.211   1.029 -0.2543 -0.8467  0.1763
  296TMC3    C6 4461   1.399   1.277   0.958 -0.3005 -0.0560 -0.5956
  296TMC3     C 4462   1.726   1.097   0.774  0.4677 -0.2506 -0.0795
  296TMC3     O 4463   1.760   1.164   0.676 -0.6768  0.0472  0.5099
  296TMC3     H 4464   1.549   1.263   0.655  1.8405  2.0719  0.8117
  296TMC3    H1 4465   1.665   1.102   1.039 -1.0024 -1.0450  0.1541
  296TMC3    H2 4466   1.317   1.327   1.009  0.0327  0.0106 -0.1263
  296TMC3    C7 4467   1.459   1.193   1.168 -0.4064 -0.0823 -0.4439
  296TMC3    C8 4468   1.316   1.359   0.741  0.2394  0.0969  0.0954
  296TMC3    O1 4469   1.419   1.284   1.240 -0.0757 -0.1147  0.3980
  296TMC3    O2 4470   1.202   1.357   0.784 -0.1189  0.5244 -0.3335
  297MPD2     C 4471   4.287   2.977  15.980 -0.7291 -0.0884  0.5981
  297MPD2    C1 4472   4.264   3.082  15.892 -0.6648  0.0941 -0.7734
  297MPD2    C2 4473   4.336   3.200  15.902  0.0568  0.1844  0.2605
  297MPD2    C3 4474   4.431   3.221  16.001 -0.2304  0.5490 -0.4396
  297MPD2    C4 4475   4.448   3.113  16.092  1.0047  0.4496 -0.0174
  297MPD2    C5 4476   4.378   2.996  16.077 -0.1311 -0.5232  0.8523
  297MPD2     H 4477   4.308   3.282  15.837  0.6819 -0.8931 -1.3717
  297MPD2    H1 4478   4.515   3.121  16.177  2.1548  2.3857 -1.1073
  297MPD2    H2 4479   4.237   2.881  15.976 -3.6351  1.5863 -2.7912
  297MPD2    H3 4480   4.409   2.916  16.143  2.3417 -0.8445 -0.6962
  297MPD2     N 4481   4.497   3.348  16.003 -0.5017  0.5693 -0.2012
  297MPD2    H5 4482   4.465   3.416  15.935  1.9966 -0.4200 -2.3536
  297MPD2    N1 4483   4.160   3.078  15.798 -0.1786  0.2702 -0.3385
  297MPD2    H7 4484   4.166   3.149  15.725 -0.4023  0.4528 -0.1797
  298TMC3    C1 4485   3.981   3.010  15.682 -0.3293  0.8004 -0.0728
  298TMC3    C2 4486   4.040   3.009  15.558  0.0063  0.0152  0.7341
  298TMC3    C3 4487   3.968   3.068  15.458  1.0179  0.4933 -0.2323
  298TMC3    C4 4488   3.868   3.076  15.706 -0.1449 -0.2856  0.4259
  298TMC3    C5 4489   3.801   3.139  15.609  0.0221  0.8622 -0.4298
  298TMC3    C6 4490   3.848   3.133  15.481 -0.0110 -0.4987 -0.2189
  298TMC3     C 4491   4.059   2.987  15.792 -0.2429  0.7649  0.5536
  298TMC3     O 4492   4.008   2.918  15.882 -0.6600  0.2527 -0.2224
  298TMC3     H 4493   4.129   2.947  15.554 -0.5139 -0.5067 -2.0738
  298TMC3    H1 4494   3.838   3.067  15.810 -3.1447 -1.2737 -0.5464
  298TMC3    H2 4495   3.789   3.174  15.400  1.2134 -0.2191 -0.9687
  298TMC3    C7 4496   3.705   3.237  15.656  0.6517 -0.0045  0.5928
  298TMC3    C8 4497   4.022   3.080  15.328  0.0292 -0.4613 -0.2254
  298TMC3    O1 4498   3.712   3.255  15.776  0.4254 -0.3095  0.0139
  298TMC3    O2 4499   3.949   3.130  15.245  0.5474 -0.4984  0.4998
  299MPD2     C 4500   4.644   2.501   9.798 -0.6690  0.1659  0.7155
  299MPD2    C1 4501   4.664   2.636   9.762 -0.0401  0.6718 -0.5977
  299MPD2    C2 4502   4.553   2.695   9.696  0.3147 -0.2937  0.1180
  299MPD2    C3 4503   4.427   2.633   9.685  0.7158 -0.0335  0.1189
  299MPD2    C4 4504   4.408   2.503   9.730  1.1901 -0.4374 -0.1827
  299MPD2    C5 4505   4.521   2.442   9.776  0.0896  0.1554  0.4461
  299MPD2     H 4506   4.568   2.791   9.648  0.6856 -1.5515 -2.2321
  299MPD2    H1 4507   4.320   2.445   9.706  0.8419  0.0946 -0.1942
  299MPD2    H2 4508   0.003   2.443   9.837 -0.5835 -1.6687 -2.1603
  299MPD2    H3 4509   4.518   2.338   9.807  0.5179  0.7308  2.3956
  299MPD2     N 4510   4.323   2.691   9.622  0.4938  0.2216  0.7538
  299MPD2    H5 4511   4.229   2.653   9.629 -0.6753  2.4216 -2.8253
  299MPD2    N1 4512   0.064   2.708   9.793  0.6258 -0.7827  0.0199
  299MPD2    H7 4513   0.128   2.656   9.852 -0.3029 -1.3829  0.5183
  300TMC3    C1 4514   4.208   2.879   9.515  0.3441 -0.4105  0.0124
  300TMC3    C2 4515   4.209   2.991   9.442 -0.2948 -0.2948  0.2468
  300TMC3    C3 4516   4.109   3.081   9.464  0.4320  0.5772  0.0190
  300TMC3    C4 4517   4.103   2.846   9.592  0.8294 -0.3060 -0.1256
  300TMC3    C5 4518   4.004   2.936   9.608  0.0248 -0.6465 -0.2299
  300TMC3    C6 4519   4.000   3.059   9.545  0.6582  0.1812 -0.7435
  300TMC3     C 4520   4.331   2.806   9.539  0.1502 -0.0007 -0.8635
  300TMC3     O 4521   4.426   2.850   9.477  0.0421 -0.3440  0.1760
  300TMC3     H 4522   4.298   3.022   9.389 -1.2559 -0.9286 -1.7487
  300TMC3    H1 4523   4.087   2.750   9.641  1.3150 -0.8709 -1.0930
  300TMC3    H2 4524   3.935   3.139   9.578  0.8608  0.6872 -1.5789
  300TMC3    C7 4525   3.968   2.956   9.750  0.2338 -0.2132  0.4599
  300TMC3    C8 4526   4.152   3.220   9.443  0.0563  0.7066 -0.1346
  300TMC3    O1 4527   3.855   2.917   9.779  0.0384  0.1835 -0.5994
  300TMC3    O2 4528   4.273   3.242   9.466  0.2120 -0.0645 -0.7041
  301MPD2     C 4529   2.066   4.340   1.436 -0.4883 -0.4871  0.1221
  301MPD2    C1 4530   1.949   4.274   1.403 -0.2452  0.0482 -0.4477
  301MPD2    C2 4531   1.945   4.135   1.398 -0.3519  0.3490 -0.4015
  301MPD2    C3 4532   2.063   4.059   1.406 -0.8466  0.1433  0.3663
  301MPD2    C4 4533   2.182   4.121   1.439 -0.2344 -1.0519 -0.2926
  301MPD2    C5 4534   2.179   4.258   1.447 -0.0632  1.0584 -0.1230
  301MPD2     H 4535   1.849   4.085   1.385 -0.5946  0.3658  1.3087
  301MPD2    H1 4536   2.273   4.063   1.427 -0.5891 -0.7985 -4.3452
  301MPD2    H2 4537   2.084   4.446   1.443 -0.9120 -0.5174  1.5596
  301MPD2    H3 4538   2.280   4.290   1.473 -0.1874  0.6891  0.8268
  301MPD2     N 4539   2.067   3.921   1.383  0.7076 -0.1717 -0.7164
  301MPD2    H5 4540   2.141   3.857   1.411 -2.0126 -2.6729  0.8695
  301MPD2    N1 4541   1.828   4.349   1.393  0.1474 -0.0531 -0.0435
  301MPD2    H7 4542   1.738   4.304   1.377 -0.4987  1.4662 -0.6738
  302TMC3    C1 4543   1.997   3.713   1.302  0.0375  0.1433  0.2977
  302TMC3    C2 4544   2.113   3.666   1.351  0.0470 -0.2890 -0.1001
  302TMC3    C3 4545   2.111   3.532   1.383  0.2568 -0.5286  0.3300
  302TMC3    C4 4546   1.881   3.637   1.298 -1.0000  0.1921 -0.2399
  302TMC3    C5 4547   1.889   3.508   1.349  0.1847 -0.4812 -0.3847
  302TMC3    C6 4548   2.005   3.451   1.389 -0.3545 -1.1701  0.1909
  302TMC3     C 4549   1.972   3.853   1.310 -0.2269 -0.4631  0.1818
  302TMC3     O 4550   1.872   3.891   1.250 -0.5190 -0.4440  0.0987
  302TMC3     H 4551   2.203   3.721   1.324  0.0296 -0.6960 -0.9822
  302TMC3    H1 4552   1.782   3.678   1.285 -1.6550 -1.5338 -0.6776
  302TMC3    H2 4553   2.007   3.348   1.423 -1.0644 -2.1157 -2.6560
  302TMC3    C7 4554   1.788   3.415   1.317  0.2575 -0.7229  0.1667
  302TMC3    C8 4555   2.230   3.461   1.369  0.2928 -0.0926 -0.1899
  302TMC3    O1 4556   1.779   3.317   1.386 -0.5176  0.4521  0.1123
  302TMC3    O2 4557   2.217   3.347   1.325  0.1297 -0.6495  0.1152
  303MPD2     C 4558   1.953   2.753   9.907  0.5633  0.0334  0.1573
  303MPD2    C1 4559   1.955   2.640   9.980  0.4057  0.1133  0.0209
  303MPD2    C2 4560   1.869   2.537   9.956 -0.3417 -0.5012 -0.1219
  303MPD2    C3 4561   1.764   2.550   9.873 -0.0093  0.5635 -0.3499
  303MPD2    C4 4562   1.757   2.670   9.802  0.1923 -0.0506 -0.1139
  303MPD2    C5 4563   1.848   2.774   9.825 -0.4552  0.5507 -0.9493
  303MPD2     H 4564   1.889   2.442  10.006  1.5639 -0.8425 -1.5667
  303MPD2    H1 4565   1.681   2.687   9.727 -0.0271 -1.8570 -0.3195
  303MPD2    H2 4566   2.021   2.835   9.925  1.7587 -1.1735  1.1735
  303MPD2    H3 4567   1.846   2.867   9.770 -2.7859  1.7709  1.2425
  303MPD2     N 4568   1.678   2.446   9.832 -0.3757 -0.1035  0.1351
  303MPD2    H5 4569   1.608   2.462   9.760 -2.0037  2.2769  2.2246
  303MPD2    N1 4570   2.058   2.622  10.077  0.2589  0.4442  0.7448
  303MPD2    H7 4571   2.134   2.689  10.069  0.4462  0.0785 -0.5263
  304TMC3    C1 4572   2.168   2.530  10.254  0.3138 -0.1913  0.0516
  304TMC3    C2 4573   2.145   2.505  10.383 -0.1408 -0.5874 -0.1584
  304TMC3    C3 4574   2.240   2.435  10.454  0.7392  0.4620  0.1822
  304TMC3    C4 4575   2.281   2.491  10.193  0.1664  1.0930 -0.1110
  304TMC3    C5 4576   2.357   2.401  10.258 -0.2821  0.5563  0.2487
  304TMC3    C6 4577   2.349   2.380  10.387  0.5053  0.2759  0.6007
  304TMC3     C 4578   2.051   2.531  10.180 -0.5668 -0.3717  0.2296
  304TMC3     O 4579   1.961   2.471  10.232 -0.0683  0.2922 -0.0616
  304TMC3     H 4580   2.053   2.542  10.426 -0.4543 -0.9250 -0.5478
  304TMC3    H1 4581   2.277   2.492  10.085  0.9036  0.3103 -0.1515
  304TMC3    H2 4582   2.417   2.311  10.435 -1.2821 -2.5621 -0.9437
  304TMC3    C7 4583   2.400   2.278  10.184  0.0837  0.2614  0.4515
  304TMC3    C8 4584   2.181   2.319  10.520  0.2773  1.0480 -0.2799
  304TMC3    O1 4585   2.443   2.290  10.070  0.2346 -0.6911 -0.1254
  304TMC3    O2 4586   2.233   2.215  10.496 -0.1122  0.1489  0.0124
  305MPD2     C 4587   0.445   4.062  14.015  1.1274  0.2300  0.0660
  305MPD2    C1 4588   0.518   4.150  13.931 -0.2610 -0.4062  0.7262
  305MPD2    C2 4589   0.503   4.155  13.792 -0.2636 -0.0512 -0.1923
  305MPD2    C3 4590   0.409   4.075  13.733 -0.0096  0.6003 -1.0533
  305MPD2    C4 4591   0.335   3.981  13.813  0.0009  0.3562 -0.5204
  305MPD2    C5 4592   0.353   3.981  13.951 -0.2291  0.0917  0.0852
  305MPD2     H 4593   0.570   4.219  13.736  0.1876 -0.5659 -0.2440
  305MPD2    H1 4594   0.259   3.911  13.781  0.2768 -0.5204  0.7177
  305MPD2    H2 4595   0.436   4.075  14.122  1.4739 -1.4477  0.3114
  305MPD2    H3 4596   0.299   3.914  14.018 -0.5269  1.4170  1.1680
  305MPD2     N 4597   0.379   4.070  13.599 -0.0416 -0.3327  0.3961
  305MPD2    H5 4598   0.311   4.009  13.555 -0.0303  0.4392 -0.6975
  305MPD2    N1 4599   0.622   4.230  13.991  0.4871  0.0415  0.1112
  305MPD2    H7 4600   0.628   4.223  14.093  1.6777 -2.9998 -0.1658
  306TMC3    C1 4601   0.790   4.381  14.030 -0.5349  0.0223 -0.6595
  306TMC3    C2 4602   0.833   4.289  14.125 -0.3488 -0.6705 -0.7819
  306TMC3    C3 4603   0.924   4.340  14.217 -0.1641  0.1711  0.2596
  306TMC3    C4 4604   0.854   4.502  14.019 -0.2943  0.9033  0.0643
  306TMC3    C5 4605   0.933   4.545  14.112  0.0908 -0.2527  0.6880
  306TMC3    C6 4606   0.977   4.469  14.218  0.2694  0.5630  0.3495
  306TMC3     C 4607   0.697   4.331  13.929 -0.1295 -0.2277  0.3606
  306TMC3     O 4608   0.674   4.407  13.836 -0.0675 -0.4818  0.5523
  306TMC3     H 4609   0.804   4.185  14.127  3.0812 -1.6239 -1.1721
  306TMC3    H1 4610   0.808   4.570  13.948  0.2170 -0.0089 -1.1451
  306TMC3    H2 4611   1.058   4.509  14.278 -1.2595  1.9603  1.4857
  306TMC3    C7 4612   0.965   4.682  14.105 -0.5979  0.1879 -0.1372
  306TMC3    C8 4613   0.983   4.252  14.318 -0.2784 -0.0358 -0.7561
  306TMC3    O1 4614   0.953   0.013  13.997  0.1122 -0.7415 -0.6184
  306TMC3    O2 4615   0.944   4.134  14.309 -0.1086  0.2436  0.0404
  307MPD2     C 4616   2.789   1.809   0.756  0.1099 -0.4000  0.1752
  307MPD2    C1 4617   2.698   1.850   0.654 -0.6748  0.0450 -0.1810
  307MPD2    C2 4618   2.581   1.906   0.694 -0.6896 -0.5591  0.8421
  307MPD2    C3 4619   2.542   1.913   0.827  0.1367  1.1643 -0.5731
  307MPD2    C4 4620   2.624   1.856   0.923 -0.1244 -0.1044 -0.2661
  307MPD2    C5 4621   2.747   1.811   0.887 -0.3422  0.5414 -0.0305
  307MPD2     H 4622   2.511   1.926   0.614 -0.1927  0.5227  0.6817
  307MPD2    H1 4623   2.601   1.844   1.028 -1.7523 -0.5614 -0.6797
  307MPD2    H2 4624   2.884   1.766   0.726  2.0622  1.0547  4.3308
  307MPD2    H3 4625   2.806   1.767   0.967 -0.8857 -0.1389  0.0038
  307MPD2     N 4626   2.420   1.975   0.852 -0.3656 -0.3436 -0.3476
  307MPD2    H5 4627   2.371   1.996   0.766 -1.2521  1.5785  0.6309
  307MPD2    N1 4628   2.728   1.843   0.514  0.1451  0.0762 -0.0923
  307MPD2    H7 4629   2.667   1.893   0.451 -0.2502 -0.6937 -0.3195
  308TMC3    C1 4630   2.114   2.120   0.774  0.3723  0.0328  0.2917
  308TMC3    C2 4631   2.110   2.255   0.806 -0.3295 -0.1145  0.1543
  308TMC3    C3 4632   2.183   2.295   0.916 -0.4828  0.0430 -0.0489
  308TMC3    C4 4633   2.166   2.031   0.856 -0.2088 -0.0817  0.4159
  308TMC3    C5 4634   2.241   2.076   0.956  0.5208 -0.0077  0.3762
  308TMC3    C6 4635   2.248   2.204   0.994 -0.0195 -0.4704  0.3166
  308TMC3     C 4636   2.041   2.069   0.649  0.0362 -0.0884 -0.1894
  308TMC3     O 4637   2.015   1.947   0.650  0.1618  0.2774 -0.4596
  308TMC3     H 4638   2.059   2.327   0.742 -0.2358 -0.1521  0.0382
  308TMC3    H1 4639   2.172   1.926   0.828 -1.5242  0.2370 -1.0400
  308TMC3    H2 4640   2.321   2.227   1.071  0.8393 -0.4747 -0.5122
  308TMC3    C7 4641   2.371   2.006   0.975  0.3519  0.1914 -0.2088
  308TMC3    C8 4642   2.242   2.429   0.913  0.1121 -0.0881  0.7322
  308TMC3    O1 4643   2.422   2.016   1.089  0.6532  0.8095  0.3539
  308TMC3    O2 4644   2.291   2.468   1.019  0.0073 -0.0425  0.1674
  309MPD2     C 4645   2.443   3.002  16.876  0.4903 -0.1082 -0.8453
  309MPD2    C1 4646   2.384   3.012  16.748 -0.5424 -0.3805  0.0303
  309MPD2    C2 4647   2.250   3.036  16.746  0.1026  1.5167  0.1432
  309MPD2    C3 4648   2.168   3.058  16.854  0.4819 -0.2324 -0.5720
  309MPD2    C4 4649   2.229   3.044  16.977 -0.3447 -0.3197 -0.1505
  309MPD2    C5 4650   2.365   3.022  16.987 -0.1849  0.3426  0.4281
  309MPD2     H 4651   2.210   3.038  16.645 -1.8419 -0.5615  0.8704
  309MPD2    H1 4652   2.179   3.061  17.071  0.7111  0.4909  0.2720
  309MPD2    H2 4653   2.548   2.979  16.893  0.3352 -0.7647 -0.7956
  309MPD2    H3 4654   2.410   3.014  17.086 -0.5283  0.2518  0.5770
  309MPD2     N 4655   2.035   3.092  16.829 -0.1665 -0.7515 -0.2371
  309MPD2    H5 4656   1.973   3.111  16.907 -0.4257 -1.5864 -0.2424
  309MPD2    N1 4657   2.454   2.991  16.627  0.0189 -0.4797 -0.3703
  309MPD2    H7 4658   2.401   2.991  16.540 -0.7225 -0.0730  0.0834
  310TMC3    C1 4659   2.638   2.980  16.475  0.4574  0.0456  0.0303
  310TMC3    C2 4660   2.572   3.047  16.375  0.3254 -0.2744  0.3608
  310TMC3    C3 4661   2.615   3.038  16.245  0.1148  0.7309  0.7231
  310TMC3    C4 4662   2.745   2.912  16.440  0.5733 -0.1647 -0.8190
  310TMC3    C5 4663   2.781   2.889  16.314 -0.0812  0.1036  0.4399
  310TMC3    C6 4664   2.721   2.949  16.214  0.6076  0.3044 -0.6827
  310TMC3     C 4665   2.595   2.988  16.615 -0.1110 -0.4267  0.9204
  310TMC3     O 4666   2.679   2.997  16.706 -0.1910 -0.0494 -0.1221
  310TMC3     H 4667   2.498   3.121  16.402 -0.7426 -0.6903 -1.4629
  310TMC3    H1 4668   2.795   2.861  16.522 -1.1237 -1.4261 -0.5586
  310TMC3    H2 4669   2.731   2.912  16.113  0.4085  1.0723 -0.9841
  310TMC3    C7 4670   2.906   2.811  16.299 -0.2748 -0.2333  0.2386
  310TMC3    C8 4671   2.538   3.113  16.148 -0.1055  0.0881 -0.1790
  310TMC3    O1 4672   2.942   2.752  16.400  0.4042 -0.3025  0.4297
  310TMC3    O2 4673   2.431   3.165  16.185  0.4209 -0.0555 -0.0285
  311MPD2     C 4674   4.468   3.957  12.788  0.3409  0.2296 -0.6842
  311MPD2    C1 4675   4.446   4.065  12.705  0.4782 -0.8179  0.8662
  311MPD2    C2 4676   4.326   4.124  12.700 -0.3020 -0.3318  0.3455
  311MPD2    C3 4677   4.218   4.070  12.774  0.2704  1.3430  0.7549
  311MPD2    C4 4678   4.238   3.961  12.854  0.2545  1.0598  0.3439
  311MPD2    C5 4679   4.362   3.907  12.863  0.2783 -0.4805 -0.0897
  311MPD2     H 4680   4.321   4.215  12.641 -0.9988  2.2715  4.4171
  311MPD2    H1 4681   4.158   3.913  12.909  0.4590 -0.7041 -0.8988
  311MPD2    H2 4682   4.562   3.903  12.793 -1.3233 -2.6092 -0.0828
  311MPD2    H3 4683   4.365   3.831  12.940  0.2894 -0.8651 -0.4678
  311MPD2     N 4684   4.097   4.140  12.772  0.2393 -0.7206  0.0310
  311MPD2    H5 4685   4.094   4.212  12.699 -1.0311  1.4739  2.2464
  311MPD2    N1 4686   4.550   4.125  12.629  0.1821  0.7407 -0.1231
  311MPD2    H7 4687   4.523   4.208  12.578  0.5813  0.5443 -0.6663
  312TMC3    C1 4688   3.891   4.219  12.847 -0.1479  0.1872 -0.5860
  312TMC3    C2 4689   3.815   4.216  12.734  1.4869 -0.2061  0.4725
  312TMC3    C3 4690   3.699   4.297  12.735 -0.1858  0.1545 -0.3522
  312TMC3    C4 4691   3.878   4.308  12.946 -0.7734  0.0049 -0.4843
  312TMC3    C5 4692   3.780   4.403  12.929  0.3447  0.0662 -0.1191
  312TMC3    C6 4693   3.687   4.400  12.824 -0.5046 -0.3169  0.3581
  312TMC3     C 4694   3.999   4.127  12.869 -0.3386 -0.9323  0.2165
  312TMC3     O 4695   3.994   4.066  12.975  0.1223  0.1143  0.2092
  312TMC3     H 4696   3.828   4.139  12.659  1.4684 -0.5101  0.7844
  312TMC3    H1 4697   3.949   4.294  13.027  0.3172  1.0383 -1.2673
  312TMC3    H2 4698   3.597   4.460  12.825 -0.2928  0.0297 -1.0396
  312TMC3    C7 4699   3.784   4.513  13.021 -0.1193 -0.5283 -0.2866
  312TMC3    C8 4700   3.612   4.305  12.615 -0.0859 -0.1921 -0.2455
  312TMC3    O1 4701   3.723   4.610  12.974  0.1116  0.4392  0.5355
  312TMC3    O2 4702   3.579   4.418  12.577  0.3143  0.7534  0.5936
  313MPD2     C 4703   3.839   3.408  10.096  0.2065  0.0947  1.3067
  313MPD2    C1 4704   3.735   3.333  10.148  0.3287  0.1645 -0.4307
  313MPD2    C2 4705   3.662   3.266  10.053 -0.1232  0.2313  0.2775
  313MPD2    C3 4706   3.690   3.260   9.922 -0.0439 -0.1805 -0.1508
  313MPD2    C4 4707   3.809   3.327   9.880  0.0550  0.0545 -0.0636
  313MPD2    C5 4708   3.881   3.404   9.970  0.4290  0.5546 -0.8260
  313MPD2     H 4709   3.574   3.208  10.080 -0.8999 -0.1496 -3.0163
  313MPD2    H1 4710   3.846   3.317   9.779  2.5834 -0.8004  0.9535
  313MPD2    H2 4711   3.902   3.465  10.163  1.5509 -0.6221  0.6683
  313MPD2    H3 4712   3.973   3.454   9.944  1.6545 -1.4092 -0.2875
  313MPD2     N 4713   3.603   3.178   9.841  0.3546 -0.2799 -0.4094
  313MPD2    H5 4714   3.519   3.141   9.887 -0.4559  0.3273 -1.4028
  313MPD2    N1 4715   3.703   3.322  10.287  0.5689 -1.3801 -0.5931
  313MPD2    H7 4716   3.612   3.287  10.312 -0.1106  0.6962 -0.1249
  314TMC3    C1 4717   3.727   3.375  10.515  0.0963 -0.2409 -0.0417
  314TMC3    C2 4718   3.817   3.380  10.617  0.2749  0.3559 -0.2180
  314TMC3    C3 4719   3.784   3.459  10.728 -0.2285 -0.5372 -0.1328
  314TMC3    C4 4720   3.612   3.447  10.517 -0.3902  0.2365  0.5643
  314TMC3    C5 4721   3.593   3.535  10.616 -1.0047 -0.0872  0.4843
  314TMC3    C6 4722   3.680   3.548  10.721  0.7106 -0.3195 -0.4182
  314TMC3     C 4723   3.790   3.376  10.385 -0.3102 -0.0132  0.0038
  314TMC3     O 4724   3.894   3.439  10.380 -0.1326  0.0347 -0.2634
  314TMC3     H 4725   3.909   3.323  10.618 -0.3489 -0.6354  0.0649
  314TMC3    H1 4726   3.539   3.450  10.437 -1.2387  1.5748  1.4042
  314TMC3    H2 4727   3.657   3.623  10.795 -1.3038 -1.0427 -0.3183
  314TMC3    C7 4728   3.524   3.653  10.572 -0.4406  0.0759 -0.0648
  314TMC3    C8 4729   3.884   3.486  10.826 -0.1082 -0.1803  0.7064
  314TMC3    O1 4730   3.403   3.642  10.552 -0.1719  0.0624 -0.5750
  314TMC3    O2 4731   4.001   3.457  10.794 -0.5134 -0.2981  0.4113
  315MPD2     C 4732   3.222   2.592  17.225  0.2480  0.5602  0.2825
  315MPD2    C1 4733   3.290   2.633  17.337  0.0050 -0.3635 -0.2431
  315MPD2    C2 4734   3.355   2.764  17.330  0.2062 -0.3911  0.2093
  315MPD2    C3 4735   3.344   2.840  17.214  0.1720  0.0770  0.5549
  315MPD2    C4 4736   3.263   2.796  17.104 -0.4204 -0.6267 -0.0760
  315MPD2    C5 4737   3.202   2.678  17.116 -0.4085  0.2610  0.5157
  315MPD2     H 4738   3.415   2.795  17.414  0.8448 -4.3570  1.2198
  315MPD2    H1 4739   3.251   2.859  17.017  0.1287 -1.9316 -1.1025
  315MPD2    H2 4740   3.175   2.495  17.218  2.5376 -0.5589  0.4018
  315MPD2    H3 4741   3.138   2.647  17.034 -1.7158  2.9079  0.5558
  315MPD2     N 4742   3.442   2.940  17.202 -0.2391 -0.3337 -0.2801
  315MPD2    H5 4743   3.524   2.937  17.261 -1.9294  0.0709  2.0670
  315MPD2    N1 4744   3.310   2.557  17.451  0.4600 -0.5882  0.2303
  315MPD2    H7 4745   3.360   2.604  17.526 -1.2470  1.4119  0.1166
  316TMC3    C1 4746   3.562   3.119  17.085 -0.4633 -0.0813 -0.1428
  316TMC3    C2 4747   3.650   3.120  17.187  0.2695  0.1147  0.8534
  316TMC3    C3 4748   3.768   3.184  17.157 -0.3712  0.1434 -0.2943
  316TMC3    C4 4749   3.576   3.176  16.962  0.6378 -0.5032  0.0387
  316TMC3    C5 4750   3.692   3.250  16.944  0.0471  0.2646 -0.1140
  316TMC3    C6 4751   3.790   3.253  17.040  0.2866 -0.3213 -0.2248
  316TMC3     C 4752   3.441   3.038  17.098  0.4616  0.3489 -0.4035
  316TMC3     O 4753   3.351   3.073  17.027 -0.2549  0.4965 -0.1907
  316TMC3     H 4754   3.616   3.104  17.289 -1.1929  0.7732  0.4638
  316TMC3    H1 4755   3.495   3.181  16.890  0.1370  0.5074  0.6670
  316TMC3    H2 4756   3.883   3.305  17.021 -0.3935  1.8089  2.1861
  316TMC3    C7 4757   3.732   3.277  16.805  0.1503  0.1824  0.0802
  316TMC3    C8 4758   3.868   3.203  17.257 -0.0652 -0.0407  0.1550
  316TMC3    O1 4759   3.855   3.286  16.788  0.1160 -0.4379 -0.3253
  316TMC3    O2 4760   3.948   3.289  17.230  0.2729 -0.2634 -0.0701
  317MPD2     C 4761   0.578   1.592  13.098 -0.8791 -0.7259  0.0360
  317MPD2    C1 4762   0.506   1.486  13.050  0.3113  0.0926 -0.1056
  317MPD2    C2 4763   0.528   1.364  13.107 -0.0051  0.2038 -0.0800
  317MPD2    C3 4764   0.626   1.347  13.199 -0.3110 -0.1766  0.2455
  317MPD2    C4 4765   0.698   1.452  13.251  0.0823  0.3922 -0.2284
  317MPD2    C5 4766   0.665   1.574  13.200 -0.4271  0.1980  0.6429
  317MPD2     H 4767   0.475   1.275  13.076  2.4452 -1.4271  0.3832
  317MPD2    H1 4768   0.773   1.439  13.328  0.1218  0.4578 -0.2562
  317MPD2    H2 4769   0.572   1.691  13.055  0.0375  0.4648  2.6666
  317MPD2    H3 4770   0.710   1.671  13.221 -1.2668  0.9773 -1.1695
  317MPD2     N 4771   0.656   1.212  13.237  0.0142  0.0024 -0.1878
  317MPD2    H5 4772   0.597   1.142  13.192  1.0800 -0.7821 -0.3598
  317MPD2    N1 4773   0.424   1.487  12.940 -0.0019  0.4666 -0.7564
  317MPD2    H7 4774   0.380   1.400  12.913  1.7804 -1.0379  1.2015
  318TMC3    C1 4775   0.730   1.036  13.362  0.5863 -0.0325  0.3776
  318TMC3    C2 4776   0.603   0.984  13.367  0.0063 -0.2594 -0.1053
  318TMC3    C3 4777   0.590   0.867  13.433 -0.1874  0.1523 -0.0818
  318TMC3    C4 4778   0.844   0.975  13.403 -0.9963  0.1617 -0.2693
  318TMC3    C5 4779   0.820   0.859  13.468 -0.1947  0.2863 -0.3423
  318TMC3    C6 4780   0.699   0.810  13.495  0.3919 -0.1251  0.5240
  318TMC3     C 4781   0.753   1.168  13.319  0.2794  0.2771  0.3741
  318TMC3     O 4782   0.853   1.229  13.356  0.3434 -0.4804 -0.2158
  318TMC3     H 4783   0.517   1.029  13.319  1.0163  1.6469 -0.1089
  318TMC3    H1 4784   0.946   1.013  13.410  0.0581 -2.8161  0.7422
  318TMC3    H2 4785   0.684   0.712  13.538 -1.0739  0.0879  0.4839
  318TMC3    C7 4786   0.930   0.777  13.498 -0.8705 -0.7216 -0.7252
  318TMC3    C8 4787   0.480   0.768  13.404 -0.7909  0.2335  0.2336
  318TMC3    O1 4788   1.036   0.799  13.438 -0.0252  0.5055 -0.2601
  318TMC3    O2 4789   0.465   0.666  13.471 -0.6512  0.3646 -0.1237
  319MPD2     C 4790   1.910   2.648  16.505 -0.3536  0.0751  0.3875
  319MPD2    C1 4791   1.802   2.604  16.573  0.2999  0.3462 -0.5971
  319MPD2    C2 4792   1.689   2.562  16.502 -0.0580 -0.0690  0.4062
  319MPD2    C3 4793   1.687   2.576  16.361  0.3772 -0.2399 -0.9027
  319MPD2    C4 4794   1.798   2.613  16.294 -0.2803 -0.9857  0.5919
  319MPD2    C5 4795   1.910   2.646  16.369  0.4031  0.3006  0.0332
  319MPD2     H 4796   1.613   2.523  16.569 -0.7957  0.4828 -0.1094
  319MPD2    H1 4797   1.801   2.633  16.187  0.5127  0.4933  0.8957
  319MPD2    H2 4798   2.007   2.663  16.550 -0.9625  4.8396  0.1226
  319MPD2    H3 4799   1.994   2.677  16.308 -0.2256 -0.1573 -1.0777
  319MPD2     N 4800   1.569   2.545  16.285  0.4595 -0.3329 -0.1159
  319MPD2    H5 4801   1.584   2.537  16.185  1.9672 -0.5690  0.1214
  319MPD2    N1 4802   1.791   2.607  16.713  0.3707 -0.2923  0.0897
  319MPD2    H7 4803   1.702   2.588  16.758 -0.5413 -0.1318 -1.6797
  320TMC3    C1 4804   1.351   2.515  16.221  0.6907  0.4227  0.3177
  320TMC3    C2 4805   1.353   2.602  16.109  0.2521 -0.1072  0.0051
  320TMC3    C3 4806   1.296   2.554  15.999  0.1118 -0.0086  0.3620
  320TMC3    C4 4807   1.286   2.397  16.210  0.1018 -0.2958  0.6609
  320TMC3    C5 4808   1.209   2.366  16.103 -0.0170 -0.2653  0.0595
  320TMC3    C6 4809   1.217   2.443  15.991  0.0248 -0.9686  0.1198
  320TMC3     C 4810   1.446   2.514  16.330 -0.2822  0.3058  0.0069
  320TMC3     O 4811   1.397   2.514  16.444 -0.2658 -0.9413 -0.0467
  320TMC3     H 4812   1.398   2.699  16.123  0.3873  0.5587 -5.0020
  320TMC3    H1 4813   1.276   2.330  16.295  1.6340 -1.2267  0.0928
  320TMC3    H2 4814   1.177   2.408  15.896 -1.7307  2.4948 -0.4106
  320TMC3    C7 4815   1.141   2.238  16.093 -0.3742  0.2251 -0.0097
  320TMC3    C8 4816   1.275   2.660  15.898 -0.5193  0.1024  0.6729
  320TMC3    O1 4817   1.137   2.183  15.983 -0.1100 -0.2162 -0.3934
  320TMC3    O2 4818   1.314   2.770  15.923 -0.1166  0.1448 -0.3842
  321TMC3    C1 4819   1.846   2.668  16.936 -0.0363 -0.2034  0.0489
  321TMC3    C2 4820   1.785   2.556  16.982  0.4186 -0.0937  0.3621
  321TMC3    C3 4821   1.806   2.522  17.114  0.3693  0.6674  0.1131
  321TMC3    C4 4822   1.929   2.743  17.016  0.7313  0.4972  0.7386
  321TMC3    C5 4823   1.950   2.704  17.144  0.2614  0.3902  0.2337
  321TMC3    C6 4824   1.887   2.595  17.191  0.4653  0.3069  0.6656
  321TMC3     C 4825   1.885   2.656  16.797 -0.3091 -0.2606 -0.0130
  321TMC3     O 4826   1.995   2.701  16.776  0.1562  1.0846  0.1539
  321TMC3     H 4827   1.756   2.480  16.911 -1.0326  0.7176  0.0726
  321TMC3    H1 4828   2.004   2.805  16.967 -0.1574  2.2052  1.5345
  321TMC3    H2 4829   1.897   2.569  17.295 -1.5874  2.4363  1.3883
  321TMC3    C7 4830   2.087   2.720  17.189  0.0012 -0.4149 -1.3296
  321TMC3    C8 4831   1.866   2.386  17.129  0.1028  0.1128  0.4439
  321TMC3    O1 4832   2.137   2.828  17.190 -0.3372 -0.3869 -0.0747
  321TMC3    O2 4833   1.982   2.385  17.165 -0.6272  0.9410  0.0970
  322MPD2     C 4834   0.777   3.917  13.380 -0.9213  0.7997  0.1123
  322MPD2    C1 4835   0.740   3.838  13.491 -0.2004  0.3269  0.7542
  322MPD2    C2 4836   0.706   3.704  13.471  0.0371  0.6453 -1.0354
  322MPD2    C3 4837   0.706   3.647  13.343  0.3818 -1.0846 -0.2225
  322MPD2    C4 4838   0.738   3.726  13.234  0.1192 -0.1270 -0.6556
  322MPD2    C5 4839   0.777   3.852  13.257 -1.0723 -0.2244  0.6579
  322MPD2     H 4840   0.705   3.633  13.553 -2.8629  1.1226 -0.6697
  322MPD2    H1 4841   0.730   3.688  13.133 -1.6891 -0.0859 -0.5311
  322MPD2    H2 4842   0.818   4.018  13.386 -1.6336  1.0635  0.5128
  322MPD2    H3 4843   0.801   3.906  13.166  0.9079 -0.2748  1.1522
  322MPD2     N 4844   0.668   3.510  13.339  0.1767  0.6314  0.8058
  322MPD2    H5 4845   0.657   3.457  13.425  1.6283  0.1486  0.6948
  322MPD2    N1 4846   0.757   3.900  13.618  0.3517 -0.5832  0.4604
  322MPD2    H7 4847   0.791   3.996  13.616 -3.0685  0.6704  2.0063
  323TMC3    C1 4848   0.778   3.905  13.858 -0.2858  0.0189 -0.7069
  323TMC3    C2 4849   0.902   3.956  13.842  0.3627 -0.2878  0.1860
  323TMC3    C3 4850   0.961   3.976  13.964 -0.2041 -0.2649  0.2054
  323TMC3    C4 4851   0.719   3.858  13.978  0.3929  0.2990  0.1034
  323TMC3    C5 4852   0.798   3.867  14.089  0.4446 -0.2172  0.5568
  323TMC3    C6 4853   0.921   3.924  14.085  0.4429  0.0356 -0.1991
  323TMC3     C 4854   0.717   3.848  13.735 -0.3067  0.8005  0.2113
  323TMC3     O 4855   0.649   3.748  13.752 -0.2785 -0.6390 -0.1686
  323TMC3     H 4856   0.942   3.984  13.745 -1.1797  1.1403 -0.0347
  323TMC3    H1 4857   0.619   3.816  13.973  0.7607 -0.4561 -1.0244
  323TMC3    H2 4858   0.987   3.940  14.169 -0.1651  1.0432  0.0805
  323TMC3    C7 4859   0.756   3.809  14.215 -0.0538 -0.6112  0.3214
  323TMC3    C8 4860   1.096   4.037  13.961 -0.0768  0.1410  0.0433
  323TMC3    O1 4861   0.651   3.750  14.213  0.1538  0.2333 -0.1081
  323TMC3    O2 4862   1.146   4.076  14.060 -0.7028 -0.3249 -0.3527
  324MPD2     C 4863   2.274   0.089  14.308 -0.2423  0.5410  0.1836
  324MPD2    C1 4864   2.246   0.223  14.298  0.7939 -0.1693  0.2490
  324MPD2    C2 4865   2.127   0.271  14.254  0.5082  0.6033 -0.4657
  324MPD2    C3 4866   2.028   0.189  14.212  0.1789 -0.2235 -0.2289
  324MPD2    C4 4867   2.050   0.058  14.242 -0.1138 -0.2973  0.1275
  324MPD2    C5 4868   2.166   0.006  14.286 -0.3145  0.4887  0.2053
  324MPD2     H 4869   2.122   0.378  14.241 -2.3310  0.7881  2.2379
  324MPD2    H1 4870   1.971   4.709  14.226 -0.6934  0.0654  1.3886
  324MPD2    H2 4871   2.367   0.048  14.344 -0.5894 -1.0565 -0.7152
  324MPD2    H3 4872   2.186   4.625  14.305  3.0835  1.0035 -0.6483
  324MPD2     N 4873   1.911   0.231  14.153 -0.5022 -0.3142 -0.2186
  324MPD2    H5 4874   1.858   0.162  14.101  2.5478 -1.6295 -1.5811
  324MPD2    N1 4875   2.341   0.325  14.329  0.1565  0.3201  0.1523
  324MPD2    H7 4876   2.319   0.420  14.304 -1.5158 -0.6938 -2.2557
  325TMC3    C1 4877   1.735   0.379  14.072  0.0030  0.0908 -0.3807
  325TMC3    C2 4878   1.661   0.274  14.037 -0.0776 -0.4925  0.4839
  325TMC3    C3 4879   1.553   0.307  13.944 -0.4250 -0.1737  0.3589
  325TMC3    C4 4880   1.708   0.512  14.028  0.3720  0.9555  0.5607
  325TMC3    C5 4881   1.599   0.538  13.943  0.7324  0.1243 -0.6585
  325TMC3    C6 4882   1.526   0.435  13.898 -0.6822 -0.0052  0.2763
  325TMC3     C 4883   1.868   0.363  14.136  0.4394  0.1972 -0.2336
  325TMC3     O 4884   1.930   0.466  14.160  0.1825 -0.0332  0.0008
  325TMC3     H 4885   1.674   0.171  14.069  1.6361 -0.8539 -1.3180
  325TMC3    H1 4886   1.779   0.588  14.059 -2.1796  2.9554  1.5263
  325TMC3    H2 4887   1.440   0.445  13.833 -0.3529 -1.3656 -0.3780
  325TMC3    C7 4888   1.544   0.668  13.926 -0.4143  0.1736 -0.7021
  325TMC3    C8 4889   1.478   0.194  13.883 -0.0361  0.0827  0.3369
  325TMC3    O1 4890   1.468   0.689  13.827 -0.1382  0.1901  0.2766
  325TMC3    O2 4891   1.420   0.215  13.777 -0.3352  0.0267  0.5003
  326MPD2     C 4892   3.213   1.231  11.299 -0.0779 -0.1615  0.6340
  326MPD2    C1 4893   3.186   1.263  11.162  0.6160 -0.5944 -1.0324
  326MPD2    C2 4894   3.285   1.300  11.077  0.1064 -0.5471 -0.5782
  326MPD2    C3 4895   3.410   1.297  11.128 -0.1941  0.1542 -0.1186
  326MPD2    C4 4896   3.442   1.266  11.258  0.2688  0.2726 -0.3477
  326MPD2    C5 4897   3.342   1.236  11.347  0.0687 -0.9682 -0.6682
  326MPD2     H 4898   3.262   1.307  10.971  1.7342  0.0473 -0.8838
  326MPD2    H1 4899   3.544   1.270  11.295  0.1794 -1.5264  0.1252
  326MPD2    H2 4900   3.133   1.201  11.366 -1.3742  0.1749 -0.7637
  326MPD2    H3 4901   3.361   1.192  11.444  3.1581 -0.6108 -1.1145
  326MPD2     N 4902   3.509   1.344  11.044 -0.4472  1.2888 -0.5009
  326MPD2    H5 4903   3.489   1.398  10.961  0.0063  1.5336 -0.4475
  326MPD2    N1 4904   3.058   1.251  11.103  0.1307  0.0590  0.3596
  326MPD2    H7 4905   3.045   1.250  11.002  2.5697 -1.3874  0.0682
  327TMC3    C1 4906   2.838   1.193  11.090  0.1281  0.0914 -0.5942
  327TMC3    C2 4907   2.720   1.257  11.062 -0.0660 -0.0094 -0.2278
  327TMC3    C3 4908   2.640   1.201  10.964  0.4066  0.2443  0.0833
  327TMC3    C4 4909   2.867   1.071  11.045  0.0200  0.2066  0.4806
  327TMC3    C5 4910   2.780   1.010  10.957  0.1193  0.4294 -0.6079
  327TMC3    C6 4911   2.666   1.075  10.909  0.2410  0.6147  0.7354
  327TMC3     C 4912   2.940   1.256  11.171  0.2618 -0.9265 -0.2667
  327TMC3     O 4913   2.916   1.288  11.287  0.7945  0.2567  0.2539
  327TMC3     H 4914   2.719   1.361  11.092 -0.2909  0.2923 -1.2817
  327TMC3    H1 4915   2.962   1.023  11.066 -0.2071 -1.5640 -2.4833
  327TMC3    H2 4916   2.610   1.029  10.828  1.0498  0.5276  0.2279
  327TMC3    C7 4917   2.822   0.889  10.880 -0.2218  0.4162 -0.3404
  327TMC3    C8 4918   2.554   1.293  10.893 -0.3222 -0.0217  0.3972
  327TMC3    O1 4919   2.768   0.859  10.775  0.5972  0.0266 -0.0113
  327TMC3    O2 4920   2.564   1.274  10.772 -0.1871 -0.2973 -0.5095
  328MPD2     C 4921   1.046   0.995  17.174 -0.2302 -1.4047 -0.5408
  328MPD2    C1 4922   0.953   0.912  17.122  0.7609  0.1979 -0.4603
  328MPD2    C2 4923   0.905   0.938  16.998  0.4167  0.1354  0.1333
  328MPD2    C3 4924   0.947   1.045  16.921  0.2907 -0.3820  0.3454
  328MPD2    C4 4925   1.043   1.125  16.982  0.5776 -0.5462 -0.0885
  328MPD2    C5 4926   1.090   1.107  17.113  0.0793  0.5552 -0.2780
  328MPD2     H 4927   0.822   0.879  16.961  0.3175  0.5520 -0.3183
  328MPD2    H1 4928   1.077   1.215  16.932  1.4687 -0.2486  1.0435
  328MPD2    H2 4929   1.092   0.972  17.269  0.4460 -1.5106 -0.8995
  328MPD2    H3 4930   1.162   1.174  17.159  1.1842 -0.4687 -0.5367
  328MPD2     N 4931   0.923   1.075  16.791  0.0320 -0.2842  0.6227
  328MPD2    H5 4932   0.952   1.167  16.761  0.2123 -0.5064  0.1107
  328MPD2    N1 4933   0.924   0.797  17.194 -0.1438 -0.7266 -0.1391
  328MPD2    H7 4934   0.947   0.791  17.293  0.4304  0.8357 -0.1734
  329TMC3    C1 4935   0.858   0.583  17.246  0.0748  0.0604 -0.1106
  329TMC3    C2 4936   0.819   0.606  17.374 -0.6849 -0.1756 -0.0894
  329TMC3    C3 4937   0.788   0.495  17.447  0.8882  0.0072  0.0045
  329TMC3    C4 4938   0.876   0.459  17.189 -0.4339 -0.0106 -0.1983
  329TMC3    C5 4939   0.849   0.351  17.266 -0.3741 -0.4173 -0.0165
  329TMC3    C6 4940   0.808   0.366  17.394  0.1765  0.7985  0.1795
  329TMC3     C 4941   0.862   0.688  17.144 -0.0692 -0.6200  0.2647
  329TMC3     O 4942   0.830   0.658  17.029  0.8733  0.2647  0.1850
  329TMC3     H 4943   0.801   0.705  17.414  0.3993  0.0658 -0.1760
  329TMC3    H1 4944   0.928   0.455  17.095 -1.2133 -2.3305 -0.5343
  329TMC3    H2 4945   0.814   0.275  17.452  1.0392  0.0128 -1.1618
  329TMC3    C7 4946   0.867   0.215  17.211 -0.8320  0.0851  0.1382
  329TMC3    C8 4947   0.746   0.508  17.585 -0.1738  0.4809  0.0102
  329TMC3    O1 4948   0.895   0.215  17.091  0.2896  0.6373 -0.0670
  329TMC3    O2 4949   0.745   0.404  17.652  0.2497 -0.0620 -0.3831
  330TMC3    C1 4950   3.961   0.093   9.878 -0.7157 -0.1923 -0.0936
  330TMC3    C2 4951   3.927   0.001   9.785  0.2909 -0.0948  0.0778
  330TMC3    C3 4952   4.023   4.645   9.735 -0.9758 -0.4490 -0.7758
  330TMC3    C4 4953   4.087   0.098   9.933  0.1411 -1.0182  0.3314
  330TMC3    C5 4954   4.178   0.014   9.878  0.6444 -0.5115 -0.0098
  330TMC3    C6 4955   4.155   4.654   9.775  0.1272 -0.2803  0.1062
  330TMC3     C 4956   3.857   0.163   9.953 -0.1908  0.2456 -0.4348
  330TMC3     O 4957   3.877   0.183  10.068  0.3784  0.5539 -0.6258
  330TMC3     H 4958   3.831   0.010   9.735  0.6215 -0.4467 -0.6182
  330TMC3    H1 4959   4.113   0.162  10.016  0.8927 -0.6023 -0.2227
  330TMC3    H2 4960   4.240   4.617   9.718 -0.2570 -1.4149  0.2767
  330TMC3    C7 4961   4.301   4.722   9.954 -0.1132  0.0930  0.4575
  330TMC3    C8 4962   3.997   4.594   9.602 -0.9286 -0.0753  0.1193
  330TMC3    O1 4963   4.325   0.099  10.022  0.3480 -0.4636 -0.0205
  330TMC3    O2 4964   4.088   4.593   9.521  0.5038  0.1594 -0.6260
  331MPD2     C 4965   1.631   4.189  12.811  0.1297 -0.1438  0.1876
  331MPD2    C1 4966   1.757   4.188  12.745  0.0902 -0.2669 -0.1741
  331MPD2    C2 4967   1.809   4.066  12.697 -0.2697 -0.2794  0.3201
  331MPD2    C3 4968   1.741   3.945  12.700 -0.2412 -0.3855  0.2795
  331MPD2    C4 4969   1.624   3.949  12.774 -0.5023 -0.0977  0.0029
  331MPD2    C5 4970   1.569   4.068  12.827  0.4114  0.4645  0.3527
  331MPD2     H 4971   1.899   4.071  12.638 -1.5116  0.9862 -1.4994
  331MPD2    H1 4972   1.559   3.863  12.787 -2.7244  1.3704 -1.4982
  331MPD2    H2 4973   1.585   4.282  12.842 -0.1806  0.3836 -1.8472
  331MPD2    H3 4974   1.472   4.066  12.874 -0.0128  1.1442 -0.5005
  331MPD2     N 4975   1.785   3.844  12.609  0.2905 -0.0054  0.2581
  331MPD2    H5 4976   1.869   3.872  12.560 -0.6856  4.9587  1.3308
  331MPD2    N1 4977   1.811   4.312  12.717 -0.2568 -0.5106 -0.2540
  331MPD2    H7 4978   1.753   4.394  12.727  1.5782  0.6326  1.2161
  332TMC3    C1 4979   1.794   3.647  12.499  0.2562 -0.4470  0.2936
  332TMC3    C2 4980   1.828   3.721  12.390 -0.6386  0.0713 -0.1752
  332TMC3    C3 4981   1.939   3.678  12.319 -0.4868 -0.4037 -0.5626
  332TMC3    C4 4982   1.865   3.536  12.541 -0.1317 -0.5949  0.2668
  332TMC3    C5 4983   1.986   3.514  12.477 -0.1733  0.5548  0.2755
  332TMC3    C6 4984   2.019   3.568  12.359  0.2845 -0.5163  0.0411
  332TMC3     C 4985   1.726   3.719  12.607  0.6163  0.5593  0.6067
  332TMC3     O 4986   1.655   3.660  12.688  0.4273 -0.2423 -0.4753
  332TMC3     H 4987   1.770   3.808  12.362 -0.3583  0.9316  1.9259
  332TMC3    H1 4988   1.838   3.493  12.637  1.2077 -0.7163  0.5959
  332TMC3    H2 4989   2.107   3.537  12.304 -0.1837 -3.4426  0.9596
  332TMC3    C7 4990   2.080   3.436  12.558 -0.6636  0.7180 -0.2917
  332TMC3    C8 4991   2.007   3.768  12.222  0.1942 -0.2803 -0.9481
  332TMC3    O1 4992   2.034   3.355  12.637 -0.6854 -0.5168  0.3491
  332TMC3    O2 4993   2.125   3.755  12.209  0.3929  0.2070 -1.1999
  333MPD2     C 4994   1.997   3.973  11.222  0.0298  0.4533  0.2450
  333MPD2    C1 4995   2.076   3.879  11.159  0.3957 -0.2836  0.8339
  333MPD2    C2 4996   2.025   3.754  11.132  0.3254 -0.4454  0.4532
  333MPD2    C3 4997   1.900   3.723  11.177  1.3820 -0.0344 -0.7425
  333MPD2    C4 4998   1.823   3.820  11.232  0.7637  0.2279 -0.0109
  333MPD2    C5 4999   1.869   3.946  11.258 -0.3321 -0.7314  0.7347
  333MPD2     H 5000   2.082   3.672  11.090  1.2066  0.2545  0.2867
  333MPD2    H1 5001   1.717   3.802  11.249  0.2447  1.7656 -1.5908
  333MPD2    H2 5002   2.037   4.074  11.224 -0.6820  0.7517 -0.3240
  333MPD2    H3 5003   1.801   4.014  11.308  1.4433  1.3387  0.3321
  333MPD2     N 5004   1.853   3.590  11.170  0.8154 -0.2985 -0.4299
  333MPD2    H5 5005   1.897   3.516  11.116  3.3021  0.0434  1.1157
  333MPD2    N1 5006   2.203   3.922  11.112 -0.8150  0.0581 -0.0099
  333MPD2    H7 5007   2.225   4.017  11.137  1.5689  0.0650 -2.2069
  334TMC3    C1 5008   2.426   3.914  11.038  0.3837  0.8548  0.0300
  334TMC3    C2 5009   2.530   3.829  11.015  0.6255  0.4789 -0.4966
  334TMC3    C3 5010   2.658   3.889  11.018  0.1782  0.1842  0.1819
  334TMC3    C4 5011   2.443   4.045  11.051 -0.0722  0.2723 -0.6523
  334TMC3    C5 5012   2.567   4.095  11.063 -0.0897 -0.2728  0.8427
  334TMC3    C6 5013   2.679   4.023  11.034 -0.6120 -0.1587 -0.2300
  334TMC3     C 5014   2.299   3.846  11.054  0.5552  0.4035 -0.1967
  334TMC3     O 5015   2.293   3.734  11.006  0.1261  0.0001 -0.4453
  334TMC3     H 5016   2.518   3.722  11.008 -0.4743  0.7243 -2.3918
  334TMC3    H1 5017   2.362   4.108  11.084  0.7564 -0.0461  1.9984
  334TMC3    H2 5018   2.775   4.073  11.043 -0.1142 -1.3765  1.2546
  334TMC3    C7 5019   2.595   4.232  11.039  0.5965  0.5233 -0.1032
  334TMC3    C8 5020   2.763   3.802  10.970 -0.5764  0.0763 -0.1623
  334TMC3    O1 5021   2.697   4.286  11.085  0.3570  0.0612  0.1458
  334TMC3    O2 5022   2.746   3.697  10.914 -0.4912  0.0545 -0.0438
  335TMC3    C1 5023   1.685   1.025  17.126 -0.0792 -0.1270 -0.5854
  335TMC3    C2 5024   1.631   0.967  17.011 -0.5498 -0.5498 -0.3726
  335TMC3    C3 5025   1.718   0.953  16.912 -0.3832  0.2030  0.3491
  335TMC3    C4 5026   1.811   1.071  17.139  0.4588 -0.2628  0.3426
  335TMC3    C5 5027   1.886   1.058  17.029 -1.0323  0.3742  0.0266
  335TMC3    C6 5028   1.838   1.014  16.907  0.4271  0.3502 -0.0530
  335TMC3     C 5029   1.581   1.072  17.221  0.2824  0.0662 -0.0986
  335TMC3     O 5030   1.478   1.008  17.228 -0.0726  0.4627  0.1258
  335TMC3     H 5031   1.534   0.919  17.003 -1.6511  1.1222  2.7743
  335TMC3    H1 5032   1.851   1.105  17.234  1.7219  0.5734 -0.4755
  335TMC3    H2 5033   1.902   1.001  16.820 -2.0806  0.5044 -1.9209
  335TMC3    C7 5034   2.029   1.094  17.025  0.2423 -0.6111 -1.1562
  335TMC3    C8 5035   1.702   0.859  16.801 -0.1862 -0.4682  0.6896
  335TMC3    O1 5036   2.099   1.029  16.951  0.0604 -0.2712  0.0356
  335TMC3    O2 5037   1.765   0.882  16.699  0.1400  0.0007 -0.3607
  336MPD2     C 5038   1.565   3.766  15.934  0.6703 -0.2554  1.0220
  336MPD2    C1 5039   1.488   3.679  15.865  0.5562  0.1310  0.4375
  336MPD2    C2 5040   1.503   3.544  15.891  0.1633  0.1572  0.2732
  336MPD2    C3 5041   1.596   3.490  15.979  0.2471  0.1220 -0.3969
  336MPD2    C4 5042   1.672   3.585  16.046 -0.1461  0.6302 -0.2541
  336MPD2    C5 5043   1.656   3.718  16.031  0.5991  0.2639  0.2025
  336MPD2     H 5044   1.444   3.474  15.833  0.8427 -0.1778 -0.0160
  336MPD2    H1 5045   1.750   3.551  16.113  0.3546  1.4538 -0.4089
  336MPD2    H2 5046   1.552   3.873  15.924 -0.2202 -0.1179  3.6815
  336MPD2    H3 5047   1.721   3.791  16.077  0.6781 -0.0897  0.6479
  336MPD2     N 5048   1.614   3.355  16.002  0.4927  0.5865 -0.1308
  336MPD2    H5 5049   1.668   3.333  16.085 -0.9567 -2.5080 -0.0163
  336MPD2    N1 5050   1.395   3.721  15.766  0.5582  0.4132 -0.0878
  336MPD2    H7 5051   1.345   3.644  15.724 -1.5539  1.6137  0.1941
  337TMC3    C1 5052   1.295   3.871  15.606 -0.0772 -0.0430 -0.6844
  337TMC3    C2 5053   1.193   3.790  15.568 -0.3425 -0.6075  0.5210
  337TMC3    C3 5054   1.110   3.834  15.471  0.7019 -0.2594  0.2696
  337TMC3    C4 5055   1.316   3.992  15.545 -0.6225  0.5062 -0.2742
  337TMC3    C5 5056   1.233   4.024  15.443  0.7367 -0.4845  0.0621
  337TMC3    C6 5057   1.133   3.949  15.399 -0.3292  0.1253  0.7406
  337TMC3     C 5058   1.370   3.852  15.729  0.1814 -0.4459  0.2297
  337TMC3     O 5059   1.411   3.953  15.779  0.2515  0.3304 -0.0307
  337TMC3     H 5060   1.174   3.695  15.617 -1.0635 -1.2673 -1.0423
  337TMC3    H1 5061   1.398   4.057  15.572 -1.5721  0.8756  1.7485
  337TMC3    H2 5062   1.066   3.986  15.322 -0.0033 -0.7582  0.0368
  337TMC3    C7 5063   1.219   4.165  15.436  0.0259  0.4088  0.1029
  337TMC3    C8 5064   0.978   3.769  15.477  0.4696  0.0846 -0.1286
  337TMC3    O1 5065   1.255   4.233  15.533  0.1100  0.6710  0.3146
  337TMC3    O2 5066   0.954   3.709  15.578  0.2842  0.7887  0.1846
  338MPD2     C 5067   1.517   2.997   0.402 -0.4319 -0.5149 -0.3706
  338MPD2    C1 5068   1.463   2.890   0.335 -0.1664  0.1046 -0.0926
  338MPD2    C2 5069   1.333   2.853   0.348  0.5719 -0.3388  0.0021
  338MPD2    C3 5070   1.249   2.919   0.432  0.1088 -0.1256  0.3861
  338MPD2    C4 5071   1.302   3.030   0.504  0.3361  0.0964 -0.0392
  338MPD2    C5 5072   1.431   3.070   0.482  0.2698  0.9750 -0.0257
  338MPD2     H 5073   1.297   2.762   0.300  1.1782 -0.9301  0.6679
  338MPD2    H1 5074   1.251   3.093   0.576  0.6253 -0.9668  1.0927
  338MPD2    H2 5075   1.621   3.028   0.399 -0.8944  1.2360  1.3648
  338MPD2    H3 5076   1.480   3.155   0.529  0.9468  1.1238 -0.9939
  338MPD2     N 5077   1.112   2.877   0.454 -0.0895  0.0699  0.2437
  338MPD2    H5 5078   1.085   2.798   0.396 -1.1070  1.0357 -0.5997
  338MPD2    N1 5079   1.545   2.805   0.259  0.2513 -0.3104 -0.7928
  338MPD2    H7 5080   1.502   2.720   0.224  0.9158 -0.8444 -0.3191
  339TMC3    C1 5081   0.891   2.910   0.458  0.7588  0.4963  0.1685
  339TMC3    C2 5082   0.882   2.774   0.450 -0.5705 -0.2736  0.0543
  339TMC3    C3 5083   0.790   2.725   0.360 -0.2731 -0.2179 -0.3021
  339TMC3    C4 5084   0.839   2.989   0.358 -0.0127 -1.2062  0.3166
  339TMC3    C5 5085   0.771   2.937   0.253 -0.8781  0.4103  0.0649
  339TMC3    C6 5086   0.743   2.804   0.254 -0.8850  0.1159 -1.1684
  339TMC3     C 5087   1.015   2.957   0.503 -0.1021 -0.1427 -0.3635
  339TMC3     O 5088   1.014   3.068   0.551 -0.1149 -0.5900 -0.0944
  339TMC3     H 5089   0.931   2.702   0.515 -0.8714 -0.3415  0.2074
  339TMC3    H1 5090   0.869   3.093   0.360 -0.7096 -1.0264  1.3429
  339TMC3    H2 5091   0.687   2.763   0.171  0.1112  0.3177 -1.9276
  339TMC3    C7 5092   0.827   2.998   0.126  0.3185 -0.0574  0.5556
  339TMC3    C8 5093   0.764   2.586   0.345 -0.1624 -0.1955 -0.4594
  339TMC3    O1 5094   0.834   3.120   0.125 -0.1596  0.1449 -0.1321
  339TMC3    O2 5095   0.740   2.538   0.236  0.0840  0.0602  0.1399
  340MPD2     C 5096   1.671   4.671  10.061 -0.4737  0.0368  0.2956
  340MPD2    C1 5097   1.799   0.008  10.051  0.4363 -0.2561  0.5406
  340MPD2    C2 5098   1.902   4.683  10.134 -0.3532  0.2522 -0.5835
  340MPD2    C3 5099   1.882   4.577  10.218 -0.2884  0.0720 -0.0200
  340MPD2    C4 5100   1.758   4.513  10.227  0.4139  0.7209  0.1582
  340MPD2    C5 5101   1.655   4.564  10.148  0.2962 -0.2929 -0.2609
  340MPD2     H 5102   2.006   4.707  10.121 -0.4015  0.2559 -0.9737
  340MPD2    H1 5103   1.731   4.430  10.292 -0.4899  2.1524  1.5992
  340MPD2    H2 5104   1.585   4.711  10.008 -0.1793 -1.6733 -1.4332
  340MPD2    H3 5105   1.561   4.510  10.141  0.9749 -1.2618 -1.9920
  340MPD2     N 5106   1.992   4.531  10.290  0.4673 -0.2116 -0.2321
  340MPD2    H5 5107   2.081   4.579  10.282  0.2248  0.5372  1.4486
  340MPD2    N1 5108   1.817   0.105   9.955  0.2272  0.0035 -0.1308
  340MPD2    H7 5109   1.740   0.125   9.892 -2.1809 -1.9807  2.1981
  341TMC3    C1 5110   1.939   0.254   9.819  0.3314 -0.1742 -0.1915
  341TMC3    C2 5111   1.887   0.174   9.725  0.3423  0.1641  0.5891
  341TMC3    C3 5112   1.968   0.137   9.613 -0.1137 -0.1634 -0.7643
  341TMC3    C4 5113   2.066   0.304   9.802  0.6558  0.0906  0.4717
  341TMC3    C5 5114   2.138   0.274   9.692  0.4864  0.5216 -0.2946
  341TMC3    C6 5115   2.099   0.179   9.601  0.0399 -0.2897 -0.9370
  341TMC3     C 5116   1.920   0.194   9.954  0.2703 -0.4142 -0.0386
  341TMC3     O 5117   2.007   0.214  10.036 -0.8274 -0.1027  0.3383
  341TMC3     H 5118   1.786   0.137   9.737  0.4295 -1.3471 -3.3969
  341TMC3    H1 5119   2.105   0.364   9.884  0.1071  0.9848  0.0695
  341TMC3    H2 5120   2.167   0.147   9.523  0.6707 -0.7580 -0.1877
  341TMC3    C7 5121   2.279   0.298   9.695  0.9203 -0.0526 -0.2180
  341TMC3    C8 5122   1.914   0.022   9.539 -0.4094  0.5630  0.8190
  341TMC3    O1 5123   2.352   0.224   9.638  0.2218  0.4653 -0.0749
  341TMC3    O2 5124   1.807   4.702   9.587  0.1302  0.0039 -0.1214
  342MPD2     C 5125   4.305   3.596   0.029 -0.4237 -0.0305 -0.0740
  342MPD2    C1 5126   4.345   3.642  17.602  0.0268 -0.1924 -0.5616
  342MPD2    C2 5127   4.311   3.771  17.576 -0.5588 -0.0412 -0.3803
  342MPD2    C3 5128   4.242   3.854  17.670 -0.2043  0.0844 -0.2205
  342MPD2    C4 5129   4.200   3.807   0.093  0.4779 -0.7037 -0.2147
  342MPD2    C5 5130   4.229   3.671   0.114 -0.3059 -0.4902 -0.2968
  342MPD2     H 5131   4.366   3.806  17.490 -1.5106 -0.4948 -1.1736
  342MPD2    H1 5132   4.145   3.867   0.164 -1.7538 -1.8482 -0.9542
  342MPD2    H2 5133   4.333   3.496   0.059 -1.0336 -0.5430 -1.1924
  342MPD2    H3 5134   4.196   3.626   0.207  1.8709 -2.1829 -0.3382
  342MPD2     N 5135   4.228   4.000  17.653 -0.0039 -0.0002  0.9298
  342MPD2    H5 5136   4.189   4.054   0.033  3.3235  0.9466  1.9447
  342MPD2    N1 5137   4.438   3.584  17.515 -0.2479  0.2292 -0.2134
  342MPD2    H7 5138   4.465   3.637  17.432 -1.9218  0.8549 -0.3620
  343TMC3    C1 5139   4.558   3.419  17.409 -0.3342  0.3773 -0.2542
  343TMC3    C2 5140   4.684   3.475  17.435  0.2518 -0.5244  1.1472
  343TMC3    C3 5141   0.075   3.408  17.386 -0.1131 -0.2722  0.0959
  343TMC3    C4 5142   4.552   3.289  17.363 -0.0139 -0.1902  0.0933
  343TMC3    C5 5143   4.663   3.222  17.329  0.4253 -0.1523 -0.1490
  343TMC3    C6 5144   0.062   3.279  17.338  0.0095  0.0747 -0.0460
  343TMC3     C 5145   4.460   3.450  17.513 -0.0389  0.0953 -0.4936
  343TMC3     O 5146   4.409   3.365  17.578 -0.4020  0.3859  0.8981
  343TMC3     H 5147   4.688   3.581  17.461 -1.3709  0.2026 -1.5173
  343TMC3    H1 5148   4.455   3.241  17.357 -1.3582  2.3368  1.5177
  343TMC3    H2 5149   0.153   3.221  17.329 -1.2156 -1.4904 -2.4474
  343TMC3    C7 5150   4.648   3.170  17.195 -0.3906  0.7288 -1.0421
  343TMC3    C8 5151   0.205   3.472  17.363  0.2460 -0.0581 -0.0486
  343TMC3    O1 5152   0.017   3.166  17.121 -0.0058 -0.0634 -0.3253
  343TMC3    O2 5153   0.220   3.580  17.415 -0.2885 -0.0604 -0.1391
  344MPD2     C 5154   0.515   3.131   9.378 -0.4788  0.1887 -0.4975
  344MPD2    C1 5155   0.562   3.136   9.506 -0.0234  0.1691 -0.1189
  344MPD2    C2 5156   0.660   3.224   9.543 -0.3585  0.3161 -0.0697
  344MPD2    C3 5157   0.708   3.312   9.451 -0.8982 -0.4641  0.7158
  344MPD2    C4 5158   0.657   3.308   9.323  0.3910  0.3929 -0.1472
  344MPD2    C5 5159   0.563   3.216   9.290 -0.7211  0.0551  0.0722
  344MPD2     H 5160   0.690   3.231   9.647 -0.2445 -1.6195  0.0247
  344MPD2    H1 5161   0.681   3.387   9.252 -1.7285  0.4125 -0.8435
  344MPD2    H2 5162   0.432   3.071   9.342 -1.2476  0.3133  1.0658
  344MPD2    H3 5163   0.521   3.222   9.190 -0.9950 -0.1963  0.1722
  344MPD2     N 5164   0.791   3.422   9.491  0.0033 -0.3777  0.5158
  344MPD2    H5 5165   0.799   3.492   9.418 -0.3758 -0.9727 -0.0925
  344MPD2    N1 5166   0.490   3.057   9.610  0.0240  0.3557 -0.3766
  344MPD2    H7 5167   0.415   3.003   9.569  0.7029  0.3696 -1.6278
  345TMC3    C1 5168   0.951   3.553   9.604  0.1303  0.5043  0.4264
  345TMC3    C2 5169   1.070   3.533   9.670  0.5305 -0.1994 -0.2262
  345TMC3    C3 5170   1.175   3.607   9.650  0.2228 -0.1880 -0.8546
  345TMC3    C4 5171   0.930   3.663   9.528 -0.8837  0.4275 -0.2118
  345TMC3    C5 5172   1.045   3.741   9.505  1.5394 -0.0708 -0.5823
  345TMC3    C6 5173   1.167   3.715   9.563 -0.3265 -0.6863 -0.4695
  345TMC3     C 5174   0.853   3.451   9.613 -0.1594  0.1708 -0.4249
  345TMC3     O 5175   0.861   3.380   9.712 -0.2305 -0.1429 -0.5403
  345TMC3     H 5176   1.067   3.441   9.727  1.7935  0.3065  0.6457
  345TMC3    H1 5177   0.830   3.683   9.493 -0.8244  0.3379 -0.4326
  345TMC3    H2 5178   1.242   3.793   9.558 -0.1883 -0.6857  1.3996
  345TMC3    C7 5179   1.015   3.877   9.468  1.0714  0.0170  0.5781
  345TMC3    C8 5180   1.239   3.666   9.769  0.0312 -0.4691  0.3736
  345TMC3    O1 5181   1.086   3.963   9.521 -0.2526 -0.0487 -0.5274
  345TMC3    O2 5182   1.312   3.759   9.748  0.1910  0.5035 -0.2220
  346MPD2     C 5183   0.526   0.685  14.424  0.0533 -0.4950  0.6553
  346MPD2    C1 5184   0.623   0.697  14.329 -0.4892  0.4836 -0.5124
  346MPD2    C2 5185   0.747   0.746  14.371 -0.0641  0.7714  0.3431
  346MPD2    C3 5186   0.764   0.786  14.501  0.9748 -0.1717 -0.3894
  346MPD2    C4 5187   0.660   0.784  14.588  0.4010 -0.0041 -0.5433
  346MPD2    C5 5188   0.545   0.721  14.548 -0.3691 -0.0645 -0.6767
  346MPD2     H 5189   0.823   0.769  14.297 -0.1055 -0.8700 -0.1999
  346MPD2    H1 5190   0.678   0.809  14.692  0.7385 -0.8262 -0.3967
  346MPD2    H2 5191   0.429   0.643  14.401  0.9104 -1.5413 -1.0475
  346MPD2    H3 5192   0.462   0.714  14.617  0.0506 -2.7152 -0.4530
  346MPD2     N 5193   0.892   0.835  14.542  0.3291  0.0553  0.0463
  346MPD2    H5 5194   0.971   0.818  14.481  0.4964  1.3576 -0.0975
  346MPD2    N1 5195   0.616   0.666  14.193 -0.0646  0.3171  0.1694
  346MPD2    H7 5196   0.705   0.676  14.146  0.2017 -0.6690  0.4670
  347TMC3    C1 5197   1.055   0.949  14.675  0.1688  0.2255  0.4399
  347TMC3    C2 5198   1.134   0.947  14.561  0.3686 -0.3870 -0.6510
  347TMC3    C3 5199   1.266   0.993  14.573 -0.2221 -0.5780 -0.1594
  347TMC3    C4 5200   1.100   0.957  14.805 -0.2124 -0.1108  0.7366
  347TMC3    C5 5201   1.237   0.991  14.807  0.2188  0.3115 -0.0470
  347TMC3    C6 5202   1.318   1.017  14.699  0.4859 -0.4783 -0.3050
  347TMC3     C 5203   0.917   0.903  14.662 -0.6595  0.0112 -0.1097
  347TMC3     O 5204   0.843   0.935  14.756 -0.6496  0.7691 -0.1007
  347TMC3     H 5205   1.100   0.926  14.460 -4.5516  0.3418  0.8650
  347TMC3    H1 5206   1.038   0.934  14.890 -1.2984  0.9338  0.2187
  347TMC3    H2 5207   1.417   1.056  14.719  0.3310  0.5442 -1.5928
  347TMC3    C7 5208   1.304   1.009  14.933 -0.4742  0.1393  0.1277
  347TMC3    C8 5209   1.359   0.980  14.459  0.4654  0.3223 -0.4482
  347TMC3    O1 5210   1.223   1.031  15.021  0.1965 -0.2545  0.4379
  347TMC3    O2 5211   1.477   0.959  14.486  0.0050  0.0863 -0.0091
  348MPD2     C 5212   4.115   0.231  12.231 -0.7527  0.5286 -0.1638
  348MPD2    C1 5213   4.089   0.175  12.109 -0.8532 -0.0559  0.6275
  348MPD2    C2 5214   4.073   0.250  11.993 -0.0554  0.4799 -0.1371
  348MPD2    C3 5215   4.077   0.386  11.999 -0.4102 -0.3862 -0.6716
  348MPD2    C4 5216   4.096   0.444  12.125  0.6041  0.1162 -1.1914
  348MPD2    C5 5217   4.115   0.364  12.245  0.5289 -0.4972 -0.0455
  348MPD2     H 5218   4.055   0.200  11.898  2.3880  0.7583 -0.7467
  348MPD2    H1 5219   4.082   0.551  12.134  1.5551  0.1008  0.4342
  348MPD2    H2 5220   4.133   0.175  12.321  2.8036 -1.5887 -2.2031
  348MPD2    H3 5221   4.137   0.402  12.344 -1.3586  1.7764 -0.4792
  348MPD2     N 5222   4.059   0.469  11.885 -0.7874 -0.1612 -0.4603
  348MPD2    H5 5223   4.037   0.425  11.797 -1.6036  1.6100 -1.1433
  348MPD2    N1 5224   4.086   0.040  12.095  0.0439  0.0858 -0.1152
  348MPD2    H7 5225   4.072   0.010  11.999 -2.8374 -0.9617  0.6168
  349TMC3    C1 5226   4.179   4.544  12.119 -0.4207  0.4481 -0.3084
  349TMC3    C2 5227   4.223   4.437  12.198  0.2844  0.1217  0.3344
  349TMC3    C3 5228   4.307   4.344  12.138  0.0055 -0.4474  0.3574
  349TMC3    C4 5229   4.220   4.548  11.987  0.0030 -0.2689  0.4284
  349TMC3    C5 5230   4.304   4.459  11.925 -0.5240 -0.2387 -0.3730
  349TMC3    C6 5231   4.344   4.354  12.007  0.0942 -0.4632 -0.7459
  349TMC3     C 5232   4.131   4.669  12.183 -0.8796  0.7664 -0.5409
  349TMC3     O 5233   4.141   4.672  12.304 -0.4032 -0.0773  0.5693
  349TMC3     H 5234   4.209   4.437  12.305  2.6155  1.8406  0.6386
  349TMC3    H1 5235   4.184   4.629  11.925  0.2435  0.0454  0.6974
  349TMC3    H2 5236   4.395   4.280  11.946  2.2177  0.9855 -0.7338
  349TMC3    C7 5237   4.311   4.460  11.785  0.0207  0.7049 -0.3513
  349TMC3    C8 5238   4.341   4.223  12.215  0.4328 -0.4728  0.3947
  349TMC3    O1 5239   4.288   4.357  11.724 -0.3711  1.3402  0.0701
  349TMC3    O2 5240   4.285   4.205  12.325  0.4178 -0.2670  0.3758
  350MPD2     C 5241   3.068   2.939   8.907  0.2304 -0.2806  0.1828
  350MPD2    C1 5242   3.040   2.835   9.000 -0.4688  0.4539  0.3355
  350MPD2    C2 5243   3.112   2.838   9.117 -0.1504 -0.3676 -0.0681
  350MPD2    C3 5244   3.213   2.929   9.140 -0.2602 -0.3384 -0.3988
  350MPD2    C4 5245   3.241   3.021   9.045 -0.6046  0.2727  0.7026
  350MPD2    C5 5246   3.165   3.031   8.932  0.5514  1.0833  0.7374
  350MPD2     H 5247   3.080   2.764   9.189 -0.3766  0.4017  0.6112
  350MPD2    H1 5248   3.315   3.101   9.046 -1.4075  1.0285 -0.6841
  350MPD2    H2 5249   3.023   2.959   8.811  0.0584 -1.3318  0.0408
  350MPD2    H3 5250   3.201   3.096   8.853 -1.3074 -1.1665 -1.9769
  350MPD2     N 5251   3.275   2.929   9.271  0.3642 -0.4395  0.3504
  350MPD2    H5 5252   3.238   2.852   9.326 -0.4419 -0.3696 -0.0800
  350MPD2    N1 5253   2.937   2.737   8.987 -0.1275  0.4343  0.4619
  350MPD2    H7 5254   2.920   2.665   9.057 -1.7053 -0.0979 -0.4723
  351TMC3    C1 5255   2.755   2.628   8.890  0.6562 -0.3024  0.9663
  351TMC3    C2 5256   2.777   2.525   8.972  0.6558  0.3083  0.0951
  351TMC3    C3 5257   2.670   2.445   9.000 -0.8833 -0.4264 -0.7401
  351TMC3    C4 5258   2.640   2.661   8.825  0.7784 -0.1835  0.1396
  351TMC3    C5 5259   2.535   2.575   8.853 -0.0041 -0.0751 -0.2384
  351TMC3    C6 5260   2.544   2.471   8.944  0.8969  0.9275  0.3768
  351TMC3     C 5261   2.860   2.728   8.876 -0.1380 -0.2514  0.4059
  351TMC3     O 5262   2.840   2.815   8.795  0.5876 -0.3361  0.0526
  351TMC3     H 5263   2.875   2.513   9.017 -0.0311  2.7388  2.2201
  351TMC3    H1 5264   2.626   2.730   8.743 -0.6799  1.0918  1.4590
  351TMC3    H2 5265   2.468   2.393   8.944  0.4786  1.3406 -0.0049
  351TMC3    C7 5266   2.406   2.607   8.794  0.3485 -0.1757 -0.0310
  351TMC3    C8 5267   2.699   2.348   9.110 -0.0206 -0.0185  0.2186
  351TMC3    O1 5268   2.400   2.677   8.694  0.4870 -0.3684  0.2252
  351TMC3    O2 5269   2.811   2.355   9.153  0.4593  0.1319 -0.0510
  352MPD2     C 5270   1.695   0.495   0.945  0.2036 -0.3975 -0.2559
  352MPD2    C1 5271   1.570   0.454   0.979  0.2177 -0.0984 -0.2775
  352MPD2    C2 5272   1.548   0.345   1.053  0.5260  0.3170 -0.1918
  352MPD2    C3 5273   1.652   0.254   1.094 -0.2185  0.6297 -0.1647
  352MPD2    C4 5274   1.776   0.298   1.053  0.1427 -0.6062  0.5117
  352MPD2    C5 5275   1.801   0.417   0.986  0.2525 -0.5589  1.2650
  352MPD2     H 5276   1.448   0.311   1.076  0.6716  0.2349  0.3050
  352MPD2    H1 5277   1.866   0.250   1.090  0.8181  0.2755  0.0206
  352MPD2    H2 5278   1.708   0.580   0.878  0.7878 -0.2644  0.0276
  352MPD2    H3 5279   1.898   0.457   0.956  0.0676 -1.4302 -0.5091
  352MPD2     N 5280   1.638   0.141   1.173  0.1690  0.7628  0.4535
  352MPD2    H5 5281   1.719   0.083   1.195  1.8530  3.1118  0.5217
  352MPD2    N1 5282   1.463   0.529   0.921  0.2620 -0.5565  0.4171
  352MPD2    H7 5283   1.496   0.587   0.845  0.4705  1.0198  1.7039
  353TMC3    C1 5284   1.545   4.695   1.286 -1.0233 -0.0038 -0.1170
  353TMC3    C2 5285   1.671   4.670   1.330 -0.2079 -0.1683  0.1046
  353TMC3    C3 5286   1.689   4.542   1.385 -0.0720  0.1348  0.1470
  353TMC3    C4 5287   1.439   4.607   1.295  0.2694 -0.2487  0.0738
  353TMC3    C5 5288   1.462   4.493   1.358  0.2100  0.5184 -0.4140
  353TMC3    C6 5289   1.588   4.459   1.408  0.0297 -0.1260 -0.4912
  353TMC3     C 5290   1.516   0.095   1.217  0.5871  0.5718  0.4493
  353TMC3     O 5291   1.401   0.134   1.203 -0.4896 -0.0587 -0.2983
  353TMC3     H 5292   1.751   0.019   1.343 -0.7203  0.5016 -0.5132
  353TMC3    H1 5293   1.343   4.639   1.257  0.6973 -0.0299 -0.8181
  353TMC3    H2 5294   1.599   4.369   1.468  2.7927  0.0679 -0.7347
  353TMC3    C7 5295   1.366   4.380   1.342  0.3811  0.9865 -0.2496
  353TMC3    C8 5296   1.823   4.487   1.380 -0.2367 -0.1062  0.0836
  353TMC3    O1 5297   1.416   4.270   1.315  0.3304 -0.1604 -1.0155
  353TMC3    O2 5298   1.914   4.571   1.379 -1.0120  0.2279  0.0275
  354TMC3    C1 5299   3.057   1.359  13.066  0.7275  0.5431 -0.1860
  354TMC3    C2 5300   3.156   1.462  13.065 -0.7835 -0.1290  0.2440
  354TMC3    C3 5301   3.143   1.560  12.979 -0.9220 -0.4449  0.6233
  354TMC3    C4 5302   2.959   1.353  12.967 -0.6771  0.4202 -0.4485
  354TMC3    C5 5303   2.962   1.448  12.864 -0.1732  0.1439  0.0864
  354TMC3    C6 5304   3.047   1.559  12.879 -0.3001  0.7053 -0.5781
  354TMC3     C 5305   3.021   1.289  13.188  0.6914  0.1767 -0.2923
  354TMC3     O 5306   2.924   1.215  13.183  0.0775 -0.3813 -0.2142
  354TMC3     H 5307   3.244   1.469  13.128 -0.2228  0.7701 -0.6232
  354TMC3    H1 5308   2.926   1.253  12.942  2.5636 -1.0739  1.3074
  354TMC3    H2 5309   3.041   1.646  12.815 -1.6110 -0.6859 -2.3582
  354TMC3    C7 5310   2.953   1.399  12.733  0.1872 -0.0526  0.2286
  354TMC3    C8 5311   3.261   1.623  12.928  0.1989  0.3675  0.1226
  354TMC3    O1 5312   2.883   1.303  12.726 -0.2979  0.1443 -0.5332
  354TMC3    O2 5313   3.270   1.638  12.807  0.4680  0.2159 -0.4759
  355MPD2     C 5314   3.445   2.245  11.575  0.3286 -0.1374 -0.0115
  355MPD2    C1 5315   3.477   2.272  11.445  0.2917 -0.8525 -0.1560
  355MPD2    C2 5316   3.609   2.247  11.412 -0.2753  0.3729  0.6680
  355MPD2    C3 5317   3.710   2.234  11.511  0.0715 -0.4053 -0.9947
  355MPD2    C4 5318   3.667   2.223  11.642 -0.0746  0.3535 -0.4074
  355MPD2    C5 5319   3.536   2.222  11.677  0.2165 -0.1844 -0.4837
  355MPD2     H 5320   3.641   2.242  11.308 -2.5527  0.2394 -0.0150
  355MPD2    H1 5321   3.737   2.231  11.724 -0.5319  2.9378 -0.2775
  355MPD2    H2 5322   3.350   2.261  11.624  0.6941  1.7355  0.0602
  355MPD2    H3 5323   3.491   2.217  11.776  2.5791  0.3561  0.6088
  355MPD2     N 5324   3.843   2.265  11.480  0.7378  0.1836  1.0950
  355MPD2    H5 5325   3.912   2.240  11.550  2.7468  1.6267 -0.3513
  355MPD2    N1 5326   3.374   2.322  11.355  0.2217  1.0067  0.2373
  355MPD2    H7 5327   3.278   2.315  11.385  0.6341  0.6471  1.4846
  356TMC3    C1 5328   4.015   2.369  11.357  0.5032  0.2341 -0.1247
  356TMC3    C2 5329   4.058   2.420  11.238 -0.0304  0.2183 -0.6027
  356TMC3    C3 5330   4.146   2.519  11.246  1.0974  0.2266 -0.8508
  356TMC3    C4 5331   4.068   2.402  11.480 -0.1893 -0.1743  0.2468
  356TMC3    C5 5332   4.167   2.496  11.481 -0.4504 -0.3682 -0.6562
  356TMC3    C6 5333   4.202   2.559  11.367  1.1187 -0.3211  0.4630
  356TMC3     C 5334   3.887   2.300  11.356  0.0682 -0.3909  0.1140
  356TMC3     O 5335   3.844   2.292  11.241  0.3795 -0.0144 -0.5479
  356TMC3     H 5336   4.004   2.404  11.146 -2.0871  2.5834  0.1826
  356TMC3    H1 5337   4.033   2.374  11.578  1.8565 -0.5617  0.8752
  356TMC3    H2 5338   4.278   2.636  11.371  0.7902  0.1558 -2.3381
  356TMC3    C7 5339   4.222   2.537  11.603  0.2659  0.1147 -0.0212
  356TMC3    C8 5340   4.160   2.609  11.131  0.9203 -0.4783  0.5494
  356TMC3    O1 5341   4.211   2.448  11.688 -0.2566 -0.1908  0.3929
  356TMC3    O2 5342   4.074   2.601  11.047 -0.0659 -0.2183  0.2507
  357MPD2     C 5343   2.952   2.093   0.766 -0.9058 -0.1344  0.3699
  357MPD2    C1 5344   3.051   2.036   0.844  0.4287 -0.5974 -0.0738
  357MPD2    C2 5345   3.018   2.024   0.978  1.0210  0.2256  0.1057
  357MPD2    C3 5346   2.910   2.084   1.033 -0.2427  0.1724 -0.3132
  357MPD2    C4 5347   2.829   2.162   0.954  0.1509  0.2085 -0.3038
  357MPD2    C5 5348   2.839   2.154   0.817  0.4365 -0.6288  0.2559
  357MPD2     H 5349   3.083   1.960   1.038  2.7093 -0.6806 -2.7170
  357MPD2    H1 5350   2.742   2.210   0.998 -0.9246 -1.3925 -0.6609
  357MPD2    H2 5351   2.954   2.096   0.657  2.6994  0.8803  0.4636
  357MPD2    H3 5352   2.754   2.194   0.763  0.1096 -0.2317  1.0575
  357MPD2     N 5353   2.882   2.072   1.171 -0.1058 -0.4024  0.0324
  357MPD2    H5 5354   2.807   2.134   1.198  0.7175  0.1138  1.1575
  357MPD2    N1 5355   3.147   1.959   0.786  0.3150  0.3672 -0.0723
  357MPD2    H7 5356   3.141   1.949   0.685  1.7894  1.4365 -0.2586
  358TMC3    C1 5357   3.286   1.765   0.808 -0.1400  0.1861  0.5274
  358TMC3    C2 5358   3.222   1.698   0.703 -0.0276  0.4433 -1.0178
  358TMC3    C3 5359   3.252   1.564   0.692 -0.0428 -0.5789 -0.1447
  358TMC3    C4 5360   3.376   1.700   0.889 -0.1276 -0.2396 -0.0293
  358TMC3    C5 5361   3.402   1.566   0.863  0.0349  0.6421  0.2846
  358TMC3    C6 5362   3.340   1.491   0.771 -0.4097  0.2467  0.0876
  358TMC3     C 5363   3.243   1.896   0.857 -0.3364  0.1751 -0.6750
  358TMC3     O 5364   3.308   1.945   0.951 -0.2233 -0.2238  0.3381
  358TMC3     H 5365   3.137   1.738   0.650  0.0980 -0.0289 -1.5738
  358TMC3    H1 5366   3.428   1.744   0.973  0.4044  1.5390 -1.2968
  358TMC3    H2 5367   3.371   1.393   0.735  1.2723  0.6626  0.4116
  358TMC3    C7 5368   3.483   1.488   0.959 -0.1992  0.8684 -0.9673
  358TMC3    C8 5369   3.181   1.496   0.588  0.6899  0.0474 -0.1042
  358TMC3    O1 5370   3.538   1.383   0.918 -0.7354  0.1516 -0.4716
  358TMC3    O2 5371   3.186   1.544   0.477  0.7825 -0.3800  0.2018
  359MPD2     C 5372   3.817   0.713  12.730  0.1175 -0.1562  0.3919
  359MPD2    C1 5373   3.737   0.701  12.614 -0.1530 -0.5266  0.0712
  359MPD2    C2 5374   3.633   0.612  12.609 -0.5381  0.7021 -0.5055
  359MPD2    C3 5375   3.599   0.541  12.719  0.0333  0.1708 -0.1971
  359MPD2    C4 5376   3.665   0.561  12.839  0.1495 -0.1126 -0.1054
  359MPD2    C5 5377   3.775   0.641  12.842 -0.5092 -0.0065  0.4084
  359MPD2     H 5378   3.576   0.598  12.519  0.4130  1.2504 -1.1939
  359MPD2    H1 5379   3.634   0.506  12.928  0.7569  1.3288  0.9954
  359MPD2    H2 5380   3.901   0.780  12.744  0.9899 -0.9872 -0.9376
  359MPD2    H3 5381   3.832   0.657  12.933  2.0490  1.2441 -1.3996
  359MPD2     N 5382   3.504   0.438  12.725 -0.1683  0.1983 -0.0402
  359MPD2    H5 5383   3.512   0.385  12.811  1.0855  1.2968  0.5234
  359MPD2    N1 5384   3.759   0.771  12.491  0.0311  0.1009 -0.4492
  359MPD2    H7 5385   3.689   0.761  12.419  0.2417  0.5470 -0.7126
  360TMC3    C1 5386   3.876   0.885  12.326 -0.6677  0.0819 -0.6520
  360TMC3    C2 5387   3.981   0.969  12.290 -0.3242 -0.1427 -0.1218
  360TMC3    C3 5388   4.034   0.953  12.165  0.9410 -1.0475 -0.3477
  360TMC3    C4 5389   3.815   0.809  12.231  0.3221  0.3723 -1.1328
  360TMC3    C5 5390   3.847   0.824  12.102  0.2023  0.6294 -0.3511
  360TMC3    C6 5391   3.955   0.902  12.061 -0.3482  0.7316  0.4913
  360TMC3     C 5392   3.873   0.841  12.463 -0.4242  0.2453 -0.1303
  360TMC3     O 5393   3.966   0.869  12.535 -0.1863  0.1698 -0.0450
  360TMC3     H 5394   4.037   1.019  12.368  0.3760 -1.9958  0.5521
  360TMC3    H1 5395   3.733   0.740  12.248  0.7240  0.0078 -0.6366
  360TMC3    H2 5396   3.996   0.898  11.961 -0.2399 -2.2981  0.6460
  360TMC3    C7 5397   3.754   0.777  11.999  0.0406 -0.2477 -0.1846
  360TMC3    C8 5398   4.160   1.025  12.143 -0.2727 -0.2958 -0.8559
  360TMC3    O1 5399   3.792   0.773  11.880  0.2122  0.0720 -0.4926
  360TMC3    O2 5400   4.185   1.115  12.222 -0.0446  0.7762 -0.0905
  361MPD2     C 5401   0.273   4.173  16.634 -0.3325 -0.2100 -0.0726
  361MPD2    C1 5402   0.323   4.263  16.729 -0.1947 -0.0955  0.3676
  361MPD2    C2 5403   0.455   4.256  16.753 -0.3319  0.5026  0.3449
  361MPD2    C3 5404   0.541   4.155  16.697 -0.0049 -0.3213  0.8694
  361MPD2    C4 5405   0.485   4.074  16.600  0.0380  0.5804 -0.2803
  361MPD2    C5 5406   0.357   4.082  16.565 -0.2406  0.2084  0.5537
  361MPD2     H 5407   0.491   4.327  16.827 -2.4662  0.6729  1.2450
  361MPD2    H1 5408   0.555   4.005  16.553 -1.1656 -2.1354  1.9392
  361MPD2    H2 5409   0.166   4.163  16.627 -0.4348  1.2135 -0.5568
  361MPD2    H3 5410   0.317   4.030  16.479 -2.3535  0.4402  1.3811
  361MPD2     N 5411   0.673   4.134  16.729 -0.7529 -0.2403 -0.0028
  361MPD2    H5 5412   0.717   4.053  16.689  0.5788  1.6805 -2.4117
  361MPD2    N1 5413   0.238   4.351  16.806  0.5507 -0.1826  0.5848
  361MPD2    H7 5414   0.282   4.429  16.853 -0.7085 -0.3748  2.1110
  362TMC3    C1 5415   0.029   4.442  16.890  0.1636 -0.1120  0.1209
  362TMC3    C2 5416   4.648   4.428  16.979 -0.5722  0.6409 -0.5020
  362TMC3    C3 5417   4.554   4.526  16.987  0.0791 -0.6671  0.7633
  362TMC3    C4 5418   0.042   4.556  16.815 -0.1075 -0.2748 -0.0929
  362TMC3    C5 5419   4.673   4.651  16.820 -0.5452 -0.4089  0.1875
  362TMC3    C6 5420   4.572   4.643  16.910  0.3609  0.1047 -0.6529
  362TMC3     C 5421   0.103   4.324  16.833 -0.7598 -0.5200  0.0303
  362TMC3     O 5422   0.033   4.220  16.825 -0.6916 -0.2041  0.0415
  362TMC3     H 5423   4.630   4.332  17.027 -0.6742 -0.2959 -2.4013
  362TMC3    H1 5424   0.119   4.553  16.738 -1.7434  2.3253 -1.8344
  362TMC3    H2 5425   4.492   4.716  16.906  0.1380  0.0229  2.7060
  362TMC3    C7 5426   4.651   4.705  16.691  0.1658  0.6080 -0.6871
  362TMC3    C8 5427   4.439   4.512  17.083  0.0683  1.1573 -0.5215
  362TMC3    O1 5428   0.011   0.058  16.647  0.2450  0.6364 -0.1871
  362TMC3    O2 5429   4.390   4.398  17.107  0.1621  0.2439 -0.2757
  363TMC3    C1 5430   0.096   1.772   9.492  0.1450 -0.6354 -0.0387
  363TMC3    C2 5431   4.692   1.729   9.497  0.0565 -0.3773 -0.1192
  363TMC3    C3 5432   4.675   1.593   9.516  0.1406 -0.1950  0.1980
  363TMC3    C4 5433   0.206   1.693   9.511  0.4719  0.5411 -0.9085
  363TMC3    C5 5434   0.191   1.558   9.528  0.3237 -0.0358  0.3522
  363TMC3    C6 5435   0.057   1.507   9.532 -0.5608 -0.2054  0.1652
  363TMC3     C 5436   0.115   1.903   9.429  0.4352  0.4961 -0.0894
  363TMC3     O 5437   0.216   1.962   9.464 -0.6769 -0.0514 -0.1802
  363TMC3     H 5438   4.605   1.793   9.484 -0.1017 -0.3464  1.0029
  363TMC3    H1 5439   0.303   1.741   9.513  0.1704  1.1645 -1.2191
  363TMC3    H2 5440   0.044   1.400   9.547  5.2185 -0.7253  1.2674
  363TMC3    C7 5441   0.302   1.468   9.510  0.3996  0.7410 -0.6728
  363TMC3    C8 5442   4.539   1.542   9.548  0.5890 -0.4649 -0.6105
  363TMC3    O1 5443   0.275   1.354   9.545 -0.7808 -0.2269 -0.1168
  363TMC3    O2 5444   4.454   1.583   9.477  0.0619  0.0818  0.4002
  364MPD2     C 5445   2.338   1.752  10.802  0.4109 -0.3292  0.0582
  364MPD2    C1 5446   2.425   1.676  10.729 -0.2985 -0.4603 -0.5160
  364MPD2    C2 5447   2.477   1.560  10.781 -0.6140 -0.2529 -0.0245
  364MPD2    C3 5448   2.440   1.514  10.908 -0.4176  0.4252 -0.5635
  364MPD2    C4 5449   2.344   1.581  10.974  0.2647 -0.4595 -0.3852
  364MPD2    C5 5450   2.288   1.696  10.921 -0.2043  0.3077 -0.0961
  364MPD2     H 5451   2.558   1.517  10.723 -0.9415 -0.9432  0.0282
  364MPD2    H1 5452   2.301   1.530  11.059 -1.4017 -0.1946 -1.0783
  364MPD2    H2 5453   2.298   1.847  10.769  0.4074 -1.1326 -2.2684
  364MPD2    H3 5454   2.223   1.752  10.987 -2.6542 -0.2859 -2.0219
  364MPD2     N 5455   2.498   1.399  10.962  0.3661 -0.4243 -0.5188
  364MPD2    H5 5456   2.490   1.389  11.063  0.5164  1.4152 -0.3218
  364MPD2    N1 5457   2.459   1.723  10.603 -0.2448 -0.4966  0.2402
  364MPD2    H7 5458   2.437   1.819  10.580 -2.1107 -0.8580  0.5035
  365TMC3    C1 5459   2.568   1.738  10.395  0.1374 -0.0528  0.5300
  365TMC3    C2 5460   2.612   1.676  10.277  0.5359  0.4544 -0.1677
  365TMC3    C3 5461   2.677   1.747  10.186  0.1929  0.0081 -0.5484
  365TMC3    C4 5462   2.597   1.870  10.430 -0.2604  0.2986 -0.2160
  365TMC3    C5 5463   2.661   1.938  10.336 -0.0780  0.1652 -0.6018
  365TMC3    C6 5464   2.702   1.884  10.215 -0.0712 -0.2076 -0.2062
  365TMC3     C 5465   2.527   1.653  10.505  0.6505  0.7708  0.0196
  365TMC3     O 5466   2.543   1.535  10.500 -0.1366 -0.6675  0.1666
  365TMC3     H 5467   2.612   1.567  10.272  0.5199  0.3737  1.4440
  365TMC3    H1 5468   2.587   1.905  10.532  1.3002  1.1418 -0.3550
  365TMC3    H2 5469   2.757   1.940  10.140  2.7590  0.2124  2.2027
  365TMC3    C7 5470   2.715   2.071  10.364  0.1129  0.5013  0.2167
  365TMC3    C8 5471   2.749   1.684  10.078 -0.1998  0.0902 -0.3549
  365TMC3    O1 5472   2.798   2.111  10.287 -0.4629 -0.2759  0.0431
  365TMC3    O2 5473   2.761   1.751   9.979 -0.3455  0.4608  0.2187
  366MPD2     C 5474   1.016   2.509  15.107  0.1531 -0.0182  0.7331
  366MPD2    C1 5475   1.090   2.621  15.130 -0.0959 -0.8289  0.3899
  366MPD2    C2 5476   1.225   2.611  15.120 -0.2190  0.2960 -0.2237
  366MPD2    C3 5477   1.291   2.494  15.106 -0.4371 -0.1670 -0.0057
  366MPD2    C4 5478   1.215   2.377  15.079 -0.0977 -0.0074 -0.5403
  366MPD2    C5 5479   1.079   2.393  15.086 -0.0894 -0.2959 -0.0838
  366MPD2     H 5480   1.277   2.701  15.150 -0.3110  0.3237 -0.1456
  366MPD2    H1 5481   1.251   2.277  15.059 -0.0080  0.3544 -2.1575
  366MPD2    H2 5482   0.909   2.517  15.092 -0.1235  0.3736  2.9118
  366MPD2    H3 5483   1.022   2.301  15.075 -1.9783  0.8453 -0.0174
  366MPD2     N 5484   1.426   2.500  15.102  0.0242  0.2664  0.0271
  366MPD2    H5 5485   1.459   2.596  15.105 -0.1552  0.2887  1.3606
  366MPD2    N1 5486   1.042   2.750  15.151 -0.6660  0.5408  0.1983
  366MPD2    H7 5487   1.110   2.825  15.148 -2.0016  1.8126  1.8698
  367TMC3    C1 5488   0.910   2.935  15.195  0.4404  0.9230  0.5822
  367TMC3    C2 5489   1.020   2.983  15.258  0.3580  0.0983  0.6124
  367TMC3    C3 5490   1.041   3.118  15.258  0.3861  0.3378  0.3417
  367TMC3    C4 5491   0.829   3.012  15.118 -0.1347  0.0434 -0.0192
  367TMC3    C5 5492   0.860   3.144  15.107  0.0599  0.3586 -0.2529
  367TMC3    C6 5493   0.968   3.198  15.168  0.0387 -0.7589 -0.1405
  367TMC3     C 5494   0.913   2.794  15.168  0.1149  0.4765 -0.6343
  367TMC3     O 5495   0.809   2.731  15.155  0.0940  0.5489 -0.6450
  367TMC3     H 5496   1.078   2.925  15.329 -0.4168 -0.6066  0.6793
  367TMC3    H1 5497   0.742   2.968  15.072 -0.5197  2.3732 -1.5350
  367TMC3    H2 5498   1.000   3.301  15.157  1.6250 -1.4765 -2.2725
  367TMC3    C7 5499   0.808   3.231  14.999  0.6040 -1.0733 -0.1444
  367TMC3    C8 5500   1.169   3.160  15.292 -0.3314  0.2252 -0.1609
  367TMC3    O1 5501   0.853   3.344  15.001  0.3628 -0.1780  0.1704
  367TMC3    O2 5502   1.251   3.073  15.300  0.1471  0.0943  0.2406
  368MPD2     C 5503   2.075   4.191  13.060  0.0623 -0.0196  0.3460
  368MPD2    C1 5504   2.131   4.304  13.012 -0.5301  0.6177  0.2082
  368MPD2    C2 5505   2.265   4.288  12.971 -0.0412 -0.1143  0.5251
  368MPD2    C3 5506   2.343   4.177  12.999 -0.0161 -0.2573  0.9516
  368MPD2    C4 5507   2.286   4.067  13.049 -0.2702  0.1997 -0.8980
  368MPD2    C5 5508   2.152   4.079  13.076  0.4254  0.3699  0.3296
  368MPD2     H 5509   2.317   4.372  12.926 -0.0136  0.2040  1.1456
  368MPD2    H1 5510   2.341   3.977  13.074  0.5432  0.9279 -0.0583
  368MPD2    H2 5511   1.969   4.174  13.076 -0.6182  2.3125 -1.6721
  368MPD2    H3 5512   2.105   3.985  13.104  2.1358 -0.2864  0.9831
  368MPD2     N 5513   2.481   4.177  12.976 -0.5316  0.2391  0.1842
  368MPD2    H5 5514   2.534   4.100  13.015  0.0291 -0.2122 -1.4362
  368MPD2    N1 5515   2.061   4.429  13.002  0.0368 -0.4253 -0.4202
  368MPD2    H7 5516   1.964   4.416  13.030 -0.0323  0.6785 -0.1508
  369TMC3    C1 5517   2.040   4.669  12.986 -0.0793 -0.0171 -0.1015
  369TMC3    C2 5518   2.106   0.047  13.037  0.9168  0.2476 -0.0566
  369TMC3    C3 5519   2.039   0.160  13.076 -0.7233  0.2141  0.2864
  369TMC3    C4 5520   1.904   4.663  12.978 -0.1084  0.5053  1.2973
  369TMC3    C5 5521   1.836   0.045  13.024 -0.2853  0.1960 -0.6700
  369TMC3    C6 5522   1.899   0.152  13.067  0.5817  0.2258 -0.7750
  369TMC3     C 5523   2.116   4.551  12.963  0.1203 -0.6424 -0.3621
  369TMC3     O 5524   2.233   4.570  12.938  0.0663  0.1621  0.2413
  369TMC3     H 5525   2.215   0.043  13.034  0.8624 -0.7013 -0.8455
  369TMC3    H1 5526   1.867   4.571  12.933 -0.7311  0.9709  0.8709
  369TMC3    H2 5527   1.845   0.238  13.107  1.0234  0.0230  0.2570
  369TMC3    C7 5528   1.692   0.026  13.030  0.2600  0.7043 -0.6758
  369TMC3    C8 5529   2.091   0.279  13.020  0.4833  0.0707  0.3349
  369TMC3    O1 5530   1.651   4.638  13.008  0.1524 -0.1464 -0.4915
  369TMC3    O2 5531   2.020   0.337  12.942 -0.3554  0.3853 -0.1353
  370TMC3    C1 5532   1.725   0.570  15.772  0.3017  0.1735 -0.2123
  370TMC3    C2 5533   1.613   0.504  15.804 -0.0823 -0.3554  0.3019
  370TMC3    C3 5534   1.593   0.373  15.762  1.2255 -0.5290  0.3070
  370TMC3    C4 5535   1.823   0.510  15.698 -0.1055  0.4391 -0.2099
  370TMC3    C5 5536   1.803   0.381  15.667 -0.5282  0.1200 -0.3059
  370TMC3    C6 5537   1.695   0.314  15.698 -0.5553 -0.5332 -0.3400
  370TMC3     C 5538   1.752   0.663  15.884  0.2100  0.0133  0.1679
  370TMC3     O 5539   1.690   0.639  15.986 -0.2395  0.0371  0.5114
  370TMC3     H 5540   1.533   0.560  15.852  1.1678  1.4747  0.2287
  370TMC3    H1 5541   1.922   0.555  15.704 -0.9439  2.3193 -0.2936
  370TMC3    H2 5542   1.678   0.215  15.658 -0.7049 -0.1312 -1.2826
  370TMC3    C7 5543   1.901   0.328  15.575 -0.4819  0.5606  0.3409
  370TMC3    C8 5544   1.521   0.291  15.851 -0.6050  0.4643 -0.4995
  370TMC3    O1 5545   1.971   0.404  15.512 -0.0514 -1.0670  0.6580
  370TMC3    O2 5546   1.558   0.175  15.841 -0.0899  0.7837  0.1455
  371TMC3    C1 5547   3.208   3.419  15.189 -0.6116 -0.1650 -0.1267
  371TMC3    C2 5548   3.118   3.428  15.293  0.6185  0.1393 -0.6431
  371TMC3    C3 5549   3.044   3.543  15.299 -0.0586  0.1742 -0.4821
  371TMC3    C4 5550   3.234   3.512  15.098 -0.3937 -0.8320  0.3232
  371TMC3    C5 5551   3.154   3.627  15.106  0.2642 -0.0665  0.5940
  371TMC3    C6 5552   3.055   3.645  15.210 -0.0280  0.1394 -0.0355
  371TMC3     C 5553   3.244   3.287  15.147  0.0902  0.1157 -0.3102
  371TMC3     O 5554   3.329   3.276  15.059 -0.0112 -0.2913  0.1322
  371TMC3     H 5555   3.109   3.354  15.371 -2.1243 -0.8901 -1.9501
  371TMC3    H1 5556   3.300   3.497  15.012 -1.2824 -0.2316 -0.4689
  371TMC3    H2 5557   3.005   3.740  15.228 -1.3470 -0.5059 -0.2945
  371TMC3    C7 5558   3.204   3.752  15.048 -0.4891  0.4274  0.0318
  371TMC3    C8 5559   2.950   3.552  15.410 -0.5939  0.0695 -0.6073
  371TMC3    O1 5560   3.177   3.859  15.096  0.0311  0.0201  0.5476
  371TMC3    O2 5561   2.979   3.489  15.510 -0.3786 -0.3191  0.1395
  372MPD2     C 5562   2.464   4.498  13.230  0.3502  0.8237  0.7791
  372MPD2    C1 5563   2.595   4.493  13.276 -0.8853 -0.4458 -0.8360
  372MPD2    C2 5564   2.620   4.399  13.375  0.1681 -0.5051 -0.9583
  372MPD2    C3 5565   2.520   4.309  13.408 -0.6417  0.2520 -0.1609
  372MPD2    C4 5566   2.397   4.319  13.360 -0.7165  0.5799  0.2578
  372MPD2    C5 5567   2.371   4.419  13.278 -0.0135  0.4363  0.2288
  372MPD2     H 5568   2.715   4.394  13.426  0.4258 -2.6616 -1.6536
  372MPD2    H1 5569   2.319   4.250  13.391  0.5490 -0.4651  1.1264
  372MPD2    H2 5570   2.424   4.574  13.163 -0.7633 -0.7378 -0.3164
  372MPD2    H3 5571   2.276   4.429  13.227  0.1780  3.8515  0.5232
  372MPD2     N 5572   2.555   4.203  13.486  0.7559  0.4545  0.8481
  372MPD2    H5 5573   2.650   4.199  13.519  0.7154 -1.3090  0.7187
  372MPD2    N1 5574   2.696   4.582  13.239 -0.2891 -0.3823 -0.2286
  372MPD2    H7 5575   2.789   4.550  13.263 -0.6378 -1.0684  0.2043
  373TMC3    C1 5576   2.536   4.023  13.618  0.4357  0.5224  0.1743
  373TMC3    C2 5577   2.543   4.104  13.723  0.0099 -0.1043 -0.1504
  373TMC3    C3 5578   2.649   4.093  13.807  0.1827 -0.0179  0.3254
  373TMC3    C4 5579   2.633   3.930  13.593 -0.1810  0.2997 -0.0154
  373TMC3    C5 5580   2.734   3.913  13.683 -0.0863 -0.0291 -0.4272
  373TMC3    C6 5581   2.740   3.993  13.804  0.0279 -0.5331 -0.3833
  373TMC3     C 5582   2.479   4.096  13.508 -0.3623 -0.3241 -0.2309
  373TMC3     O 5583   2.379   4.057  13.456  0.3464  0.3580  0.1656
  373TMC3     H 5584   2.476   4.190  13.725  0.7390  0.3300  3.9129
  373TMC3    H1 5585   2.636   3.893  13.491 -1.3417  1.0141 -0.3066
  373TMC3    H2 5586   2.838   3.985  13.849 -0.0015 -2.9066 -0.7267
  373TMC3    C7 5587   2.844   3.834  13.636  1.0282 -0.5600 -0.8164
  373TMC3    C8 5588   2.675   4.206  13.898  0.0729 -0.4561  0.7526
  373TMC3    O1 5589   2.840   3.804  13.517 -0.2989 -0.3207  0.3587
  373TMC3    O2 5590   2.787   4.228  13.939 -0.0013  0.1424 -0.1188
  374TMC3    C1 5591   3.352   4.410   9.984 -0.2585 -0.2787  0.2280
  374TMC3    C2 5592   3.485   4.407  10.021 -0.0122  0.1259  0.6885
  374TMC3    C3 5593   3.572   4.465   9.928 -0.1576  0.1442 -0.2399
  374TMC3    C4 5594   3.314   4.447   9.859 -0.4892 -0.3004 -0.2364
  374TMC3    C5 5595   3.401   4.492   9.765  0.0430  0.3173  0.1624
  374TMC3    C6 5596   3.533   4.499   9.799  1.0989  0.6366  0.3743
  374TMC3     C 5597   3.241   4.386  10.081 -0.3839 -0.2275 -0.2221
  374TMC3     O 5598   3.128   4.392  10.039 -0.4040  0.1058 -0.5084
  374TMC3     H 5599   3.511   4.352  10.110 -0.5804 -1.6631 -0.2611
  374TMC3    H1 5600   3.209   4.439   9.831 -0.5562 -0.6919  0.1303
  374TMC3    H2 5601   3.600   4.519   9.717  0.9188  2.1919  0.6050
  374TMC3    C7 5602   3.365   4.493   9.625  0.1172  0.2409 -0.3483
  374TMC3    C8 5603   3.717   4.456   9.954  0.4820  0.2528  0.4087
  374TMC3    O1 5604   3.423   4.579   9.556 -0.2775  0.1288 -0.0258
  374TMC3    O2 5605   3.785   4.470   9.851 -1.1735 -0.4202  0.0306
  375MPD2     C 5606   3.193   0.521  17.069 -0.1299  0.6381 -0.3733
  375MPD2    C1 5607   3.169   0.600  16.959 -0.4044 -0.0044 -0.4738
  375MPD2    C2 5608   3.230   0.558  16.837 -0.2184  0.1302 -0.1734
  375MPD2    C3 5609   3.317   0.451  16.828  0.7195 -0.5358  0.1839
  375MPD2    C4 5610   3.346   0.380  16.946  0.6519  0.0971  0.3928
  375MPD2    C5 5611   3.287   0.421  17.061 -0.4550  0.0003 -0.0468
  375MPD2     H 5612   3.187   0.606  16.750  2.5122 -2.6836 -3.1026
  375MPD2    H1 5613   3.414   0.295  16.950 -1.6253 -1.8159 -0.8632
  375MPD2    H2 5614   3.149   0.545  17.166 -1.5478 -1.2061 -0.5735
  375MPD2    H3 5615   3.304   0.368  17.154 -3.9846 -1.2825 -0.1150
  375MPD2     N 5616   3.385   0.412  16.709  0.0906  0.2809  0.2615
  375MPD2    H5 5617   3.423   0.318  16.711  0.1887  0.3226  0.3507
  375MPD2    N1 5618   3.091   0.714  16.950  0.1022  0.4425  0.5151
  375MPD2    H7 5619   3.085   0.758  16.859 -1.5443 -1.1676 -0.1638
  376TMC3    C1 5620   3.421   0.406  16.477  0.1157 -0.2196 -0.3522
  376TMC3    C2 5621   3.546   0.351  16.486 -0.3414  0.6902  0.4187
  376TMC3    C3 5622   3.610   0.306  16.375  0.4453  0.0762  0.4083
  376TMC3    C4 5623   3.361   0.423  16.351  0.1778  0.2153 -0.0740
  376TMC3    C5 5624   3.425   0.367  16.245 -0.4280  0.5410  0.1474
  376TMC3    C6 5625   3.542   0.300  16.253 -0.4253 -0.0740  0.5309
  376TMC3     C 5626   3.363   0.473  16.588  0.0083  1.0059 -0.0659
  376TMC3     O 5627   3.284   0.561  16.547  0.1811 -0.6197  0.1223
  376TMC3     H 5628   3.597   0.365  16.581  1.1148  1.1324 -0.4247
  376TMC3    H1 5629   3.266   0.475  16.343 -0.4656 -0.6606  2.0551
  376TMC3    H2 5630   3.588   0.276  16.158  0.7926 -0.0646  1.1125
  376TMC3    C7 5631   3.389   0.405  16.110 -0.2329  0.4187  0.0279
  376TMC3    C8 5632   3.757   0.317  16.366 -0.0601 -0.4434  0.0999
  376TMC3    O1 5633   3.469   0.400  16.017  0.4988 -0.4058 -0.0560
  376TMC3    O2 5634   3.815   0.297  16.258  0.2359  0.7216 -0.9316
  377MPD2     C 5635   1.178   0.364  12.171 -0.1112 -0.3178  0.9157
  377MPD2    C1 5636   1.252   0.311  12.273  0.7658 -0.4788  0.7542
  377MPD2    C2 5637   1.193   0.302  12.397  0.0265 -0.5698  0.1916
  377MPD2    C3 5638   1.057   0.344  12.420 -0.2885 -0.9923 -0.2205
  377MPD2    C4 5639   0.988   0.395  12.317  0.4803 -0.5132 -0.2774
  377MPD2    C5 5640   1.054   0.416  12.203  0.4815  0.2091  0.3571
  377MPD2     H 5641   1.256   0.258  12.474  2.4766 -1.1797 -2.1765
  377MPD2    H1 5642   0.883   0.421  12.322  0.7776  1.0678 -2.4770
  377MPD2    H2 5643   1.217   0.390  12.074 -0.3812  0.2143  0.9473
  377MPD2    H3 5644   0.992   0.477  12.139 -1.6668  0.3617  2.5652
  377MPD2     N 5645   0.979   0.323  12.534  0.3151 -0.0863  0.1502
  377MPD2    H5 5646   0.890   0.370  12.536  0.2863 -0.0923 -1.1810
  377MPD2    N1 5647   1.380   0.261  12.251  0.4759  0.0233  0.0011
  377MPD2    H7 5648   1.425   0.220  12.332  0.7312 -0.6566 -0.4860
  378TMC3    C1 5649   1.751   0.142  11.983 -0.7424 -0.2202 -0.0784
  378TMC3    C2 5650   1.619   0.150  12.006 -0.5455 -0.6369  0.2982
  378TMC3    C3 5651   1.576   0.193  12.131 -0.8610  0.2063 -0.2695
  378TMC3    C4 5652   1.848   0.171  12.079 -0.6314 -0.1354  0.1192
  378TMC3    C5 5653   1.795   0.227  12.194  0.0621 -0.0066  0.4799
  378TMC3    C6 5654   1.662   0.235  12.226  0.5235 -0.4455  0.1415
  378TMC3     C 5655   1.795   0.108  11.848  0.7721  0.1795 -0.0301
  378TMC3     O 5656   1.712   0.117  11.760  0.1775  0.9183  0.2036
  378TMC3     H 5657   1.548   0.118  11.930  1.5925 -3.0456 -0.7052
  378TMC3    H1 5658   1.953   0.144  12.074 -0.8731 -1.1325  0.4155
  378TMC3    H2 5659   1.635   0.296  12.311  1.0316 -0.5591  0.3832
  378TMC3    C7 5660   1.881   0.253  12.308 -0.2086 -0.2675 -0.9386
  378TMC3    C8 5661   1.441   0.249  12.129 -0.4367  0.2602 -0.1596
  378TMC3    O1 5662   1.827   0.262  12.420 -0.3644  0.1840 -0.2734
  378TMC3    O2 5663   1.402   0.265  12.013  0.3115 -0.1090 -0.2789
  379MPD2     C 5664   2.438   3.246  15.673  0.0530  0.1056 -0.4374
  379MPD2    C1 5665   2.358   3.244  15.782  0.7336 -0.5053 -0.2116
  379MPD2    C2 5666   2.408   3.212  15.911 -0.7414 -0.7085 -0.7302
  379MPD2    C3 5667   2.546   3.188  15.921  0.2682  0.0297 -0.5903
  379MPD2    C4 5668   2.628   3.194  15.811  0.1392  0.4378  0.4203
  379MPD2    C5 5669   2.569   3.219  15.689  0.0516 -0.1141  0.3772
  379MPD2     H 5670   2.348   3.214  16.002 -1.4099 -0.6604 -1.1742
  379MPD2    H1 5671   2.735   3.176  15.801 -0.1060 -2.0109  2.4098
  379MPD2    H2 5672   2.395   3.258  15.574 -1.0665 -0.6810 -0.0427
  379MPD2    H3 5673   2.630   3.207  15.600 -0.1692  1.1259  0.0563
  379MPD2     N 5674   2.610   3.139  16.037  0.0683 -0.2741 -0.0500
  379MPD2    H5 5675   2.707   3.110  16.030 -0.1149 -1.4261  2.2315
  379MPD2    N1 5676   2.216   3.264  15.758 -0.3416 -0.3670  0.2644
  379MPD2    H7 5677   2.195   3.298  15.665 -2.9144  0.0536  1.0026
  380TMC3    C1 5678   2.000   3.193  15.784 -0.0679  0.8419 -0.9068
  380TMC3    C2 5679   2.040   3.095  15.700  0.3282 -0.2036  0.3502
  380TMC3    C3 5680   1.979   3.074  15.574  0.6136 -0.7179 -0.1931
  380TMC3    C4 5681   1.910   3.289  15.734  0.0270  0.0180 -0.5145
  380TMC3    C5 5682   1.844   3.259  15.612  0.4693 -0.7085 -0.3963
  380TMC3    C6 5683   1.886   3.164  15.523  0.4154  0.1228  0.0782
  380TMC3     C 5684   2.120   3.240  15.851 -0.1765 -0.8859  0.3552
  380TMC3     O 5685   2.124   3.225  15.972 -0.4757  0.7117 -0.2155
  380TMC3     H 5686   2.110   3.021  15.737  0.9115 -1.0774 -2.5044
  380TMC3    H1 5687   1.891   3.385  15.780 -2.6922 -0.5119 -0.5546
  380TMC3    H2 5688   1.833   3.144  15.431  1.6199  1.4784 -0.9074
  380TMC3    C7 5689   1.750   3.361  15.562  0.2118  0.2715 -0.4548
  380TMC3    C8 5690   2.072   3.043  15.464  0.1134 -0.1642 -0.1259
  380TMC3    O1 5691   1.770   3.476  15.600  0.1804  0.4109 -0.2136
  380TMC3    O2 5692   2.048   3.087  15.355  0.2412  0.2159 -0.4098
  381TMC3    C1 5693   1.404   4.577  15.921 -0.1256 -0.0211 -0.9878
  381TMC3    C2 5694   1.530   4.594  15.869 -0.2308 -0.3904 -0.1979
  381TMC3    C3 5695   1.636   4.514  15.908  0.0905  0.0982 -0.1801
  381TMC3    C4 5696   1.381   4.486  16.019  0.2431 -0.9724  0.8690
  381TMC3    C5 5697   1.495   4.410  16.058 -0.0639  0.3527 -0.3463
  381TMC3    C6 5698   1.618   4.411  16.000  0.1775  0.0534  0.2163
  381TMC3     C 5699   1.287   4.641  15.858 -0.0139  0.4522  0.3937
  381TMC3     O 5700   1.181   4.580  15.863  0.4018 -0.1149 -0.6718
  381TMC3     H 5701   1.533   4.665  15.787  1.8315  0.5692  0.6959
  381TMC3    H1 5702   1.280   4.482  16.059  0.8538  0.1313  2.5258
  381TMC3    H2 5703   1.702   4.348  16.028  1.9855  2.2679 -0.2920
  381TMC3    C7 5704   1.490   4.327  16.179  0.1483 -0.2176 -0.0337
  381TMC3    C8 5705   1.765   4.581  15.907 -0.7504  0.1299 -0.3823
  381TMC3    O1 5706   1.577   4.247  16.176 -0.0051 -0.2146 -0.9293
  381TMC3    O2 5707   1.869   4.509  15.897  0.4990 -0.4152 -0.6141
  382MPD2     C 5708   1.257   2.065  17.236  0.0733  0.6125 -0.3026
  382MPD2    C1 5709   1.119   2.076  17.217  0.5778 -0.3561 -0.1836
  382MPD2    C2 5710   1.053   1.952  17.212  0.2868 -0.1566  1.1131
  382MPD2    C3 5711   1.111   1.832  17.219  0.0277 -0.1175 -0.2441
  382MPD2    C4 5712   1.246   1.828  17.243  0.4356 -0.5776 -0.6145
  382MPD2    C5 5713   1.317   1.942  17.249 -0.4932 -0.4200 -0.3184
  382MPD2     H 5714   0.945   1.955  17.200  0.5409 -1.1721 -1.4528
  382MPD2    H1 5715   1.294   1.730  17.241  0.5046 -0.4956 -2.4983
  382MPD2    H2 5716   1.317   2.155  17.248  2.4676 -1.2466  1.5413
  382MPD2    H3 5717   1.421   1.944  17.278 -0.2114 -1.3368 -1.3134
  382MPD2     N 5718   1.043   1.710  17.214 -0.3843  0.4663  0.1598
  382MPD2    H5 5719   1.105   1.629  17.221 -1.5294 -0.6482 -2.5021
  382MPD2    N1 5720   1.054   2.202  17.202  0.1828  0.4297 -0.1316
  382MPD2    H7 5721   0.953   2.199  17.198  0.2760 -1.3296 -0.8770
  383TMC3    C1 5722   0.867   1.549  17.182  0.2426  0.2953 -0.5253
  383TMC3    C2 5723   0.768   1.510  17.099  0.0345 -0.1549 -0.0499
  383TMC3    C3 5724   0.741   1.379  17.090 -0.0401  0.3635  0.5644
  383TMC3    C4 5725   0.925   1.458  17.264 -0.1724  0.5697  0.4878
  383TMC3    C5 5726   0.869   1.335  17.269  0.8354  0.0137  0.2850
  383TMC3    C6 5727   0.784   1.286  17.178  0.2727  0.8060 -0.0994
  383TMC3     C 5728   0.903   1.692  17.197  0.2330 -0.8795  0.4896
  383TMC3     O 5729   0.812   1.772  17.172 -0.6351  0.0648 -0.3293
  383TMC3     H 5730   0.718   1.587  17.041 -0.8136 -0.4171  0.3474
  383TMC3    H1 5731   1.004   1.491  17.330 -0.5938  0.1605  1.1861
  383TMC3    H2 5732   0.751   1.183  17.174 -2.1356  1.5785 -0.6046
  383TMC3    C7 5733   0.912   1.250  17.381  0.2865  0.0629 -0.5840
  383TMC3    C8 5734   0.630   1.348  17.009  0.9633 -0.2397  0.0331
  383TMC3    O1 5735   1.022   1.281  17.432 -0.3627 -0.0779  0.2540
  383TMC3    O2 5736   0.546   1.433  16.985 -0.1151  0.6291  0.4738
  384MPD2     C 5737   2.647   3.520  11.853 -0.1675 -0.6200  0.4911
  384MPD2    C1 5738   2.695   3.446  11.960 -0.5022  0.3466 -0.1156
  384MPD2    C2 5739   2.820   3.380  11.950  0.1479 -0.1122 -1.1712
  384MPD2    C3 5740   2.907   3.405  11.846 -0.5986  0.5185  0.7997
  384MPD2    C4 5741   2.860   3.494  11.747  0.5369 -0.5785  0.1224
  384MPD2    C5 5742   2.730   3.538  11.749 -0.3588  0.0581  0.3489
  384MPD2     H 5743   2.844   3.308  12.028  1.5555  1.4393 -0.1720
  384MPD2    H1 5744   2.925   3.517  11.663  1.4362 -0.7048  0.7878
  384MPD2    H2 5745   2.550   3.567  11.843 -1.0932 -1.8188  3.6198
  384MPD2    H3 5746   2.692   3.592  11.663 -0.8633 -0.1004  0.4754
  384MPD2     N 5747   3.033   3.344  11.834 -0.7209  0.3236 -0.2074
  384MPD2    H5 5748   3.082   3.360  11.747  0.1427 -1.5477 -0.0599
  384MPD2    N1 5749   2.621   3.421  12.078  0.4726  0.9974  0.8481
  384MPD2    H7 5750   2.672   3.370  12.150 -0.3168 -0.7384  0.1725
  385TMC3    C1 5751   3.226   3.213  11.892  0.0232 -0.3519 -0.1712
  385TMC3    C2 5752   3.228   3.166  11.764 -0.5116  0.8527 -0.2347
  385TMC3    C3 5753   3.254   3.034  11.736 -0.9794 -0.8232  1.0286
  385TMC3    C4 5754   3.265   3.128  11.992 -0.6100 -0.2770 -0.6596
  385TMC3    C5 5755   3.281   2.992  11.967 -0.2727  0.2640 -0.0597
  385TMC3    C6 5756   3.286   2.946  11.842  0.3305 -0.0167  0.0139
  385TMC3     C 5757   3.105   3.283  11.932 -0.3847 -0.9415  0.2839
  385TMC3     O 5758   3.084   3.274  12.050 -0.5959  0.4168 -0.3102
  385TMC3     H 5759   3.181   3.223  11.684  1.8296  2.2753 -0.6010
  385TMC3    H1 5760   3.268   3.157  12.096  2.1075 -1.4027 -0.4326
  385TMC3    H2 5761   3.276   2.840  11.822 -0.2698  0.0061  0.1912
  385TMC3    C7 5762   3.213   2.897  12.054 -0.1899  0.0201  0.1559
  385TMC3    C8 5763   3.251   2.982  11.598 -0.3441  0.4861  0.2066
  385TMC3    O1 5764   3.223   2.780  12.032  0.8759  0.3485 -0.2587
  385TMC3    O2 5765   3.274   3.058  11.502  0.0694  0.2458 -0.1618
  386TMC3    C1 5766   3.202   0.484  12.128 -0.1303  0.0462 -0.3897
  386TMC3    C2 5767   3.197   0.411  12.009  0.1321  0.7249  0.1033
  386TMC3    C3 5768   3.080   0.394  11.943 -0.1914 -0.8680  0.3905
  386TMC3    C4 5769   3.092   0.554  12.172 -0.3567 -0.1557 -0.5634
  386TMC3    C5 5770   2.978   0.530  12.097  0.2214  0.6938 -0.4539
  386TMC3    C6 5771   2.967   0.455  11.984 -0.1992  0.6342  0.4050
  386TMC3     C 5772   3.332   0.506  12.203 -0.0980  0.4000 -0.0947
  386TMC3     O 5773   3.347   0.609  12.259 -0.1094 -0.3622  0.7337
  386TMC3     H 5774   3.290   0.384  11.961  0.6888  2.4756  0.2087
  386TMC3    H1 5775   3.089   0.611  12.264  1.8527 -2.4673  0.9549
  386TMC3    H2 5776   2.874   0.416  11.945 -0.8988  2.9669 -0.2320
  386TMC3    C7 5777   2.850   0.584  12.132  0.1034 -1.0421 -0.1311
  386TMC3    C8 5778   3.078   0.367  11.801  0.5665 -0.0013  0.1859
  386TMC3    O1 5779   2.811   0.589  12.247 -0.1654  0.2658  0.1634
  386TMC3    O2 5780   2.983   0.421  11.744 -0.2521 -0.2426  0.0457
  387MPD2     C 5781   0.562   0.573   9.844  0.3395 -0.4132 -0.4496
  387MPD2    C1 5782   0.677   0.511   9.883  0.8802  0.3853  1.0200
  387MPD2    C2 5783   0.753   0.430   9.796 -0.1071 -0.7698 -0.1844
  387MPD2    C3 5784   0.696   0.402   9.675 -0.6183 -0.2382  0.2359
  387MPD2    C4 5785   0.584   0.460   9.631 -0.0823  0.2641 -0.1494
  387MPD2    C5 5786   0.519   0.550   9.715  0.0677 -0.3674 -0.3866
  387MPD2     H 5787   0.852   0.398   9.825 -0.1199  0.3729  1.1741
  387MPD2    H1 5788   0.560   0.449   9.526 -2.8435 -1.3177  0.6411
  387MPD2    H2 5789   0.503   0.639   9.907 -0.7856 -2.2386  0.4192
  387MPD2    H3 5790   0.428   0.595   9.676  1.0861  0.6048 -1.6152
  387MPD2     N 5791   0.764   0.303   9.597  0.4588  0.1619  0.4082
  387MPD2    H5 5792   0.851   0.274   9.640  0.8115 -1.4120 -1.4053
  387MPD2    N1 5793   0.728   0.527  10.012  0.4324 -0.3554 -1.0063
  387MPD2    H7 5794   0.821   0.492  10.030  1.7544  5.4435  3.2969
  388TMC3    C1 5795   0.771   0.608  10.211 -0.5296  0.3732  0.4104
  388TMC3    C2 5796   0.823   0.722  10.255 -0.6331 -0.4901  0.9555
  388TMC3    C3 5797   0.917   0.717  10.354 -0.1323 -0.3686  0.1934
  388TMC3    C4 5798   0.822   0.480  10.244  0.2438  0.3492 -0.3546
  388TMC3    C5 5799   0.919   0.479  10.342  0.8507  0.5845 -0.2647
  388TMC3    C6 5800   0.957   0.593  10.401  0.2144 -0.8200  0.3421
  388TMC3     C 5801   0.679   0.614  10.105  0.5187 -0.0366 -0.1258
  388TMC3     O 5802   0.601   0.707  10.094 -0.3038  0.7812  0.2624
  388TMC3     H 5803   0.793   0.816  10.211 -2.2371 -1.4923 -0.1141
  388TMC3    H1 5804   0.775   0.391  10.205 -0.3007  0.3127  0.3701
  388TMC3    H2 5805   1.014   0.596  10.494 -0.6422 -2.5460  0.9261
  388TMC3    C7 5806   1.022   0.372  10.325 -0.6020  0.3556 -0.4205
  388TMC3    C8 5807   0.943   0.832  10.440 -0.1698 -0.6284 -0.3472
  388TMC3    O1 5808   1.130   0.403  10.359  0.3393  0.0179 -0.3680
  388TMC3    O2 5809   0.982   0.822  10.554  0.0795 -0.0623  0.0658
  389MPD2     C 5810   0.079   3.577  10.542 -0.2217 -0.2480 -0.5284
  389MPD2    C1 5811   4.670   3.551  10.520  0.3635 -0.4166 -0.2751
  389MPD2    C2 5812   4.590   3.522  10.624 -0.0578 -0.2942 -0.3143
  389MPD2    C3 5813   4.636   3.538  10.750 -0.1201  0.5688 -0.4073
  389MPD2    C4 5814   0.037   3.587  10.771  0.2182  0.4866  0.9171
  389MPD2    C5 5815   0.124   3.598  10.666  0.3483  0.3964  0.5382
  389MPD2     H 5816   4.483   3.510  10.612 -0.2028  1.0413 -0.3480
  389MPD2    H1 5817   0.085   3.592  10.868  0.2996 -0.2939  0.9151
  389MPD2    H2 5818   0.141   3.607  10.458 -1.1765 -1.6155 -1.7287
  389MPD2    H3 5819   0.230   3.621  10.679  0.5420 -1.0195  1.4944
  389MPD2     N 5820   4.560   3.503  10.863  0.0508 -0.0092 -0.1208
  389MPD2    H5 5821   4.596   3.532  10.953 -0.7549  1.4159 -0.2492
  389MPD2    N1 5822   4.630   3.550  10.388 -0.4684 -0.6467 -0.2932
  389MPD2    H7 5823   4.707   3.573  10.327 -0.1898 -2.3510 -0.6020
  390TMC3    C1 5824   4.402   3.385  10.992 -0.3351  0.4539 -1.0466
  390TMC3    C2 5825   4.308   3.285  10.999  0.3956  0.5407 -0.0527
  390TMC3    C3 5826   4.244   3.273  11.115 -0.1923 -0.8419 -0.2979
  390TMC3    C4 5827   4.443   3.455  11.099  0.5370 -0.5995  0.1680
  390TMC3    C5 5828   4.385   3.429  11.224 -0.0218  0.5377  0.3166
  390TMC3    C6 5829   4.280   3.340  11.222  0.2870  0.3557 -0.2192
  390TMC3     C 5830   4.455   3.413  10.859  0.5767 -0.3897 -0.0880
  390TMC3     O 5831   4.417   3.354  10.755 -0.0767 -0.1305  0.4173
  390TMC3     H 5832   4.280   3.229  10.911 -0.5399 -2.5307  2.1637
  390TMC3    H1 5833   4.500   3.547  11.090  2.0932 -1.6871 -1.0191
  390TMC3    H2 5834   4.213   3.329  11.306 -0.6606  1.1124 -0.8733
  390TMC3    C7 5835   4.398   3.525  11.334 -0.4986  0.5768  0.5581
  390TMC3    C8 5836   4.163   3.154  11.136  0.1336  0.2431 -0.2230
  390TMC3    O1 5837   4.440   3.637  11.320  0.0775 -0.8903 -0.1440
  390TMC3    O2 5838   4.141   3.085  11.042  0.0514 -0.2493 -0.7919
  391MPD2     C 5839   3.922   0.136  11.490 -0.4631 -0.0157 -0.6918
  391MPD2    C1 5840   3.944   0.248  11.413  0.5583 -0.4319  0.2250
  391MPD2    C2 5841   3.957   0.233  11.279  0.2593 -0.9246 -0.0086
  391MPD2    C3 5842   3.965   0.109  11.218  0.4767  0.4398 -0.4929
  391MPD2    C4 5843   3.955   4.721  11.294  0.3720 -0.2358  0.2836
  391MPD2    C5 5844   3.934   0.009  11.434  0.1222 -0.2351  0.6952
  391MPD2     H 5845   3.951   0.320  11.215  1.1398 -1.3351 -0.6551
  391MPD2    H1 5846   3.976   4.622  11.255  0.1259 -1.6931  3.8388
  391MPD2    H2 5847   3.917   0.145  11.598 -1.1046  1.1797 -0.8119
  391MPD2    H3 5848   3.934   4.644  11.496  0.7757  0.2168  1.3441
  391MPD2     N 5849   3.969   0.111  11.082  0.6014 -0.4824 -0.5335
  391MPD2    H5 5850   3.971   0.202  11.037  0.2214 -0.9020 -1.4000
  391MPD2    N1 5851   3.955   0.367  11.489 -0.9438 -0.1561 -0.9474
  391MPD2    H7 5852   3.958   0.355  11.590  0.6107 -2.0594 -1.2182
  392TMC3    C1 5853   3.994   0.036  10.862  0.3852  0.3041  1.2682
  392TMC3    C2 5854   3.949   4.657  10.772  0.1856 -0.1386 -0.1139
  392TMC3    C3 5855   4.026   4.642  10.664 -0.3740  0.1916  0.6784
  392TMC3    C4 5856   4.099   0.117  10.828  0.3680  0.6481 -0.6567
  392TMC3    C5 5857   4.148   0.114  10.705 -0.0961  0.0944 -0.1706
  392TMC3    C6 5858   4.127   0.005  10.628 -0.1857 -0.7343  0.6297
  392TMC3     C 5859   3.977   4.724  11.002  0.0724  0.2976 -0.5562
  392TMC3     O 5860   3.943   4.605  11.022  0.1965  0.0619 -0.2558
  392TMC3     H 5861   3.864   4.594  10.795  0.0458  0.1941  0.2861
  392TMC3    H1 5862   4.133   0.194  10.897 -0.1095  0.1867  0.0845
  392TMC3    H2 5863   4.182   4.722  10.535 -1.8047 -1.2947 -0.2891
  392TMC3    C7 5864   4.262   0.205  10.685 -0.0544  0.2445  0.4162
  392TMC3    C8 5865   3.961   4.568  10.560  0.5994  0.4303  0.2051
  392TMC3    O1 5866   4.266   0.298  10.763  0.4072  0.0921 -0.3680
  392TMC3    O2 5867   3.839   4.582  10.565 -0.0186  0.0413  0.1549
  393TMC3    C1 5868   2.681   2.620  10.194  0.6674 -0.0055 -0.2044
  393TMC3    C2 5869   2.632   2.630  10.323 -0.3701 -0.5609  0.2649
  393TMC3    C3 5870   2.714   2.586  10.423 -0.2499  0.0736  0.2724
  393TMC3    C4 5871   2.789   2.547  10.149  0.4698 -0.0022 -0.7372
  393TMC3    C5 5872   2.861   2.497  10.251  0.1918 -1.1347  0.3849
  393TMC3    C6 5873   2.830   2.517  10.382 -0.4843 -0.1057 -0.0721
  393TMC3     C 5874   2.672   2.731  10.106 -0.2570  1.5296 -0.5866
  393TMC3     O 5875   2.584   2.730  10.022  0.5903 -0.1013  0.6580
  393TMC3     H 5876   2.543   2.685  10.352  0.1487 -0.7452  2.2019
  393TMC3    H1 5877   2.815   2.544  10.044  2.4842  0.4584 -0.2529
  393TMC3    H2 5878   2.897   2.477  10.456 -0.0723  1.5717  0.4534
  393TMC3    C7 5879   3.002   2.460  10.231 -0.1178  0.1449 -0.5427
  393TMC3    C8 5880   2.685   2.612  10.564  0.9391  0.4917  0.4714
  393TMC3    O1 5881   3.066   2.406  10.320  0.0768  0.4827 -0.7480
  393TMC3    O2 5882   2.571   2.632  10.600  0.4951 -0.0433  0.5613
  394TMC3    C1 5883   4.496   3.547  10.198  0.1428 -0.4670  0.3828
  394TMC3    C2 5884   4.370   3.584  10.149  0.1544 -0.7291  0.2873
  394TMC3    C3 5885   4.364   3.643  10.023 -0.3925  0.4374  0.1661
  394TMC3    C4 5886   4.608   3.564  10.118  0.5437 -0.1062 -0.3080
  394TMC3    C5 5887   4.591   3.600   9.984 -0.0338 -0.1809  0.1708
  394TMC3    C6 5888   4.469   3.649   9.942 -0.0876  0.1758  0.3372
  394TMC3     C 5889   4.507   3.527  10.337  0.6737 -0.1013 -0.0130
  394TMC3     O 5890   4.408   3.491  10.392  0.4133 -0.2380  0.6243
  394TMC3     H 5891   4.284   3.569  10.212 -0.8846 -0.1896 -0.9981
  394TMC3    H1 5892   4.713   3.551  10.144  0.4239  1.0481  0.7410
  394TMC3    H2 5893   4.460   3.690   9.842 -2.1981 -1.5457 -0.1901
  394TMC3    C7 5894   4.708   3.626   9.902  0.2209 -1.4233 -0.4120
  394TMC3    C8 5895   4.233   3.631   9.954  0.4347  0.0940 -0.1695
  394TMC3    O1 5896   4.688   3.703   9.805 -0.6564 -0.4528  0.4583
  394TMC3    O2 5897   4.148   3.705  10.001  0.2575 -0.1037 -0.5245
  395TMC3    C1 5898   4.220   0.492  14.601  0.2561  0.0326 -0.5673
  395TMC3    C2 5899   4.097   0.543  14.558 -0.4300  0.4699 -0.2673
  395TMC3    C3 5900   4.073   0.673  14.556  0.6164  0.8045 -0.7055
  395TMC3    C4 5901   4.325   0.580  14.619 -1.3681  0.1455 -0.0693
  395TMC3    C5 5902   4.301   0.709  14.604  0.4303 -0.2378 -0.0442
  395TMC3    C6 5903   4.179   0.761  14.573  0.3655 -0.1880 -0.7365
  395TMC3     C 5904   4.197   0.429  14.729  0.3538  0.2393  0.0990
  395TMC3     O 5905   4.084   0.445  14.776  0.0916  0.1867  0.0056
  395TMC3     H 5906   4.011   0.479  14.547  0.1635 -0.3791  0.0144
  395TMC3    H1 5907   4.426   0.543  14.635 -1.3358  0.5855  0.7499
  395TMC3    H2 5908   4.165   0.868  14.575 -2.4594 -0.5331 -0.7421
  395TMC3    C7 5909   4.408   0.810  14.613  0.0884 -0.3947 -0.9238
  395TMC3    C8 5910   3.945   0.734  14.602 -0.0350 -0.3554 -1.1396
  395TMC3    O1 5911   4.383   0.926  14.638 -0.1018  0.0766  0.0354
  395TMC3    O2 5912   3.931   0.855  14.604 -0.5493 -0.0167 -0.1030
  396MPD2     C 5913   3.833   1.653  16.858 -0.2890  0.5296 -0.1535
  396MPD2    C1 5914   3.944   1.682  16.935 -0.0855 -0.2009  0.0575
  396MPD2    C2 5915   4.044   1.752  16.875 -0.1818 -0.0422 -0.0039
  396MPD2    C3 5916   4.020   1.803  16.743  0.4380  0.2657 -0.8898
  396MPD2    C4 5917   3.901   1.779  16.674 -0.0956 -0.5426 -0.6018
  396MPD2    C5 5918   3.816   1.692  16.733  0.2305  0.0220 -0.1865
  396MPD2     H 5919   4.135   1.790  16.921  0.2393 -1.5035  0.3650
  396MPD2    H1 5920   3.887   1.808  16.570 -2.5508  0.9788  0.1411
  396MPD2    H2 5921   3.752   1.596  16.901 -0.9741 -0.8793 -3.3130
  396MPD2    H3 5922   3.726   1.669  16.678 -0.9119 -2.4410  2.7035
  396MPD2     N 5923   4.126   1.887  16.690  0.2850  0.2790  0.4957
  396MPD2    H5 5924   4.197   1.925  16.753  0.1593 -0.0708  0.8410
  396MPD2    N1 5925   3.958   1.627  17.069 -0.1702 -0.4337 -0.5432
  396MPD2    H7 5926   3.903   1.543  17.088  0.4387 -0.8270 -0.5180
  397TMC3    C1 5927   4.106   1.514  17.211  0.1767  0.7728  0.5701
  397TMC3    C2 5928   4.223   1.470  17.161 -0.2654 -0.3560  1.0525
  397TMC3    C3 5929   4.228   1.370  17.072 -0.2871  0.1484 -0.2706
  397TMC3    C4 5930   4.004   1.416  17.215 -0.2415  0.8162 -0.3135
  397TMC3    C5 5931   4.026   1.298  17.157  0.5973  0.4299  0.0745
  397TMC3    C6 5932   4.133   1.271  17.078  0.0661  1.2061  0.0483
  397TMC3     C 5933   4.074   1.634  17.138 -0.3871 -0.1461  1.0990
  397TMC3     O 5934   4.160   1.718  17.135 -0.0595 -0.6756  0.1907
  397TMC3     H 5935   4.300   1.546  17.157  1.3559 -2.0303  0.1097
  397TMC3    H1 5936   3.909   1.446  17.257 -1.2316 -2.2882 -0.3199
  397TMC3    H2 5937   4.138   1.191  17.006  3.1870  3.0739 -1.8069
  397TMC3    C7 5938   3.951   1.183  17.202  0.0350  0.4248  0.2058
  397TMC3    C8 5939   4.265   1.404  16.931 -0.1123 -0.1035  1.2685
  397TMC3    O1 5940   3.941   1.090  17.122  0.0484  0.4215  0.0409
  397TMC3    O2 5941   4.188   1.367  16.842 -0.1727 -0.1206 -0.3885
  398MPD2     C 5942   1.991   2.102  17.570 -0.2920 -0.4925 -0.1913
  398MPD2    C1 5943   2.091   2.086  17.663  0.1304  0.6870  0.6640
  398MPD2    C2 5944   2.151   2.204   0.003 -0.5407 -0.3239  0.9020
  398MPD2    C3 5945   2.132   2.327  17.634  0.0700  0.5358 -0.2456
  398MPD2    C4 5946   2.051   2.328  17.528  0.3991 -0.0867 -0.0852
  398MPD2    C5 5947   1.970   2.219  17.506  0.4777 -0.7194  0.1235
  398MPD2     H 5948   2.217   2.192   0.088  1.9795  1.2863 -0.8487
  398MPD2    H1 5949   2.042   2.414  17.463  3.0066 -0.2400 -0.6281
  398MPD2    H2 5950   1.936   2.020  17.525 -0.9047  1.0105 -2.1640
  398MPD2    H3 5951   1.894   2.220  17.428  1.1346 -1.2205 -0.5204
  398MPD2     N 5952   2.200   2.442  17.673 -0.4757  0.0544  0.1555
  398MPD2    H5 5953   2.276   2.436   0.045 -0.3443  1.2427  0.1032
  398MPD2    N1 5954   2.108   1.968   0.044 -0.2383  0.7796  0.0112
  398MPD2    H7 5955   2.164   1.985   0.127 -2.3031  0.2073  1.5439
  399TMC3    C1 5956   2.057   1.743   0.111 -0.2473 -0.1263 -0.5055
  399TMC3    C2 5957   2.121   1.776   0.231 -0.3400  0.0546 -0.2403
  399TMC3    C3 5958   2.133   1.667   0.319  0.5733 -0.4119  0.3142
  399TMC3    C4 5959   2.010   1.614   0.082  0.1660 -0.3825 -0.0447
  399TMC3    C5 5960   2.038   1.519   0.175 -0.4740  1.0464 -0.2987
  399TMC3    C6 5961   2.102   1.535   0.289  0.3817  0.0308  0.3268
  399TMC3     C 5962   2.047   1.847   0.013 -0.3201 -0.0154 -0.1241
  399TMC3     O 5963   2.016   1.811  17.597 -0.4994 -0.6965 -0.1218
  399TMC3     H 5964   2.126   1.878   0.268 -0.0800  0.2599 -0.8347
  399TMC3    H1 5965   1.945   1.603  17.693  0.5093  0.0322 -0.3606
  399TMC3    H2 5966   2.124   1.452   0.357  0.7675  0.5906  0.8837
  399TMC3    C7 5967   1.988   1.387   0.160 -0.7460 -0.2388  0.0767
  399TMC3    C8 5968   2.164   1.689   0.455  0.2465  0.0839 -0.4410
  399TMC3    O1 5969   1.985   1.321   0.264 -0.0980  0.7275 -0.2568
  399TMC3    O2 5970   2.238   1.781   0.483  0.5074  0.1231 -0.1172
  400TMC3    C1 5971   0.813   1.094  16.593 -0.2007 -0.4156 -0.2498
  400TMC3    C2 5972   0.679   1.105  16.561 -0.4304  0.5362 -0.2055
  400TMC3    C3 5973   0.646   1.218  16.492  0.4361  0.0952 -0.3600
  400TMC3    C4 5974   0.901   1.182  16.541  0.0925  0.0644  0.2619
  400TMC3    C5 5975   0.866   1.281  16.457 -0.0593 -0.3750 -0.0107
  400TMC3    C6 5976   0.735   1.303  16.436  1.0575  0.5116 -0.2634
  400TMC3     C 5977   0.848   1.005  16.700 -0.3962 -0.2759 -0.5607
  400TMC3     O 5978   0.789   0.899  16.720  0.1557 -0.5277  0.1846
  400TMC3     H 5979   0.605   1.038  16.604 -2.2751  2.6096 -0.1834
  400TMC3    H1 5980   1.007   1.169  16.558 -0.2982 -3.1918  0.2970
  400TMC3    H2 5981   0.702   1.396  16.392  1.5505  0.3000 -1.0672
  400TMC3    C7 5982   0.974   1.371  16.421  0.4573 -0.6161  0.0835
  400TMC3    C8 5983   0.513   1.215  16.419 -0.1758  0.2809  0.1199
  400TMC3    O1 5984   1.075   1.304  16.401 -0.4435  0.0636  0.0640
  400TMC3    O2 5985   0.450   1.323  16.429 -0.2635 -0.1582 -0.2300
  401MPD2     C 5986   3.702   0.136   1.525 -0.4987 -0.3997 -0.1057
  401MPD2    C1 5987   3.834   0.131   1.471 -0.0145  0.5492 -0.5696
  401MPD2    C2 5988   3.883   0.004   1.450 -1.0478  0.0921 -0.1244
  401MPD2    C3 5989   3.825   4.616   1.496  0.0017  0.8766  0.0262
  401MPD2    C4 5990   3.709   4.621   1.571 -0.2279 -0.2469  0.2531
  401MPD2    C5 5991   3.646   0.022   1.583  1.1793 -0.4109 -0.5174
  401MPD2     H 5992   3.973   4.707   1.393 -0.5307 -1.8288  1.4157
  401MPD2    H1 5993   3.655   4.537   1.612  0.6944 -1.3879 -0.8652
  401MPD2    H2 5994   3.654   0.231   1.544 -1.7992 -0.5170 -2.9205
  401MPD2    H3 5995   3.548   0.024   1.629  1.0769 -4.2361 -0.5518
  401MPD2     N 5996   3.890   4.498   1.467 -0.3892  0.2386 -0.0536
  401MPD2    H5 5997   3.981   4.512   1.424 -0.0403  0.1224  0.6458
  401MPD2    N1 5998   3.917   0.242   1.444 -0.4069  0.1911 -0.1762
  401MPD2    H7 5999   3.997   0.219   1.386 -0.1060  2.7763 -0.7897
  402TMC3    C1 6000   3.945   4.286   1.443  0.6730 -0.2796 -0.0955
  402TMC3    C2 6001   3.935   4.163   1.493 -0.0245 -0.3749  0.1865
  402TMC3    C3 6002   4.003   4.069   1.421  0.0342 -0.7101  0.7062
  402TMC3    C4 6003   4.025   4.322   1.339  0.0899  0.5778  0.7823
  402TMC3    C5 6004   4.095   4.225   1.272 -0.1817 -0.3759  0.0093
  402TMC3    C6 6005   4.102   4.099   1.323  0.0574  0.4747 -0.0700
  402TMC3     C 6006   3.848   4.373   1.497 -0.5117 -0.9944 -0.0842
  402TMC3     O 6007   3.753   4.329   1.564  0.0757  0.2124  0.3527
  402TMC3     H 6008   3.875   4.149   1.582  1.9253  2.2068  1.9206
  402TMC3    H1 6009   4.030   4.421   1.294  0.6588  1.0377  1.8700
  402TMC3    H2 6010   4.160   4.022   1.272  0.7535  1.8173 -1.3337
  402TMC3    C7 6011   4.160   4.254   1.148 -0.1375 -0.3447 -0.6465
  402TMC3    C8 6012   3.987   3.930   1.450  0.6908  0.2454  0.1486
  402TMC3    O1 6013   4.205   4.366   1.139  0.1971 -0.9550  0.0566
  402TMC3    O2 6014   4.040   3.852   1.371  0.3185  0.0718  0.1004
  403MPD2     C 6015   2.103   3.001  12.997 -0.3563  0.1513 -0.0574
  403MPD2    C1 6016   2.137   2.873  13.048 -0.4770 -0.2317  0.0695
  403MPD2    C2 6017   2.208   2.874  13.170 -0.4584 -0.1725  0.1782
  403MPD2    C3 6018   2.225   2.989  13.243 -0.1952  0.0235  0.0103
  403MPD2    C4 6019   2.178   3.107  13.191  0.1508 -0.7082 -0.2466
  403MPD2    C5 6020   2.120   3.115  13.071 -0.6865 -0.0920  0.0480
  403MPD2     H 6021   2.236   2.779  13.214  0.0148  0.0303  0.3072
  403MPD2    H1 6022   2.188   3.203  13.239  0.7062 -0.4503 -0.8768
  403MPD2    H2 6023   2.047   2.999  12.905 -0.4705 -4.1503  0.0819
  403MPD2    H3 6024   2.086   3.208  13.028  0.4677  0.3227  0.0330
  403MPD2     N 6025   2.302   2.982  13.360 -0.5492  0.1452 -0.9925
  403MPD2    H5 6026   2.353   2.896  13.379 -1.9271 -0.1897  1.2169
  403MPD2    N1 6027   2.094   2.753  12.986  0.0207  0.7329 -0.2160
  403MPD2    H7 6028   2.067   2.755  12.889  1.7842 -0.0216 -0.7220
  404TMC3    C1 6029   2.041   2.516  12.974  0.6465 -0.6795  0.2151
  404TMC3    C2 6030   2.017   2.406  13.049 -0.4386 -0.4946 -0.7489
  404TMC3    C3 6031   2.010   2.288  12.981  0.5327  0.8065 -0.0146
  404TMC3    C4 6032   2.052   2.514  12.837  0.1247 -0.6624  0.2396
  404TMC3    C5 6033   2.039   2.394  12.765  0.3494  0.6104 -0.1329
  404TMC3    C6 6034   2.021   2.278  12.839  0.1465 -0.1493  0.8579
  404TMC3     C 6035   2.096   2.629  13.051  0.2492 -0.9689 -0.4993
  404TMC3     O 6036   2.111   2.617  13.170 -0.3663 -0.2903  0.3764
  404TMC3     H 6037   2.042   2.410  13.154  0.0347 -0.6174 -0.8613
  404TMC3    H1 6038   2.071   2.600  12.773 -2.9141 -1.0554 -1.1787
  404TMC3    H2 6039   2.006   2.177  12.803  0.2129  0.5238 -1.0391
  404TMC3    C7 6040   2.097   2.394  12.639 -0.5633 -0.2888  0.2089
  404TMC3    C8 6041   1.982   2.164  13.053 -0.6727 -0.0034  0.2193
  404TMC3    O1 6042   2.157   2.492  12.605  0.9188 -0.1091  0.3954
  404TMC3    O2 6043   2.021   2.061  13.004  1.4090 -0.2951 -0.1344
  405MPD2     C 6044   2.653   3.395  14.486  0.3549 -0.1211  0.6199
  405MPD2    C1 6045   2.593   3.279  14.438 -0.9083  1.3171  0.4658
  405MPD2    C2 6046   2.513   3.286  14.326  0.5035  0.4228 -0.2693
  405MPD2    C3 6047   2.482   3.404  14.262  0.2820  0.0043 -0.4437
  405MPD2    C4 6048   2.536   3.520  14.318  0.4110  0.2616 -0.6450
  405MPD2    C5 6049   2.626   3.505  14.425  0.1602 -0.5265  0.0865
  405MPD2     H 6050   2.463   3.197  14.292 -0.6369  2.2389 -3.3493
  405MPD2    H1 6051   2.527   3.611  14.260  1.6716  0.0632 -1.1507
  405MPD2    H2 6052   2.728   3.395  14.564 -0.6174  1.7264  1.5376
  405MPD2    H3 6053   2.687   3.592  14.446 -1.1326  0.1126  1.1988
  405MPD2     N 6054   2.389   3.394  14.153 -0.1723  0.1131  0.4399
  405MPD2    H5 6055   2.355   3.299  14.137 -0.4745  0.0994  1.1501
  405MPD2    N1 6056   2.626   3.160  14.498 -0.3133  0.4530 -0.2702
  405MPD2    H7 6057   2.656   3.166  14.594 -1.0112 -1.5355  0.0808
  406TMC3    C1 6058   2.030   3.470  13.901 -0.1432  0.3712  0.2416
  406TMC3    C2 6059   2.031   3.328  13.885 -0.3665 -0.1419 -0.0804
  406TMC3    C3 6060   2.149   3.258  13.883  0.7898  0.0339  0.3024
  406TMC3    C4 6061   2.143   3.535  13.946 -0.7036 -0.5535 -0.5325
  406TMC3    C5 6062   2.255   3.459  13.963 -0.1190 -0.0298  0.2865
  406TMC3    C6 6063   2.264   3.320  13.934  0.4350 -0.1598 -1.0411
  406TMC3     C 6064   1.907   3.513  13.957  0.6725  0.4077  0.0429
  406TMC3     O 6065   1.816   3.434  13.985  0.4418  0.1477  0.8153
  406TMC3     H 6066   1.940   3.271  13.869  1.1978 -2.5899 -0.3123
  406TMC3    H1 6067   2.145   3.637  13.981 -1.9663  0.0922 -2.3130
  406TMC3    H2 6068   2.360   3.269  13.930  1.2129  1.2358 -0.2806
  406TMC3    C7 6069   2.344   3.499  14.073  0.0455  0.5389 -0.4440
  406TMC3    C8 6070   2.138   3.110  13.892 -0.2219 -0.8415  0.3402
  406TMC3    O1 6071   2.378   3.616  14.072  0.0794 -0.0396 -0.2728
  406TMC3    O2 6072   2.032   3.059  13.853 -0.4053 -0.3396 -0.7813
  407MPD2     C 6073   0.112   0.210   9.469 -0.3592  0.8905  0.1470
  407MPD2    C1 6074   0.246   0.220   9.478 -0.8134  0.2604  0.0602
  407MPD2    C2 6075   0.294   0.238   9.603 -0.1542 -0.1532 -1.0820
  407MPD2    C3 6076   0.214   0.253   9.714  0.4754  0.2004  0.0341
  407MPD2    C4 6077   0.084   0.237   9.702  0.0937 -0.0336  0.5988
  407MPD2    C5 6078   0.028   0.219   9.575  0.5694  0.2396  0.2188
  407MPD2     H 6079   0.403   0.239   9.607 -0.2204 -2.3637  2.0812
  407MPD2    H1 6080   0.027   0.227   9.794 -1.7952 -1.6146 -0.7420
  407MPD2    H2 6081   0.070   0.202   9.369 -1.1648  1.1392  0.4622
  407MPD2    H3 6082   4.645   0.215   9.560  0.5094  2.2627  0.0319
  407MPD2     N 6083   0.259   0.278   9.843 -0.1164 -0.2347  0.0741
  407MPD2    H5 6084   0.192   0.278   9.919 -1.5294  2.6071 -1.1629
  407MPD2    N1 6085   0.334   0.197   9.368 -0.1614 -0.1698  0.2583
  407MPD2    H7 6086   0.431   0.225   9.380  0.4638 -1.7185 -1.0988
  408TMC3    C1 6087   0.410   0.137   9.152 -0.6760 -0.3791 -0.0942
  408TMC3    C2 6088   0.448   0.018   9.107  0.8899  0.4445 -0.4107
  408TMC3    C3 6089   0.573   0.011   9.047 -0.4012  0.0553  0.2046
  408TMC3    C4 6090   0.496   0.246   9.154  0.4371 -0.4106  0.7559
  408TMC3    C5 6091   0.625   0.234   9.102 -0.4161  0.1063 -0.4043
  408TMC3    C6 6092   0.671   0.114   9.052 -0.2884 -0.1466  0.0959
  408TMC3     C 6093   0.300   0.138   9.250  0.0749  0.0528  0.0769
  408TMC3     O 6094   0.201   0.070   9.223 -0.2911 -0.2097 -0.4508
  408TMC3     H 6095   0.388   4.652   9.124 -1.0598  1.8776  0.2242
  408TMC3    H1 6096   0.467   0.339   9.201 -1.6747 -0.1681 -1.0213
  408TMC3    H2 6097   0.766   0.099   9.002  0.4841 -1.6914  2.0399
  408TMC3    C7 6098   0.705   0.356   9.079  0.1090 -0.9571  0.0704
  408TMC3    C8 6099   0.618   4.602   9.012 -0.4336  0.5467 -0.2020
  408TMC3    O1 6100   0.636   0.457   9.071  0.8105  0.1070  0.1044
  408TMC3    O2 6101   0.533   4.524   8.969  0.8974 -0.9201 -0.2666
  409MPD2     C 6102   4.028   0.805  16.752  0.3501  0.2249 -0.6756
  409MPD2    C1 6103   4.104   0.844  16.857 -0.0286  0.2712  0.5688
  409MPD2    C2 6104   4.201   0.946  16.841  0.8776 -0.3905 -0.8367
  409MPD2    C3 6105   4.223   1.006  16.718 -0.3005  0.1009 -0.6004
  409MPD2    C4 6106   4.132   0.969  16.624  0.1676 -0.2330  0.6864
  409MPD2    C5 6107   4.035   0.875  16.642  0.1889  0.1317 -0.4232
  409MPD2     H 6108   4.265   0.972  16.924 -1.1842 -0.9615  0.9274
  409MPD2    H1 6109   4.137   1.014  16.525 -3.4560 -2.0821 -0.2992
  409MPD2    H2 6110   3.952   0.728  16.755  1.1202 -0.5180  0.0281
  409MPD2    H3 6111   3.966   0.853  16.562 -1.6519  3.0591  0.3675
  409MPD2     N 6112   4.330   1.096  16.687 -0.1860  0.3756  0.4072
  409MPD2    H5 6113   4.328   1.136  16.593 -1.4083 -0.0369  0.2608
  409MPD2    N1 6114   4.099   0.788  16.984  1.1323  0.1726  0.5472
  409MPD2    H7 6115   4.169   0.824  17.048 -0.5770  2.1622  1.3166
  410TMC3    C1 6116   4.516   1.229  16.720 -0.3233 -0.0118  0.2156
  410TMC3    C2 6117   4.646   1.222  16.762 -1.0089  0.4380  0.1690
  410TMC3    C3 6118   0.015   1.305  16.705 -0.0671 -0.1586  0.2509
  410TMC3    C4 6119   4.487   1.291  16.601 -0.5749 -0.1257  0.2999
  410TMC3    C5 6120   4.584   1.366  16.541 -0.4051 -0.2582 -0.2092
  410TMC3    C6 6121   4.712   1.385  16.592 -0.3234  0.1707  0.6499
  410TMC3     C 6122   4.436   1.121  16.771 -0.0245 -0.3713  0.0400
  410TMC3     O 6123   4.466   1.072  16.879 -0.1259  0.3462  0.2335
  410TMC3     H 6124   4.685   1.156  16.839  0.2928 -2.1664 -2.7204
  410TMC3    H1 6125   4.384   1.310  16.573 -0.4154  1.7621  0.9636
  410TMC3    H2 6126   0.075   1.427  16.542 -1.1002  1.3400  0.2847
  410TMC3    C7 6127   4.566   1.401  16.404  0.1142 -0.0621 -0.4839
  410TMC3    C8 6128   0.152   1.300  16.749 -0.2560  0.1940  0.3342
  410TMC3    O1 6129   4.476   1.343  16.346  0.1916  0.0899  0.3245
  410TMC3    O2 6130   0.211   1.405  16.739 -0.1732  0.2364  0.0053
  411MPD2     C 6131   4.652   1.292  14.398 -0.3094 -0.4712 -0.9100
  411MPD2    C1 6132   4.519   1.312  14.360 -0.3879 -0.2575 -0.1322
  411MPD2    C2 6133   4.435   1.215  14.312 -0.2192  0.7231 -0.2775
  411MPD2    C3 6134   4.480   1.087  14.290  0.8748  0.1762 -0.3544
  411MPD2    C4 6135   4.616   1.062  14.307 -0.7216  0.3642  0.9401
  411MPD2    C5 6136   4.698   1.163  14.365 -0.0847  1.2652  0.5998
  411MPD2     H 6137   4.330   1.228  14.289 -0.1076  2.1168 -0.0172
  411MPD2    H1 6138   4.662   0.965  14.302  0.5998  1.1227 -1.8815
  411MPD2    H2 6139   4.716   1.368  14.441 -0.1498 -0.7926 -0.5965
  411MPD2    H3 6140   0.078   1.137  14.382 -0.1372  0.6629  0.0156
  411MPD2     N 6141   4.403   0.984  14.240  0.1721  0.4994 -0.4590
  411MPD2    H5 6142   4.450   0.898  14.213 -2.5781 -1.0867 -0.2256
  411MPD2    N1 6143   4.455   1.440  14.373 -0.2364 -0.2482 -0.0195
  411MPD2    H7 6144   4.366   1.449  14.326  1.1719 -1.2541 -2.9352
  412TMC3    C1 6145   4.198   0.882  14.165 -0.2314 -0.1184 -0.3535
  412TMC3    C2 6146   4.068   0.847  14.190 -1.0687 -0.2589  0.5737
  412TMC3    C3 6147   3.992   0.809  14.086 -0.4696  0.3254 -0.2694
  412TMC3    C4 6148   4.255   0.852  14.041 -0.7452  0.2894  0.0232
  412TMC3    C5 6149   4.178   0.810  13.933  0.1192 -0.0107 -0.2061
  412TMC3    C6 6150   4.048   0.791  13.961  1.0577  0.3570  0.1943
  412TMC3     C 6151   4.267   0.978  14.254  0.2093 -0.2041  0.2518
  412TMC3     O 6152   4.192   1.048  14.319  0.1644 -0.5586 -0.5087
  412TMC3     H 6153   4.029   0.849  14.292 -0.9711  0.9727  0.5861
  412TMC3    H1 6154   4.346   0.905  14.013 -0.4048  0.4183  1.4113
  412TMC3    H2 6155   3.981   0.752  13.884  3.2729  0.3308 -1.7205
  412TMC3    C7 6156   4.170   0.885  13.808 -0.5182 -0.9584 -0.5119
  412TMC3    C8 6157   3.863   0.883  14.098  0.4769  0.3882 -0.8724
  412TMC3    O1 6158   4.068   0.955  13.813 -0.2519 -0.1300 -0.0031
  412TMC3    O2 6159   3.792   0.874  14.201 -0.2013  0.6826 -0.2289
  413MPD2     C 6160   1.815   0.144  14.998  0.2009 -0.4120  0.5345
  413MPD2    C1 6161   1.723   0.076  14.921 -0.0494 -0.4697 -0.1981
  413MPD2    C2 6162   1.751   4.671  14.878  0.2657  0.6779 -0.1142
  413MPD2    C3 6163   1.864   4.607  14.915  0.6212  0.0298 -0.1372
  413MPD2    C4 6164   1.956   4.673  14.999  0.4971 -0.3293 -0.2709
  413MPD2    C5 6165   1.927   0.077  15.039  0.8708 -0.3131  0.5639
  413MPD2     H 6166   1.684   4.613  14.814  1.5437 -0.1902 -0.6657
  413MPD2    H1 6167   2.052   4.635  15.033  0.0385  0.3721  1.7978
  413MPD2    H2 6168   1.804   0.249  15.022  0.9786 -0.5421  1.4656
  413MPD2    H3 6169   2.004   0.130  15.093  2.6659 -1.1473 -1.1896
  413MPD2     N 6170   1.883   4.474  14.871 -0.0588 -0.0081  0.6958
  413MPD2    H5 6171   1.804   4.434  14.821 -1.1223  0.7536  1.7758
  413MPD2    N1 6172   1.600   0.127  14.898 -0.3131 -0.8831  0.0996
  413MPD2    H7 6173   1.534   0.069  14.847 -2.0299 -0.5993  1.9907
  414TMC3    C1 6174   1.987   4.253  14.824 -0.5153  0.3405 -0.2744
  414TMC3    C2 6175   2.066   4.160  14.895 -0.4618 -0.1036  0.0093
  414TMC3    C3 6176   2.067   4.036  14.850 -0.3705 -0.0100 -0.0829
  414TMC3    C4 6177   1.919   4.216  14.705 -0.6882  0.4431 -0.3673
  414TMC3    C5 6178   1.943   4.096  14.650  0.1866 -0.3279  0.6295
  414TMC3    C6 6179   2.011   4.005  14.722  0.1239 -0.0839  0.1480
  414TMC3     C 6180   2.000   4.394  14.869 -1.0237 -0.4872  0.6635
  414TMC3     O 6181   2.106   4.427  14.918  0.1517 -0.6449  0.1856
  414TMC3     H 6182   2.102   4.188  14.993  0.2485  1.3401 -0.6709
  414TMC3    H1 6183   1.863   4.296  14.657 -0.9400  0.2453 -0.4006
  414TMC3    H2 6184   2.009   3.906  14.678 -0.4523  0.3416 -0.7931
  414TMC3    C7 6185   1.887   4.080  14.518  0.3384  0.0977 -0.0723
  414TMC3    C8 6186   2.159   3.938  14.907  0.6514 -0.4262  0.3181
  414TMC3    O1 6187   1.774   4.123  14.497  0.5142 -0.2813 -0.2646
  414TMC3    O2 6188   2.135   3.822  14.894  0.1557  0.3969  0.3525
  415TMC3    C1 6189   1.634   2.232   9.777  0.1314  0.1828 -0.3251
  415TMC3    C2 6190   1.661   2.256   9.644  0.0481  0.5940  0.0770
  415TMC3    C3 6191   1.630   2.154   9.556  0.1135 -0.0553 -0.9382
  415TMC3    C4 6192   1.570   2.113   9.825 -0.1234  0.3235 -0.1526
  415TMC3    C5 6193   1.526   2.020   9.731 -0.4894 -0.4752  0.8327
  415TMC3    C6 6194   1.565   2.042   9.599 -0.7449  0.0165  0.5926
  415TMC3     C 6195   1.689   2.320   9.877 -0.3760 -0.6620  0.8290
  415TMC3     O 6196   1.717   2.284   9.990  0.1010 -0.0569 -0.0744
  415TMC3     H 6197   1.730   2.336   9.621 -0.0548  0.7619  0.3486
  415TMC3    H1 6198   1.535   2.110   9.927 -2.2169 -4.6562 -1.0046
  415TMC3    H2 6199   1.548   1.964   9.525 -0.9814  0.5420  0.0947
  415TMC3    C7 6200   1.501   1.881   9.769  0.7251  0.0471 -0.5330
  415TMC3    C8 6201   1.708   2.147   9.437 -0.1509  0.4139 -0.6510
  415TMC3    O1 6202   1.473   1.813   9.676 -0.4332 -0.0546 -0.5962
  415TMC3    O2 6203   1.705   2.044   9.373 -0.2983 -0.0949 -0.1293
  416MPD2     C 6204   3.944   1.094  11.242  0.4525  0.6635  0.1376
  416MPD2    C1 6205   3.854   1.094  11.352 -0.0366  0.3615 -0.0780
  416MPD2    C2 6206   3.770   0.986  11.364 -0.2044 -0.0252  0.1635
  416MPD2    C3 6207   3.788   0.876  11.284  0.3100  0.1106  0.5858
  416MPD2    C4 6208   3.890   0.865  11.189  0.1613 -0.0455  0.4554
  416MPD2    C5 6209   3.961   0.980  11.173 -0.0605 -0.0709 -0.5156
  416MPD2     H 6210   3.685   0.994  11.432  0.5904 -1.2916  1.3085
  416MPD2    H1 6211   3.889   0.795  11.107 -0.6923  1.7856 -1.1121
  416MPD2    H2 6212   4.005   1.180  11.219 -1.2988  2.0979  0.8227
  416MPD2    H3 6213   4.031   0.995  11.092  0.8715  0.5275  0.3990
  416MPD2     N 6214   3.704   0.767  11.313  0.1694  0.1139 -0.4609
  416MPD2    H5 6215   3.648   0.772  11.398  0.3694 -1.2662 -0.2548
  416MPD2    N1 6216   3.845   1.213  11.431  0.2950 -0.0674 -0.1558
  416MPD2    H7 6217   3.902   1.296  11.420  0.4714 -0.1205  0.3450
  417TMC3    C1 6218   3.739   1.371  11.550 -0.6874  0.3513 -0.1042
  417TMC3    C2 6219   3.681   1.395  11.668 -0.0003 -0.2094 -0.3555
  417TMC3    C3 6220   3.586   1.496  11.685 -0.5457  0.4676  0.0607
  417TMC3    C4 6221   3.711   1.451  11.444 -0.1008 -0.0696 -0.3495
  417TMC3    C5 6222   3.613   1.539  11.462 -0.6143  0.0026  0.5658
  417TMC3    C6 6223   3.549   1.572  11.579 -0.3500  0.1260 -0.7428
  417TMC3     C 6224   3.761   1.228  11.536 -0.1437  0.9291 -0.6824
  417TMC3     O 6225   3.689   1.154  11.597  1.2199  0.7299 -0.1871
  417TMC3     H 6226   3.710   1.343  11.759  0.3955  1.4399  0.4526
  417TMC3    H1 6227   3.754   1.433  11.346 -1.5922  1.2081 -1.2542
  417TMC3    H2 6228   3.482   1.655  11.597 -1.2405 -0.4966 -1.1923
  417TMC3    C7 6229   3.555   1.594  11.337 -0.2079  0.4340 -0.5635
  417TMC3    C8 6230   3.586   1.548  11.820  0.1874  0.0733 -0.3077
  417TMC3    O1 6231   3.631   1.643  11.256 -0.5776 -0.0935  0.0127
  417TMC3    O2 6232   3.687   1.561  11.889  0.1133  0.6278 -0.4135
  418TMC3    C1 6233   2.460   2.749   0.056 -1.2395 -0.2878  0.2239
  418TMC3    C2 6234   2.379   2.669  17.669  0.2994  0.3096 -0.0573
  418TMC3    C3 6235   2.248   2.672   0.009 -0.1645 -0.4445  0.0210
  418TMC3    C4 6236   2.417   2.809   0.170  0.9946  0.2670  0.0303
  418TMC3    C5 6237   2.288   2.790   0.206 -0.1113  0.0754  0.6184
  418TMC3    C6 6238   2.200   2.728   0.123  0.5948  0.0126  0.4626
  418TMC3     C 6239   2.600   2.713   0.046  0.3570 -0.7401 -0.3015
  418TMC3     O 6240   2.683   2.799   0.069  0.1215 -0.0845  0.2681
  418TMC3     H 6241   2.416   2.615  17.582  1.2418  1.3987 -0.3239
  418TMC3    H1 6242   2.493   2.817   0.247  1.5682  0.3607 -0.5454
  418TMC3    H2 6243   2.100   2.705   0.158  0.0945 -1.9665 -2.1794
  418TMC3    C7 6244   2.258   2.771   0.351  0.0318 -0.7355  0.4826
  418TMC3    C8 6245   2.160   2.573  17.644 -0.9185  0.4942  0.5263
  418TMC3    O1 6246   2.141   2.739   0.382 -0.0678  0.1942  0.4995
  418TMC3    O2 6247   2.077   2.617  17.568 -0.2102  0.1022  0.7684
  419MPD2     C 6248   0.932   0.887  12.068  0.0462  0.4450  0.1586
  419MPD2    C1 6249   0.880   1.014  12.057 -0.0648  0.6799 -0.0442
  419MPD2    C2 6250   0.847   1.089  12.169  0.0799 -0.7325  0.3101
  419MPD2    C3 6251   0.863   1.030  12.290 -0.1724 -0.3266  1.1221
  419MPD2    C4 6252   0.920   0.905  12.311  0.6244 -0.4953 -0.4491
  419MPD2    C5 6253   0.950   0.830  12.200 -0.2823  0.4373  0.2759
  419MPD2     H 6254   0.805   1.188  12.174  2.1539  0.1588 -0.2171
  419MPD2    H1 6255   0.915   0.847  12.402 -0.5892 -0.4860 -0.5121
  419MPD2    H2 6256   0.960   0.825  11.984  0.9628  1.1696 -0.0665
  419MPD2    H3 6257   0.981   0.727  12.214 -0.9235  0.2850  0.5920
  419MPD2     N 6258   0.818   1.108  12.395  0.1686  0.7768 -0.3559
  419MPD2    H5 6259   0.771   1.196  12.373 -1.4358 -0.4817 -1.9776
  419MPD2    N1 6260   0.863   1.079  11.930 -0.2439  0.7370 -0.3609
  419MPD2    H7 6261   0.804   1.160  11.941 -0.3200  0.4257  1.5185
  420TMC3    C1 6262   0.776   1.177  12.610 -0.7189  0.2415  0.1107
  420TMC3    C2 6263   0.699   1.280  12.566 -0.4149  0.0545 -0.0769
  420TMC3    C3 6264   0.695   1.398  12.637 -0.5207  0.1408 -1.0030
  420TMC3    C4 6265   0.836   1.187  12.734  0.0413 -0.3504 -0.7271
  420TMC3    C5 6266   0.830   1.303  12.800  0.4217 -0.6304 -0.4213
  420TMC3    C6 6267   0.766   1.416  12.751  0.4969  0.9435 -0.0888
  420TMC3     C 6268   0.840   1.077  12.528  0.7309  0.0785  0.5281
  420TMC3     O 6269   0.912   0.991  12.580 -0.0413 -0.2479  0.1989
  420TMC3     H 6270   0.654   1.276  12.468  2.1101  0.8029 -1.2932
  420TMC3    H1 6271   0.904   1.112  12.774 -2.5728 -1.7723  1.0528
  420TMC3    H2 6272   0.756   1.506  12.811  0.9478  0.4930  0.6577
  420TMC3    C7 6273   0.907   1.316  12.922  0.3868  0.0879  0.5500
  420TMC3    C8 6274   0.631   1.512  12.564  0.0603  0.2158 -0.2028
  420TMC3    O1 6275   0.900   1.217  12.998 -0.1662  0.5412 -0.0431
  420TMC3    O2 6276   0.588   1.496  12.449 -0.3666  0.1815  0.5334
  421TMC3    C1 6277   2.419   3.047  13.550 -0.2645 -0.3007 -0.3994
  421TMC3    C2 6278   2.472   3.152  13.618 -0.3096 -0.6821  0.5349
  421TMC3    C3 6279   2.591   3.151  13.673 -0.6195  0.7616  0.3325
  421TMC3    C4 6280   2.490   2.933  13.545  0.3836 -0.3716 -0.2384
  421TMC3    C5 6281   2.610   2.929  13.605  0.5302  0.1640 -0.2864
  421TMC3    C6 6282   2.664   3.039  13.673 -0.9919  0.3917 -0.8901
  421TMC3     C 6283   2.322   3.083  13.447 -0.3081 -0.2094 -1.2117
  421TMC3     O 6284   2.264   3.188  13.459  0.7972  0.0572  0.2046
  421TMC3     H 6285   2.422   3.248  13.621  0.1448 -0.3622 -1.7041
  421TMC3    H1 6286   2.444   2.845  13.500  0.1803 -1.0819  1.3510
  421TMC3    H2 6287   2.756   3.028  13.729 -2.7288  3.6797  2.6013
  421TMC3    C7 6288   2.687   2.806  13.622 -0.2838  0.6130  0.6435
  421TMC3    C8 6289   2.634   3.273  13.746 -0.0477  0.2393  0.7365
  421TMC3    O1 6290   2.807   2.824  13.615  0.5146 -0.3326 -0.0197
  421TMC3    O2 6291   2.556   3.355  13.785  1.0796 -0.0988 -0.1633
  422TMC3    C1 6292   0.258   4.185  12.431 -0.1572 -0.0468  0.0263
  422TMC3    C2 6293   0.255   4.319  12.444  0.3251  0.8327  0.3642
  422TMC3    C3 6294   0.137   4.380  12.491 -0.3607  1.3403 -0.0605
  422TMC3    C4 6295   0.162   4.101  12.485  1.1326 -0.3170 -0.7531
  422TMC3    C5 6296   0.040   4.161  12.525  0.2064 -0.4469 -0.5341
  422TMC3    C6 6297   0.028   4.302  12.526 -0.3827 -0.2974 -0.5098
  422TMC3     C 6298   0.390   4.133  12.394 -0.3313  0.0446  0.1047
  422TMC3     O 6299   0.491   4.203  12.415  0.2474 -0.1563  0.4835
  422TMC3     H 6300   0.341   4.378  12.414  1.1759 -0.4011  0.3852
  422TMC3    H1 6301   0.159   3.994  12.472  0.1866 -0.2203 -1.3103
  422TMC3    H2 6302   4.658   4.351  12.550  0.0795  0.6689 -0.7036
  422TMC3    C7 6303   4.675   4.076  12.604  0.8273  0.1286  0.3577
  422TMC3    C8 6304   0.123   4.525  12.463 -0.2602  0.5542 -0.1497
  422TMC3    O1 6305   0.016   3.980  12.648 -0.5866  0.2937 -0.0049
  422TMC3    O2 6306   0.227   4.587  12.452 -0.0206 -0.1261  0.3818
  423MPD2     C 6307   1.335   0.726   0.306 -0.0550 -0.3051  0.6650
  423MPD2    C1 6308   1.329   0.597   0.355 -0.9347  0.2494  0.0066
  423MPD2    C2 6309   1.364   0.483   0.285  0.4705 -0.3720  0.1080
  423MPD2    C3 6310   1.401   0.494   0.149  0.2649  0.4711 -0.3603
  423MPD2    C4 6311   1.406   0.621   0.098  0.1369 -0.1356  0.6912
  423MPD2    C5 6312   1.383   0.730   0.178  0.5645 -0.0821 -0.4609
  423MPD2     H 6313   1.358   0.386   0.332 -1.3438 -1.1448 -1.6991
  423MPD2    H1 6314   1.451   0.642   0.002  0.8192 -1.0015  0.8193
  423MPD2    H2 6315   1.313   0.822   0.350 -4.8762 -0.7334 -0.8076
  423MPD2    H3 6316   1.414   0.827   0.139 -2.7763 -0.0261 -2.9995
  423MPD2     N 6317   1.445   0.389   0.068 -0.3191 -0.1384 -0.2312
  423MPD2    H5 6318   1.471   0.411  17.669  0.3869 -0.6402 -0.1583
  423MPD2    N1 6319   1.264   0.577   0.485  0.7284 -0.2504 -0.0975
  423MPD2    H7 6320   1.302   0.500   0.538  0.3230  0.9651  1.9809
  424TMC3    C1 6321   1.150   0.638   0.680  0.1882  0.0588  0.9418
  424TMC3    C2 6322   1.251   0.571   0.754  0.5877  0.4414 -0.5671
  424TMC3    C3 6323   1.229   0.572   0.888 -0.3517 -0.1120  0.7006
  424TMC3    C4 6324   1.044   0.698   0.742 -0.2588 -0.2061 -0.0364
  424TMC3    C5 6325   1.020   0.677   0.877  0.4098 -0.5368  0.1794
  424TMC3    C6 6326   1.114   0.614   0.950 -0.5236  0.3440  0.3479
  424TMC3     C 6327   1.190   0.675   0.548 -1.2748  0.4778 -0.1402
  424TMC3     O 6328   1.127   0.769   0.500  0.1680  0.2180 -0.0026
  424TMC3     H 6329   1.330   0.508   0.714  0.7261  0.9604 -1.1126
  424TMC3    H1 6330   0.977   0.760   0.683 -1.0369 -0.2200  0.8323
  424TMC3    H2 6331   1.118   0.613   1.059 -0.1449  0.1749  0.3330
  424TMC3    C7 6332   0.911   0.740   0.947  0.4871 -0.1479 -0.1879
  424TMC3    C8 6333   1.333   0.524   0.972  0.5179 -0.0573 -0.2642
  424TMC3    O1 6334   0.851   0.827   0.885 -0.3842 -1.0865 -0.0730
  424TMC3    O2 6335   1.300   0.483   1.079  0.5083 -0.7068 -0.3920
  425MPD2     C 6336   0.213   4.522  17.300 -0.0316  0.2818 -0.0583
  425MPD2    C1 6337   0.165   4.399  17.256 -0.4282 -0.2453  0.3383
  425MPD2    C2 6338   0.029   4.374  17.278 -0.0799  0.6422  0.0671
  425MPD2    C3 6339   4.677   4.464  17.349  0.6604 -0.3578  0.0784
  425MPD2    C4 6340   0.006   4.589  17.392  0.2033  0.1911 -0.0285
  425MPD2    C5 6341   0.136   4.613  17.368  0.2456  0.5078  0.1254
  425MPD2     H 6342   4.703   4.286  17.239  1.5311 -0.8853  1.4413
  425MPD2    H1 6343   4.680   4.667  17.447  0.1266 -0.6575  1.1042
  425MPD2    H2 6344   0.316   4.540  17.272 -0.1404  0.2193 -0.5061
  425MPD2    H3 6345   0.183   4.703  17.407  0.2298  0.4636  0.2465
  425MPD2     N 6346   4.542   4.423  17.382  0.4354  0.0491  0.3061
  425MPD2    H5 6347   4.515   4.331  17.349  0.1347  0.8543 -1.6721
  425MPD2    N1 6348   0.260   4.317  17.189  0.2077  0.6922  0.2185
  425MPD2    H7 6349   0.351   4.361  17.183  1.2951 -1.3119  1.7794
  426TMC3    C1 6350   0.342   4.118  17.099 -0.4639 -0.8944 -0.0040
  426TMC3    C2 6351   0.318   4.030  17.001 -0.4067  0.0869  0.4897
  426TMC3    C3 6352   0.413   3.935  16.974  0.0833  0.0716 -0.8115
  426TMC3    C4 6353   0.437   4.099  17.194 -0.2505  0.0401  0.2513
  426TMC3    C5 6354   0.535   4.012  17.160  0.5706  0.2849 -0.1006
  426TMC3    C6 6355   0.524   3.929  17.053 -0.6783 -0.4681 -0.0420
  426TMC3     C 6356   0.227   4.202  17.130  0.4226 -0.2742 -0.1054
  426TMC3     O 6357   0.116   4.153  17.107 -0.2008 -0.2951 -0.1632
  426TMC3     H 6358   0.243   4.051  16.925  2.2961 -0.5840 -2.3997
  426TMC3    H1 6359   0.447   4.169  17.276 -0.2108 -1.2784  1.3681
  426TMC3    H2 6360   0.573   3.833  17.058  0.0488 -0.0588  0.6330
  426TMC3    C7 6361   0.600   3.944  17.268  0.2494 -0.0662 -0.8758
  426TMC3    C8 6362   0.417   3.866  16.849 -0.8878  0.4889 -0.4391
  426TMC3    O1 6363   0.714   3.906  17.252 -0.0361  0.1261  0.5256
  426TMC3    O2 6364   0.527   3.833  16.801 -0.2863 -0.8342  0.0561
  427MPD2     C 6365   3.805   1.660  14.565 -0.3456 -0.2181  0.3428
  427MPD2    C1 6366   3.791   1.616  14.696 -0.0231 -0.1150  0.8766
  427MPD2    C2 6367   3.674   1.657  14.762  0.0695 -0.1238 -0.5038
  427MPD2    C3 6368   3.567   1.721  14.700  1.1104  0.1338  0.0441
  427MPD2    C4 6369   3.584   1.754  14.567 -0.2688 -0.1360  0.0296
  427MPD2    C5 6370   3.704   1.724  14.500  0.7023  0.5401 -0.5826
  427MPD2     H 6371   3.673   1.626  14.866  0.8472  0.4268 -0.3354
  427MPD2    H1 6372   3.496   1.791  14.516  0.2773  0.1975 -0.6723
  427MPD2    H2 6373   3.892   1.632  14.506 -1.5758 -1.0899 -1.0820
  427MPD2    H3 6374   3.705   1.752  14.395  1.5957 -0.4594 -0.8383
  427MPD2     N 6375   3.438   1.736  14.761 -0.0427  0.5877 -0.0584
  427MPD2    H5 6376   3.378   1.778  14.691 -0.3610  0.2210 -0.0033
  427MPD2    N1 6377   3.884   1.540  14.770 -1.2742 -0.3239  0.2658
  427MPD2    H7 6378   3.847   1.505  14.858  0.3772  0.4464  1.2668
  428TMC3    C1 6379   4.073   1.451  14.851  0.6361 -0.3125  1.0205
  428TMC3    C2 6380   3.995   1.399  14.947  0.3607 -0.0692  0.0348
  428TMC3    C3 6381   4.036   1.390  15.077 -0.4696  0.8339 -0.0137
  428TMC3    C4 6382   4.199   1.496  14.875 -0.5473  0.2729 -0.3505
  428TMC3    C5 6383   4.236   1.488  15.005 -0.7049  0.1852 -0.0552
  428TMC3    C6 6384   4.165   1.437  15.112 -0.6444  0.3084  0.0903
  428TMC3     C 6385   4.005   1.500  14.736  0.7354 -0.0637  0.5883
  428TMC3     O 6386   4.067   1.521  14.632  0.3393 -0.4130  0.4908
  428TMC3     H 6387   3.906   1.346  14.916  0.6813 -0.2920 -0.5103
  428TMC3    H1 6388   4.252   1.549  14.797  0.6641  0.2549  0.4570
  428TMC3    H2 6389   4.208   1.432  15.211  0.8797  0.1074 -0.5944
  428TMC3    C7 6390   4.358   1.550  15.045  0.1129  0.3525 -0.1049
  428TMC3    C8 6391   3.963   1.313  15.168 -0.8336 -0.7152 -0.2553
  428TMC3    O1 6392   4.370   1.584  15.161  0.1097  0.1404 -0.3262
  428TMC3    O2 6393   3.911   1.208  15.124 -0.7257  0.4710 -0.2772
  429MPD2     C 6394   0.269   1.796  17.241  0.6700  0.4573 -0.3806
  429MPD2    C1 6395   0.353   1.715  17.166 -0.2241  0.0405  0.0496
  429MPD2    C2 6396   0.465   1.762  17.106 -0.2329  0.3419  0.4590
  429MPD2    C3 6397   0.493   1.894  17.125  0.2965  0.5452  0.2546
  429MPD2    C4 6398   0.420   1.970  17.209  0.0921  0.0130 -0.0486
  429MPD2    C5 6399   0.300   1.929  17.258  0.2572 -0.4554  0.2012
  429MPD2     H 6400   0.521   1.699  17.038 -0.3610  0.3159  0.3779
  429MPD2    H1 6401   0.443   2.074  17.226  1.3734 -0.1469 -0.8391
  429MPD2    H2 6402   0.177   1.763  17.288  0.1267  0.6774 -1.2820
  429MPD2    H3 6403   0.241   1.999  17.317 -1.1983 -0.0813 -1.6970
  429MPD2     N 6404   0.598   1.941  17.045  0.0423  0.7069  0.6234
  429MPD2    H5 6405   0.657   1.873  16.997  0.0620  1.2983 -0.1849
  429MPD2    N1 6406   0.326   1.574  17.147  0.3082 -0.2978 -0.2513
  429MPD2    H7 6407   0.399   1.520  17.103  0.1801 -0.9760  0.3855
  430TMC3    C1 6408   0.739   2.104  16.945 -0.2388  0.2919 -0.3095
  430TMC3    C2 6409   0.716   2.208  16.858  0.5794 -0.2016  0.8773
  430TMC3    C3 6410   0.808   2.234  16.762  0.2562  0.0232  0.0672
  430TMC3    C4 6411   0.831   2.009  16.919  0.1531 -0.2249 -0.1880
  430TMC3    C5 6412   0.915   2.029  16.807 -0.3945  0.4781  0.2919
  430TMC3    C6 6413   0.897   2.137  16.725  0.0765 -0.1427  0.4883
  430TMC3     C 6414   0.629   2.077  17.034  0.1473  0.5709 -0.3129
  430TMC3     O 6415   0.562   2.171  17.069 -0.3859  0.0874 -0.1778
  430TMC3     H 6416   0.640   2.284  16.874 -0.2997 -1.0529  0.7789
  430TMC3    H1 6417   0.844   1.931  16.992  3.5295  2.7702  2.3664
  430TMC3    H2 6418   0.970   2.153  16.648 -1.2497 -3.2494 -1.4192
  430TMC3    C7 6419   0.971   1.910  16.750  0.5168 -0.1528 -0.1683
  430TMC3    C8 6420   0.723   2.254  16.648  0.3402 -0.6463 -0.3444
  430TMC3    O1 6421   0.941   1.805  16.805 -0.0496  0.8925 -0.4302
  430TMC3    O2 6422   0.624   2.179  16.646 -0.4459  0.8448  0.6392
  431MPD2     C 6423   1.067   1.828  12.107 -0.7144  0.3841  0.1645
  431MPD2    C1 6424   1.145   1.794  11.999  0.1675 -0.4578 -0.6527
  431MPD2    C2 6425   1.086   1.713  11.897  0.8951  0.2885  0.3048
  431MPD2    C3 6426   0.958   1.660  11.915  0.1534  0.4284 -0.8150
  431MPD2    C4 6427   0.891   1.695  12.033  0.4464  0.0990 -0.3521
  431MPD2    C5 6428   0.941   1.774  12.125 -0.7999 -0.9014  0.0591
  431MPD2     H 6429   1.139   1.686  11.806  0.8197 -4.0278  1.5489
  431MPD2    H1 6430   0.787   1.666  12.040  0.3399  0.8242  0.9746
  431MPD2    H2 6431   1.108   1.878  12.194 -2.0438  0.5847  0.6738
  431MPD2    H3 6432   0.885   1.798  12.214 -0.9615  1.2107 -0.5914
  431MPD2     N 6433   0.893   1.572  11.826 -0.5468  0.5945 -0.0889
  431MPD2    H5 6434   0.798   1.544  11.849 -1.1838  1.4477 -1.6575
  431MPD2    N1 6435   1.277   1.836  11.978  0.4879  0.3572  0.5205
  431MPD2    H7 6436   1.317   1.813  11.888  1.1995  0.5390  0.7894
  432TMC3    C1 6437   0.879   1.395  11.681  0.1791 -0.7764 -0.5449
  432TMC3    C2 6438   0.893   1.381  11.542  0.8109 -0.2148  0.2476
  432TMC3    C3 6439   0.925   1.255  11.503 -0.6384 -0.0404  0.3016
  432TMC3    C4 6440   0.878   1.285  11.766  0.2696  1.0188  0.8743
  432TMC3    C5 6441   0.876   1.160  11.710 -0.8489 -0.4952  0.5875
  432TMC3    C6 6442   0.915   1.140  11.580 -0.4212 -0.4094 -0.7307
  432TMC3     C 6443   0.963   1.499  11.729  0.7959 -0.4862 -0.2183
  432TMC3     O 6444   1.066   1.528  11.672  0.6195  0.1018 -0.3554
  432TMC3     H 6445   0.902   1.471  11.481 -1.3703  0.9420  1.6622
  432TMC3    H1 6446   0.876   1.306  11.872  1.4033  1.4814  0.8051
  432TMC3    H2 6447   0.951   1.043  11.547  0.1673 -0.9285  1.4490
  432TMC3    C7 6448   0.912   1.055  11.803 -0.1693 -0.0644  0.6895
  432TMC3    C8 6449   1.031   1.251  11.407 -0.5329 -0.5078  0.1762
  432TMC3    O1 6450   0.963   0.953  11.766  0.4308 -0.3048 -0.6074
  432TMC3    O2 6451   1.041   1.159  11.329  0.3525  0.4501  0.0499
  433MPD2     C 6452   0.374   0.394  11.000  0.3266  0.8183  0.0758
  433MPD2    C1 6453   0.237   0.360  10.998  0.0881 -0.0339  0.7857
  433MPD2    C2 6454   0.146   0.423  11.082 -0.0294 -0.8767  0.5069
  433MPD2    C3 6455   0.187   0.520  11.174  0.4472  0.2467 -0.0273
  433MPD2    C4 6456   0.322   0.548  11.180  0.3431 -0.6535 -0.5944
  433MPD2    C5 6457   0.405   0.499  11.081 -0.3399 -0.6794  0.0136
  433MPD2     H 6458   0.040   0.402  11.083  0.1316 -1.6488  0.8416
  433MPD2    H1 6459   0.368   0.611  11.256  2.2472 -3.5816  0.6578
  433MPD2    H2 6460   0.445   0.340  10.938 -0.1206  0.1802  0.1159
  433MPD2    H3 6461   0.507   0.537  11.085 -0.4742 -0.2738 -0.4156
  433MPD2     N 6462   0.086   0.564  11.260 -0.5013 -0.5546 -0.0855
  433MPD2    H5 6463   4.719   0.526  11.236  0.0820 -2.9638  1.5675
  433MPD2    N1 6464   0.200   0.260  10.905  0.4351  0.6237  0.2627
  433MPD2    H7 6465   0.282   0.222  10.859  0.6440  0.0692  1.0920
  434TMC3    C1 6466   0.092   0.094  10.796 -0.3435 -0.0090 -0.3104
  434TMC3    C2 6467   0.106   4.699  10.858 -0.5636 -0.2463 -0.1193
  434TMC3    C3 6468   0.173   4.601  10.796 -0.0817  0.4903 -0.1264
  434TMC3    C4 6469   0.149   0.123  10.677 -0.1074  0.1165 -0.1135
  434TMC3    C5 6470   0.216   0.017  10.620 -0.0702 -0.3696  0.9437
  434TMC3    C6 6471   0.233   4.616  10.676  0.7243 -0.7726 -0.5523
  434TMC3     C 6472   0.074   0.205  10.888 -0.2338 -0.7859  0.1106
  434TMC3     O 6473   4.696   0.197  10.959  0.7791  0.0580 -0.0425
  434TMC3     H 6474   0.083   4.695  10.964 -0.5728 -0.9623 -0.1519
  434TMC3    H1 6475   0.140   0.216  10.623 -4.0989 -0.4033 -0.3550
  434TMC3    H2 6476   0.291   4.543  10.622 -0.2631 -1.5786 -0.5192
  434TMC3    C7 6477   0.250   0.033  10.478  0.0431 -0.7496 -0.6903
  434TMC3    C8 6478   0.238   4.507  10.877  0.2186 -0.1968  0.3387
  434TMC3    O1 6479   0.259   0.149  10.435  0.1171 -0.0975 -0.6143
  434TMC3    O2 6480   0.204   4.506  10.993  0.8252 -0.7990  0.4824
  435MPD2     C 6481   2.220   0.433  15.095  0.0511 -0.3617 -0.4296
  435MPD2    C1 6482   2.173   0.467  15.220 -0.3214  0.1161  0.1534
  435MPD2    C2 6483   2.250   0.432  15.330  0.5698 -0.2003 -1.0053
  435MPD2    C3 6484   2.369   0.363  15.313  0.5839  0.3081  0.9617
  435MPD2    C4 6485   2.424   0.337  15.185  0.1885  0.2604  0.1790
  435MPD2    C5 6486   2.338   0.369  15.080 -0.1543 -0.0338 -0.6738
  435MPD2     H 6487   2.207   0.437  15.429  0.5979  0.2086 -1.0163
  435MPD2    H1 6488   2.508   0.275  15.158 -1.3657 -1.5809 -0.4055
  435MPD2    H2 6489   2.163   0.454  15.006 -3.5678  0.3419  2.0463
  435MPD2    H3 6490   2.377   0.345  14.982 -0.9724 -0.6227 -0.8508
  435MPD2     N 6491   2.416   0.289  15.425 -0.8205 -0.0483  0.0386
  435MPD2    H5 6492   2.354   0.303  15.504  0.8456 -0.9080  1.5076
  435MPD2    N1 6493   2.040   0.501  15.236  0.2325  0.9700 -0.5659
  435MPD2    H7 6494   1.999   0.506  15.329 -0.4142  1.1143 -0.8516
  436TMC3    C1 6495   1.700   0.677  15.363 -0.0953  0.2426  0.1974
  436TMC3    C2 6496   1.818   0.608  15.323  0.0534  0.5245  0.5514
  436TMC3    C3 6497   1.826   0.569  15.196  0.1068 -0.0211  0.3383
  436TMC3    C4 6498   1.590   0.690  15.277 -0.2178 -0.7506 -0.5995
  436TMC3    C5 6499   1.614   0.648  15.151 -0.0999  0.0197  0.5114
  436TMC3    C6 6500   1.728   0.600  15.103  0.1995  0.7931  0.1953
  436TMC3     C 6501   1.716   0.779  15.461  0.1050  0.2337  0.1960
  436TMC3     O 6502   1.831   0.806  15.488 -0.3377  0.2703 -0.3373
  436TMC3     H 6503   1.906   0.601  15.387 -0.4077 -1.6912  0.9538
  436TMC3    H1 6504   1.507   0.756  15.299 -0.5830 -0.9398 -1.4116
  436TMC3    H2 6505   1.731   0.548  15.008 -0.8331  0.7698  0.1814
  436TMC3    C7 6506   1.493   0.645  15.074 -0.3889 -0.2997  1.1953
  436TMC3    C8 6507   1.949   0.521  15.139 -0.0584  0.5563 -0.8585
  436TMC3    O1 6508   1.388   0.636  15.133  0.5149 -0.0309 -0.2683
  436TMC3    O2 6509   1.962   0.539  15.021  0.2298  0.0969 -0.7313
  437TMC3    C1 6510   0.934   2.183  11.965 -0.7503 -0.4376  0.6494
  437TMC3    C2 6511   0.875   2.254  11.858 -0.0630 -0.3158 -0.5141
  437TMC3    C3 6512   0.938   2.262  11.738 -0.3668 -0.1668 -0.0603
  437TMC3    C4 6513   1.060   2.119  11.939 -0.4499  0.4612  0.0912
  437TMC3    C5 6514   1.108   2.127  11.812  0.0073  0.1363 -0.3718
  437TMC3    C6 6515   1.052   2.186  11.704 -0.0598  0.3952 -0.2330
  437TMC3     C 6516   0.871   2.177  12.099  0.4319  0.0789 -0.0396
  437TMC3     O 6517   0.749   2.186  12.104 -0.4393  0.3376 -0.0107
  437TMC3     H 6518   0.780   2.304  11.871 -1.2330 -2.3329 -1.4987
  437TMC3    H1 6519   1.111   2.073  12.024  0.8643  0.4960 -0.6811
  437TMC3    H2 6520   1.106   2.201  11.611  0.5065  0.9740  0.1858
  437TMC3    C7 6521   1.248   2.118  11.790 -0.3320 -0.0324 -0.1243
  437TMC3    C8 6522   0.903   2.366  11.647 -0.1615  0.3829 -0.0652
  437TMC3    O1 6523   1.302   2.087  11.683  0.0590  0.6799 -0.0825
  437TMC3    O2 6524   0.978   2.379  11.549  0.1648 -0.1635 -0.5525
  438MPD2     C 6525   3.006   3.243  16.292 -0.4019  0.5517 -0.0702
  438MPD2    C1 6526   3.089   3.160  16.369  1.0655  0.2010  0.4571
  438MPD2    C2 6527   3.061   3.136  16.504 -0.1121  0.0505  0.1505
  438MPD2    C3 6528   2.946   3.191  16.554 -0.0700  0.1613 -0.1098
  438MPD2    C4 6529   2.854   3.235  16.471 -0.0825 -0.0704 -0.5885
  438MPD2    C5 6530   2.882   3.277  16.342 -0.1729 -0.0093  0.1622
  438MPD2     H 6531   3.142   3.082  16.552  1.7068  1.4565 -1.2959
  438MPD2    H1 6532   2.756   3.258  16.510  0.8471  0.4529  1.4608
  438MPD2    H2 6533   3.017   3.251  16.185 -1.1612  1.9426 -0.0465
  438MPD2    H3 6534   2.796   3.313  16.287  0.0117  0.8168  0.4290
  438MPD2     N 6535   2.917   3.177  16.691 -0.0138  0.1470  0.4718
  438MPD2    H5 6536   2.822   3.171  16.728 -0.0505 -0.8139  0.2417
  438MPD2    N1 6537   3.207   3.096  16.321 -0.1225  0.0967 -0.6739
  438MPD2    H7 6538   3.250   3.027  16.382  1.3930  1.8076  0.1975
  439TMC3    C1 6539   3.395   3.052  16.201  0.8441  0.0867  0.3223
  439TMC3    C2 6540   3.458   3.049  16.079  0.3094  0.7477  0.3625
  439TMC3    C3 6541   3.564   2.964  16.063  0.2307 -0.5254  0.1819
  439TMC3    C4 6542   3.427   2.968  16.300 -0.2846  0.5675  0.3250
  439TMC3    C5 6543   3.541   2.894  16.279 -0.7100  0.4239  0.6751
  439TMC3    C6 6544   3.615   2.889  16.164  0.3116 -0.3542 -0.0789
  439TMC3     C 6545   3.266   3.118  16.201 -0.2322  0.3852 -0.3387
  439TMC3     O 6546   3.227   3.187  16.109 -0.0729 -0.3214  0.3110
  439TMC3     H 6547   3.412   3.093  15.991 -0.3515  0.0825  0.3714
  439TMC3    H1 6548   3.384   2.970  16.400 -0.1477 -0.8297  0.4149
  439TMC3    H2 6549   3.691   2.814  16.146 -0.0721 -0.5832 -0.7452
  439TMC3    C7 6550   3.579   2.807  16.394  0.4612  0.1816  0.3256
  439TMC3    C8 6551   3.624   2.932  15.929 -0.0808 -0.1988  0.3540
  439TMC3    O1 6552   3.692   2.766  16.392 -0.2918  0.3074  0.0542
  439TMC3    O2 6553   3.728   2.875  15.943 -0.2983  0.1577 -0.1287
  440MPD2     C 6554   1.889   3.618  14.504  0.0532  0.2658  0.1474
  440MPD2    C1 6555   1.942   3.636  14.628 -0.0482  0.0017  0.3623
  440MPD2    C2 6556   2.052   3.574  14.679 -0.0844 -0.2085 -0.8365
  440MPD2    C3 6557   2.119   3.495  14.582  0.0186 -0.8546  0.2257
  440MPD2    C4 6558   2.073   3.479  14.452  0.0023  0.5277 -1.3395
  440MPD2    C5 6559   1.956   3.537  14.416 -0.1521 -0.0670 -0.8928
  440MPD2     H 6560   2.084   3.598  14.780 -0.4508 -0.0004 -0.7708
  440MPD2    H1 6561   2.118   3.402  14.389  0.4751  0.3392 -0.7660
  440MPD2    H2 6562   1.796   3.662  14.472  0.2377  0.9082  0.5041
  440MPD2    H3 6563   1.912   3.500  14.324 -3.3052 -0.0830  0.6147
  440MPD2     N 6564   2.240   3.428  14.611  0.7262  0.4227 -0.0721
  440MPD2    H5 6565   2.279   3.367  14.539  1.8476 -1.9218  2.5620
  440MPD2    N1 6566   1.863   3.706  14.728 -0.7087 -0.8975  0.4735
  440MPD2    H7 6567   1.899   3.717  14.822 -1.6365 -0.4685  0.7810
  441TMC3    C1 6568   2.408   3.342  14.760  0.6810 -0.4443 -0.7343
  441TMC3    C2 6569   2.514   3.420  14.773 -0.8207  0.0442 -0.1952
  441TMC3    C3 6570   2.602   3.401  14.873  0.5279 -0.7821 -0.1222
  441TMC3    C4 6571   2.388   3.247  14.856 -0.0520 -0.1853 -0.0717
  441TMC3    C5 6572   2.481   3.223  14.952  1.1631  0.2116  0.3482
  441TMC3    C6 6573   2.596   3.298  14.967 -0.0974  0.5173 -0.2287
  441TMC3     C 6574   2.293   3.415  14.741 -0.5361  0.4627 -0.3363
  441TMC3     O 6575   2.276   3.491  14.837 -0.5595  0.4859 -0.5686
  441TMC3     H 6576   2.529   3.501  14.702  1.3868 -0.1971  0.0059
  441TMC3    H1 6577   2.290   3.200  14.858  1.6744 -3.8426 -2.1677
  441TMC3    H2 6578   2.667   3.298  15.048  0.7115 -0.4953 -0.9353
  441TMC3    C7 6579   2.419   3.188  15.074 -0.1212 -0.2195 -0.1943
  441TMC3    C8 6580   2.647   3.521  14.929  0.0875  0.3790  0.1941
  441TMC3    O1 6581   2.299   3.229  15.080  0.1419 -0.1042 -0.1574
  441TMC3    O2 6582   2.750   3.520  14.992 -0.3210 -0.3264 -0.2636
  442MPD2     C 6583   4.644   4.296  16.491 -0.1786 -0.4229 -0.1519
  442MPD2    C1 6584   4.578   4.192  16.539  0.1826  0.6549  0.5279
  442MPD2    C2 6585   4.591   4.068  16.473 -0.2498  0.9803  0.9585
  442MPD2    C3 6586   4.671   4.055  16.360  0.1965 -0.7135  0.4970
  442MPD2    C4 6587   0.014   4.167  16.311 -0.0616  0.7150 -0.3954
  442MPD2    C5 6588   4.724   4.285  16.380 -0.2366 -0.8569 -1.4915
  442MPD2     H 6589   4.542   3.978  16.508 -1.8928  2.1470  1.6358
  442MPD2    H1 6590   0.078   4.156  16.224  0.4920 -0.6724  0.1911
  442MPD2    H2 6591   4.636   4.392  16.541  1.0692 -2.4072  3.8237
  442MPD2    H3 6592   0.053   4.367  16.332  0.4923 -0.3317  0.2055
  442MPD2     N 6593   4.696   3.933  16.293 -0.1411  0.7217  0.4034
  442MPD2    H5 6594   0.041   3.942  16.219  1.8745 -0.4457  2.1136
  442MPD2    N1 6595   4.495   4.184  16.652  0.1224  0.6205 -0.0181
  442MPD2    H7 6596   4.452   4.093  16.666 -0.3766  0.6232 -1.4593
  443TMC3    C1 6597   4.344   4.262  16.816  0.0562  0.1272  0.6879
  443TMC3    C2 6598   4.232   4.339  16.820  0.5885 -0.1361 -0.5576
  443TMC3    C3 6599   4.128   4.303  16.901  0.1222  0.0760 -0.0303
  443TMC3    C4 6600   4.357   4.140  16.875  0.7875 -0.2572  0.6216
  443TMC3    C5 6601   4.252   4.105  16.959  0.3455 -0.5371 -0.2729
  443TMC3    C6 6602   4.141   4.187  16.976  0.5623 -0.7776 -0.8038
  443TMC3     C 6603   4.448   4.294  16.717 -0.1672 -0.1311 -0.2445
  443TMC3     O 6604   4.472   4.415  16.700 -0.3552 -0.7320 -0.5615
  443TMC3     H 6605   4.232   4.436  16.772 -1.8762 -0.7979 -1.8860
  443TMC3    H1 6606   4.455   4.094  16.888  1.1425 -0.3016 -2.1425
  443TMC3    H2 6607   4.051   4.154  17.027  1.6351  1.0153  2.2020
  443TMC3    C7 6608   4.256   3.973  17.013  0.3676 -0.6737 -0.1066
  443TMC3    C8 6609   4.015   4.295  16.818 -0.0923 -0.1395  1.4468
  443TMC3    O1 6610   4.322   3.893  16.949 -0.0530 -0.0494  0.6148
  443TMC3    O2 6611   3.906   4.314  16.864 -0.3524  0.5386  0.0004
  444MPD2     C 6612   0.494   3.542  17.271  0.4518 -0.6258 -0.2042
  444MPD2    C1 6613   0.415   3.443  17.226  0.0072  0.3852  0.1537
  444MPD2    C2 6614   0.459   3.366  17.119  0.1566 -0.1136  0.0842
  444MPD2    C3 6615   0.584   3.386  17.065  0.0170  0.3285 -0.2116
  444MPD2    C4 6616   0.653   3.503  17.100 -0.0003 -0.3523 -0.0417
  444MPD2    C5 6617   0.604   3.577  17.205 -0.3397  0.0793  0.0905
  444MPD2     H 6618   0.406   3.281  17.078  1.2664 -1.4237  1.3905
  444MPD2    H1 6619   0.744   3.541  17.054  0.2392  0.4528  1.0914
  444MPD2    H2 6620   0.460   3.603  17.354  1.3506 -1.6701  0.9206
  444MPD2    H3 6621   0.663   3.662  17.240 -1.4399  0.8894 -0.0095
  444MPD2     N 6622   0.624   3.286  16.971  0.2012  0.3972 -0.1427
  444MPD2    H5 6623   0.569   3.201  16.961 -0.7352  0.8654  1.1330
  444MPD2    N1 6624   0.289   3.406  17.277  0.5858  0.6470  0.5444
  444MPD2    H7 6625   0.245   3.326  17.232 -1.9214  0.8700  2.5791
  445TMC3    C1 6626   0.787   3.159  16.844 -0.7507 -0.1088  0.3525
  445TMC3    C2 6627   0.711   3.042  16.866  0.3523 -0.1219 -0.9485
  445TMC3    C3 6628   0.748   2.932  16.792 -0.3296 -0.4225  0.4851
  445TMC3    C4 6629   0.909   3.153  16.767 -0.5958  0.4716 -0.4293
  445TMC3    C5 6630   0.945   3.034  16.715 -0.2985  0.4543 -0.1055
  445TMC3    C6 6631   0.864   2.925  16.715 -0.1878  0.1323 -0.1077
  445TMC3     C 6632   0.747   3.284  16.911  0.1053  0.4567 -0.1437
  445TMC3     O 6633   0.835   3.367  16.908  0.0236  0.7582  0.3647
  445TMC3     H 6634   0.613   3.043  16.912  0.6239 -0.6313 -0.3533
  445TMC3    H1 6635   0.971   3.239  16.748 -0.5670  1.0751  2.4768
  445TMC3    H2 6636   0.890   2.835  16.661  0.0625  0.3163 -0.2949
  445TMC3    C7 6637   1.068   3.039  16.641  0.1166 -0.3024  0.0096
  445TMC3    C8 6638   0.674   2.806  16.785  0.2682  0.4730 -0.8457
  445TMC3    O1 6639   1.107   3.146  16.599 -0.1490 -0.3683 -0.1841
  445TMC3    O2 6640   0.736   2.701  16.757  0.3492 -0.4879 -0.2824
  446MPD2     C 6641   4.575   4.370  11.386  0.0238  0.0394  0.3687
  446MPD2    C1 6642   4.631   4.337  11.263 -0.6339 -0.3638 -0.0124
  446MPD2    C2 6643   0.025   4.403  11.228 -0.7258 -0.3629  0.7822
  446MPD2    C3 6644   0.079   4.507  11.303 -0.2825 -0.4421  0.3920
  446MPD2    C4 6645   0.022   4.540  11.423  0.5999 -0.7063 -0.6394
  446MPD2    C5 6646   4.630   4.473  11.459 -0.0028  0.3412  0.1373
  446MPD2     H 6647   0.063   4.383  11.128  0.7719 -0.4363  1.3801
  446MPD2    H1 6648   0.054   4.618  11.492  0.5627 -0.3886 -0.9856
  446MPD2    H2 6649   4.478   4.335  11.418 -0.0992 -0.7003 -0.8351
  446MPD2    H3 6650   4.584   4.499  11.553 -2.0083 -0.8830 -0.5089
  446MPD2     N 6651   0.191   4.584  11.257  0.3659  0.1545  0.8919
  446MPD2    H5 6652   0.222   4.567  11.162  0.2285 -0.2610  0.9218
  446MPD2    N1 6653   4.583   4.238  11.174  0.1858  0.4028 -0.2622
  446MPD2    H7 6654   4.647   4.218  11.098 -2.3474  0.0984 -2.2854
  447TMC3    C1 6655   0.398   4.701  11.274 -0.1946 -0.2661  0.2480
  447TMC3    C2 6656   0.401   4.702  11.137  0.1215 -0.6994 -0.8365
  447TMC3    C3 6657   0.510   4.685  11.064  0.1334 -0.5250  0.5016
  447TMC3    C4 6658   0.512   4.677  11.347  0.1558  0.2264  0.1297
  447TMC3    C5 6659   0.620   4.644  11.275 -0.1812  0.1975  0.0026
  447TMC3    C6 6660   0.624   4.643  11.135  0.3835  0.3824 -0.5255
  447TMC3     C 6661   0.274   4.654  11.338 -1.3658  0.1934  0.0934
  447TMC3     O 6662   0.275   4.668  11.460 -0.5824  0.7170 -0.0050
  447TMC3     H 6663   0.314   0.012  11.083  0.2383 -0.6645 -1.0034
  447TMC3    H1 6664   0.501   4.690  11.454  1.8049  1.1103  0.1837
  447TMC3    H2 6665   0.721   4.628  11.089 -0.1589 -2.3054 -0.8077
  447TMC3    C7 6666   0.727   4.580  11.348 -0.2383 -0.7795 -0.3166
  447TMC3    C8 6667   0.520   0.012  10.924 -0.0575 -0.0369  0.3423
  447TMC3    O1 6668   0.798   4.500  11.287 -0.4303  0.2514  0.3037
  447TMC3    O2 6669   0.436   0.094  10.886  0.3365 -0.4315  0.5748
  448TMC3    C1 6670   2.992   4.630  16.665 -0.4890  0.0613 -0.3106
  448TMC3    C2 6671   2.951   4.512  16.612 -0.1874  0.1180 -0.0405
  448TMC3    C3 6672   3.028   4.398  16.634  0.0722 -0.2964  0.3088
  448TMC3    C4 6673   3.105   4.641  16.743 -0.5347 -0.0252 -0.1282
  448TMC3    C5 6674   3.172   4.525  16.769  0.3060 -0.2228 -0.6539
  448TMC3    C6 6675   3.137   4.401  16.719  0.1785  0.2305  0.7945
  448TMC3     C 6676   2.906   0.027  16.657  0.3108 -0.0859 -0.0201
  448TMC3     O 6677   2.914   0.104  16.752  0.5437  0.4467  0.5290
  448TMC3     H 6678   2.849   4.498  16.580 -0.9960  1.0585  2.0942
  448TMC3    H1 6679   3.131   0.017  16.776  1.7546 -0.7546  0.3321
  448TMC3    H2 6680   3.204   4.316  16.724  0.5685  0.6044  1.9224
  448TMC3    C7 6681   3.297   4.542  16.834  0.8348 -0.8849 -0.1897
  448TMC3    C8 6682   3.017   4.289  16.539 -0.8406  0.4335 -0.0925
  448TMC3    O1 6683   3.346   4.654  16.841  0.0502  0.3385 -0.0026
  448TMC3    O2 6684   3.073   4.186  16.577 -0.0768  0.5728  0.0169
  449MPD2     C 6685   0.074   2.994  13.586 -0.7208 -0.5540  0.0023
  449MPD2    C1 6686   4.664   2.976  13.562 -0.2767 -0.2760  0.1514
  449MPD2    C2 6687   4.592   2.892  13.643 -0.6090 -0.6983  0.0458
  449MPD2    C3 6688   4.648   2.816  13.744 -0.3112 -0.4040  0.0934
  449MPD2    C4 6689   0.059   2.832  13.772  0.0729 -0.4338 -0.0898
  449MPD2    C5 6690   0.129   2.924  13.692  0.2210  0.2856  0.4038
  449MPD2     H 6691   4.484   2.892  13.630 -0.7634  2.0746  1.2486
  449MPD2    H1 6692   0.115   2.786  13.853  0.8199  0.7972  0.0843
  449MPD2    H2 6693   0.139   3.068  13.540 -0.3688 -1.7635 -1.4487
  449MPD2    H3 6694   0.232   2.926  13.723 -0.1256 -0.8385  1.6394
  449MPD2     N 6695   4.567   2.736  13.829  0.0812  0.1277  0.0351
  449MPD2    H5 6696   4.468   2.745  13.807 -0.3126  0.6742  2.0663
  449MPD2    N1 6697   4.593   3.066  13.478 -0.3234 -0.1169  0.4247
  449MPD2    H7 6698   4.499   3.030  13.467 -0.2546  0.5450 -2.5042
  450TMC3    C1 6699   4.531   3.193  13.293 -0.2581 -0.2734 -0.2342
  450TMC3    C2 6700   4.543   3.184  13.160  0.3344 -0.4804 -0.1787
  450TMC3    C3 6701   4.427   3.139  13.095  0.7874 -0.2917 -0.9878
  450TMC3    C4 6702   4.408   3.184  13.357  0.0992 -0.1521  0.7272
  450TMC3    C5 6703   4.304   3.127  13.289 -0.7518  0.2362  0.3556
  450TMC3    C6 6704   4.310   3.106  13.155  0.2654 -0.0587  0.3231
  450TMC3     C 6705   4.648   3.146  13.381 -0.2436  0.8636 -0.0037
  450TMC3     O 6706   0.043   3.159  13.341 -0.4922  0.1167  0.5187
  450TMC3     H 6707   4.642   3.164  13.121  0.7941  3.1863 -0.8546
  450TMC3    H1 6708   4.396   3.197  13.464  0.6709  0.0570  0.7678
  450TMC3    H2 6709   4.225   3.065  13.101 -0.1945  0.4691  0.6478
  450TMC3    C7 6710   4.260   3.009  13.357  0.9452 -0.7359  0.4326
  450TMC3    C8 6711   4.423   3.133  12.950  0.3868 -0.9038 -0.8266
  450TMC3    O1 6712   4.347   2.953  13.427  0.2471 -0.3153  0.6772
  450TMC3    O2 6713   4.315   3.151  12.895  0.2173  0.4544  0.6521
  451MPD2     C 6714   0.467   1.236   1.550 -0.2239 -0.1500  0.3679
  451MPD2    C1 6715   0.524   1.270   1.431 -0.1028 -0.7589 -0.3648
  451MPD2    C2 6716   0.641   1.195   1.397  0.0982 -0.0943  0.1334
  451MPD2    C3 6717   0.689   1.099   1.483  0.8302  1.1141  0.3717
  451MPD2    C4 6718   0.612   1.058   1.587  0.3470 -0.4217  0.2223
  451MPD2    C5 6719   0.505   1.127   1.624 -0.3161  0.9477  0.1360
  451MPD2     H 6720   0.691   1.214   1.302  0.9629  0.5742  0.7189
  451MPD2    H1 6721   0.644   0.980   1.656 -1.4598 -1.3606 -0.0190
  451MPD2    H2 6722   0.384   1.294   1.589 -1.2328  0.5260 -2.7665
  451MPD2    H3 6723   0.453   1.104   1.716  0.1807 -1.1243 -0.1134
  451MPD2     N 6724   0.814   1.034   1.472 -0.7115 -0.0419  0.1323
  451MPD2    H5 6725   0.828   0.956   1.536 -0.0238  0.3583  0.4715
  451MPD2    N1 6726   0.465   1.374   1.354 -0.3953 -0.4845 -0.3575
  451MPD2    H7 6727   0.380   1.414   1.394 -0.4720 -1.7447  0.7707
  452TMC3    C1 6728   1.013   0.968   1.358  0.1488 -0.0986 -0.2752
  452TMC3    C2 6729   1.039   0.871   1.454  0.0658  0.3863  0.2183
  452TMC3    C3 6730   1.129   0.775   1.414 -0.2408  0.2758  0.6917
  452TMC3    C4 6731   1.088   0.973   1.238 -0.0619 -0.8960  0.1427
  452TMC3    C5 6732   1.173   0.877   1.208 -0.3821 -0.5567  0.3968
  452TMC3    C6 6733   1.191   0.769   1.289 -0.3528  0.8350  0.2324
  452TMC3     C 6734   0.898   1.053   1.362 -0.1195  0.8472 -0.2945
  452TMC3     O 6735   0.893   1.151   1.286 -0.0988 -0.2611 -0.0731
  452TMC3     H 6736   1.002   0.874   1.556  1.3160 -0.5279  0.7075
  452TMC3    H1 6737   1.074   1.062   1.178  1.1631 -0.8775 -0.1117
  452TMC3    H2 6738   1.259   0.687   1.267 -0.1063  1.2017 -0.3716
  452TMC3    C7 6739   1.245   0.886   1.076  0.3905  0.0739  0.5813
  452TMC3    C8 6740   1.179   0.683   1.515 -0.2080  0.1026  0.0534
  452TMC3    O1 6741   1.343   0.814   1.070  0.2999 -0.3626  0.2334
  452TMC3    O2 6742   1.202   0.565   1.484 -0.0871  0.2963 -0.0141
  453TMC3    C1 6743   2.350   3.852  11.586  0.7373 -0.1385  0.4027
  453TMC3    C2 6744   2.247   3.774  11.620 -0.3148  0.4548 -0.6394
  453TMC3    C3 6745   2.192   3.700  11.520 -0.8643 -0.0323 -0.6195
  453TMC3    C4 6746   2.395   3.841  11.461  0.2541  0.3182  0.3253
  453TMC3    C5 6747   2.354   3.739  11.374 -0.3023  0.0970 -0.4901
  453TMC3    C6 6748   2.247   3.665  11.401  0.6239  0.5249 -0.6846
  453TMC3     C 6749   2.467   3.856  11.675  0.3816 -0.3688  0.0849
  453TMC3     O 6750   2.575   3.892  11.632  0.2669 -0.2939 -0.5865
  453TMC3     H 6751   2.203   3.773  11.719  0.5956  1.0923 -0.2278
  453TMC3    H1 6752   2.473   3.910  11.431  0.8471 -0.0113  1.1315
  453TMC3    H2 6753   2.205   3.593  11.332 -1.8844 -0.1809  1.5508
  453TMC3    C7 6754   2.471   3.665  11.334  0.1700  0.2045 -0.2734
  453TMC3    C8 6755   2.097   3.599  11.573  0.5479 -0.1104 -0.2385
  453TMC3    O1 6756   2.450   3.595  11.237  0.2964 -0.1540 -0.1605
  453TMC3    O2 6757   1.976   3.604  11.551 -0.3349  0.1909  0.0502
  454MPD2     C 6758   1.267   3.346  16.153 -0.1103  0.1282  0.2321
  454MPD2    C1 6759   1.180   3.443  16.121  0.5898  0.4185 -1.1746
  454MPD2    C2 6760   1.123   3.523  16.218  0.7036  0.0933 -0.1459
  454MPD2    C3 6761   1.137   3.497  16.353  0.5184 -0.0177  0.1280
  454MPD2    C4 6762   1.229   3.404  16.387 -0.1771  0.1766 -0.2301
  454MPD2    C5 6763   1.287   3.330  16.283 -0.0020  0.3784  0.1993
  454MPD2     H 6764   1.061   3.608  16.191  2.0506  2.0955  2.9887
  454MPD2    H1 6765   1.245   3.377  16.491 -0.1422  2.9506  0.4999
  454MPD2    H2 6766   1.319   3.281  16.083  2.3896  1.3479  0.9792
  454MPD2    H3 6767   1.353   3.255  16.326  0.5705  0.9429  0.3082
  454MPD2     N 6768   1.060   3.565  16.450 -0.3076  0.6452  0.1593
  454MPD2    H5 6769   1.090   3.552  16.546  1.3092  0.4051 -0.3736
  454MPD2    N1 6770   1.121   3.456  15.996 -0.2935  0.0650  0.2656
  454MPD2    H7 6771   1.070   3.541  15.976  0.3664 -0.4379 -3.6346
  455TMC3    C1 6772   0.846   3.600  16.319  0.2788  0.1644  0.3648
  455TMC3    C2 6773   0.750   3.692  16.312 -0.7885 -0.2449 -0.6892
  455TMC3    C3 6774   0.636   3.660  16.244 -0.5391  0.1146 -0.7387
  455TMC3    C4 6775   0.826   3.480  16.266  0.1637  0.3557  0.1549
  455TMC3    C5 6776   0.714   3.462  16.190 -0.0642 -0.5559 -0.0736
  455TMC3    C6 6777   0.611   3.543  16.181 -0.4810  0.0792  0.1315
  455TMC3     C 6778   0.939   3.626  16.436  0.3808  0.2388  0.7858
  455TMC3     O 6779   0.873   3.663  16.529  0.2749  0.0470  0.2854
  455TMC3     H 6780   0.762   3.793  16.351 -1.0710 -0.8846  1.0489
  455TMC3    H1 6781   0.896   3.401  16.289 -1.0275 -0.6986  0.1577
  455TMC3    H2 6782   0.516   3.530  16.131 -1.8256  1.5671  2.3055
  455TMC3    C7 6783   0.712   3.352  16.097 -0.0790 -0.0800 -0.3919
  455TMC3    C8 6784   0.537   3.723  16.327 -0.7754  0.4962 -0.1436
  455TMC3    O1 6785   0.620   3.344  16.015  0.4009 -0.1377 -0.4862
  455TMC3    O2 6786   0.554   3.840  16.357 -0.5508  0.3570 -0.6947
  456MPD2     C 6787   3.480   3.454  15.470  0.1084  0.5900 -0.2689
  456MPD2    C1 6788   3.523   3.385  15.580  0.0867 -0.0899  0.0397
  456MPD2    C2 6789   3.474   3.419  15.702  0.4296  0.4286  0.5575
  456MPD2    C3 6790   3.364   3.501  15.720 -0.9940  0.7758 -0.2480
  456MPD2    C4 6791   3.317   3.561  15.608  0.5793  0.4946  0.3750
  456MPD2    C5 6792   3.382   3.544  15.483 -0.4139  0.4941  0.0847
  456MPD2     H 6793   3.508   3.368  15.791  1.7925  1.2525  0.5086
  456MPD2    H1 6794   3.231   3.626  15.615  0.7197  0.8949 -1.7171
  456MPD2    H2 6795   3.515   3.433  15.369 -0.6744  0.9864 -0.6283
  456MPD2    H3 6796   3.337   3.590  15.396 -0.1406  1.0241  0.2260
  456MPD2     N 6797   3.319   3.532  15.849  0.1518  0.0110 -1.0811
  456MPD2    H5 6798   3.374   3.487  15.922 -1.2751  1.1606  0.7069
  456MPD2    N1 6799   3.623   3.294  15.562  0.2027 -0.3739 -0.2050
  456MPD2    H7 6800   3.643   3.272  15.465 -1.2907  2.2252 -1.0900
  457TMC3    C1 6801   3.178   3.596  16.026 -0.0987  0.9520 -0.2164
  457TMC3    C2 6802   3.088   3.683  16.081  0.5557  0.1229 -0.3085
  457TMC3    C3 6803   3.070   3.682  16.217 -0.5679 -0.2357 -0.3857
  457TMC3    C4 6804   3.250   3.502  16.104 -0.0927  0.0377 -0.2407
  457TMC3    C5 6805   3.231   3.508  16.243  0.0968  0.5314 -0.7557
  457TMC3    C6 6806   3.140   3.597  16.298  0.6227 -0.8718 -0.1511
  457TMC3     C 6807   3.200   3.598  15.881 -0.6280  0.6403 -0.2624
  457TMC3     O 6808   3.121   3.664  15.810 -0.2308  0.4632 -0.0991
  457TMC3     H 6809   3.063   3.767  16.016  1.9105 -1.3804 -2.7590
  457TMC3    H1 6810   3.303   3.417  16.065 -2.8374 -2.3543  1.2177
  457TMC3    H2 6811   3.114   3.587  16.403 -1.2288  1.9694 -0.3309
  457TMC3    C7 6812   3.307   3.427  16.340  0.0913 -0.1649  0.5703
  457TMC3    C8 6813   3.035   3.808  16.281 -0.0968 -0.1102  0.8110
  457TMC3    O1 6814   3.269   3.413  16.453  0.2024 -0.6637  0.0913
  457TMC3    O2 6815   3.080   3.830  16.395  0.4482 -0.3548  0.2572
  458MPD2     C 6816   1.728   2.293  11.907  0.4785  0.7356  0.1829
  458MPD2    C1 6817   1.651   2.295  12.020  0.2145  0.7194 -0.0332
  458MPD2    C2 6818   1.521   2.241  12.007 -0.0403  0.0340 -0.3610
  458MPD2    C3 6819   1.469   2.203  11.889 -0.0814  0.8268  0.3521
  458MPD2    C4 6820   1.549   2.214  11.775  0.6567 -0.1473  0.5786
  458MPD2    C5 6821   1.680   2.255  11.788  0.0311 -0.1767 -0.3947
  458MPD2     H 6822   1.459   2.235  12.096  1.1141 -0.2107  0.4176
  458MPD2    H1 6823   1.511   2.190  11.676  1.3578  1.6086 -0.1133
  458MPD2    H2 6824   1.836   2.303  11.914  0.7374 -0.6570 -1.8628
  458MPD2    H3 6825   1.738   2.247  11.697 -0.5590  0.5588 -0.8367
  458MPD2     N 6826   1.332   2.155  11.892  0.4086 -0.7874 -0.1238
  458MPD2    H5 6827   1.291   2.162  11.984 -0.2670  0.5605 -0.5275
  458MPD2    N1 6828   1.693   2.341  12.147  0.2293 -0.3388  0.1392
  458MPD2    H7 6829   1.782   2.390  12.148  1.3674 -2.4321  1.3319
  459TMC3    C1 6830   1.691   2.420  12.360  0.5534 -0.1151  0.5699
  459TMC3    C2 6831   1.757   2.539  12.325  0.2682 -0.0888  0.1589
  459TMC3    C3 6832   1.802   2.619  12.427  0.2495 -0.4670 -0.3423
  459TMC3    C4 6833   1.683   2.388  12.491 -0.9287 -0.5643  0.0005
  459TMC3    C5 6834   1.716   2.476  12.594 -0.2523 -0.0312  0.4791
  459TMC3    C6 6835   1.785   2.594  12.563 -0.2735 -0.5444 -0.1461
  459TMC3     C 6836   1.633   2.326  12.265  0.8253  0.3275 -0.8395
  459TMC3     O 6837   1.534   2.266  12.304  0.1349  0.1870 -0.3582
  459TMC3     H 6838   1.755   2.588  12.228  0.1793 -0.5515 -0.0779
  459TMC3    H1 6839   1.654   2.287  12.519  0.1454 -1.2134 -1.2160
  459TMC3    H2 6840   1.834   2.656  12.637 -2.1352 -1.1618  1.6041
  459TMC3    C7 6841   1.686   2.429  12.728  0.2127  0.3055  0.3813
  459TMC3    C8 6842   1.875   2.745  12.397 -0.4763 -0.9845 -0.2918
  459TMC3    O1 6843   1.679   2.306  12.740 -0.0057  0.3972 -0.7968
  459TMC3    O2 6844   1.965   2.776  12.472 -0.6583 -0.5493  0.0153
  460MPD2     C 6845   0.798   4.647  10.697 -0.4059  0.2989  0.2116
  460MPD2    C1 6846   0.684   4.708  10.735  0.3986  0.0662 -0.1121
  460MPD2    C2 6847   0.625   0.077  10.650 -0.8245 -0.5960 -0.2799
  460MPD2    C3 6848   0.670   0.099  10.522 -0.0291  0.4414  0.0282
  460MPD2    C4 6849   0.793   0.042  10.483  0.1176 -0.1118  0.3122
  460MPD2    C5 6850   0.854   4.676  10.574  0.1760  0.0310  0.2004
  460MPD2     H 6851   0.528   0.123  10.668 -0.2885 -0.2665  1.7487
  460MPD2    H1 6852   0.841   0.067  10.389 -1.4753  0.1100 -0.4484
  460MPD2    H2 6853   0.838   4.571  10.762  2.1694  1.9939  0.6538
  460MPD2    H3 6854   0.948   4.627  10.551 -0.3179 -1.0759  0.5318
  460MPD2     N 6855   0.588   0.176  10.425 -0.0104  0.1240  0.1165
  460MPD2    H5 6856   0.503   0.219  10.460 -0.7775  0.6278 -2.3838
  460MPD2    N1 6857   0.624   4.672  10.858 -0.4654  0.7529 -0.5706
  460MPD2    H7 6858   0.683   4.611  10.913 -0.1816  1.1767 -0.4036
  461TMC3    C1 6859   0.519   0.268  10.224 -0.5197  0.5262  0.3342
  461TMC3    C2 6860   0.510   0.232  10.095 -0.0874 -0.5268  0.1145
  461TMC3    C3 6861   0.421   0.308  10.024  0.8065 -0.1280 -0.1075
  461TMC3    C4 6862   0.443   0.360  10.290  0.3651  0.1319  1.0414
  461TMC3    C5 6863   0.353   0.429  10.214 -0.2920 -0.2826  0.3273
  461TMC3    C6 6864   0.341   0.407  10.078  0.1523 -0.5918 -0.3493
  461TMC3     C 6865   0.619   0.193  10.291 -0.0568  0.1556 -0.2283
  461TMC3     O 6866   0.716   0.158  10.226  0.0450  0.2183 -0.0451
  461TMC3     H 6867   0.559   0.142  10.062 -1.9242 -2.2903  2.1796
  461TMC3    H1 6868   0.450   0.366  10.398 -2.1801 -1.7778  1.2977
  461TMC3    H2 6869   0.280   0.474  10.019  0.5530 -0.9037 -1.1184
  461TMC3    C7 6870   0.251   0.526  10.261 -0.0920  0.0081  0.1118
  461TMC3    C8 6871   0.392   0.269   9.885  0.2595 -0.0686 -0.0987
  461TMC3    O1 6872   0.141   0.523  10.213  0.2434  0.3505  0.2753
  461TMC3    O2 6873   0.486   0.206   9.832 -0.1541  0.0419 -0.0208
  462TMC3    C1 6874   0.068   1.176  17.678  0.0232  0.5178  0.7895
  462TMC3    C2 6875   0.167   1.107   0.042  0.1196  0.0906  0.5099
  462TMC3    C3 6876   0.128   0.998   0.120  0.3495  0.1479  0.4068
  462TMC3    C4 6877   4.655   1.150   0.002 -0.1754  0.4243  0.1269
  462TMC3    C5 6878   4.628   1.034   0.071  0.5400  0.8196  0.0915
  462TMC3    C6 6879   4.720   0.962   0.139  0.4523 -0.6034  0.2841
  462TMC3     C 6880   0.104   1.290  17.603  0.1569  0.1783 -0.0266
  462TMC3     O 6881   0.023   1.380  17.588 -0.1924 -0.5185 -0.0038
  462TMC3     H 6882   0.271   1.123   0.015 -0.0254  0.1173 -0.0369
  462TMC3    H1 6883   4.579   1.209  17.649  0.8493  0.6309 -1.2188
  462TMC3    H2 6884   4.702   0.866   0.185  2.4755  0.0871  2.5361
  462TMC3    C7 6885   4.489   0.995   0.099 -0.2314 -0.1081 -0.3218
  462TMC3    C8 6886   0.223   0.908   0.170 -0.4859  0.0786 -0.4470
  462TMC3    O1 6887   4.484   0.885   0.143  0.2398  0.5571  0.3422
  462TMC3    O2 6888   0.185   0.837   0.264 -0.0584 -0.4363  0.2725
  463MPD2     C 6889   1.253   4.484   1.712 -0.2452 -0.7393  0.1395
  463MPD2    C1 6890   1.188   4.601   1.693  0.0196 -0.1117 -0.6733
  463MPD2    C2 6891   1.268   4.713   1.667 -0.5031  0.1469  0.7307
  463MPD2    C3 6892   1.404   4.704   1.667 -0.5222 -0.0948 -0.0266
  463MPD2    C4 6893   1.459   4.586   1.692 -0.0764  0.2270  0.9881
  463MPD2    C5 6894   1.380   4.473   1.716  0.3215  0.6109 -0.1975
  463MPD2     H 6895   1.215   0.080   1.640 -2.9915 -1.1449  1.3414
  463MPD2    H1 6896   1.567   4.571   1.694  0.0371  0.9505  0.1969
  463MPD2    H2 6897   1.192   4.394   1.720 -0.4089 -0.4577  2.0842
  463MPD2    H3 6898   1.423   4.374   1.721  2.5254  1.5011 -1.2118
  463MPD2     N 6899   1.495   0.089   1.633  0.0693  0.0124 -0.0708
  463MPD2    H5 6900   1.595   0.071   1.632  0.5646  2.6162  1.2857
  463MPD2    N1 6901   1.048   4.625   1.700 -0.3635  0.2618 -0.5438
  463MPD2    H7 6902   1.009   4.716   1.675 -0.6193  0.5313  0.8488
  464TMC3    C1 6903   0.820   4.562   1.733  0.3161 -0.5063  0.2751
  464TMC3    C2 6904   0.768   4.652   1.639  0.2014 -0.0802  1.1185
  464TMC3    C3 6905   0.632   4.662   1.624  0.5537 -0.6121  0.3707
  464TMC3    C4 6906   0.741   4.485   1.814  0.2275  0.2265  0.2880
  464TMC3    C5 6907   0.608   4.496   1.787  0.9894 -0.3027 -0.0510
  464TMC3    C6 6908   0.549   4.578   1.696 -0.4868  0.3025 -0.2222
  464TMC3     C 6909   0.962   4.529   1.744  0.7603  0.1634  0.2418
  464TMC3     O 6910   0.984   4.424   1.805 -0.0971 -0.5432  0.2514
  464TMC3     H 6911   0.834   4.708   1.573 -0.2347 -0.9192 -0.0300
  464TMC3    H1 6912   0.778   4.417   1.889 -0.9624 -1.1498 -0.3686
  464TMC3    H2 6913   0.444   4.575   1.670 -0.0810 -1.3765 -1.6552
  464TMC3    C7 6914   0.526   4.402   1.858 -0.2649  0.4282 -0.5495
  464TMC3    C8 6915   0.574   0.051   1.559 -0.3683  0.5511 -0.6658
  464TMC3    O1 6916   0.524   4.412   1.981  0.2682  0.3927 -0.8517
  464TMC3    O2 6917   0.648   0.114   1.485  0.3880  0.7201  0.0261
  465MPD2     C 6918   2.777   3.597  16.425  0.1401 -0.0852  0.9606
  465MPD2    C1 6919   2.718   3.546  16.535 -0.5790  0.1337 -0.2336
  465MPD2    C2 6920   2.595   3.488  16.528  0.2775  0.4212 -0.2742
  465MPD2    C3 6921   2.515   3.522  16.423 -0.1346 -0.2165 -0.1562
  465MPD2    C4 6922   2.566   3.599  16.317  0.1056 -0.0822 -0.3496
  465MPD2    C5 6923   2.699   3.619  16.317  1.0160  0.1878 -0.3881
  465MPD2     H 6924   2.554   3.438  16.615  2.4959 -1.6636 -0.4121
  465MPD2    H1 6925   2.510   3.625  16.228 -1.3679 -1.0865  0.2877
  465MPD2    H2 6926   2.880   3.632  16.426  0.8204 -2.0605  0.4752
  465MPD2    H3 6927   2.740   3.660  16.226  1.0608  2.5863  0.7259
  465MPD2     N 6928   2.376   3.486  16.429 -0.0229  0.1982  0.6920
  465MPD2    H5 6929   2.342   3.450  16.518  1.6581 -2.1012  0.4134
  465MPD2    N1 6930   2.795   3.511  16.652  0.1929 -0.3354 -0.0638
  465MPD2    H7 6931   2.755   3.446  16.719  2.0827 -2.8845 -1.4180
  466TMC3    C1 6932   2.016   3.572  16.500 -0.1725 -0.3972 -0.2198
  466TMC3    C2 6933   1.956   3.655  16.410  0.1819 -0.5219  0.2370
  466TMC3    C3 6934   1.990   3.636  16.282  0.9488  0.0121 -0.8373
  466TMC3    C4 6935   2.126   3.492  16.476  0.1177  0.7604 -0.2061
  466TMC3    C5 6936   2.164   3.491  16.346 -0.3601  0.1058 -0.0140
  466TMC3    C6 6937   2.087   3.549  16.244 -0.4998 -0.0099  0.4371
  466TMC3     C 6938   1.963   3.575  16.631  0.6640  0.0260  0.4039
  466TMC3     O 6939   1.862   3.640  16.649  0.5475 -0.3447  0.1865
  466TMC3     H 6940   1.872   3.713  16.446  0.9251  1.8521 -1.8673
  466TMC3    H1 6941   2.164   3.421  16.548 -2.0351 -0.6113 -0.4418
  466TMC3    H2 6942   2.114   3.535  16.140 -0.0713 -0.5533  0.6223
  466TMC3    C7 6943   2.301   3.482  16.314  0.3523  0.4863 -0.0435
  466TMC3    C8 6944   1.980   3.756  16.190 -0.8079  0.3020  0.0318
  466TMC3    O1 6945   2.326   3.498  16.195  0.0428  0.3166 -0.2505
  466TMC3    O2 6946   2.034   3.748  16.081 -0.1120 -0.3597  0.4342
  467TMC3    C1 6947   3.037   1.935  13.273  0.5994  0.0805  0.3961
  467TMC3    C2 6948   3.061   1.916  13.138 -0.1934 -0.8668  0.3224
  467TMC3    C3 6949   2.952   1.910  13.058  0.0311 -0.0931  0.3238
  467TMC3    C4 6950   2.911   1.935  13.327 -0.7323 -0.3014  0.1064
  467TMC3    C5 6951   2.808   1.945  13.237 -0.2826 -0.5647 -0.3294
  467TMC3    C6 6952   2.824   1.918  13.101 -0.3719 -0.8336 -0.1229
  467TMC3     C 6953   3.156   1.969  13.353  1.0789 -0.0956  0.0918
  467TMC3     O 6954   3.263   1.938  13.298  0.3424  0.1174  0.4332
  467TMC3     H 6955   3.161   1.909  13.098 -0.2249 -1.7927  0.4251
  467TMC3    H1 6956   2.896   1.959  13.432 -1.2586  2.2320 -0.5593
  467TMC3    H2 6957   2.747   1.916  13.025 -0.1889  1.1627 -0.3626
  467TMC3    C7 6958   2.674   1.981  13.284 -0.9068 -1.1696  1.1030
  467TMC3    C8 6959   2.971   1.902  12.918  0.5788 -0.3656 -0.4125
  467TMC3    O1 6960   2.580   1.992  13.206  0.5924  0.4814 -0.3512
  467TMC3    O2 6961   2.895   1.837  12.844 -0.2399 -0.4742  0.0223
  468MPD2     C 6962   2.413   4.666  10.827 -0.5749  0.3402 -0.0433
  468MPD2    C1 6963   2.517   4.652  10.919 -0.1012 -0.0975  0.0461
  468MPD2    C2 6964   2.537   4.525  10.973  0.1026  0.8169  0.1285
  468MPD2    C3 6965   2.460   4.415  10.935 -0.0474  0.0749 -0.1924
  468MPD2    C4 6966   2.357   4.441  10.849 -0.1106  0.7721  0.6495
  468MPD2    C5 6967   2.329   4.564  10.798  0.9340  0.8751  0.3110
  468MPD2     H 6968   2.610   4.509  11.052  2.4329  0.8973 -2.0096
  468MPD2    H1 6969   2.294   4.359  10.817 -0.9044  1.7281 -0.2196
  468MPD2    H2 6970   2.399   0.037  10.776  1.8724 -0.0794 -1.5243
  468MPD2    H3 6971   2.265   4.576  10.712  0.4689  0.0635  0.5436
  468MPD2     N 6972   2.484   4.283  10.967 -0.6334  0.0300  0.2301
  468MPD2    H5 6973   2.412   4.216  10.941 -2.3300  2.0106 -0.1362
  468MPD2    N1 6974   2.603   0.035  10.957  0.5494 -0.1383 -0.6735
  468MPD2    H7 6975   2.691   0.016  11.004 -0.0252  3.1951  1.7083
  469TMC3    C1 6976   2.670   0.253  11.007  0.2276 -0.4697 -0.7050
  469TMC3    C2 6977   2.799   0.213  11.031  0.1672  0.3785  0.9651
  469TMC3    C3 6978   2.877   0.286  11.110 -0.3168  0.1264  0.4960
  469TMC3    C4 6979   2.635   0.383  11.035  0.1579  0.0261 -0.0159
  469TMC3    C5 6980   2.718   0.461  11.114 -0.0563 -0.5370  0.1007
  469TMC3    C6 6981   2.848   0.414  11.141  0.1754  0.5250  0.0439
  469TMC3     C 6982   2.568   0.167  10.941 -0.5583  0.1093  0.2023
  469TMC3     O 6983   2.459   0.211  10.909  0.0357 -0.6953 -0.0798
  469TMC3     H 6984   2.839   0.117  11.002  1.3585  1.2299 -0.2163
  469TMC3    H1 6985   2.534   0.417  11.016  0.4399  0.7218 -0.2754
  469TMC3    H2 6986   2.925   0.475  11.186  0.5324  0.9003 -1.0735
  469TMC3    C7 6987   2.686   0.602  11.128  0.2208  0.4275 -0.3458
  469TMC3    C8 6988   2.984   0.223  11.176  0.3344 -0.1465 -0.3843
  469TMC3    O1 6989   2.593   0.636  11.059 -0.3180  0.2461  0.2395
  469TMC3    O2 6990   3.037   0.127  11.124  0.2263  0.2281 -0.4203
  470TMC3    C1 6991   4.062   1.312   0.400  0.2564 -0.6956 -0.2713
  470TMC3    C2 6992   4.040   1.448   0.424  0.1526 -0.4089 -0.5176
  470TMC3    C3 6993   4.149   1.519   0.483 -0.3330  1.3960 -0.9486
  470TMC3    C4 6994   4.184   1.260   0.428 -0.5181 -0.1900  0.4025
  470TMC3    C5 6995   4.285   1.333   0.482 -0.2822 -0.2020  0.0592
  470TMC3    C6 6996   4.272   1.468   0.514 -0.0525 -0.4221 -0.3692
  470TMC3     C 6997   3.949   1.231   0.385  0.0363 -0.0115  0.1149
  470TMC3     O 6998   3.848   1.282   0.336 -0.3827  0.1590 -0.3705
  470TMC3     H 6999   3.940   1.488   0.412  0.4444 -0.0837 -1.8883
  470TMC3    H1 7000   4.209   1.156   0.412  1.4050  0.5099 -1.3102
  470TMC3    H2 7001   4.355   1.515   0.565  1.1048 -4.4372  1.4022
  470TMC3    C7 7002   4.391   1.252   0.541  0.5066  0.7981 -0.8454
  470TMC3    C8 7003   4.121   1.645   0.543  0.1680  0.0830 -0.7073
  470TMC3    O1 7004   4.425   1.154   0.476  0.3645 -0.0505  0.7636
  470TMC3    O2 7005   4.189   1.678   0.639 -0.6119 -0.1746 -0.3604
  471MPD2     C 7006   0.521   2.530  16.277  0.5968 -0.1764 -0.4484
  471MPD2    C1 7007   0.529   2.395  16.296  0.7468 -0.1736  0.1996
  471MPD2    C2 7008   0.608   2.348  16.391 -0.2543  0.1527  0.2626
  471MPD2    C3 7009   0.686   2.428  16.475 -0.6083 -0.4076  0.0772
  471MPD2    C4 7010   0.687   2.567  16.447 -0.4542 -0.0238  0.3010
  471MPD2    C5 7011   0.598   2.611  16.352  0.4332 -0.1912 -0.0185
  471MPD2     H 7012   0.610   2.240  16.396 -3.0115  0.0064 -2.1870
  471MPD2    H1 7013   0.756   2.634  16.498 -1.3249 -2.5948  4.8030
  471MPD2    H2 7014   0.456   2.576  16.203  1.5486  1.4328 -0.2934
  471MPD2    H3 7015   0.597   2.719  16.342 -0.1909 -0.1079  0.8811
  471MPD2     N 7016   0.754   2.378  16.591 -0.1068 -0.1799 -0.1749
  471MPD2    H5 7017   0.827   2.430  16.638 -1.5558  4.3508 -2.8568
  471MPD2    N1 7018   0.444   2.305  16.231  0.6805  0.3123 -0.2807
  471MPD2    H7 7019   0.448   2.209  16.265  0.9199  0.1972 -0.6366
  472TMC3    C1 7020   0.309   2.216  16.059 -0.6160  0.2674  0.2637
  472TMC3    C2 7021   0.281   2.228  15.923  0.0506 -0.2814 -0.2840
  472TMC3    C3 7022   0.256   2.125  15.846  1.0181  0.2106  0.8872
  472TMC3    C4 7023   0.311   2.092  16.117 -0.4065 -0.3523 -0.9525
  472TMC3    C5 7024   0.271   1.986  16.041  0.3792  0.0396 -0.1237
  472TMC3    C6 7025   0.248   2.002  15.909  0.0373  0.3263 -0.2190
  472TMC3     C 7026   0.361   2.333  16.128 -0.4727  0.5629 -0.0038
  472TMC3     O 7027   0.348   2.437  16.065  0.1461 -0.7484 -0.2040
  472TMC3     H 7028   0.271   2.330  15.888  0.8475  0.1565  0.7689
  472TMC3    H1 7029   0.320   2.083  16.225 -0.4138  3.1458 -0.6755
  472TMC3    H2 7030   0.234   1.922  15.838 -0.2638  1.7402 -1.7502
  472TMC3    C7 7031   0.210   1.873  16.112 -0.1921  0.1069 -0.2368
  472TMC3    C8 7032   0.133   2.134  15.767 -0.0745  0.9861 -0.0634
  472TMC3    O1 7033   0.239   1.851  16.228 -0.7244  0.4229 -0.3716
  472TMC3    O2 7034   0.127   2.213  15.672  0.0018  0.5582 -0.4787
  473MPD2     C 7035   0.134   4.246  13.852  0.0744 -0.1916  0.1889
  473MPD2    C1 7036   0.133   4.344  13.752 -0.3763  0.0399  0.5115
  473MPD2    C2 7037   0.209   4.460  13.771 -0.5032  0.6215  0.4114
  473MPD2    C3 7038   0.276   4.480  13.890 -0.1355  0.4623  0.5728
  473MPD2    C4 7039   0.271   4.381  13.988 -0.0474 -0.6382 -0.5426
  473MPD2    C5 7040   0.193   4.268  13.971 -0.4302 -0.3764  0.3611
  473MPD2     H 7041   0.212   4.529  13.687 -0.3496  0.7554  0.5273
  473MPD2    H1 7042   0.337   4.369  14.072  0.4017 -1.7963 -1.0608
  473MPD2    H2 7043   0.100   4.144  13.839  0.9924 -0.2689 -1.6052
  473MPD2    H3 7044   0.199   4.180  14.034  0.4767 -0.6168 -0.0690
  473MPD2     N 7045   0.330   4.610  13.923  0.5547  0.0012  0.0617
  473MPD2    H5 7046   0.334   4.679  13.849  0.9239 -0.8333 -0.6950
  473MPD2    N1 7047   0.063   4.315  13.634 -0.4131  0.2690  0.2232
  473MPD2    H7 7048   0.057   4.386  13.561  0.0196  1.1092  1.0002
  474TMC3    C1 7049   0.418   0.054  14.060  0.5303  0.5056 -0.1775
  474TMC3    C2 7050   0.311   0.131  14.024 -0.2216  0.0349 -0.0114
  474TMC3    C3 7051   0.304   0.260  14.079 -0.0321  0.1715 -0.2335
  474TMC3    C4 7052   0.475   0.082  14.183  0.0934 -0.0753  0.2328
  474TMC3    C5 7053   0.462   0.209  14.236  0.1021  0.1774  0.3232
  474TMC3    C6 7054   0.379   0.307  14.185  0.3454  0.2644 -0.0083
  474TMC3     C 7055   0.398   4.635  14.039  0.8130 -0.0307  0.6081
  474TMC3     O 7056   0.461   4.555  14.112 -0.3321  0.1398  0.3450
  474TMC3     H 7057   0.239   0.096  13.950 -0.0264 -0.0286 -0.1724
  474TMC3    H1 7058   0.541   0.008  14.226  1.1891  0.1684 -1.0312
  474TMC3    H2 7059   0.385   0.407  14.227 -2.6197  1.2324 -1.9366
  474TMC3    C7 7060   0.580   0.247  14.311 -0.6524  0.1677 -0.1025
  474TMC3    C8 7061   0.170   0.319  14.057  0.3147 -0.1442 -0.0816
  474TMC3    O1 7062   0.680   0.176  14.288 -0.4198 -0.6585  0.1140
  474TMC3    O2 7063   0.082   0.250  14.000  0.2764  0.2788 -0.2967
  475MPD2     C 7064   3.453   2.587  10.008 -1.0280  0.9820  0.7552
  475MPD2    C1 7065   3.352   2.633   9.926 -0.7436 -0.2163 -0.3899
  475MPD2    C2 7066   3.221   2.620   9.967  0.5397 -0.4106 -0.1910
  475MPD2    C3 7067   3.189   2.550  10.086 -0.3862  0.4221  0.1552
  475MPD2    C4 7068   3.288   2.487  10.152 -0.3233 -0.2967 -0.3949
  475MPD2    C5 7069   3.415   2.510  10.114  0.3042 -0.5582 -0.7649
  475MPD2     H 7070   3.147   2.665   9.902 -0.8526 -1.1220  0.9199
  475MPD2    H1 7071   3.280   2.427  10.242  1.1540  1.7110  1.0744
  475MPD2    H2 7072   3.560   2.595   9.991 -1.0554  1.3478  0.7682
  475MPD2    H3 7073   3.494   2.463  10.171 -1.6180 -0.7645  1.6970
  475MPD2     N 7074   3.051   2.527  10.120 -0.6313 -0.3478  0.4129
  475MPD2    H5 7075   2.980   2.570  10.062 -1.7602 -1.5705  0.8982
  475MPD2    N1 7076   3.401   2.712   9.824  0.2689  0.3284  0.0506
  475MPD2    H7 7077   3.501   2.723   9.826 -0.0408  3.2551 -1.0422
  476TMC3    C1 7078   3.407   2.861   9.652 -0.2662 -0.2332 -0.2862
  476TMC3    C2 7079   3.366   2.882   9.525  0.6665 -0.1593  0.7687
  476TMC3    C3 7080   3.398   2.998   9.465 -0.2237  0.0295  0.3098
  476TMC3    C4 7081   3.492   2.947   9.727  0.5395 -0.0041 -0.2038
  476TMC3    C5 7082   3.528   3.061   9.655 -0.3017  0.1180  0.1270
  476TMC3    C6 7083   3.479   3.088   9.531 -0.3643 -0.6647  0.0852
  476TMC3     C 7084   3.323   2.774   9.731 -0.6200 -0.8570  0.2822
  476TMC3     O 7085   3.207   2.759   9.693 -0.6261 -0.4131  0.4125
  476TMC3     H 7086   3.308   2.801   9.483 -1.0785  0.6707  1.6163
  476TMC3    H1 7087   3.527   2.936   9.829 -1.2145  0.2156  0.4149
  476TMC3    H2 7088   3.510   3.176   9.477 -3.7923  0.5865  0.1631
  476TMC3    C7 7089   3.627   3.149   9.711  0.2599  0.1313 -0.4580
  476TMC3    C8 7090   3.360   3.024   9.322  0.0494  0.5813  0.1128
  476TMC3    O1 7091   3.692   3.214   9.629  0.0342  0.0696  0.1901
  476TMC3    O2 7092   3.401   3.121   9.270 -0.4846 -0.9369  0.0755
  477MPD2     C 7093   0.699   3.773  11.569  1.0439  0.3559  0.3308
  477MPD2    C1 7094   0.731   3.878  11.647 -0.1160  0.0585 -0.0749
  477MPD2    C2 7095   0.819   3.867  11.754 -0.2785 -0.0471  0.3381
  477MPD2    C3 7096   0.876   3.742  11.779 -0.2924 -0.8724  0.1443
  477MPD2    C4 7097   0.845   3.636  11.690  0.6644  0.6974 -0.0902
  477MPD2    C5 7098   0.758   3.649  11.584 -0.1032 -0.9625  0.0088
  477MPD2     H 7099   0.836   3.942  11.830 -1.0563  0.2722  0.1906
  477MPD2    H1 7100   0.881   3.535  11.705  0.4768  0.9298  1.9581
  477MPD2    H2 7101   0.635   3.802  11.487 -1.2172 -0.6867  1.7261
  477MPD2    H3 7102   0.733   3.560  11.527 -0.9859 -0.3689 -0.5299
  477MPD2     N 7103   0.967   3.730  11.892  0.5977 -0.3922  0.3528
  477MPD2    H5 7104   0.985   3.809  11.952 -1.3338 -1.1813  1.9876
  477MPD2    N1 7105   0.657   3.998  11.623  0.3670  0.2019 -0.0535
  477MPD2    H7 7106   0.594   4.014  11.545 -0.3037  1.6786  0.8047
  478TMC3    C1 7107   0.589   4.224  11.633 -0.8667 -0.0957 -0.6982
  478TMC3    C2 7108   0.513   4.291  11.720  0.4197 -0.2423  0.2234
  478TMC3    C3 7109   0.412   4.372  11.679  0.0880  0.5612  0.7231
  478TMC3    C4 7110   0.584   4.239  11.502 -0.3789  0.0649  0.3944
  478TMC3    C5 7111   0.488   4.325  11.455  0.4917  0.2745  0.3073
  478TMC3    C6 7112   0.397   4.386  11.539 -0.3593  0.6490  0.0260
  478TMC3     C 7113   0.678   4.121  11.688 -0.0306  0.8951  0.6632
  478TMC3     O 7114   0.707   4.145  11.803 -0.6178  0.5395  0.4792
  478TMC3     H 7115   0.519   4.279  11.827 -1.1128  0.4528  0.3789
  478TMC3    H1 7116   0.662   4.192  11.443  2.1879  0.6491  3.3282
  478TMC3    H2 7117   0.326   4.453  11.493 -1.2665  0.5557  1.3080
  478TMC3    C7 7118   0.453   4.319  11.313 -0.2040  0.4346  0.6022
  478TMC3    C8 7119   0.345   4.459  11.781 -0.0096 -0.3754  0.0853
  478TMC3    O1 7120   0.332   4.327  11.292  0.8475  0.0362  0.0311
  478TMC3    O2 7121   0.384   4.445  11.893  0.0573  0.8166  0.4824
  479MPD2     C 7122   4.625   1.711  14.843 -0.0341  0.2091  0.6208
  479MPD2    C1 7123   4.567   1.650  14.955 -0.0263 -0.2092 -0.2022
  479MPD2    C2 7124   4.621   1.669  15.077  0.8759 -1.2228  0.1503
  479MPD2    C3 7125   4.717   1.763  15.100  0.0128 -0.0100  0.4207
  479MPD2    C4 7126   0.042   1.839  14.992 -0.3884  0.3570 -0.1184
  479MPD2    C5 7127   4.721   1.809  14.869  0.8215 -0.5742 -0.2041
  479MPD2     H 7128   4.583   1.602  15.153  0.1254 -1.7924 -0.7325
  479MPD2    H1 7129   0.125   1.906  15.008  0.3779 -0.7866  0.7531
  479MPD2    H2 7130   4.594   1.696  14.740 -0.0592  0.1401  0.6381
  479MPD2    H3 7131   0.034   1.862  14.782 -1.6745 -0.1107 -0.9747
  479MPD2     N 7132   0.054   1.779  15.227  0.1548 -0.3200 -0.1846
  479MPD2    H5 7133   0.137   1.837  15.227 -0.8871  1.1901  1.2079
  479MPD2    N1 7134   4.448   1.571  14.942  0.6371  0.8563 -0.5992
  479MPD2    H7 7135   4.413   1.546  14.850  0.1980  0.1767 -0.2442
  480TMC3    C1 7136   4.449   1.615  15.536  0.4311  0.2162 -0.5248
  480TMC3    C2 7137   4.356   1.710  15.496 -0.0870  0.5001 -0.3432
  480TMC3    C3 7138   4.389   1.805  15.404  0.0756 -0.0326  0.2813
  480TMC3    C4 7139   4.574   1.613  15.476  0.2223  0.0109 -0.1365
  480TMC3    C5 7140   4.599   1.705  15.373 -0.2095  0.6875  0.1345
  480TMC3    C6 7141   4.508   1.799  15.341  0.2192  0.1614 -0.6917
  480TMC3     C 7142   4.423   1.525  15.649  0.3766  0.3165  1.1442
  480TMC3     O 7143   4.522   1.463  15.678  0.4746 -0.2951 -0.3639
  480TMC3     H 7144   4.254   1.702  15.530  0.5235  1.0531  1.6042
  480TMC3    H1 7145   4.646   1.547  15.523 -0.6353 -1.4042 -0.7798
  480TMC3    H2 7146   4.545   1.875  15.272  0.3707  1.5083  0.8893
  480TMC3    C7 7147   0.017   1.735  15.348  0.3266 -0.0389  0.3439
  480TMC3    C8 7148   4.273   1.880  15.351  0.3097  0.1184  0.3028
  480TMC3    O1 7149   0.084   1.715  15.446 -0.3930 -0.3823  0.4230
  480TMC3    O2 7150   4.192   1.934  15.423  0.0131 -0.0736 -0.2659
  481MPD2     C 7151   1.536   1.417  14.031 -0.3546  0.6806  0.1534
  481MPD2    C1 7152   1.404   1.395  14.053  0.1442 -1.4440  0.5443
  481MPD2    C2 7153   1.357   1.392  14.186 -1.2493  0.2188 -0.1567
  481MPD2    C3 7154   1.444   1.410  14.293 -0.2519  0.9575  0.0142
  481MPD2    C4 7155   1.581   1.412  14.264  0.6540 -0.5764  0.2154
  481MPD2    C5 7156   1.624   1.419  14.138 -0.0629 -0.1904  0.7415
  481MPD2     H 7157   1.251   1.385  14.209 -0.9786 -1.9576  0.3601
  481MPD2    H1 7158   1.645   1.440  14.347 -0.7859  1.9833  0.4452
  481MPD2    H2 7159   1.566   1.427  13.928  2.7376  0.7156  1.0405
  481MPD2    H3 7160   1.723   1.455  14.115 -0.4161 -0.4139 -1.1935
  481MPD2     N 7161   1.400   1.390  14.428  0.5586  0.3264  0.1675
  481MPD2    H5 7162   1.473   1.401  14.497  1.1773 -0.5629 -0.3437
  481MPD2    N1 7163   1.320   1.396  13.939  0.4614  0.6437 -0.1323
  481MPD2    H7 7164   1.377   1.395  13.855  0.4306  1.2421 -0.1590
  482TMC3    C1 7165   1.133   1.353  13.801 -0.1069  0.2135 -0.0904
  482TMC3    C2 7166   1.023   1.271  13.804  0.6295 -0.4918 -0.6263
  482TMC3    C3 7167   0.930   1.298  13.706 -0.7076 -0.7765  0.7386
  482TMC3    C4 7168   1.144   1.460  13.713 -0.0292  0.0136 -0.0054
  482TMC3    C5 7169   1.053   1.470  13.617 -0.8048  0.1199 -0.0207
  482TMC3    C6 7170   0.947   1.388  13.610 -1.4804 -0.4625  0.2087
  482TMC3     C 7171   1.190   1.362  13.937 -0.2035  0.1168 -0.1863
  482TMC3     O 7172   1.110   1.339  14.028 -0.1353  0.0074 -0.2615
  482TMC3     H 7173   1.014   1.185  13.868  2.7764  0.2807  0.7270
  482TMC3    H1 7174   1.225   1.532  13.723  3.0749 -3.7924  2.5370
  482TMC3    H2 7175   0.873   1.396  13.531 -0.6573  0.7696 -0.4541
  482TMC3    C7 7176   1.096   1.542  13.500  0.4003  0.7999 -0.2185
  482TMC3    C8 7177   0.822   1.205  13.704  0.5720 -0.7225  0.9417
  482TMC3    O1 7178   1.167   1.638  13.516 -0.5020  0.4514 -0.2057
  482TMC3    O2 7179   0.857   1.090  13.727 -0.3627  0.3748  0.3376
  483TMC3    C1 7180   4.003   0.448   1.424  0.6595  0.1124  0.2683
  483TMC3    C2 7181   3.999   0.519   1.306 -0.0439 -0.1552 -0.2875
  483TMC3    C3 7182   4.109   0.553   1.239  0.6021  0.5382 -0.5152
  483TMC3    C4 7183   4.135   0.405   1.457  0.4393  0.3629 -0.2646
  483TMC3    C5 7184   4.254   0.438   1.387 -0.0836  0.2978  0.4991
  483TMC3    C6 7185   4.240   0.516   1.273 -0.5519 -0.0329  0.6810
  483TMC3     C 7186   3.885   0.372   1.468  0.0247  0.3150 -0.3099
  483TMC3     O 7187   3.774   0.425   1.475 -0.5664 -0.4088  0.3905
  483TMC3     H 7188   3.905   0.558   1.269 -0.0933 -0.3160 -0.3314
  483TMC3    H1 7189   4.133   0.339   1.542  0.4070 -0.6666 -1.0692
  483TMC3    H2 7190   4.319   0.527   1.199 -1.4892  0.3435 -0.2738
  483TMC3    C7 7191   4.354   0.323   1.390 -0.0014 -0.0220  0.5905
  483TMC3    C8 7192   4.088   0.590   1.099  0.4270  0.0716  0.5668
  483TMC3    O1 7193   4.339   0.241   1.478 -0.3826  0.4231 -0.3126
  483TMC3    O2 7194   3.997   0.530   1.043  0.9025 -0.1372  0.0394
  484MPD2     C 7195   1.717   3.052  12.270  0.2805  0.2656 -0.2897
  484MPD2    C1 7196   1.828   2.972  12.296  0.4143 -0.1833 -0.3968
  484MPD2    C2 7197   1.956   3.024  12.305 -0.0251 -0.2779  0.3326
  484MPD2    C3 7198   1.977   3.156  12.288  0.3059  0.3787 -0.1760
  484MPD2    C4 7199   1.870   3.236  12.254 -0.0506  0.8974 -0.4200
  484MPD2    C5 7200   1.742   3.184  12.251 -0.1753  0.1682  0.1375
  484MPD2     H 7201   2.025   2.947  12.338 -0.0493 -0.0101  1.0143
  484MPD2    H1 7202   1.878   3.345  12.252 -0.1978  0.8951 -1.2554
  484MPD2    H2 7203   1.613   3.022  12.269  0.1964  0.5760 -0.7284
  484MPD2    H3 7204   1.663   3.258  12.247  1.7186  2.1532 -0.5780
  484MPD2     N 7205   2.112   3.206  12.286  0.5575  0.5553  0.4533
  484MPD2    H5 7206   2.121   3.296  12.241 -0.3659  0.0503 -0.7326
  484MPD2    N1 7207   1.799   2.838  12.324 -0.2215 -0.6232 -0.3178
  484MPD2    H7 7208   1.706   2.807  12.295 -0.8242 -0.4407  1.4372
  485TMC3    C1 7209   2.345   3.210  12.299  0.7238 -0.6116  0.1684
  485TMC3    C2 7210   2.459   3.174  12.368  0.4519 -0.8864  0.7946
  485TMC3    C3 7211   2.572   3.249  12.362  0.0091 -0.1423  0.2570
  485TMC3    C4 7212   2.344   3.322  12.225 -0.0035  0.6651 -0.7217
  485TMC3    C5 7213   2.459   3.401  12.229 -0.3037  0.4542  0.7351
  485TMC3    C6 7214   2.572   3.375  12.306 -0.4747  0.3999 -0.0801
  485TMC3     C 7215   2.225   3.147  12.335  0.4484  0.7206  0.6074
  485TMC3     O 7216   2.233   3.048  12.409  0.3671  0.4866 -0.1092
  485TMC3     H 7217   2.452   3.082  12.425  0.1663 -1.3911 -0.0655
  485TMC3    H1 7218   2.267   3.340  12.151 -1.0712 -0.0514  0.2350
  485TMC3    H2 7219   2.657   3.440  12.317  0.6640 -1.0379 -0.4009
  485TMC3    C7 7220   2.493   3.463  12.101 -0.4713 -0.2931  0.1951
  485TMC3    C8 7221   2.703   3.181  12.353 -0.5057  0.1614  0.6182
  485TMC3    O1 7222   2.400   3.506  12.033  0.5466  0.5699 -0.4022
  485TMC3    O2 7223   2.794   3.255  12.312  0.0606  0.2671  0.4747
  486MPD2     C 7224   3.836   1.651  12.611  0.2362 -1.0560  0.3656
  486MPD2    C1 7225   3.849   1.639  12.479  0.3907  0.0999  0.3024
  486MPD2    C2 7226   3.906   1.749  12.413 -0.7184 -0.3574 -0.1031
  486MPD2    C3 7227   3.959   1.863  12.482  0.1154  0.1372  0.4291
  486MPD2    C4 7228   3.952   1.861  12.613 -0.4672  0.0947 -0.0783
  486MPD2    C5 7229   3.889   1.758  12.683  0.1774  0.0773 -0.4257
  486MPD2     H 7230   3.907   1.757  12.305  1.0028 -0.7802 -0.1315
  486MPD2    H1 7231   3.993   1.939  12.677  1.5722 -1.6115  0.6997
  486MPD2    H2 7232   3.804   1.562  12.663 -1.0982 -0.5759  0.3764
  486MPD2    H3 7233   3.885   1.751  12.791 -1.9519  0.3537 -0.4930
  486MPD2     N 7234   3.994   1.979  12.412  0.1731 -0.2975  0.1023
  486MPD2    H5 7235   4.021   1.954  12.317 -0.1456  0.9115 -0.3032
  486MPD2    N1 7236   3.815   1.515  12.418  0.2220 -0.3364 -0.5952
  486MPD2    H7 7237   3.790   1.439  12.481  0.2184 -1.2889 -1.7569
  487TMC3    C1 7238   3.777   1.353  12.251  0.3207 -1.0540 -0.2174
  487TMC3    C2 7239   3.665   1.369  12.175 -0.1035 -0.4937 -0.4796
  487TMC3    C3 7240   3.551   1.297  12.209  0.0428  0.4389  0.5854
  487TMC3    C4 7241   3.777   1.263  12.356  0.3797 -0.2430 -1.5664
  487TMC3    C5 7242   3.667   1.191  12.380  0.2895  0.3719  0.1670
  487TMC3    C6 7243   3.557   1.199  12.300  0.3441 -0.2161 -0.6979
  487TMC3     C 7244   3.828   1.487  12.278  0.2086 -0.7836  1.6082
  487TMC3     O 7245   3.837   1.565  12.186  0.1693  0.0988 -0.1154
  487TMC3     H 7246   3.658   1.441  12.094 -0.2895 -0.1508 -0.1581
  487TMC3    H1 7247   3.859   1.267  12.427 -0.5185 -0.7120 -0.4963
  487TMC3    H2 7248   3.476   1.129  12.317  1.1780 -1.4846 -1.9570
  487TMC3    C7 7249   3.648   1.193  12.524 -0.5465 -0.3334 -0.0371
  487TMC3    C8 7250   3.418   1.335  12.182  0.3131  0.0590  0.0353
  487TMC3    O1 7251   3.735   1.246  12.595  0.5868  0.5252 -0.7380
  487TMC3    O2 7252   3.362   1.275  12.089  0.4237 -0.8153  0.5223
  488MPD2     C 7253   4.106   3.273  16.164 -0.4137 -0.3919  0.2701
  488MPD2    C1 7254   4.136   3.381  16.243 -0.6702 -0.0313  0.0295
  488MPD2    C2 7255   4.147   3.360  16.379  0.3791  0.2802  0.0036
  488MPD2    C3 7256   4.123   3.238  16.436  0.8058 -0.1456 -0.1228
  488MPD2    C4 7257   4.083   3.131  16.357  0.0490 -0.5432  0.3446
  488MPD2    C5 7258   4.078   3.147  16.219 -0.8106 -0.6840 -0.0840
  488MPD2     H 7259   4.183   3.438  16.446  0.2275 -0.2132  0.6541
  488MPD2    H1 7260   4.048   3.040  16.404 -0.7847 -0.3135  0.1825
  488MPD2    H2 7261   4.104   3.272  16.056  0.1306  0.4916  0.2574
  488MPD2    H3 7262   4.047   3.064  16.156 -2.1693 -1.7073  1.9259
  488MPD2     N 7263   4.141   3.230  16.572  0.0509 -0.3800 -0.6967
  488MPD2    H5 7264   4.166   3.320  16.612  0.4729 -1.4454  1.4807
  488MPD2    N1 7265   4.165   3.510  16.193 -0.2993 -0.2008 -0.1042
  488MPD2    H7 7266   4.184   3.586  16.257  2.8578 -0.1713 -1.0703
  489TMC3    C1 7267   4.138   3.155  16.802 -0.0707 -0.5586  0.8331
  489TMC3    C2 7268   4.189   3.280  16.837 -0.0621 -0.6717  0.1094
  489TMC3    C3 7269   4.204   3.302  16.974 -0.0755  1.3884 -0.8130
  489TMC3    C4 7270   4.104   3.054  16.886 -0.3422 -0.4811  1.2444
  489TMC3    C5 7271   4.117   3.078  17.016  0.2445 -0.3788 -0.0089
  489TMC3    C6 7272   4.167   3.200  17.059 -0.3401  0.8495 -0.8660
  489TMC3     C 7273   4.116   3.124  16.658 -0.0451 -0.2015 -0.7168
  489TMC3     O 7274   4.091   3.009  16.630 -0.3063  0.5068  0.1716
  489TMC3     H 7275   4.218   3.366  16.778 -0.0112  0.0350  1.1808
  489TMC3    H1 7276   4.075   2.954  16.856 -1.4945  0.0559  0.5555
  489TMC3    H2 7277   4.179   3.214  17.166 -1.1301 -1.6576 -0.4327
  489TMC3    C7 7278   4.058   2.972  17.101 -0.6669 -0.2171  0.3269
  489TMC3    C8 7279   4.226   3.440  17.019 -0.0147 -0.1229 -0.1737
  489TMC3    O1 7280   4.109   2.963  17.213  0.0558  0.2892  0.3378
  489TMC3    O2 7281   4.277   3.516  16.938  0.0090 -0.4921 -0.3694
  490MPD2     C 7282   0.043   2.923  17.524  0.8810  0.1023 -0.1016
  490MPD2    C1 7283   0.163   2.904  17.460 -0.6697  0.2535 -1.2041
  490MPD2    C2 7284   0.271   2.982  17.492 -0.7846 -0.4744  0.4087
  490MPD2    C3 7285   0.260   3.095  17.570  0.3805  0.8468 -1.0061
  490MPD2    C4 7286   0.138   3.125  17.620  0.7339  0.5807  0.5340
  490MPD2    C5 7287   0.034   3.038  17.601 -1.4499  0.0576  0.7527
  490MPD2     H 7288   0.366   2.959  17.444 -0.9675  1.0196 -0.6489
  490MPD2    H1 7289   0.125   3.206  17.691 -0.6860  0.3932  0.4945
  490MPD2    H2 7290   4.677   2.866  17.503 -1.1094  3.7990 -1.5490
  490MPD2    H3 7291   4.668   3.056  17.659 -2.9042 -0.8957 -1.2010
  490MPD2     N 7292   0.366   3.188  17.590 -0.0723  0.9162  0.0909
  490MPD2    H5 7293   0.356   3.267  17.652 -3.5223 -0.1038  0.8645
  490MPD2    N1 7294   0.195   2.795  17.380  0.1163 -0.0816 -0.4369
  490MPD2    H7 7295   0.283   2.787  17.330 -1.0554  3.9410 -3.1134
  491TMC3    C1 7296   0.195   2.585  17.296 -0.2004 -0.6044  0.5458
  491TMC3    C2 7297   0.260   2.519  17.398 -0.2662 -0.4733  0.6791
  491TMC3    C3 7298   0.309   2.392  17.370  0.8524 -0.2747 -0.3063
  491TMC3    C4 7299   0.159   2.522  17.183 -0.1379  0.0577  0.4041
  491TMC3    C5 7300   0.209   2.396  17.153  0.2436 -0.1822 -0.0087
  491TMC3    C6 7301   0.290   2.333  17.246 -0.5663  0.2573  0.2513
  491TMC3     C 7302   0.110   2.687  17.345  0.0095  0.2726 -0.2585
  491TMC3     O 7303   4.719   2.659  17.379 -0.1626  0.1867 -0.2897
  491TMC3     H 7304   0.268   2.569  17.494  0.1516  1.4364 -0.3362
  491TMC3    H1 7305   0.101   2.576  17.109  3.4732  1.8485 -1.1326
  491TMC3    H2 7306   0.304   2.225  17.239 -1.5233 -0.0113  2.5101
  491TMC3    C7 7307   0.159   2.328  17.034  0.2903  0.3971  0.3067
  491TMC3    C8 7308   0.273   2.304  17.476  1.0005  0.2839 -0.0509
  491TMC3    O1 7309   0.059   2.382  16.993 -0.3399  0.6453  0.2424
  491TMC3    O2 7310   0.325   2.194  17.465 -0.3199 -0.4492  0.0420
  492MPD2     C 7311   0.649   2.814  10.381  0.2729 -0.4648  0.4222
  492MPD2    C1 7312   0.519   2.846  10.353  0.1572  0.2266 -0.4558
  492MPD2    C2 7313   0.428   2.864  10.455 -0.2585 -0.1360 -0.3771
  492MPD2    C3 7314   0.469   2.837  10.586 -0.1316  1.0300 -0.0433
  492MPD2    C4 7315   0.601   2.824  10.613  0.2037 -0.8684 -0.0819
  492MPD2    C5 7316   0.687   2.809  10.509 -0.2729 -0.4006  0.5190
  492MPD2     H 7317   0.327   2.895  10.434 -0.6930 -2.4600 -1.7661
  492MPD2    H1 7318   0.644   2.817  10.712 -1.8156 -1.7158  0.7420
  492MPD2    H2 7319   0.728   2.809  10.307 -0.6452  0.2663 -0.6067
  492MPD2    H3 7320   0.793   2.810  10.530  0.3543 -1.1153 -2.7037
  492MPD2     N 7321   0.385   2.846  10.696 -0.0926  0.2113  0.1213
  492MPD2    H5 7322   0.427   2.832  10.787  1.4082 -2.6624 -0.9950
  492MPD2    N1 7323   0.487   2.866  10.211 -0.3178 -0.1792 -0.1217
  492MPD2    H7 7324   0.558   2.862  10.139 -0.4556  0.5346 -0.3028
  493TMC3    C1 7325   0.351   2.888  10.018  0.4808 -0.6296 -0.4946
  493TMC3    C2 7326   0.446   2.969   9.954  0.0943  0.3870 -0.5722
  493TMC3    C3 7327   0.416   2.996   9.822  0.3944 -0.3594 -0.0405
  493TMC3    C4 7328   0.242   2.842   9.952 -0.9012 -0.1171  0.6201
  493TMC3    C5 7329   0.210   2.884   9.828  0.2433  0.2825  0.4488
  493TMC3    C6 7330   0.296   2.964   9.759  0.5351  0.0053  0.1379
  493TMC3     C 7331   0.355   2.879  10.166  0.3833  0.0309 -0.2040
  493TMC3     O 7332   0.250   2.885  10.226  0.6231 -0.0405 -0.6450
  493TMC3     H 7333   0.545   2.986   9.997  0.8833 -0.9585 -1.8621
  493TMC3    H1 7334   0.174   2.776  10.006 -2.2156 -0.9905 -2.1365
  493TMC3    H2 7335   0.273   2.993   9.657  2.9635  1.2182 -0.0524
  493TMC3    C7 7336   0.087   2.836   9.758 -0.2261 -0.5215  0.5007
  493TMC3    C8 7337   0.515   3.060   9.742 -0.0083 -0.3299 -1.0727
  493TMC3    O1 7338   0.055   2.892   9.661 -0.0985  0.4599 -0.2268
  493TMC3    O2 7339   0.619   3.090   9.802 -0.3451  0.1875  0.0635
  494TMC3    C1 7340   0.875   0.111   0.365  0.0688 -0.9276 -0.0805
  494TMC3    C2 7341   0.907   4.712   0.418 -0.1476  0.5420 -0.2675
  494TMC3    C3 7342   0.985   4.624   0.349  0.0142  0.5424 -0.2479
  494TMC3    C4 7343   0.918   0.146   0.238  0.3606  0.2329 -0.9940
  494TMC3    C5 7344   1.002   0.066   0.178  0.4205 -0.4613  0.3436
  494TMC3    C6 7345   1.042   4.668   0.229 -0.1295 -0.5783  0.0965
  494TMC3     C 7346   0.829   0.212   0.459 -0.1550 -0.1243  0.0261
  494TMC3     O 7347   0.766   0.160   0.550  0.5288 -0.3212  0.2524
  494TMC3     H 7348   0.852   4.677   0.505  0.8571 -0.1102  0.1122
  494TMC3    H1 7349   0.868   0.228   0.186  0.9845  0.7774 -0.7340
  494TMC3    H2 7350   1.116   4.609   0.176  1.3815  0.8301  0.6089
  494TMC3    C7 7351   1.034   0.085   0.039 -0.9029  0.0399 -0.6061
  494TMC3    C8 7352   1.028   4.496   0.406  0.0476 -0.3245 -0.0713
  494TMC3    O1 7353   1.045   4.709  17.667  0.1432 -0.0423 -0.0024
  494TMC3    O2 7354   1.005   4.483   0.523  0.2068 -0.6786 -0.3059
  495TMC3    C1 7355   4.398   1.655  14.427 -0.3838  0.8063 -0.0616
  495TMC3    C2 7356   4.285   1.636  14.352 -0.4195  0.1779  0.3203
  495TMC3    C3 7357   4.170   1.714  14.379  0.0343  0.0875 -0.1683
  495TMC3    C4 7358   4.393   1.738  14.530 -0.6269  0.5800  1.3707
  495TMC3    C5 7359   4.271   1.807  14.558 -0.1459  0.9306 -0.0531
  495TMC3    C6 7360   4.162   1.794  14.484 -0.0661 -0.9289  0.4723
  495TMC3     C 7361   4.505   1.555  14.423 -0.5941  0.0072  0.0011
  495TMC3     O 7362   4.601   1.563  14.499 -0.1179 -0.3742 -0.6716
  495TMC3     H 7363   4.294   1.579  14.261  0.0871 -1.5682  1.4769
  495TMC3    H1 7364   4.481   1.775  14.581 -0.2119 -1.8521  2.4329
  495TMC3    H2 7365   4.062   1.823  14.515 -0.4190 -0.5525 -1.0574
  495TMC3    C7 7366   4.259   1.836  14.702  0.4692 -0.4609 -0.1053
  495TMC3    C8 7367   4.057   1.713  14.292 -0.1998 -0.7018 -0.5987
  495TMC3    O1 7368   4.365   1.861  14.755  0.4003 -0.5762  0.2436
  495TMC3    O2 7369   3.986   1.811  14.294 -0.1384 -0.4460  0.2152
  496MPD2     C 7370   1.658   1.389  15.157  0.3492 -0.6115 -0.3552
  496MPD2    C1 7371   1.759   1.409  15.248 -0.1140 -0.1350  0.1940
  496MPD2    C2 7372   1.736   1.466  15.377 -0.6886 -0.3740  0.1112
  496MPD2    C3 7373   1.606   1.515  15.399 -0.6825  0.1766 -0.0527
  496MPD2    C4 7374   1.501   1.474  15.313  0.3781  0.1330  0.2427
  496MPD2    C5 7375   1.532   1.420  15.196  0.5522  0.5071  0.6145
  496MPD2     H 7376   1.813   1.473  15.453 -1.7467  0.1898  1.1377
  496MPD2    H1 7377   1.400   1.509  15.330 -0.5142 -2.2599 -0.0455
  496MPD2    H2 7378   1.666   1.353  15.055  2.2411  0.4976 -0.5935
  496MPD2    H3 7379   1.450   1.397  15.129  2.0774  1.0760 -1.4592
  496MPD2     N 7380   1.574   1.592  15.510  0.1215 -0.1666 -0.1934
  496MPD2    H5 7381   1.477   1.619  15.519 -0.7185 -2.6723 -1.7381
  496MPD2    N1 7382   1.872   1.350  15.195 -0.2559  0.1734  0.3238
  496MPD2    H7 7383   1.870   1.313  15.101 -0.9655 -0.7721  0.7077
  497TMC3    C1 7384   1.588   1.717  15.709  0.0516 -0.3831  0.1768
  497TMC3    C2 7385   1.460   1.761  15.698  0.5707 -1.0454  0.3030
  497TMC3    C3 7386   1.395   1.777  15.815 -0.1812  0.2424  0.0455
  497TMC3    C4 7387   1.644   1.689  15.830 -0.4043  0.6103  0.1775
  497TMC3    C5 7388   1.576   1.720  15.944 -0.0357 -0.9203  0.5933
  497TMC3    C6 7389   1.446   1.754  15.935 -0.3175 -0.1404  0.6325
  497TMC3     C 7390   1.660   1.652  15.601  0.6430 -0.6313  0.0902
  497TMC3     O 7391   1.781   1.648  15.607  0.1105 -0.0083  0.8347
  497TMC3     H 7392   1.434   1.804  15.602  0.6597 -0.0004  0.7424
  497TMC3    H1 7393   1.744   1.647  15.830  0.4759  2.7362  0.3719
  497TMC3    H2 7394   1.380   1.785  16.016  0.7463 -1.5365  2.0374
  497TMC3    C7 7395   1.625   1.720  16.082  0.6913  0.3123 -0.0607
  497TMC3    C8 7396   1.265   1.848  15.814  0.0408 -0.3012 -0.3008
  497TMC3    O1 7397   1.542   1.736  16.171  0.2789 -0.2583 -0.1456
  497TMC3    O2 7398   1.192   1.805  15.903  0.0799 -0.2535 -0.0554
  498MPD2     C 7399   2.106   2.287   9.156 -0.0639 -1.0072  0.7787
  498MPD2    C1 7400   2.112   2.356   9.280 -0.0071  0.4165  1.1959
  498MPD2    C2 7401   2.003   2.337   9.361  0.1945 -0.2747 -0.0222
  498MPD2    C3 7402   1.903   2.251   9.332  0.3877 -0.2229  0.1178
  498MPD2    C4 7403   1.906   2.181   9.212  0.7301  0.1376  0.4172
  498MPD2    C5 7404   2.003   2.209   9.121  0.2925  0.0579 -0.4583
  498MPD2     H 7405   2.012   2.384   9.459  1.3840 -0.1882 -0.1692
  498MPD2    H1 7406   1.824   2.118   9.180  1.1465  0.8545 -2.0117
  498MPD2    H2 7407   2.188   2.296   9.086  0.2327  1.4938  1.4288
  498MPD2    H3 7408   1.996   2.162   9.023  3.0346 -2.3907  0.5327
  498MPD2     N 7409   1.805   2.241   9.423 -0.2821 -0.9113 -0.1800
  498MPD2    H5 7410   1.805   2.295   9.509  0.1851  0.1119 -0.8294
  498MPD2    N1 7411   2.214   2.437   9.327  0.1489  0.4236  0.1814
  498MPD2    H7 7412   2.209   2.480   9.418 -1.5478 -1.6466  1.0688
  499TMC3    C1 7413   2.411   2.562   9.324 -0.6304  0.3721  0.2519
  499TMC3    C2 7414   2.444   2.510   9.447 -0.5152 -0.2433 -0.2295
  499TMC3    C3 7415   2.566   2.545   9.498 -0.4872 -0.8779  0.0912
  499TMC3    C4 7416   2.498   2.634   9.243  0.5079  0.4367  0.8720
  499TMC3    C5 7417   2.615   2.675   9.303 -0.4062 -0.2595 -0.1302
  499TMC3    C6 7418   2.652   2.633   9.428  0.5465 -0.4598  0.4402
  499TMC3     C 7419   2.309   2.492   9.245  0.0798  0.0494 -0.2003
  499TMC3     O 7420   2.323   2.491   9.121  0.1171 -0.0251  0.2784
  499TMC3     H 7421   2.384   2.438   9.501 -0.0835  2.2634  3.5938
  499TMC3    H1 7422   2.485   2.655   9.138 -0.8553 -0.9842  0.7387
  499TMC3    H2 7423   2.734   2.676   9.484 -0.8985  0.7135  1.6456
  499TMC3    C7 7424   2.697   2.780   9.247 -0.3967 -0.0558 -0.0415
  499TMC3    C8 7425   2.592   2.479   9.624  0.0478 -0.5294 -0.3372
  499TMC3    O1 7426   2.806   2.789   9.303 -0.1582  0.1552  0.0097
  499TMC3    O2 7427   2.501   2.434   9.686 -0.2088 -0.4169  0.5349
  500MPD2     C 7428   4.537   3.865  10.290 -0.6135 -0.4017  1.0015
  500MPD2    C1 7429   4.564   3.914  10.161 -0.8649 -0.8692 -0.5802
  500MPD2    C2 7430   4.456   3.975  10.093  0.4532 -0.5232 -0.0871
  500MPD2    C3 7431   4.325   3.978  10.141 -1.0641 -0.2538  0.1032
  500MPD2    C4 7432   4.310   3.926  10.266  1.0819 -0.0721 -0.5991
  500MPD2    C5 7433   4.412   3.876  10.338  0.0581 -0.5803  0.1910
  500MPD2     H 7434   4.485   4.025  10.001 -1.4220 -0.5267 -0.6823
  500MPD2    H1 7435   4.208   3.918  10.303  1.0119  0.9388 -0.5619
  500MPD2    H2 7436   4.611   3.814  10.351  2.2434  1.8968 -0.5123
  500MPD2    H3 7437   4.399   3.847  10.442  1.0966  0.1212  0.5283
  500MPD2     N 7438   4.212   4.022  10.069 -0.7519 -0.1574 -0.2987
  500MPD2    H5 7439   4.119   4.003  10.106 -0.5486  1.7171  1.1914
  500MPD2    N1 7440   4.694   3.932  10.104  0.0758 -0.2192  0.1992
  500MPD2    H7 7441   4.707   3.985  10.018  0.4391  1.3473  1.2165
  501TMC3    C1 7442   0.201   3.940  10.113  1.0714 -0.1013  0.3405
  501TMC3    C2 7443   0.207   4.066  10.066 -0.4607  0.0937 -0.1146
  501TMC3    C3 7444   0.309   4.104   9.980 -0.6313 -0.0363  0.3770
  501TMC3    C4 7445   0.317   3.859  10.113  0.2014  0.4770 -0.0207
  501TMC3    C5 7446   0.425   3.911  10.054  0.2917  0.0984 -0.4097
  501TMC3    C6 7447   0.420   4.025   9.979 -0.4561 -0.4270 -0.2995
  501TMC3     C 7448   0.080   3.892  10.178 -0.2887 -0.5091  0.1878
  501TMC3     O 7449   0.092   3.812  10.274 -0.3645 -0.0964 -0.2603
  501TMC3     H 7450   0.127   4.137  10.080 -1.0699 -0.6823  0.3737
  501TMC3    H1 7451   0.330   3.795  10.200  1.5606  2.7305  1.4400
  501TMC3    H2 7452   0.504   4.076   9.934  0.9734 -0.1156  2.7033
  501TMC3    C7 7453   0.549   3.862  10.105 -0.5613 -0.4249 -0.4191
  501TMC3    C8 7454   0.345   4.247   9.976  0.1997 -0.2529 -0.0930
  501TMC3    O1 7455   0.557   3.751  10.154 -0.2381 -0.1405 -0.0210
  501TMC3    O2 7456   0.405   4.287   9.876  0.4016  0.5928 -0.4243
  502TMC3    C1 7457   3.970   2.656  14.550 -0.3277  0.3656  0.1287
  502TMC3    C2 7458   3.933   2.780  14.500 -0.4705 -0.5397 -0.5176
  502TMC3    C3 7459   3.808   2.830  14.537 -0.7042  0.0328  0.4040
  502TMC3    C4 7460   3.880   2.582  14.621 -0.6352  0.1618  0.5045
  502TMC3    C5 7461   3.758   2.635  14.656  0.1161 -0.2242 -0.2319
  502TMC3    C6 7462   3.719   2.761  14.615 -0.6918 -0.8620  0.1446
  502TMC3     C 7463   4.101   2.645  14.605 -0.0334 -0.3669  0.4305
  502TMC3     O 7464   4.201   2.654  14.535  0.1445 -0.2162  0.1372
  502TMC3     H 7465   4.010   2.845  14.459 -0.1336 -0.2073  0.6385
  502TMC3    H1 7466   3.908   2.482  14.649  0.9827  0.2480 -0.7660
  502TMC3    H2 7467   3.617   2.796  14.623  0.1640  1.4861  0.9271
  502TMC3    C7 7468   3.657   2.541  14.713 -0.6671  0.2820 -0.5905
  502TMC3    C8 7469   3.796   2.978  14.536 -0.1806 -0.9854  0.0715
  502TMC3    O1 7470   3.690   2.421  14.725 -0.2015 -0.0290 -0.4022
  502TMC3    O2 7471   3.882   3.044  14.478 -0.1406 -0.8808  0.0982
  503MPD2     C 7472   1.317   3.817  16.424  0.0825 -0.3634  0.0499
  503MPD2    C1 7473   1.297   3.792  16.554 -0.2409 -0.1883  1.2003
  503MPD2    C2 7474   1.371   3.691  16.615  0.7171  0.5588 -0.7353
  503MPD2    C3 7475   1.447   3.604  16.549  0.1546  0.2992  0.2643
  503MPD2    C4 7476   1.469   3.625  16.411  0.1599 -0.4891 -0.5269
  503MPD2    C5 7477   1.394   3.726  16.347 -0.0237 -0.2901  0.3347
  503MPD2     H 7478   1.348   3.676  16.719  0.0274 -2.4487 -1.3271
  503MPD2    H1 7479   1.526   3.564  16.341  1.4785 -0.2812  0.3644
  503MPD2    H2 7480   1.261   3.897  16.376 -0.0238 -0.5680 -0.1643
  503MPD2    H3 7481   1.401   3.744  16.240 -1.8579  1.9602  0.5889
  503MPD2     N 7482   1.516   3.505  16.620  0.2020  0.2786 -0.3021
  503MPD2    H5 7483   1.505   3.508  16.721  1.0330 -1.2853 -0.1732
  503MPD2    N1 7484   1.219   3.870  16.644  0.2451 -0.3153  0.0478
  503MPD2    H7 7485   1.225   3.850  16.744 -1.5034 -1.0555  0.0140
  504TMC3    C1 7486   1.673   3.324  16.660 -0.5237 -0.3531 -0.0439
  504TMC3    C2 7487   1.597   3.268  16.765  0.0484 -0.4186  1.4126
  504TMC3    C3 7488   1.649   3.166  16.838  0.0288  0.1814  0.3607
  504TMC3    C4 7489   1.798   3.262  16.635  0.2824 -0.2492  0.6427
  504TMC3    C5 7490   1.843   3.154  16.711 -0.1809  0.3174  0.2102
  504TMC3    C6 7491   1.768   3.099  16.809 -0.3034  0.1358 -0.5080
  504TMC3     C 7492   1.614   3.425  16.567  0.1307 -0.7366  0.1702
  504TMC3     O 7493   1.683   3.453  16.466 -0.0702 -0.1777 -0.2543
  504TMC3     H 7494   1.524   3.338  16.803 -0.7924 -0.5165 -0.0105
  504TMC3    H1 7495   1.871   3.301  16.566 -0.1156 -1.1531 -0.2932
  504TMC3    H2 7496   1.801   3.008  16.858 -2.0546 -0.5749 -0.6470
  504TMC3    C7 7497   1.983   3.123  16.706  0.4610 -0.5154 -0.5416
  504TMC3    C8 7498   1.557   3.107  16.932 -0.8700 -0.3287  0.8809
  504TMC3    O1 7499   2.040   3.158  16.604  0.2984  0.5180  0.5191
  504TMC3    O2 7500   1.441   3.152  16.936 -0.2560  0.1636  0.1617
  505MPD2     C 7501   1.813   2.096  10.799  0.1826  0.1004 -0.3059
  505MPD2    C1 7502   1.902   2.040  10.707  0.2933  0.8202 -0.6467
  505MPD2    C2 7503   1.989   2.127  10.642  0.2369 -0.3027 -0.5786
  505MPD2    C3 7504   1.996   2.262  10.677  0.4676  0.0957 -0.3122
  505MPD2    C4 7505   1.911   2.310  10.772  0.2837  0.1625  1.0690
  505MPD2    C5 7506   1.816   2.225  10.833  0.4820 -0.2474 -0.1682
  505MPD2     H 7507   2.050   2.095  10.559 -1.1264 -2.5278 -0.7236
  505MPD2    H1 7508   1.909   2.416  10.797 -1.7774  0.1096  1.1839
  505MPD2    H2 7509   1.739   2.036  10.850 -0.1886 -1.7416 -3.0341
  505MPD2    H3 7510   1.747   2.260  10.909 -1.7083 -1.8782 -1.3991
  505MPD2     N 7511   2.074   2.348  10.601  0.1603  0.2178 -0.3545
  505MPD2    H5 7512   2.066   2.448  10.620 -1.0613  0.0818 -0.1499
  505MPD2    N1 7513   1.909   1.895  10.690 -0.9437  0.1588  0.3007
  505MPD2    H7 7514   1.837   1.836  10.729 -3.2064  1.6180 -1.7067
  506TMC3    C1 7515   1.982   1.692  10.595 -0.2508  0.3922  0.2446
  506TMC3    C2 7516   1.858   1.678  10.548 -0.0003 -0.0609  0.5309
  506TMC3    C3 7517   1.847   1.587  10.440  0.1923  0.5461  0.7232
  506TMC3    C4 7518   2.091   1.633  10.548 -0.0751 -0.4527 -0.5260
  506TMC3    C5 7519   2.088   1.560  10.433 -0.0154 -0.7921 -0.0258
  506TMC3    C6 7520   1.960   1.528  10.382 -0.0927  1.1337  0.4933
  506TMC3     C 7521   2.017   1.832  10.633  0.0717 -0.5336 -0.2865
  506TMC3     O 7522   2.130   1.865  10.597 -0.0634 -0.1473  0.3604
  506TMC3     H 7523   1.773   1.726  10.595  1.0144  0.6400  1.6358
  506TMC3    H1 7524   2.181   1.653  10.605 -1.6214  2.4136  0.8988
  506TMC3    H2 7525   1.965   1.480  10.285 -0.3793  0.0124  1.0213
  506TMC3    C7 7526   2.183   1.594  10.332  0.3461  0.0747 -0.4028
  506TMC3    C8 7527   1.763   1.645  10.345  1.0916  0.7033 -0.4006
  506TMC3    O1 7528   2.198   1.524  10.233 -0.4497 -0.5958 -0.3862
  506TMC3    O2 7529   1.741   1.764  10.355 -0.5484 -0.2678  0.0792
  507TMC3    C1 7530   2.507   2.839  14.691 -0.0876  0.1274  0.4575
  507TMC3    C2 7531   2.494   2.728  14.622 -0.1447  0.7119  0.2753
  507TMC3    C3 7532   2.539   2.727  14.493 -0.4325 -0.7783 -0.1182
  507TMC3    C4 7533   2.580   2.939  14.640  0.6416 -0.6604 -0.0776
  507TMC3    C5 7534   2.642   2.935  14.519  0.3643  0.2922  0.2935
  507TMC3    C6 7535   2.631   2.818  14.450  0.5618 -1.0357 -0.8183
  507TMC3     C 7536   2.415   2.864  14.801  0.3039  0.4888  0.4760
  507TMC3     O 7537   2.459   2.933  14.892  0.4247 -0.2699 -0.0945
  507TMC3     H 7538   2.423   2.649  14.644  1.7727 -1.1031  0.0672
  507TMC3    H1 7539   2.582   3.028  14.702  0.0416 -0.7534  0.0706
  507TMC3    H2 7540   2.670   2.822  14.349  0.0831  1.5663 -0.8978
  507TMC3    C7 7541   2.616   3.045  14.435 -0.4480  0.0766 -0.9043
  507TMC3    C8 7542   2.439   2.683  14.397 -0.4220  0.5760 -0.5136
  507TMC3    O1 7543   2.607   3.024  14.317 -0.1598 -0.7770 -0.1906
  507TMC3    O2 7544   2.357   2.595  14.422 -0.2584 -0.0162  0.0160
  508MPD2     C 7545   3.076   0.536  15.992 -0.0932  0.0332  0.3927
  508MPD2    C1 7546   3.198   0.485  15.979  0.5533 -0.6612  0.1558
  508MPD2    C2 7547   3.260   0.492  15.858 -0.9190  0.2418  0.1658
  508MPD2    C3 7548   3.192   0.539  15.750  0.6292  0.4070  0.6778
  508MPD2    C4 7549   3.057   0.571  15.755 -0.0100 -0.5033  0.2615
  508MPD2    C5 7550   3.002   0.572  15.878  0.2450 -0.1766 -0.1950
  508MPD2     H 7551   3.363   0.465  15.840 -0.6130  1.6721 -0.2196
  508MPD2    H1 7552   2.991   0.607  15.677  1.4441  1.9520  0.1696
  508MPD2    H2 7553   3.016   0.526  16.082 -0.4268 -0.6259  0.1059
  508MPD2    H3 7554   2.904   0.617  15.891  0.3410  0.7104 -2.5909
  508MPD2     N 7555   3.270   0.562  15.633 -0.6324  0.3649 -0.2142
  508MPD2    H5 7556   3.369   0.541  15.637 -1.0373 -1.5180 -0.1029
  508MPD2    N1 7557   3.258   0.447  16.102  0.3224  0.0075  0.5835
  508MPD2    H7 7558   3.206   0.459  16.189 -0.4193 -0.0344  0.1487
  509TMC3    C1 7559   3.335   0.882  15.332  0.3086 -0.5730  0.1533
  509TMC3    C2 7560   3.431   0.934  15.419  0.0331 -0.6550 -0.5772
  509TMC3    C3 7561   3.474   0.856  15.517 -0.4857  0.8990 -0.3523
  509TMC3    C4 7562   3.278   0.759  15.353  0.1086 -0.1046  0.2211
  509TMC3    C5 7563   3.333   0.681  15.448  0.4407  0.5692 -0.4427
  509TMC3    C6 7564   3.437   0.724  15.533 -0.0748 -0.0302 -0.2991
  509TMC3     C 7565   3.260   0.967  15.243  0.6446  1.1031  0.4283
  509TMC3     O 7566   3.298   1.084  15.252 -0.0328  0.4665  0.1173
  509TMC3     H 7567   3.474   1.028  15.387  2.6092 -1.9521 -0.9362
  509TMC3    H1 7568   3.197   0.718  15.294 -1.2633  0.9051  1.3857
  509TMC3    H2 7569   3.465   0.670  15.622 -0.3787  1.0176  0.4265
  509TMC3    C7 7570   3.219   0.609  15.516 -0.6285  0.7784  0.6671
  509TMC3    C8 7571   3.583   0.905  15.605 -0.4135 -0.2528  0.8196
  509TMC3    O1 7572   3.107   0.647  15.483 -0.8340  0.1522 -0.4288
  509TMC3    O2 7573   3.665   0.832  15.664  0.0685 -0.3988 -0.2108
  510MPD2     C 7574   1.084   2.442  14.041  0.7661  0.3601 -0.4519
  510MPD2    C1 7575   1.147   2.404  14.165  0.0477  0.9505  0.8833
  510MPD2    C2 7576   1.275   2.352  14.154 -0.6525 -0.4604  0.4115
  510MPD2    C3 7577   1.334   2.342  14.030  0.2452  0.3202  0.4292
  510MPD2    C4 7578   1.272   2.378  13.912  0.6750 -0.5930 -0.2304
  510MPD2    C5 7579   1.145   2.433  13.920  0.1193  0.6810 -0.3251
  510MPD2     H 7580   1.333   2.318  14.239 -0.9661 -0.3513  0.6683
  510MPD2    H1 7581   1.316   2.367  13.813  1.3195  0.9667 -0.1205
  510MPD2    H2 7582   0.979   2.466  14.034  0.2803 -1.0665  1.9136
  510MPD2    H3 7583   1.097   2.471  13.830 -0.3070 -1.3726 -0.9687
  510MPD2     N 7584   1.461   2.285  14.030 -0.1301  0.2197  0.0361
  510MPD2    H5 7585   1.506   2.273  14.120  1.4472 -0.6990 -0.8703
  510MPD2    N1 7586   1.074   2.413  14.281 -0.4518 -0.7061  0.0020
  510MPD2    H7 7587   0.976   2.438  14.274 -0.6547 -1.4385  0.2369
  511TMC3    C1 7588   0.990   2.337  14.482 -0.0043 -0.2037 -0.1240
  511TMC3    C2 7589   0.971   2.378  14.613 -0.5223 -0.6363 -0.6421
  511TMC3    C3 7590   0.871   2.308  14.677 -0.6224  0.0463 -0.3242
  511TMC3    C4 7591   0.928   2.231  14.422 -0.2856  0.1506 -0.0956
  511TMC3    C5 7592   0.832   2.165  14.496 -0.9649 -0.5062  0.2335
  511TMC3    C6 7593   0.805   2.199  14.630 -0.6315  0.3838 -0.1043
  511TMC3     C 7594   1.109   2.370  14.408 -0.2837 -0.4947  0.2821
  511TMC3     O 7595   1.212   2.319  14.454 -0.0289 -0.7296  0.0410
  511TMC3     H 7596   1.032   2.453  14.661 -0.7034 -0.0945 -1.2530
  511TMC3    H1 7597   0.943   2.195  14.320 -0.1444  0.6375 -0.2440
  511TMC3    H2 7598   0.716   2.158  14.679  0.2133 -0.7217  0.5231
  511TMC3    C7 7599   0.781   2.040  14.445  0.2503 -0.7962 -0.2848
  511TMC3    C8 7600   0.855   2.357  14.809  0.3351  0.2818 -0.6701
  511TMC3    O1 7601   0.768   2.025  14.326  0.6210  0.0190 -0.0562
  511TMC3    O2 7602   0.850   2.479  14.831  0.5757  0.7800 -0.3160
  512TMC3    C1 7603   4.420   1.602  13.015  0.0272  0.6359  0.7588
  512TMC3    C2 7604   4.534   1.605  13.088  0.8246 -0.2561 -0.6008
  512TMC3    C3 7605   4.648   1.555  13.035  0.1821  0.2620 -0.1240
  512TMC3    C4 7606   4.417   1.558  12.886 -0.0718 -0.2963  0.0244
  512TMC3    C5 7607   4.539   1.521  12.840  0.3409  0.1124  0.0184
  512TMC3    C6 7608   4.657   1.514  12.907  0.6141  0.2247  0.1243
  512TMC3     C 7609   4.322   1.692  13.075  0.2946 -0.3188 -0.1621
  512TMC3     O 7610   4.296   1.695  13.193  0.0591 -0.6310 -0.8473
  512TMC3     H 7611   4.526   1.607  13.196 -2.1697  0.6630 -0.8353
  512TMC3    H1 7612   4.325   1.568  12.830  2.3445  2.2191 -3.4543
  512TMC3    H2 7613   0.029   1.473  12.876 -2.0108 -3.7892 -2.7253
  512TMC3    C7 7614   4.545   1.472  12.702  0.3496  0.0528  0.0788
  512TMC3    C8 7615   0.042   1.551  13.121  0.1713  0.0404  0.6352
  512TMC3    O1 7616   4.462   1.514  12.620 -0.5862 -0.1459  0.2277
  512TMC3    O2 7617   0.116   1.453  13.108 -0.4531 -0.1995  0.2647
  513MPD2     C 7618   1.235   1.052  13.330  0.0960 -0.1969  0.3281
  513MPD2    C1 7619   1.282   1.140  13.234 -0.7224  0.0549 -0.3981
  513MPD2    C2 7620   1.344   1.259  13.282 -0.5954 -0.6386 -0.2905
  513MPD2    C3 7621   1.357   1.287  13.419  0.7542 -0.1320  0.2970
  513MPD2    C4 7622   1.301   1.195  13.511 -0.1789 -0.1945 -0.1782
  513MPD2    C5 7623   1.236   1.086  13.464  0.0559 -0.2733  0.5716
  513MPD2     H 7624   1.388   1.327  13.211 -0.4576  0.2181  0.6089
  513MPD2    H1 7625   1.313   1.206  13.618 -0.1194 -0.5654 -0.1457
  513MPD2    H2 7626   1.175   0.968  13.295 -0.4391  0.5144 -0.4704
  513MPD2    H3 7627   1.197   1.019  13.540 -0.2339 -2.2523 -1.3426
  513MPD2     N 7628   1.427   1.405  13.454 -0.1407  0.8222  0.2929
  513MPD2    H5 7629   1.459   1.458  13.373 -1.3008  1.6926  0.4194
  513MPD2    N1 7630   1.276   1.106  13.098 -0.1005  0.3946  0.5358
  513MPD2    H7 7631   1.237   1.017  13.070  3.1210 -0.4760 -1.2804
  514TMC3    C1 7632   1.324   1.094  12.878 -0.2424 -0.1927  0.2258
  514TMC3    C2 7633   1.266   1.151  12.769  0.2474 -0.1386  0.2796
  514TMC3    C3 7634   1.345   1.177  12.657 -0.2041  0.1792 -0.8885
  514TMC3    C4 7635   1.458   1.053  12.873  0.3384 -0.5155 -0.3678
  514TMC3    C5 7636   1.526   1.071  12.754 -0.2980 -0.4361  0.6256
  514TMC3    C6 7637   1.467   1.122  12.642 -0.1439 -0.0810  0.2307
  514TMC3     C 7638   1.314   1.179  12.992 -0.3611  0.4226  0.0015
  514TMC3     O 7639   1.376   1.283  12.986 -0.6230  0.5516 -0.0315
  514TMC3     H 7640   1.164   1.189  12.774  0.9849  1.6253  1.9260
  514TMC3    H1 7641   1.513   1.031  12.964 -0.4234 -0.5780  0.0779
  514TMC3    H2 7642   1.536   1.159  12.567  0.9232 -2.2867  0.1111
  514TMC3    C7 7643   1.652   1.134  12.787  0.0569  0.7816 -0.2858
  514TMC3    C8 7644   1.283   1.247  12.544 -1.4554  0.3000 -0.9762
  514TMC3    O1 7645   1.745   1.123  12.705 -0.3327 -0.2107 -0.2912
  514TMC3    O2 7646   1.166   1.281  12.558  0.1181 -0.3047  0.6577
  515MPD2     C 7647   4.636   3.200  14.809  0.3636 -0.0736 -0.0379
  515MPD2    C1 7648   4.721   3.229  14.705  0.4571 -0.2617 -0.5162
  515MPD2    C2 7649   0.068   3.354  14.703 -0.4410  0.1230 -0.7183
  515MPD2    C3 7650   0.048   3.445  14.802 -0.2773 -0.7511 -0.1419
  515MPD2    C4 7651   4.681   3.410  14.901  0.2565  0.5299 -0.2887
  515MPD2    C5 7652   4.606   3.292  14.904  0.5599  0.7949  0.0491
  515MPD2     H 7653   0.157   3.359  14.641 -2.6311  2.0931 -3.6732
  515MPD2    H1 7654   4.669   3.480  14.983  0.6950  1.6576 -1.1903
  515MPD2    H2 7655   4.590   3.103  14.816 -1.1421  0.6993  0.8089
  515MPD2    H3 7656   4.530   3.279  14.981  1.4205 -3.6057  0.1876
  515MPD2     N 7657   0.113   3.570  14.809 -0.4938  0.1928  0.5087
  515MPD2    H5 7658   0.091   3.635  14.884 -0.1664 -1.2183  1.8367
  515MPD2    N1 7659   0.010   3.128  14.611 -0.6047  0.0396  0.3373
  515MPD2    H7 7660   4.666   3.052  14.614  0.6309 -0.9562  2.8511
  516TMC3    C1 7661   0.066   2.998  14.421  0.3554 -0.5151  1.3090
  516TMC3    C2 7662   0.060   3.013  14.284 -0.7082  0.1720  0.3482
  516TMC3    C3 7663   0.014   2.911  14.210  0.2390 -0.2200 -0.2036
  516TMC3    C4 7664   0.037   2.886  14.491 -0.3252  0.5588 -0.5406
  516TMC3    C5 7665   4.721   2.787  14.407  0.3075  0.1477  0.2690
  516TMC3    C6 7666   4.698   2.795  14.266 -0.4807 -0.5063  0.2921
  516TMC3     C 7667   0.088   3.125  14.501  0.8395 -0.2903  0.4174
  516TMC3     O 7668   0.151   3.215  14.445  0.2584  0.4551  0.2822
  516TMC3     H 7669   0.089   3.103  14.231  1.4806 -0.1473  1.0206
  516TMC3    H1 7670   0.029   2.871  14.598  3.3837 -0.7207 -0.4575
  516TMC3    H2 7671   4.676   2.710  14.203 -0.1887 -0.1543 -0.2756
  516TMC3    C7 7672   4.679   2.664  14.471  0.5100 -0.0711 -0.0251
  516TMC3    C8 7673   4.646   2.947  14.106  0.5062  0.0862  0.0619
  516TMC3    O1 7674   4.703   2.647  14.590 -0.4968  0.0209 -0.2120
  516TMC3    O2 7675   4.538   2.889  14.107  0.3069  0.3761  0.3956
  517MPD2     C 7676   3.732   4.628  17.575 -0.0171 -0.7215 -0.8170
  517MPD2    C1 7677   3.860   4.656  17.634 -0.3103  0.0600  0.4357
  517MPD2    C2 7678   3.869   0.049   0.017 -0.6519 -0.1995 -0.2143
  517MPD2    C3 7679   3.756   0.129   0.037  0.3653 -0.4397  0.5365
  517MPD2    C4 7680   3.645   0.111  17.658  0.1710  0.6143 -0.5701
  517MPD2    C5 7681   3.627   4.715  17.586  0.0624  0.2910 -0.1391
  517MPD2     H 7682   3.959   0.069   0.074  0.0297  0.1114 -1.4130
  517MPD2    H1 7683   3.557   0.174  17.652 -0.6633 -0.5640 -0.6289
  517MPD2    H2 7684   3.718   4.537  17.518  0.4609 -1.2581 -0.0860
  517MPD2    H3 7685   3.536   4.683  17.536  0.3165 -0.5402 -0.0755
  517MPD2     N 7686   3.762   0.247   0.111  0.8894 -0.1901 -0.2497
  517MPD2    H5 7687   3.706   0.325   0.079 -0.1381 -0.5041  0.7844
  517MPD2    N1 7688   3.977   4.576  17.614  0.5265 -0.2421  0.5030
  517MPD2    H7 7689   4.059   4.614  17.661  1.4503 -1.0169 -0.4912
  518TMC3    C1 7690   4.123   4.400  17.571  0.3787 -0.1161  0.7002
  518TMC3    C2 7691   4.143   4.269  17.586 -0.9105 -0.8895  0.5286
  518TMC3    C3 7692   4.264   4.215  17.558  0.7025  0.0115 -0.9154
  518TMC3    C4 7693   4.226   4.481  17.528 -0.7229 -0.0840  0.2567
  518TMC3    C5 7694   4.341   4.420  17.488 -0.5509 -0.1966  0.4446
  518TMC3    C6 7695   4.367   4.284  17.510  0.0372 -0.0808  0.0826
  518TMC3     C 7696   3.987   4.453  17.556  0.2591 -0.0642  0.2962
  518TMC3     O 7697   3.900   4.374  17.526  0.0790  0.5465  0.1342
  518TMC3     H 7698   4.061   4.207  17.619 -0.0369 -3.3962 -2.0337
  518TMC3    H1 7699   4.210   4.587  17.519  0.3502 -0.0725 -1.5459
  518TMC3    H2 7700   4.457   4.225  17.496 -0.0042 -0.5458  1.7879
  518TMC3    C7 7701   4.448   4.500  17.451 -0.4661  0.3380 -0.1273
  518TMC3    C8 7702   4.263   4.067  17.534 -0.1515 -0.1856 -0.3436
  518TMC3    O1 7703   4.441   4.624  17.472  0.0422 -0.5797  0.0594
  518TMC3    O2 7704   4.296   4.019  17.427  0.2177  0.0129 -0.2485
  519MPD2     C 7705   1.335   3.224  14.324  0.5607 -0.3513  0.0448
  519MPD2    C1 7706   1.226   3.183  14.251 -0.1735  1.1924 -1.0446
  519MPD2    C2 7707   1.232   3.066  14.175 -0.3682  0.1895  0.0556
  519MPD2    C3 7708   1.347   2.991  14.166 -0.3715  0.1053 -0.0109
  519MPD2    C4 7709   1.452   3.031  14.243  0.4208  0.7462  0.5187
  519MPD2    C5 7710   1.447   3.147  14.314  0.0721  0.0032 -0.4871
  519MPD2     H 7711   1.149   3.039  14.110  0.8538 -5.1258  0.7340
  519MPD2    H1 7712   1.547   2.978  14.242 -0.5636 -1.0467  1.6314
  519MPD2    H2 7713   1.338   3.316  14.380  1.2249  0.3993 -1.2285
  519MPD2    H3 7714   1.529   3.175  14.380  0.2760 -2.9545  0.5486
  519MPD2     N 7715   1.370   2.882  14.081 -0.1374  0.4269 -0.7051
  519MPD2    H5 7716   1.465   2.845  14.078 -0.5537 -0.9184  2.9504
  519MPD2    N1 7717   1.117   3.272  14.247  0.2041  0.4171  0.3451
  519MPD2    H7 7718   1.125   3.364  14.290  0.0931 -0.0717  1.4173
  520TMC3    C1 7719   1.337   2.715  13.915  0.3713  0.3530  0.0286
  520TMC3    C2 7720   1.281   2.713  13.790 -0.2057 -0.8751  0.1071
  520TMC3    C3 7721   1.356   2.658  13.685  0.2711 -0.5279 -0.3331
  520TMC3    C4 7722   1.467   2.662  13.935  0.2801  0.3985 -0.4289
  520TMC3    C5 7723   1.539   2.627  13.822 -1.1387 -0.8419 -0.2742
  520TMC3    C6 7724   1.479   2.608  13.700  0.0162 -0.1579 -0.8426
  520TMC3     C 7725   1.279   2.821  13.999  0.0873 -0.6330  0.5026
  520TMC3     O 7726   1.161   2.852  13.976  0.1828 -0.1776  0.2098
  520TMC3     H 7727   1.188   2.763  13.765 -0.3198 -1.1017  0.0781
  520TMC3    H1 7728   1.513   2.671  14.033  0.2747  2.1806 -0.5914
  520TMC3    H2 7729   1.544   2.580  13.618  0.9864 -0.8676  0.1631
  520TMC3    C7 7730   1.672   2.585  13.858 -0.3454 -1.2652  0.6318
  520TMC3    C8 7731   1.309   2.670  13.550  0.9015  0.8445 -0.2841
  520TMC3    O1 7732   1.681   2.544  13.974  0.3151 -0.1199  0.5831
  520TMC3    O2 7733   1.373   2.602  13.468 -0.3363  0.0072  0.0488
  521MPD2     C 7734   2.204   1.264  17.288  0.8481  0.1216  0.1644
  521MPD2    C1 7735   2.195   1.190  17.176  0.2112 -0.4049  0.1722
  521MPD2    C2 7736   2.302   1.113  17.129  0.3900  0.2795  0.3388
  521MPD2    C3 7737   2.422   1.116  17.201 -0.5428  0.0970 -1.1721
  521MPD2    C4 7738   2.432   1.192  17.317 -0.0477  0.3335  0.3986
  521MPD2    C5 7739   2.324   1.267  17.353 -0.0183 -0.3028  0.5969
  521MPD2     H 7740   2.296   1.048  17.043 -2.7470  0.4321  0.4261
  521MPD2    H1 7741   2.513   1.191  17.389 -1.7943 -3.6919  2.3442
  521MPD2    H2 7742   2.123   1.323  17.329  1.1022  0.8397 -0.3499
  521MPD2    H3 7743   2.340   1.318  17.448  2.2328  0.0912  0.0126
  521MPD2     N 7744   2.533   1.039  17.151 -0.3516 -0.5685 -0.4064
  521MPD2    H5 7745   2.521   0.995  17.060  1.7321  0.6573 -1.2831
  521MPD2    N1 7746   2.067   1.178  17.126 -0.2843  0.4467  0.0563
  521MPD2    H7 7747   1.988   1.225  17.169 -0.6232  0.0815 -0.1714
  522TMC3    C1 7748   2.754   1.007  17.090  0.9251  0.5483  0.0091
  522TMC3    C2 7749   2.855   0.918  17.126 -0.0944  0.3412  0.0630
  522TMC3    C3 7750   2.926   0.873  17.016 -0.0828  0.3432 -1.0363
  522TMC3    C4 7751   2.733   1.047  16.962 -0.7311 -0.6154  0.3484
  522TMC3    C5 7752   2.808   0.991  16.861  0.2864  0.0159 -0.2242
  522TMC3    C6 7753   2.905   0.904  16.882 -0.0097  0.6980  0.0489
  522TMC3     C 7754   2.660   1.051  17.197 -0.0206 -0.5997  0.5268
  522TMC3     O 7755   2.712   1.078  17.304  0.3291 -0.6016 -0.0162
  522TMC3     H 7756   2.863   0.884  17.228  0.2589 -3.8307 -1.3536
  522TMC3    H1 7757   2.651   1.113  16.935  0.0999  0.0968 -0.4616
  522TMC3    H2 7758   2.952   0.858  16.796  0.8856 -0.7754  1.3419
  522TMC3    C7 7759   2.789   1.031  16.727  0.0415 -0.5140  1.0981
  522TMC3    C8 7760   3.020   0.770  17.056 -0.0047  0.2042  0.0516
  522TMC3    O1 7761   2.888   1.043  16.653 -0.0450  0.1741  0.0226
  522TMC3    O2 7762   3.020   0.717  17.166  0.2127 -0.2476  0.2311
  523MPD2     C 7763   0.308   0.816  10.474 -0.2581 -0.2589  0.2530
  523MPD2    C1 7764   0.235   0.724  10.406 -0.3207 -0.1008 -0.0780
  523MPD2    C2 7765   0.109   0.753  10.387  0.3494  0.3473  0.4885
  523MPD2    C3 7766   0.046   0.862  10.444 -0.5985 -1.3773  0.3149
  523MPD2    C4 7767   0.129   0.949  10.518  0.6193  0.5567  0.2931
  523MPD2    C5 7768   0.258   0.922  10.531  0.1158 -0.7261  0.2969
  523MPD2     H 7769   0.045   0.689  10.327  1.1520  0.6387 -0.6898
  523MPD2    H1 7770   0.088   1.045  10.548 -1.5171 -0.2127 -0.1856
  523MPD2    H2 7771   0.415   0.802  10.485 -0.0123  2.0889  0.7872
  523MPD2    H3 7772   0.324   0.989  10.586 -0.9986  0.3989  0.2628
  523MPD2     N 7773   4.638   0.882  10.417 -0.5806  0.6205  0.2444
  523MPD2    H5 7774   4.590   0.814  10.358 -3.4488  1.2068  1.8928
  523MPD2    N1 7775   0.309   0.612  10.356  0.2504  0.2470 -0.2580
  523MPD2    H7 7776   0.409   0.623  10.373  0.4327  0.3402 -1.3903
  524TMC3    C1 7777   4.441   0.999  10.392 -0.1211 -0.3051 -0.2014
  524TMC3    C2 7778   4.334   1.051  10.452 -0.0068 -0.6756  0.4333
  524TMC3    C3 7779   4.236   1.101  10.379 -1.1682 -0.0650 -0.5699
  524TMC3    C4 7780   4.452   1.013  10.251 -0.2626 -0.9085 -0.8443
  524TMC3    C5 7781   4.357   1.078  10.181 -0.3088 -0.6113 -0.3727
  524TMC3    C6 7782   4.242   1.122  10.244 -0.0666 -0.4302  0.6390
  524TMC3     C 7783   4.563   0.995  10.459  0.8004 -0.0327 -0.1037
  524TMC3     O 7784   4.587   1.086  10.535  0.2373  0.1261 -0.4577
  524TMC3     H 7785   4.315   1.028  10.557  0.6815 -1.4542  0.3837
  524TMC3    H1 7786   4.537   0.970  10.200  0.3334 -0.5690 -0.1545
  524TMC3    H2 7787   4.173   1.181  10.185  1.2800  2.2549  1.7693
  524TMC3    C7 7788   4.406   1.155  10.066  0.5478  0.2357 -0.4634
  524TMC3    C8 7789   4.108   1.130  10.448 -0.3962 -0.2979  0.6288
  524TMC3    O1 7790   4.522   1.195  10.060 -0.5991 -0.0597  0.0891
  524TMC3    O2 7791   4.096   1.072  10.554  0.0751  0.2025  0.0866
  525MPD2     C 7792   2.650   2.433  14.291 -0.4542  0.5944 -0.1030
  525MPD2    C1 7793   2.768   2.457  14.355 -0.1794 -0.2752  0.3275
  525MPD2    C2 7794   2.858   2.555  14.309 -0.1262 -0.2575 -0.1532
  525MPD2    C3 7795   2.823   2.642  14.208 -0.3285  0.4307 -0.8249
  525MPD2    C4 7796   2.699   2.620  14.146 -0.0556  0.0865  0.7069
  525MPD2    C5 7797   2.625   2.510  14.175  0.0275  0.0166  0.7119
  525MPD2     H 7798   2.945   2.574  14.371  0.0887  0.7562 -0.7551
  525MPD2    H1 7799   2.674   2.683  14.061  0.7465 -3.0655 -1.8714
  525MPD2    H2 7800   2.583   2.354  14.321  2.1403 -1.3237  0.6899
  525MPD2    H3 7801   2.531   2.493  14.124  0.1520  1.2244  0.1008
  525MPD2     N 7802   2.900   2.755  14.175 -0.9479 -0.3113 -0.1837
  525MPD2    H5 7803   2.854   2.811  14.104 -0.6591  0.7511  0.4774
  525MPD2    N1 7804   2.810   2.384  14.473 -0.0992 -0.0170 -0.7453
  525MPD2    H7 7805   2.905   2.392  14.506 -0.1999  1.2408 -0.7567
  526TMC3    C1 7806   2.806   2.221  14.640  0.1924 -0.5624 -0.3302
  526TMC3    C2 7807   2.748   2.180  14.754  0.1807 -1.2962 -0.4166
  526TMC3    C3 7808   2.819   2.122  14.857 -0.1646  0.3812  0.4892
  526TMC3    C4 7809   2.943   2.217  14.632  0.2693  0.6315 -0.7395
  526TMC3    C5 7810   3.016   2.157  14.739 -0.4461 -0.8876  0.4934
  526TMC3    C6 7811   2.955   2.106  14.853 -0.4168  0.6800  0.2103
  526TMC3     C 7812   2.727   2.301  14.550 -0.0058 -0.9852 -0.8185
  526TMC3     O 7813   2.610   2.285  14.558 -0.3781  0.4116 -0.0644
  526TMC3     H 7814   2.641   2.199  14.763  0.2344 -0.0526 -2.1834
  526TMC3    H1 7815   2.988   2.239  14.536 -2.8176 -1.5910 -2.7012
  526TMC3    H2 7816   3.003   2.049  14.931 -0.2126 -0.9092 -1.0821
  526TMC3    C7 7817   3.152   2.110  14.719  0.1529  0.4766 -0.0447
  526TMC3    C8 7818   2.766   2.140  14.992 -0.0027 -0.0078 -0.0458
  526TMC3    O1 7819   3.210   2.053  14.809 -0.5028 -0.1812  0.6227
  526TMC3    O2 7820   2.832   2.124  15.094 -0.4975 -0.0928 -0.3670
  527MPD2     C 7821   0.585   0.822   1.339  0.8011  0.3053 -0.6576
  527MPD2    C1 7822   0.638   0.694   1.353  0.6168 -0.4726  0.3051
  527MPD2    C2 7823   0.732   0.650   1.255 -0.9998 -0.2520  0.0986
  527MPD2    C3 7824   0.780   0.738   1.160  0.1432 -0.4201  0.0274
  527MPD2    C4 7825   0.727   0.857   1.147  0.0898 -0.5853 -0.3449
  527MPD2    C5 7826   0.628   0.894   1.231  0.3924  0.2562  0.1394
  527MPD2     H 7827   0.779   0.552   1.265 -0.6626 -0.3445 -2.3860
  527MPD2    H1 7828   0.747   0.919   1.061  0.7475 -0.4245 -0.0747
  527MPD2    H2 7829   0.509   0.858   1.407  1.9545  2.9317 -0.7822
  527MPD2    H3 7830   0.596   0.998   1.228  1.7724  0.6999  1.4765
  527MPD2     N 7831   0.867   0.680   1.066 -0.6805 -0.3595 -0.0307
  527MPD2    H5 7832   0.901   0.586   1.084 -2.0422 -0.3138  2.8532
  527MPD2    N1 7833   0.597   0.607   1.454 -0.5121  0.0515  0.5057
  527MPD2    H7 7834   0.643   0.516   1.462  2.0790  1.3154  0.0178
  528TMC3    C1 7835   0.472   0.536   1.634 -0.4643 -0.0255 -0.2390
  528TMC3    C2 7836   0.582   0.468   1.682  1.0404  0.9313 -0.0489
  528TMC3    C3 7837   0.556   0.372   1.771  0.7828  0.2934  0.5149
  528TMC3    C4 7838   0.343   0.521   1.685 -1.2225  0.5202 -0.3340
  528TMC3    C5 7839   0.327   0.426   1.777 -0.3581 -0.4841 -0.0961
  528TMC3    C6 7840   0.435   0.354   1.823  0.0925  0.2816  0.7350
  528TMC3     C 7841   0.484   0.625   1.526  0.2587  0.2428 -0.2369
  528TMC3     O 7842   0.389   0.685   1.504 -0.0315  0.2917 -0.0853
  528TMC3     H 7843   0.685   0.481   1.651  1.7650 -2.8928  0.7228
  528TMC3    H1 7844   0.254   0.573   1.650 -0.4742  2.4805  0.6633
  528TMC3    H2 7845   0.419   0.291   1.910  3.3034  1.3449  2.1145
  528TMC3    C7 7846   0.192   0.378   1.820 -0.2388 -0.3665  0.0575
  528TMC3    C8 7847   0.667   0.286   1.818 -0.7384 -0.8145 -0.2200
  528TMC3    O1 7848   0.193   0.273   1.883  0.3017 -0.2550 -0.0870
  528TMC3    O2 7849   0.772   0.311   1.764 -0.3314 -0.2482 -0.1255
  529MPD2     C 7850   3.983   3.960   0.349 -0.4720 -0.1204  0.0451
  529MPD2    C1 7851   3.919   3.838   0.325  1.0015 -1.1125 -0.1428
  529MPD2    C2 7852   3.871   3.812   0.201  0.3163  0.1503  0.1503
  529MPD2    C3 7853   3.877   3.909   0.103  0.4963  0.7576 -0.2994
  529MPD2    C4 7854   3.938   4.031   0.127  0.4728 -0.6395  0.1099
  529MPD2    C5 7855   3.989   4.060   0.254 -0.6988 -0.3193 -0.4147
  529MPD2     H 7856   3.816   3.719   0.191 -0.7823  0.7105  0.9774
  529MPD2    H1 7857   3.944   4.108   0.052  0.5944 -0.6739  0.0844
  529MPD2    H2 7858   4.021   3.976   0.449  0.8479 -1.3127 -0.2731
  529MPD2    H3 7859   4.030   4.159   0.272 -0.4064 -0.5852  0.3695
  529MPD2     N 7860   3.805   3.895  17.677 -0.3868  1.0012  0.0841
  529MPD2    H5 7861   3.799   3.985  17.630 -0.9834  1.1508  0.4464
  529MPD2    N1 7862   3.887   3.744   0.420 -0.7409 -0.6742  0.5045
  529MPD2    H7 7863   3.834   3.660   0.398 -0.4429 -0.7771  0.1893
  530TMC3    C1 7864   3.817   3.653   0.628  0.5021 -0.2358 -0.4319
  530TMC3    C2 7865   3.805   3.672   0.762 -0.3013  0.9875  0.0986
  530TMC3    C3 7866   3.718   3.591   0.828  0.0518 -0.5421  0.0984
  530TMC3    C4 7867   3.735   3.567   0.559 -0.2327  0.6932 -0.7682
  530TMC3    C5 7868   3.636   3.504   0.630 -0.4313  0.0858 -0.6695
  530TMC3    C6 7869   3.631   3.506   0.768 -0.2809 -0.1802 -0.1718
  530TMC3     C 7870   3.897   3.755   0.558 -0.1829  0.0251 -0.4170
  530TMC3     O 7871   3.949   3.844   0.620 -0.1025  0.5512  0.3616
  530TMC3     H 7872   3.876   3.738   0.811  1.9401 -0.6620 -0.9010
  530TMC3    H1 7873   3.740   3.556   0.451  0.1572  0.0432 -0.6859
  530TMC3    H2 7874   3.550   3.464   0.826  0.8338 -1.8044  0.2098
  530TMC3    C7 7875   3.560   3.403   0.560  0.4229  0.1143 -0.1206
  530TMC3    C8 7876   3.729   3.585   0.969 -0.0133 -0.6270  0.7065
  530TMC3    O1 7877   3.586   3.387   0.442  0.2902 -0.9302 -0.0871
  530TMC3    O2 7878   3.767   3.688   1.022 -0.2756 -0.0891 -0.5675
  531MPD2     C 7879   1.922   1.457  13.093 -0.4110  0.3204  0.0330
  531MPD2    C1 7880   1.788   1.470  13.126  0.1223 -0.0663 -0.2415
  531MPD2    C2 7881   1.693   1.384  13.063  0.0097 -0.3541  1.0775
  531MPD2    C3 7882   1.730   1.305  12.953 -0.4784  0.3627  0.0573
  531MPD2    C4 7883   1.862   1.302  12.917 -0.3780  0.7651 -0.4258
  531MPD2    C5 7884   1.958   1.374  12.987 -0.2767  0.4980  0.0957
  531MPD2     H 7885   1.589   1.397  13.090  0.1319  2.1789  0.3036
  531MPD2    H1 7886   1.906   1.238  12.842 -0.8401  1.0264 -0.9203
  531MPD2    H2 7887   2.009   1.512  13.124 -0.2285 -1.3281  2.4845
  531MPD2    H3 7888   2.061   1.350  12.966 -0.1981  0.4943  0.4827
  531MPD2     N 7889   1.635   1.222  12.891 -0.3685 -0.1628  0.3712
  531MPD2    H5 7890   1.542   1.239  12.926  0.5566  1.9395  1.8037
  531MPD2    N1 7891   1.752   1.571  13.216 -0.0236 -0.2792  0.1455
  531MPD2    H7 7892   1.831   1.619  13.257 -0.5847  1.4116 -0.7383
  532TMC3    C1 7893   1.634   1.681  13.383  0.3173 -0.5515  0.8014
  532TMC3    C2 7894   1.519   1.644  13.450  0.5645  0.1357  0.3579
  532TMC3    C3 7895   1.536   1.578  13.576 -0.8794  0.1321 -0.1597
  532TMC3    C4 7896   1.756   1.669  13.444 -0.1743  0.7577 -0.0656
  532TMC3    C5 7897   1.763   1.629  13.575  0.2091 -0.2783 -1.0206
  532TMC3    C6 7898   1.659   1.571  13.642  0.1493  0.3052  0.2215
  532TMC3     C 7899   1.628   1.612  13.250 -0.2864  0.7971  0.2947
  532TMC3     O 7900   1.518   1.570  13.219 -0.3781 -0.0222  0.3895
  532TMC3     H 7901   1.424   1.676  13.410 -0.4549 -1.8385  1.2032
  532TMC3    H1 7902   1.829   1.731  13.392  0.8454  1.1826  1.8596
  532TMC3    H2 7903   1.676   1.509  13.729  0.7531  0.4871  0.2352
  532TMC3    C7 7904   1.895   1.583  13.620 -0.4991 -0.0036 -0.2369
  532TMC3    C8 7905   1.457   1.453  13.585  0.6390  0.3700 -0.0424
  532TMC3    O1 7906   1.947   1.653  13.707  0.3082 -0.0502 -0.0005
  532TMC3    O2 7907   1.437   1.396  13.690  0.4204  0.0278 -0.5122
  533TMC3    C1 7908   3.047   2.931  14.175  0.9052  0.4507 -0.2009
  533TMC3    C2 7909   3.175   2.976  14.200 -0.1112 -0.2949  0.3656
  533TMC3    C3 7910   3.198   3.102  14.241 -0.3454 -0.2944 -0.0476
  533TMC3    C4 7911   2.944   3.014  14.211  0.2081 -0.3817  0.1837
  533TMC3    C5 7912   2.968   3.135  14.280 -0.0386  0.3293 -0.4525
  533TMC3    C6 7913   3.093   3.186  14.272  0.8271 -0.2446 -0.1978
  533TMC3     C 7914   3.020   2.792  14.217  0.0460 -0.5718 -0.2626
  533TMC3     O 7915   3.095   2.727  14.288 -0.0259  0.1961 -0.1505
  533TMC3     H 7916   3.262   2.918  14.173 -1.5306 -2.9683  1.5638
  533TMC3    H1 7917   2.840   2.984  14.219  0.1249 -0.2794 -0.5377
  533TMC3    H2 7918   3.125   3.282  14.312  1.5354  0.2484 -1.9704
  533TMC3    C7 7919   2.940   3.104  14.418  0.6889 -0.3055  0.9228
  533TMC3    C8 7920   3.331   3.154  14.265 -0.7744 -0.8365  1.5781
  533TMC3    O1 7921   2.931   2.982  14.431  0.1922  0.2993  0.4121
  533TMC3    O2 7922   3.345   3.241  14.350 -0.2677  0.0007 -0.3510
  534MPD2     C 7923   0.292   4.226   1.920  0.5378 -0.0753  0.3173
  534MPD2    C1 7924   0.339   4.246   1.791  0.3771  0.1603 -0.0130
  534MPD2    C2 7925   0.273   4.195   1.688  0.3368 -0.3718  0.0393
  534MPD2    C3 7926   0.156   4.114   1.702  0.2318  0.0503  0.2078
  534MPD2    C4 7927   0.110   4.092   1.824 -0.1425 -0.3786  0.4641
  534MPD2    C5 7928   0.179   4.144   1.933  0.2172  0.2251  0.1817
  534MPD2     H 7929   0.314   4.211   1.589  0.2901 -1.1213 -0.1031
  534MPD2    H1 7930   0.029   4.020   1.837 -1.0048  0.4564 -0.2839
  534MPD2    H2 7931   0.337   4.261   2.013  0.3610  0.9104  0.0350
  534MPD2    H3 7932   0.155   4.107   2.032 -1.4222 -2.1501 -1.0976
  534MPD2     N 7933   0.106   4.045   1.590  0.5516  0.8209 -0.7184
  534MPD2    H5 7934   0.028   3.982   1.602  1.1933 -0.1961 -1.8948
  534MPD2    N1 7935   0.448   4.329   1.763 -0.0278  0.1898  0.2144
  534MPD2    H7 7936   0.467   4.362   1.669  0.6955 -0.6236  0.0718
  535TMC3    C1 7937   0.091   3.967   1.371 -0.2039  0.4703 -0.3514
  535TMC3    C2 7938   0.063   3.845   1.414  0.3188  0.7304 -0.2393
  535TMC3    C3 7939   0.065   3.739   1.327 -0.1108  0.3571  0.3306
  535TMC3    C4 7940   0.132   3.997   1.240 -0.1511 -0.3762 -0.4046
  535TMC3    C5 7941   0.149   3.888   1.163 -0.1639 -0.4251  0.2382
  535TMC3    C6 7942   0.115   3.759   1.201  0.4146 -0.2624  0.1795
  535TMC3     C 7943   0.133   4.075   1.462 -0.0592 -0.0339 -0.2711
  535TMC3     O 7944   0.188   4.173   1.416 -0.5248  0.0133 -0.2459
  535TMC3     H 7945   0.017   3.835   1.512  0.3621 -3.5404 -0.6512
  535TMC3    H1 7946   0.165   4.096   1.208 -1.4261 -0.2022 -1.1753
  535TMC3    H2 7947   0.097   3.682   1.127 -3.1103  0.3852  0.3333
  535TMC3    C7 7948   0.174   3.914   1.022 -0.4574 -0.2707  0.0522
  535TMC3    C8 7949   0.010   3.605   1.350  0.1214  0.4154  0.1273
  535TMC3    O1 7950   0.197   3.819   0.946  0.2498  0.1154  0.2349
  535TMC3    O2 7951   4.717   3.519   1.265  0.4523 -0.9019 -0.4378
  536MPD2     C 7952   4.654   2.357  16.053  0.4903  0.6118  0.2086
  536MPD2    C1 7953   4.526   2.307  16.074 -0.1335  0.3038 -0.2835
  536MPD2    C2 7954   4.433   2.321  15.975  0.4079 -0.1976 -0.6621
  536MPD2    C3 7955   4.471   2.380  15.854  0.0011 -0.9749 -0.0684
  536MPD2    C4 7956   4.600   2.433  15.835 -0.9990  0.4874  0.5735
  536MPD2    C5 7957   4.690   2.421  15.938 -0.2754 -0.4760 -0.3941
  536MPD2     H 7958   4.328   2.298  15.983 -0.0315  1.2723 -2.2094
  536MPD2    H1 7959   4.617   2.498  15.750  1.2987 -0.3530  0.3991
  536MPD2    H2 7960   0.007   2.372  16.129  0.2401  1.5632  0.2718
  536MPD2    H3 7961   0.062   2.468  15.920  0.1070 -0.6696  1.1978
  536MPD2     N 7962   4.382   2.398  15.743 -0.2694 -0.5101 -0.2777
  536MPD2    H5 7963   4.412   2.439  15.656  0.9926  0.4433  0.5978
  536MPD2    N1 7964   4.501   2.251  16.197  0.9152 -0.1409 -0.7239
  536MPD2    H7 7965   4.562   2.270  16.275  1.1584 -2.5318 -0.3487
  537TMC3    C1 7966   4.376   2.145  16.371  0.3383 -0.4976  0.5392
  537TMC3    C2 7967   4.476   2.148  16.461  0.2060 -0.0120 -0.0142
  537TMC3    C3 7968   4.459   2.091  16.586  0.7910  0.3741  0.5113
  537TMC3    C4 7969   4.254   2.090  16.414  0.0194  0.1932  0.1693
  537TMC3    C5 7970   4.243   2.034  16.537 -0.5472 -0.4699 -0.3793
  537TMC3    C6 7971   4.345   2.029  16.628  1.5416 -0.1474  0.7215
  537TMC3     C 7972   4.383   2.189  16.229  0.3871 -0.3544  0.2722
  537TMC3     O 7973   4.285   2.158  16.160 -0.4114 -0.3429 -0.3461
  537TMC3     H 7974   4.576   2.187  16.442  1.1093 -1.2283  2.2221
  537TMC3    H1 7975   4.173   2.101  16.343 -0.1304  0.7905  0.4345
  537TMC3    H2 7976   4.358   1.958  16.709 -1.3244  0.1408  1.4428
  537TMC3    C7 7977   4.124   1.945  16.561  0.1970  0.8026 -0.2540
  537TMC3    C8 7978   4.568   2.102  16.686  0.4150  0.2940  0.0957
  537TMC3    O1 7979   4.044   1.921  16.471  0.3719  0.5749 -0.0932
  537TMC3    O2 7980   4.527   2.126  16.802  0.3410 -0.3366  0.0783
  538TMC3    C1 7981   1.029   0.112  10.834  0.5337 -0.0586 -0.2094
  538TMC3    C2 7982   1.158   0.140  10.800  0.1506  0.0602 -0.2037
  538TMC3    C3 7983   1.168   0.255  10.727 -0.9289  0.2525 -0.3342
  538TMC3    C4 7984   0.918   0.196  10.815 -0.5242  0.1730  0.4319
  538TMC3    C5 7985   0.946   0.308  10.747 -0.1417 -0.1485 -0.0848
  538TMC3    C6 7986   1.075   0.339  10.690  1.0537 -0.5053  0.0134
  538TMC3     C 7987   1.024   0.012  10.937  0.4446 -0.5363 -0.0940
  538TMC3     O 7988   0.927   0.022  11.012  0.1734  0.0062  1.1042
  538TMC3     H 7989   1.246   0.081  10.822 -0.3698 -0.6180  0.0501
  538TMC3    H1 7990   0.819   0.177  10.855 -1.0856  1.0606 -0.5456
  538TMC3    H2 7991   1.109   0.425  10.634 -0.6686  1.1032  1.4468
  538TMC3    C7 7992   0.849   0.409  10.768 -0.5725 -0.6501 -1.2665
  538TMC3    C8 7993   1.309   0.263  10.674  0.2197 -0.2321  0.7914
  538TMC3    O1 7994   0.735   0.380  10.788 -0.0326  0.2326 -0.2864
  538TMC3    O2 7995   1.395   0.221  10.747 -0.2597  0.3803 -0.4896
  539MPD2     C 7996   0.173   4.644  11.948  0.2701 -0.1585  0.7442
  539MPD2    C1 7997   0.180   4.655  11.807 -0.1512 -0.7046  0.3332
  539MPD2    C2 7998   0.102   0.027  11.743 -0.7915  0.3884 -0.1619
  539MPD2    C3 7999   0.047   0.128  11.820  0.2099 -0.1077  0.2787
  539MPD2    C4 8000   0.062   0.128  11.961 -0.1726 -0.2230 -1.0809
  539MPD2    C5 8001   0.111   0.016  12.023 -0.0122  0.0457 -0.6329
  539MPD2     H 8002   0.107   0.019  11.635  1.0481  0.9113 -0.1108
  539MPD2    H1 8003   0.016   0.205  12.022  1.1639  1.0783 -1.7362
  539MPD2    H2 8004   0.223   4.562  11.998  0.1550 -0.6386  0.0670
  539MPD2    H3 8005   0.111   0.022  12.132  0.1515  4.1876 -0.8622
  539MPD2     N 8006   4.720   0.246  11.772 -0.2355 -0.1502 -0.1139
  539MPD2    H5 8007   4.707   0.320  11.840  0.6285  0.1390 -0.2620
  539MPD2    N1 8008   0.253   4.552  11.729 -0.6821  0.0862  0.4775
  539MPD2    H7 8009   0.248   4.560  11.628  0.6695  0.0679  0.4091
  540TMC3    C1 8010   4.660   0.409  11.605 -0.6976 -0.1932  0.8069
  540TMC3    C2 8011   4.701   0.460  11.484 -0.2382 -0.9862  0.0001
  540TMC3    C3 8012   0.010   0.591  11.475  0.3519  0.2800 -0.4228
  540TMC3    C4 8013   4.643   0.491  11.710 -0.6210  0.6782 -0.0213
  540TMC3    C5 8014   4.665   0.623  11.694 -0.1108  0.3796  0.5458
  540TMC3    C6 8015   4.715   0.675  11.581  0.4876  0.3140 -0.1903
  540TMC3     C 8016   4.706   0.277  11.636  0.3459  0.1619 -0.2045
  540TMC3     O 8017   0.020   0.226  11.534  0.0925  0.6562 -0.2404
  540TMC3     H 8018   4.711   0.392  11.400  4.5614 -0.1503 -0.1256
  540TMC3    H1 8019   4.598   0.463  11.805 -0.7201  1.8114  0.2629
  540TMC3    H2 8020   0.016   0.781  11.573  1.5217 -0.0503 -1.6400
  540TMC3    C7 8021   4.573   0.700  11.778  0.1306  0.0299 -0.0298
  540TMC3    C8 8022   0.117   0.620  11.386  0.4545  0.1293  0.4042
  540TMC3    O1 8023   4.467   0.649  11.801  0.3721 -0.2346 -0.7060
  540TMC3    O2 8024   0.223   0.668  11.434 -0.3042 -0.1527  0.2237
  541MPD2     C 8025   3.495   1.847  13.116 -0.0390 -0.6052  0.2503
  541MPD2    C1 8026   3.438   1.777  13.003  0.4048  0.0672 -0.6389
  541MPD2    C2 8027   3.480   1.826  12.881  0.8808  0.0759 -0.2437
  541MPD2    C3 8028   3.573   1.924  12.864  0.0120 -0.6793 -0.0554
  541MPD2    C4 8029   3.623   1.985  12.977 -0.2618 -0.2294  0.2466
  541MPD2    C5 8030   3.596   1.935  13.103 -0.1061  0.3126 -0.3849
  541MPD2     H 8031   3.445   1.783  12.788  0.6007  2.0593 -1.0713
  541MPD2    H1 8032   3.700   2.061  12.974  1.0708 -1.4953  2.2328
  541MPD2    H2 8033   3.466   1.824  13.218  0.8436 -2.1028  0.1545
  541MPD2    H3 8034   3.644   1.976  13.191 -1.2654  1.0827 -0.1190
  541MPD2     N 8035   3.600   1.971  12.729  1.0015 -0.7277  0.5537
  541MPD2    H5 8036   3.556   1.927  12.649  0.7094 -1.3992  1.0856
  541MPD2    N1 8037   3.343   1.679  13.023  0.2181 -0.4409  0.3478
  541MPD2    H7 8038   3.330   1.654  13.121  1.9773  0.6788  0.8553
  542TMC3    C1 8039   3.653   2.104  12.553 -0.0345 -0.3339 -0.6996
  542TMC3    C2 8040   3.622   1.994  12.474 -0.3170 -0.2928  0.1660
  542TMC3    C3 8041   3.624   2.014  12.336  0.1670 -0.3964 -0.4621
  542TMC3    C4 8042   3.693   2.226  12.506 -0.1918  0.0343  0.7345
  542TMC3    C5 8043   3.697   2.240  12.369 -0.2692  0.4999 -0.7216
  542TMC3    C6 8044   3.664   2.138  12.284  0.3117 -0.0010  0.1005
  542TMC3     C 8045   3.668   2.085  12.696 -0.2332 -0.0290  0.7209
  542TMC3     O 8046   3.718   2.172  12.768 -0.4284 -0.2022  0.4463
  542TMC3     H 8047   3.602   1.895  12.514 -1.8840 -0.7249 -1.6820
  542TMC3    H1 8048   3.703   2.304  12.581  0.6378  2.1624 -1.5626
  542TMC3    H2 8049   3.669   2.152  12.176 -1.0798 -0.7939 -0.0602
  542TMC3    C7 8050   3.741   2.363  12.307  0.1904  0.1049  1.0496
  542TMC3    C8 8051   3.599   1.908  12.239  0.1085 -0.8536  0.2007
  542TMC3    O1 8052   3.748   2.373  12.187 -0.0427  0.3053 -0.2747
  542TMC3    O2 8053   3.667   1.905  12.138  0.1227 -0.3573  0.1993
  543TMC3    C1 8054   2.983   3.129  16.913 -0.4074 -0.2202  0.1126
  543TMC3    C2 8055   2.905   3.020  16.928  0.1403  0.3650  0.5851
  543TMC3    C3 8056   2.910   2.952  17.049 -0.9758  0.5612  0.1586
  543TMC3    C4 8057   3.055   3.182  17.020  0.1374  0.0093 -0.4649
  543TMC3    C5 8058   3.062   3.109  17.133 -0.3592 -0.3871 -0.3868
  543TMC3    C6 8059   2.989   2.996  17.156  0.0841 -0.4305 -0.2460
  543TMC3     C 8060   3.025   3.172  16.783  0.1222  0.3319  0.6595
  543TMC3     O 8061   3.136   3.218  16.772  0.1320  0.8836  0.0428
  543TMC3     H 8062   2.869   2.974  16.838  1.2860  3.5352 -1.4860
  543TMC3    H1 8063   3.139   3.249  17.004  0.2705  0.0185  0.2705
  543TMC3    H2 8064   3.006   2.938  17.246 -2.3805  2.3579  2.0505
  543TMC3    C7 8065   3.122   3.176  17.252 -0.2122  0.0130 -0.2641
  543TMC3    C8 8066   2.845   2.821  17.054 -0.2463 -0.2954  0.1504
  543TMC3    O1 8067   3.123   3.299  17.252  0.4522 -0.1599 -0.4188
  543TMC3    O2 8068   2.802   2.788  16.948  0.4069  0.3433 -0.2382
  544MPD2     C 8069   2.844   2.347  17.227  0.4222  0.0915  0.2769
  544MPD2    C1 8070   2.819   2.394  17.101  0.1980 -0.1986  0.4056
  544MPD2    C2 8071   2.833   2.531  17.083 -0.3742  0.1737  0.0303
  544MPD2    C3 8072   2.858   2.612  17.191  0.1597  0.2216 -0.0372
  544MPD2    C4 8073   2.888   2.560  17.316 -0.5954 -0.4096 -0.1005
  544MPD2    C5 8074   2.880   2.425  17.333 -1.0616 -0.2280 -0.7024
  544MPD2     H 8075   2.794   2.575  16.991  2.0753  0.6820 -0.7452
  544MPD2    H1 8076   2.922   2.620  17.399  1.5572  0.1420 -1.3755
  544MPD2    H2 8077   2.835   2.240  17.244 -0.6839  0.0079 -0.9067
  544MPD2    H3 8078   2.891   2.384  17.432  0.2710  2.3138  0.1969
  544MPD2     N 8079   2.859   2.759  17.178  0.2710 -0.1034  0.3066
  544MPD2    H5 8080   2.889   2.806  17.263 -0.3596 -0.6861  0.8612
  544MPD2    N1 8081   2.762   2.304  17.009 -0.2015 -0.4815  0.2994
  544MPD2    H7 8082   2.743   2.215  17.055  0.0012 -0.8871 -0.3998
  545TMC3    C1 8083   2.638   2.239  16.820  0.3828 -0.9199  0.4027
  545TMC3    C2 8084   2.569   2.281  16.710 -0.3642  0.1642  0.0293
  545TMC3    C3 8085   2.470   2.195  16.672 -0.1338  0.2168  0.1971
  545TMC3    C4 8086   2.632   2.116  16.880  0.0398  0.6844  0.6018
  545TMC3    C5 8087   2.531   2.041  16.838  0.0299  0.1271 -0.5553
  545TMC3    C6 8088   2.445   2.078  16.738 -0.8094 -0.1134  0.5993
  545TMC3     C 8089   2.724   2.333  16.879  0.5885  0.2184 -0.6884
  545TMC3     O 8090   2.770   2.423  16.810 -0.4126 -0.0854  0.5565
  545TMC3     H 8091   2.563   2.385  16.679 -2.5303  0.2905  0.8799
  545TMC3    H1 8092   2.700   2.077  16.955  0.9569  0.4415 -0.3493
  545TMC3    H2 8093   2.370   2.010  16.701 -0.6023  0.2423 -0.4705
  545TMC3    C7 8094   2.500   1.922  16.901  0.2196  0.3562 -0.4304
  545TMC3    C8 8095   2.391   2.232  16.556 -0.8664 -0.1785 -0.2653
  545TMC3    O1 8096   2.401   1.864  16.855 -0.5682 -0.0635  0.1161
  545TMC3    O2 8097   2.436   2.324  16.490  0.0191  0.0225  0.6120
  546MPD2     C 8098   4.434   2.937  16.814 -0.0538 -0.3653 -0.2342
  546MPD2    C1 8099   4.391   2.870  16.925 -0.0627 -0.4732  0.0568
  546MPD2    C2 8100   4.428   2.923  17.047  0.3083  0.1317 -1.1120
  546MPD2    C3 8101   4.503   3.043  17.054  0.3800 -0.3840  0.1799
  546MPD2    C4 8102   4.540   3.106  16.939  0.1449 -0.1697  0.3357
  546MPD2    C5 8103   4.505   3.052  16.819 -0.3265 -0.7641 -0.7370
  546MPD2     H 8104   4.397   2.879  17.141  1.2099 -0.9762 -1.3405
  546MPD2    H1 8105   4.583   3.205  16.945  3.2448 -1.5087 -0.0359
  546MPD2    H2 8106   4.408   2.898  16.717 -2.5967  1.1889 -0.1791
  546MPD2    H3 8107   4.541   3.094  16.726 -0.0297  0.5518 -0.0240
  546MPD2     N 8108   4.529   3.101  17.180  0.1668  0.1833  0.2958
  546MPD2    H5 8109   4.478   3.068  17.261  1.4847 -1.4661  0.4599
  546MPD2    N1 8110   4.297   2.763  16.918 -0.2635 -0.0504 -0.2122
  546MPD2    H7 8111   4.266   2.748  16.823 -2.3708  0.0683  0.4482
  547TMC3    C1 8112   4.161   2.580  16.979  0.5853 -0.0809  0.0737
  547TMC3    C2 8113   4.069   2.615  16.887  0.1797 -0.0391 -0.4524
  547TMC3    C3 8114   3.963   2.536  16.872  0.3919  0.5242 -0.3358
  547TMC3    C4 8115   4.147   2.469  17.061  0.0409 -1.2141  0.0130
  547TMC3    C5 8116   4.044   2.393  17.036  0.2225 -0.1753 -0.4174
  547TMC3    C6 8117   3.951   2.416  16.934  0.0932 -0.4207  0.2108
  547TMC3     C 8118   4.262   2.679  17.020  0.5575  0.0029 -0.1067
  547TMC3     O 8119   4.314   2.666  17.128  0.3631 -0.1474 -0.8602
  547TMC3     H 8120   4.077   2.710  16.835  1.7396 -0.3286 -0.7338
  547TMC3    H1 8121   4.209   2.436  17.143  0.3517 -2.5958 -0.7697
  547TMC3    H2 8122   3.863   2.354  16.919 -0.1359 -0.2831  1.0152
  547TMC3    C7 8123   4.009   2.294  17.139 -0.1305  0.5935 -0.2595
  547TMC3    C8 8124   3.873   2.573  16.771  0.1789 -0.3028  0.3948
  547TMC3    O1 8125   4.061   2.300  17.250 -0.2018  0.1069 -0.1316
  547TMC3    O2 8126   3.908   2.653  16.682  0.2804  0.7306  0.0658
  548MPD2     C 8127   4.368   3.715  12.100 -0.6190 -0.1433  0.4537
  548MPD2    C1 8128   4.344   3.575  12.110 -0.6413 -0.2960 -0.4287
  548MPD2    C2 8129   4.419   3.492  12.026  0.5400  0.4573 -0.6581
  548MPD2    C3 8130   4.504   3.542  11.928  0.2900 -0.2450 -0.2020
  548MPD2    C4 8131   4.518   3.680  11.914  0.2845 -0.6969 -0.3278
  548MPD2    C5 8132   4.448   3.758  11.995 -0.0050 -0.3687  0.5251
  548MPD2     H 8133   4.392   3.387  12.034 -0.6955  0.9216  1.3816
  548MPD2    H1 8134   4.586   3.722  11.841  0.8394 -1.1755 -0.0866
  548MPD2    H2 8135   4.325   3.799  12.152  0.0883  0.6589 -0.2527
  548MPD2    H3 8136   4.460   3.866  11.997 -2.8894 -0.0526 -0.2386
  548MPD2     N 8137   4.577   3.451  11.845  0.3914  0.4212 -0.2436
  548MPD2    H5 8138   4.555   3.352  11.856  1.0257  0.3765  0.6183
  548MPD2    N1 8139   4.250   3.521  12.201 -0.4405  0.1842  0.3023
  548MPD2    H7 8140   4.196   3.594  12.245 -0.0681  0.7040 -0.0996
  549TMC3    C1 8141   4.126   3.378  12.328 -0.2436 -0.9466  0.1464
  549TMC3    C2 8142   4.010   3.459  12.324 -0.0115  0.1349 -0.1503
  549TMC3    C3 8143   3.907   3.421  12.399 -0.1513 -0.2218 -0.2133
  549TMC3    C4 8144   4.138   3.268  12.410 -0.3089 -0.3077 -0.2365
  549TMC3    C5 8145   4.035   3.244  12.493 -0.4936  1.3900 -0.9842
  549TMC3    C6 8146   3.917   3.311  12.485 -0.5650  0.7508 -0.2086
  549TMC3     C 8147   4.247   3.387  12.239  0.7457  0.0482 -0.3178
  549TMC3     O 8148   4.333   3.302  12.219 -0.3035  0.3395  0.1459
  549TMC3     H 8149   4.004   3.546  12.259  2.6408 -0.6333 -1.4334
  549TMC3    H1 8150   4.236   3.224  12.425 -0.6176 -0.0957  2.4309
  549TMC3    H2 8151   3.833   3.285  12.549 -2.3615  2.4649 -1.8929
  549TMC3    C7 8152   4.049   3.140  12.589 -0.1958 -0.1226 -0.4387
  549TMC3    C8 8153   3.787   3.496  12.390 -0.0269 -0.1172  0.0712
  549TMC3    O1 8154   3.974   3.141  12.687  0.1332 -0.0775  0.2786
  549TMC3    O2 8155   3.695   3.457  12.323 -0.1159  0.1816 -0.6214
  550TMC3    C1 8156   2.723   1.363  11.750 -0.5406 -1.3015  0.5405
  550TMC3    C2 8157   2.762   1.348  11.883 -0.1067  0.1908  0.2025
  550TMC3    C3 8158   2.824   1.460  11.932 -0.4693 -0.7698 -0.3443
  550TMC3    C4 8159   2.738   1.476  11.678 -0.3031 -0.1437 -0.5197
  550TMC3    C5 8160   2.803   1.581  11.726  0.6290 -0.2147  0.2424
  550TMC3    C6 8161   2.846   1.573  11.855  0.4933  0.9947  0.6165
  550TMC3     C 8162   2.610   1.275  11.724 -0.5879  0.0024 -0.6296
  550TMC3     O 8163   2.611   1.163  11.776  0.3424 -0.0749  0.3694
  550TMC3     H 8164   2.722   1.269  11.946 -0.7792  0.1150 -0.3266
  550TMC3    H1 8165   2.701   1.479  11.576  0.4102 -0.1430 -0.7751
  550TMC3    H2 8166   2.892   1.659  11.902 -0.2349  2.1249 -0.7315
  550TMC3    C7 8167   2.723   1.699  11.705 -0.4370 -0.6722  0.0675
  550TMC3    C8 8168   2.816   1.488  12.074 -0.3072  0.0499  0.4062
  550TMC3    O1 8169   2.776   1.791  11.647  0.8417 -0.5062 -0.2343
  550TMC3    O2 8170   2.827   1.602  12.115 -0.2185  0.3438  0.0030
  551TMC3    C1 8171   0.330   3.941  13.239 -0.4236  0.0940  0.2188
  551TMC3    C2 8172   0.429   3.966  13.141 -0.0791 -0.4846  0.4673
  551TMC3    C3 8173   0.512   4.071  13.166 -0.4710 -0.3444  0.3699
  551TMC3    C4 8174   0.321   4.008  13.354  0.1099  0.2177  0.2215
  551TMC3    C5 8175   0.404   4.119  13.368 -0.4678  0.8360 -0.5583
  551TMC3    C6 8176   0.506   4.146  13.280  0.5150 -0.6411  0.3176
  551TMC3     C 8177   0.232   3.842  13.191 -0.4818 -0.7062  0.0262
  551TMC3     O 8178   0.219   3.830  13.068  0.7361  0.4107 -0.1742
  551TMC3     H 8179   0.436   3.917  13.044  1.2976 -2.9297  1.8142
  551TMC3    H1 8180   0.231   3.999  13.414  0.1116 -1.1845  0.0160
  551TMC3    H2 8181   0.574   4.229  13.297  0.7965 -0.3409 -2.3295
  551TMC3    C7 8182   0.429   4.163  13.506 -0.0671 -0.1829  0.0805
  551TMC3    C8 8183   0.616   4.093  13.070  0.0062  0.4098  0.0469
  551TMC3    O1 8184   0.502   4.259  13.524  0.4592 -0.0594  0.0163
  551TMC3    O2 8185   0.650   4.004  12.995 -0.5477  0.2323 -0.5689
  552MPD2     C 8186   1.946   1.328  13.871 -0.8696  0.4818  0.1746
  552MPD2    C1 8187   1.973   1.196  13.838  0.0849  0.3723  0.3770
  552MPD2    C2 8188   2.104   1.156  13.836 -0.4389 -0.2654  1.1082
  552MPD2    C3 8189   2.202   1.244  13.872  0.9694 -0.1760  0.5098
  552MPD2    C4 8190   2.177   1.373  13.892  0.1679  0.7050 -0.2318
  552MPD2    C5 8191   2.042   1.416  13.900 -0.2505 -0.2186  0.7869
  552MPD2     H 8192   2.133   1.057  13.803  2.7771  0.9908  0.2058
  552MPD2    H1 8193   2.259   1.441  13.911 -0.3454  1.5643 -1.0072
  552MPD2    H2 8194   1.842   1.355  13.886 -0.9399  0.7061 -0.7323
  552MPD2    H3 8195   2.025   1.508  13.955  0.2472 -1.2164  2.6257
  552MPD2     N 8196   2.337   1.203  13.887  0.0150  0.1866 -1.1078
  552MPD2    H5 8197   2.405   1.277  13.904  0.4055 -0.7481  1.3699
  552MPD2    N1 8198   1.883   1.105  13.781  0.8392  0.3503  0.1028
  552MPD2    H7 8199   1.919   1.011  13.771  0.2732  0.4231 -2.4782
  553TMC3    C1 8200   1.686   1.019  13.686  0.4255 -0.3012 -0.1605
  553TMC3    C2 8201   1.600   1.046  13.583 -0.3201  0.1921  0.4233
  553TMC3    C3 8202   1.564   0.948  13.496  0.2174  0.7318 -0.1709
  553TMC3    C4 8203   1.739   0.894  13.708 -0.4696 -0.0338 -0.5588
  553TMC3    C5 8204   1.687   0.805  13.624 -0.8285  0.2994  0.5760
  553TMC3    C6 8205   1.603   0.825  13.517 -0.5697  0.0200 -0.8768
  553TMC3     C 8206   1.765   1.135  13.723  0.5655 -0.5706  0.6249
  553TMC3     O 8207   1.723   1.251  13.703  0.1882 -0.3721  0.2799
  553TMC3     H 8208   1.583   1.148  13.552 -1.7566  0.1361  1.0468
  553TMC3    H1 8209   1.815   0.866  13.781 -1.3967 -0.5938  0.1793
  553TMC3    H2 8210   1.583   0.740  13.453 -2.3362 -0.6671  0.5849
  553TMC3    C7 8211   1.767   0.681  13.605 -0.2415 -0.2749 -0.3577
  553TMC3    C8 8212   1.602   0.990  13.365 -0.1418  0.7584  0.2942
  553TMC3    O1 8213   1.698   0.584  13.626 -0.0877  0.0827 -1.0184
  553TMC3    O2 8214   1.685   1.083  13.368 -0.1294  0.4134  0.8357
  554TMC3    C1 8215   4.070   0.641  11.731 -0.5682 -0.1033 -0.3824
  554TMC3    C2 8216   3.980   0.576  11.661 -0.1486  0.2695 -0.1699
  554TMC3    C3 8217   3.975   0.602  11.521  0.2852 -0.5274  0.0589
  554TMC3    C4 8218   4.147   0.740  11.676  1.0403 -0.1320  0.1927
  554TMC3    C5 8219   4.138   0.769  11.544 -0.1464 -0.0125 -0.0034
  554TMC3    C6 8220   4.057   0.698  11.464  0.0151  0.0487  0.4422
  554TMC3     C 8221   4.092   0.606  11.867  0.0973 -0.9701 -0.6416
  554TMC3     O 8222   4.148   0.683  11.946 -0.0324  0.0206 -0.2468
  554TMC3     H 8223   3.904   0.512  11.703 -0.6746  0.1178 -1.3472
  554TMC3    H1 8224   4.217   0.793  11.739  1.5134 -0.9532  0.3624
  554TMC3    H2 8225   4.046   0.730  11.361 -0.5646 -1.7882 -0.0520
  554TMC3    C7 8226   4.261   0.796  11.466  0.1889 -0.3520 -0.3624
  554TMC3    C8 8227   3.964   0.493  11.430  0.5193 -0.3228 -0.4067
  554TMC3    O1 8228   4.276   0.731  11.364  0.6993  0.6409 -0.0033
  554TMC3    O2 8229   3.976   0.511  11.313  0.1314 -0.3498 -0.3908
  555TMC3    C1 8230   3.344   4.614  14.728  0.3748 -0.1462  0.4975
  555TMC3    C2 8231   3.312   4.693  14.838  0.7451 -0.3412  0.5188
  555TMC3    C3 8232   3.268   4.636  14.950  0.5763  0.2734 -0.1195
  555TMC3    C4 8233   3.348   4.477  14.738 -0.5859 -0.6521 -0.6026
  555TMC3    C5 8234   3.300   4.419  14.854  0.0741 -0.6292 -0.2986
  555TMC3    C6 8235   3.258   4.500  14.963 -0.3194  0.0394 -1.0708
  555TMC3     C 8236   3.355   4.681  14.599 -0.1790  0.2269  0.4512
  555TMC3     O 8237   3.432   4.629  14.520 -0.4557 -0.3223 -0.9069
  555TMC3     H 8238   3.310   0.078  14.836 -0.9869 -0.4083 -0.8609
  555TMC3    H1 8239   3.366   4.416  14.650 -1.0220 -0.8068 -0.5844
  555TMC3    H2 8240   3.210   4.453  15.048  2.7918 -0.8167  0.1845
  555TMC3    C7 8241   3.273   4.274  14.860  0.2554  0.4540  0.3404
  555TMC3    C8 8242   3.223   4.719  15.059 -0.0172  0.6794 -1.1803
  555TMC3    O1 8243   3.217   4.238  14.961 -0.2439 -0.7522  0.0978
  555TMC3    O2 8244   3.140   0.072  15.021  0.1182  0.6032  0.3548
  556MPD2     C 8245   1.235   1.253  10.000 -0.2127 -1.2154  0.1754
  556MPD2    C1 8246   1.305   1.179  10.095  0.1324  0.0432  0.2096
  556MPD2    C2 8247   1.357   1.054  10.070 -0.0456  0.4639  0.0643
  556MPD2    C3 8248   1.326   0.993   9.952  0.5999 -0.0900  0.3101
  556MPD2    C4 8249   1.255   1.063   9.860  0.0579  0.5903 -0.2170
  556MPD2    C5 8250   1.212   1.192   9.881  0.2380  0.3242 -0.7464
  556MPD2     H 8251   1.423   1.001  10.138 -0.2170 -0.6151 -0.6066
  556MPD2    H1 8252   1.222   1.025   9.764  0.6080  0.1221 -0.2204
  556MPD2    H2 8253   1.184   1.347  10.018  2.9885  0.5294  0.1690
  556MPD2    H3 8254   1.147   1.239   9.808 -1.5300 -1.9580 -0.6419
  556MPD2     N 8255   1.357   0.856   9.928 -0.1044 -0.1208  0.1745
  556MPD2    H5 8256   1.417   0.814   9.999  0.6203 -0.5769 -0.7053
  556MPD2    N1 8257   1.329   1.226  10.224 -0.0826  0.1869  0.5116
  556MPD2    H7 8258   1.371   1.153  10.280  1.7212  0.0208 -1.0356
  557TMC3    C1 8259   1.397   0.652   9.810 -0.4158 -0.0301  0.3645
  557TMC3    C2 8260   1.425   0.611   9.684 -0.1638 -0.4409  0.2285
  557TMC3    C3 8261   1.484   0.486   9.670 -0.3404  0.0174  0.3905
  557TMC3    C4 8262   1.429   0.585   9.923  1.0005  0.2072  0.4016
  557TMC3    C5 8263   1.487   0.465   9.904 -0.2393  0.3220  0.0902
  557TMC3    C6 8264   1.514   0.409   9.782  0.5538 -0.8318 -0.4895
  557TMC3     C 8265   1.319   0.775   9.818 -0.9920  0.3264 -0.2140
  557TMC3     O 8266   1.258   0.806   9.719 -0.3711  0.2559 -0.4432
  557TMC3     H 8267   1.402   0.672   9.597  0.5006  0.5643  0.7641
  557TMC3    H1 8268   1.415   0.632  10.020  1.9897  1.1621  0.0735
  557TMC3    H2 8269   1.575   0.319   9.776  0.9027 -0.5700 -0.8071
  557TMC3    C7 8270   1.544   0.389  10.014  0.0211 -0.4960  0.3542
  557TMC3    C8 8271   1.576   0.474   9.556  0.1243  0.1775 -0.2876
  557TMC3    O1 8272   1.628   0.302   9.990 -0.0342  0.1244  0.2394
  557TMC3    O2 8273   1.619   0.580   9.511  0.3566 -0.1217 -0.5899
  558TMC3    C1 8274   4.076   4.093   9.892  0.3590  0.8523  0.6757
  558TMC3    C2 8275   3.976   4.080   9.977 -0.0809  0.4779 -0.9520
  558TMC3    C3 8276   3.857   4.052   9.922  0.6868  0.3395  0.5762
  558TMC3    C4 8277   4.066   4.093   9.753  0.9657  0.3731  0.7015
  558TMC3    C5 8278   3.938   4.071   9.708 -0.3965  0.0296  0.0612
  558TMC3    C6 8279   3.836   4.055   9.789 -0.5029  0.7103  0.1535
  558TMC3     C 8280   4.210   4.071   9.940 -0.3167  0.9544 -1.2116
  558TMC3     O 8281   4.303   4.081   9.861 -0.3024  0.1054  0.2605
  558TMC3     H 8282   3.981   4.101  10.083 -2.7571 -1.5412 -0.4232
  558TMC3    H1 8283   4.149   4.093   9.684  0.9561  0.6739  0.6885
  558TMC3    H2 8284   3.735   4.029   9.760  0.3155 -2.8451  0.5605
  558TMC3    C7 8285   3.927   4.039   9.565 -0.1767  0.4742  0.0015
  558TMC3    C8 8286   3.736   4.059  10.005  0.2809 -0.3428  0.4086
  558TMC3    O1 8287   4.016   4.073   9.485 -0.4525  0.1861  0.0410
  558TMC3    O2 8288   3.635   4.091   9.951 -0.1063  0.2420 -0.5482
  559MPD2     C 8289   4.077   4.174  10.457 -0.3475  0.3630  0.2093
  559MPD2    C1 8290   4.038   4.088  10.554  0.2777 -0.6931 -0.3954
  559MPD2    C2 8291   4.130   4.026  10.633 -0.1436  0.0593 -0.7958
  559MPD2    C3 8292   4.266   4.037  10.609 -0.9076 -0.0599  0.0250
  559MPD2    C4 8293   4.303   4.127  10.508  0.3177  0.5955 -0.3480
  559MPD2    C5 8294   4.209   4.187  10.430 -0.2478 -0.4416 -0.0920
  559MPD2     H 8295   4.103   3.973  10.724  1.1701  0.6949 -0.0439
  559MPD2    H1 8296   4.408   4.148  10.492  0.2476  0.6049 -0.7944
  559MPD2    H2 8297   4.009   4.228  10.392 -0.0565  2.4753  1.6787
  559MPD2    H3 8298   4.239   4.260  10.357  2.1463  0.0035  1.3081
  559MPD2     N 8299   4.351   3.981  10.704  0.3400  0.4833  0.5128
  559MPD2    H5 8300   4.318   3.916  10.775  0.2863  0.9019  0.8722
  559MPD2    N1 8301   3.905   4.080  10.595 -0.0274 -0.6899 -0.1242
  559MPD2    H7 8302   3.885   4.032  10.682  1.3921  1.9192  1.6505
  560TMC3    C1 8303   4.504   3.982  10.871  0.4689  0.0385 -0.0851
  560TMC3    C2 8304   4.450   3.857  10.910  0.3291  0.1953 -0.0322
  560TMC3    C3 8305   4.393   3.842  11.031 -0.4518  0.5747  0.0083
  560TMC3    C4 8306   4.511   4.075  10.966  0.0993  0.3619  0.6564
  560TMC3    C5 8307   4.471   4.055  11.096  0.3614 -0.2625  0.6217
  560TMC3    C6 8308   4.418   3.932  11.135  0.1368  0.0609  0.2730
  560TMC3     C 8309   4.470   4.031  10.736  0.3653  0.5164 -0.2929
  560TMC3     O 8310   4.535   4.123  10.692 -0.2135  0.0054  0.3665
  560TMC3     H 8311   4.456   3.773  10.843  2.2019 -0.7344  1.2887
  560TMC3    H1 8312   4.536   4.172  10.924  0.7012  0.8782  2.1935
  560TMC3    H2 8313   4.364   3.926  11.230  0.8859  1.2178  0.7702
  560TMC3    C7 8314   4.477   4.157  11.196  0.2871  0.8790 -0.1889
  560TMC3    C8 8315   4.272   3.773  11.014  0.0217 -0.1493 -0.4106
  560TMC3    O1 8316   4.404   4.150  11.292 -0.6048  0.0660 -0.5761
  560TMC3    O2 8317   4.233   3.742  10.901  0.0814  0.6978  0.6449
  561TMC3    C1 8318   1.685   3.221  11.121 -0.9102 -0.2324 -0.4012
  561TMC3    C2 8319   1.636   3.150  11.226 -0.4955  0.1067 -0.0190
  561TMC3    C3 8320   1.635   3.217  11.343  0.3130 -0.6928  0.2894
  561TMC3    C4 8321   1.733   3.347  11.124 -0.0399  0.0190  0.1288
  561TMC3    C5 8322   1.740   3.404  11.248 -0.3222 -0.0498 -0.1086
  561TMC3    C6 8323   1.686   3.341  11.359  0.3932  0.2306 -0.0865
  561TMC3     C 8324   1.698   3.145  10.998  0.2005  0.2774  0.4972
  561TMC3     O 8325   1.627   3.048  10.980 -0.4129 -0.1925  0.1359
  561TMC3     H 8326   1.597   3.050  11.208 -2.2966  1.2488 -2.4347
  561TMC3    H1 8327   1.777   3.399  11.039  0.5877 -1.1402 -0.2601
  561TMC3    H2 8328   1.721   3.375  11.456  0.6362  2.3328 -0.9048
  561TMC3    C7 8329   1.758   3.542  11.260 -0.2620 -0.3634 -0.2682
  561TMC3    C8 8330   1.620   3.140  11.460  0.7901 -0.1632 -0.6087
  561TMC3    O1 8331   1.707   3.594  11.361 -0.2752 -0.1392 -0.5885
  561TMC3    O2 8332   1.627   3.019  11.457 -0.3109  0.7400  0.1181
  562TMC3    C1 8333   2.967   0.194  15.894 -0.1495  0.3157 -0.3713
  562TMC3    C2 8334   2.858   0.281  15.881 -0.5371 -0.2913 -0.1232
  562TMC3    C3 8335   2.807   0.291  15.751 -0.4368  0.7206 -0.2850
  562TMC3    C4 8336   3.005   0.112  15.796 -0.7736  0.1650 -0.5558
  562TMC3    C5 8337   2.944   0.123  15.675  1.2434  0.0131  0.0751
  562TMC3    C6 8338   2.857   0.223  15.645 -0.2035  0.6606  0.2138
  562TMC3     C 8339   3.016   0.178  16.034  0.5640 -0.7104 -0.6617
  562TMC3     O 8340   3.089   0.081  16.036 -0.0029 -0.5869  0.7814
  562TMC3     H 8341   2.816   0.332  15.966 -1.6375  0.1428 -0.9238
  562TMC3    H1 8342   3.099   0.058  15.809 -0.5982  0.9416  1.4721
  562TMC3    H2 8343   2.809   0.228  15.548  3.6067  2.0670 -1.6140
  562TMC3    C7 8344   2.953   0.017  15.577 -0.1820 -0.0832 -0.0404
  562TMC3    C8 8345   2.718   0.399  15.731 -0.3493  0.5431  0.2332
  562TMC3    O1 8346   2.903   0.028  15.465 -0.5382  0.9314 -0.2569
  562TMC3    O2 8347   2.652   0.445  15.822 -0.4093  0.1555 -0.4364
  563MPD2     C 8348   0.483   1.150  15.563 -0.0455  0.4032  0.0896
  563MPD2    C1 8349   0.458   1.252  15.651  0.3849 -0.6557 -0.1806
  563MPD2    C2 8350   0.559   1.280  15.746 -0.7855 -0.4094 -0.2925
  563MPD2    C3 8351   0.688   1.225  15.743  0.4403 -0.1705  0.0204
  563MPD2    C4 8352   0.710   1.137  15.641 -0.3679  0.0879 -0.2021
  563MPD2    C5 8353   0.606   1.098  15.555  0.3149  0.0455 -0.1492
  563MPD2     H 8354   0.536   1.337  15.836  0.4470 -0.6623  0.1927
  563MPD2    H1 8355   0.804   1.086  15.625 -1.0664 -1.3607  0.3769
  563MPD2    H2 8356   0.413   1.106  15.494  0.7750 -2.1560  0.8747
  563MPD2    H3 8357   0.616   1.026  15.475 -1.6822 -0.1647 -0.2175
  563MPD2     N 8358   0.780   1.270  15.834 -0.8055  0.0820 -0.2023
  563MPD2    H5 8359   0.740   1.338  15.899 -0.6812 -0.9137  0.9221
  563MPD2    N1 8360   0.328   1.311  15.657  0.0314  0.1316 -0.6848
  563MPD2    H7 8361   0.250   1.270  15.606 -0.6606 -2.5037  2.4943
  564TMC3    C1 8362   0.187   1.402  15.817 -0.1495 -0.8608  0.2820
  564TMC3    C2 8363   0.091   1.332  15.757  1.0173  0.0459  0.1686
  564TMC3    C3 8364   0.018   1.252  15.839 -0.2010  0.0456  0.3185
  564TMC3    C4 8365   0.226   1.399  15.949 -0.5618 -0.5045  0.2491
  564TMC3    C5 8366   0.164   1.302  16.024 -0.0059 -0.0782 -0.4779
  564TMC3    C6 8367   0.060   1.232  15.968  0.3904  0.2018  0.3401
  564TMC3     C 8368   0.308   1.423  15.740  0.1177 -0.3052 -0.0281
  564TMC3     O 8369   0.387   1.499  15.792 -0.1347  0.3734  0.6468
  564TMC3     H 8370   0.071   1.351  15.652  1.5252  1.7766  0.3928
  564TMC3    H1 8371   0.307   1.459  15.987  1.6899 -2.6245 -1.1949
  564TMC3    H2 8372   0.004   1.168  16.035 -0.7666 -0.2531 -1.0589
  564TMC3    C7 8373   0.263   1.211  16.076  0.2889 -0.8250 -0.1645
  564TMC3    C8 8374   4.667   1.143  15.789  0.2888 -0.1172  0.1727
  564TMC3    O1 8375   0.359   1.269  16.132  0.1003  0.3187 -0.1605
  564TMC3    O2 8376   4.599   1.083  15.872  0.0014  0.5653 -0.2297
  565TMC3    C1 8377   1.631   3.003  10.005 -0.3893  0.4089  0.4211
  565TMC3    C2 8378   1.554   2.901   9.962  0.2032  0.1604  0.0615
  565TMC3    C3 8379   1.447   2.924   9.884 -0.1930 -0.6498 -0.6858
  565TMC3    C4 8380   1.607   3.131   9.964 -0.0876 -0.7461  0.6903
  565TMC3    C5 8381   1.491   3.151   9.894  0.4876  0.2628  1.0830
  565TMC3    C6 8382   1.398   3.053   9.870  0.1472  0.0877  0.0076
  565TMC3     C 8383   1.747   2.994  10.092 -0.2685 -0.4959  0.5332
  565TMC3     O 8384   1.841   3.070  10.092 -0.2470 -0.2593  0.8296
  565TMC3     H 8385   1.583   2.801   9.990  1.1037  0.5079  0.3694
  565TMC3    H1 8386   1.686   3.204   9.980  1.7674 -2.4039 -0.8831
  565TMC3    H2 8387   1.344   3.064   9.776  0.0237 -0.9057 -0.0333
  565TMC3    C7 8388   1.484   3.271   9.815 -0.1257 -0.2461  0.9061
  565TMC3    C8 8389   1.394   2.820   9.796  0.3547  0.2751  0.2610
  565TMC3    O1 8390   1.378   3.328   9.807  0.9287 -0.1354  0.1633
  565TMC3    O2 8391   1.463   2.770   9.706  0.1043  0.1927 -0.3965
  566MPD2     C 8392   2.491   4.666  14.072 -0.8108  0.5660 -0.5389
  566MPD2    C1 8393   2.614   4.614  14.071 -0.3993 -0.4107 -0.1493
  566MPD2    C2 8394   2.638   4.484  14.031  0.1553 -0.0779  0.0103
  566MPD2    C3 8395   2.538   4.400  13.991  0.0731  0.2088 -0.3740
  566MPD2    C4 8396   2.413   4.457  13.987 -0.7426  0.3698  0.4618
  566MPD2    C5 8397   2.391   4.578  14.038 -0.1197 -0.2803  0.4232
  566MPD2     H 8398   2.738   4.444  14.020  0.5782  0.3765  2.1488
  566MPD2    H1 8399   2.328   4.401  13.949  0.8522 -1.1914 -0.8214
  566MPD2    H2 8400   2.465   0.040  14.112  0.4287  0.5941  0.2071
  566MPD2    H3 8401   2.290   4.618  14.037  0.1004  0.2635 -0.0158
  566MPD2     N 8402   2.553   4.278  13.924 -0.1914  0.8215 -0.6202
  566MPD2    H5 8403   2.468   4.232  13.893  0.6363  0.2766 -2.1041
  566MPD2    N1 8404   2.727   4.689  14.099 -0.1052  0.2677  0.1850
  566MPD2    H7 8405   2.814   4.637  14.105  0.5446  1.5912  2.3517
  567TMC3    C1 8406   2.859   0.151  14.142 -0.6867 -0.3417  0.1696
  567TMC3    C2 8407   2.917   0.226  14.042 -0.2973  0.3124 -0.3322
  567TMC3    C3 8408   3.051   0.213  14.021  0.2877  0.1260 -0.3727
  567TMC3    C4 8409   2.931   0.071  14.228  0.0024  0.1294 -0.1352
  567TMC3    C5 8410   3.064   0.070  14.210 -0.7269 -0.1124 -0.1733
  567TMC3    C6 8411   3.127   0.135  14.108  0.2011 -0.4771 -0.6857
  567TMC3     C 8412   2.728   0.102  14.109 -0.0538  0.1854  0.5773
  567TMC3     O 8413   2.649   0.179  14.053 -0.2049 -0.1419 -0.1145
  567TMC3     H 8414   2.853   0.277  13.971  0.7918  1.8050 -0.2471
  567TMC3    H1 8415   2.872   0.005  14.291 -0.1297 -1.4002 -1.8792
  567TMC3    H2 8416   3.234   0.125  14.090  0.1835 -0.6094 -0.7148
  567TMC3    C7 8417   3.141   4.682  14.263 -0.1900  0.0575 -0.6059
  567TMC3    C8 8418   3.077   0.212  13.883 -0.5421  0.2430 -0.0541
  567TMC3    O1 8419   3.229   4.644  14.184 -0.9525 -0.1509 -0.3925
  567TMC3    O2 8420   3.094   0.103  13.834 -0.5470 -0.4575 -0.3971
  568MPD2     C 8421   4.413   4.607  16.439  0.1345  0.1887 -0.4174
  568MPD2    C1 8422   4.493   4.693  16.511  0.3113 -0.8230  0.3558
  568MPD2    C2 8423   4.529   0.088  16.446 -0.2946  0.5246 -0.8847
  568MPD2    C3 8424   4.504   0.123  16.311 -0.4788  0.1696 -0.2576
  568MPD2    C4 8425   4.419   0.031  16.249 -0.0760  0.4314 -0.7214
  568MPD2    C5 8426   4.378   4.639  16.311  0.2521 -0.6521 -0.1484
  568MPD2     H 8427   4.591   0.160  16.497 -0.4375  0.6386 -0.8716
  568MPD2    H1 8428   4.372   0.053  16.154 -0.4720 -0.1882 -0.6645
  568MPD2    H2 8429   4.401   4.507  16.479  0.7039  0.6809  0.9976
  568MPD2    H3 8430   4.299   4.587  16.257  0.8470  1.2689 -2.8376
  568MPD2     N 8431   4.549   0.243  16.254 -0.2206  0.5114 -0.3458
  568MPD2    H5 8432   4.604   0.300  16.317 -0.3991 -2.5444  2.5854
  568MPD2    N1 8433   4.540   4.661  16.639  0.9092 -0.2131  0.0405
  568MPD2    H7 8434   4.507   4.574  16.679  0.4600 -0.0408  0.0442
  569TMC3    C1 8435   4.636   0.397  16.083 -0.5502 -0.0640  0.4979
  569TMC3    C2 8436   4.663   0.486  16.181  0.0575 -0.0933 -0.3008
  569TMC3    C3 8437   0.037   0.572  16.138  0.3191  0.2233  0.0886
  569TMC3    C4 8438   4.683   0.386  15.958 -0.4609  0.2617  0.6374
  569TMC3    C5 8439   0.055   0.476  15.925 -0.0766  0.3661  0.4639
  569TMC3    C6 8440   0.102   0.567  16.017 -0.1723 -0.2416 -0.0469
  569TMC3     C 8441   4.552   0.282  16.124  0.6615  0.1050  0.7526
  569TMC3     O 8442   4.507   0.216  16.033  0.0586  0.0415  0.5781
  569TMC3     H 8443   4.604   0.502  16.270  0.1500  1.3848 -0.5004
  569TMC3    H1 8444   4.643   0.323  15.880  0.2072 -0.7746  1.1208
  569TMC3    H2 8445   0.181   0.634  15.986  0.5625 -1.7032 -1.3239
  569TMC3    C7 8446   0.042   0.520  15.783 -0.7671  0.5074  0.4090
  569TMC3    C8 8447   0.042   0.698  16.212  0.1440  1.1875  0.1609
  569TMC3    O1 8448   0.005   0.442  15.695 -0.3881  0.3774 -0.3194
  569TMC3    O2 8449   4.663   0.723  16.275 -0.0961 -0.4995 -0.2839
  570TMC3    C1 8450   4.221   3.691  16.064 -0.3365 -0.9002  0.1821
  570TMC3    C2 8451   4.316   3.730  15.972  0.0339 -0.3046 -0.1568
  570TMC3    C3 8452   4.375   3.851  15.998 -0.2669  0.1507  0.2545
  570TMC3    C4 8453   4.166   3.775  16.156 -0.5021  0.3230  0.4126
  570TMC3    C5 8454   4.218   3.902  16.161 -0.3084  0.1172 -0.5950
  570TMC3    C6 8455   4.327   3.941  16.087 -0.1373 -0.5420  0.2659
  570TMC3     C 8456   4.182   3.545  16.061  0.1706 -0.1450 -0.1122
  570TMC3     O 8457   4.193   3.488  15.956 -0.5656 -0.1852 -0.2958
  570TMC3     H 8458   4.341   3.661  15.891  0.4681  1.1323 -1.2430
  570TMC3    H1 8459   4.088   3.753  16.227 -0.1873 -0.5960  0.4758
  570TMC3    H2 8460   4.377   4.036  16.104 -0.6623  0.3286 -3.1745
  570TMC3    C7 8461   4.176   3.989  16.268 -0.2988  0.2163  0.4823
  570TMC3    C8 8462   4.480   3.903  15.914 -0.6924  0.2140  0.0153
  570TMC3    O1 8463   4.254   4.077  16.298 -0.4928 -0.4539  0.2492
  570TMC3    O2 8464   4.512   4.017  15.938  0.0671 -0.3112  0.2890
  571MPD2     C 8465   2.192   0.632  17.137 -0.2593 -0.4403  0.4708
  571MPD2    C1 8466   2.166   0.554  17.251 -0.1669  0.4558 -0.0516
  571MPD2    C2 8467   2.167   0.610  17.376  0.0275  0.5164  0.0977
  571MPD2    C3 8468   2.200   0.744  17.389  0.5907 -0.1336 -0.0425
  571MPD2    C4 8469   2.211   0.822  17.279  0.3343  0.3789  0.1023
  571MPD2    C5 8470   2.212   0.768  17.154  0.5885  1.0071 -0.1388
  571MPD2     H 8471   2.168   0.543  17.462 -2.3369  0.0927 -0.1995
  571MPD2    H1 8472   2.226   0.929  17.291 -1.9742  0.8997 -1.6682
  571MPD2    H2 8473   2.188   0.590  17.037  0.7964 -1.9390  1.0494
  571MPD2    H3 8474   2.231   0.833  17.069 -1.4220  1.4468 -0.2507
  571MPD2     N 8475   2.214   0.805  17.517  0.1449  0.0650  0.1451
  571MPD2    H5 8476   2.226   0.905  17.506  0.5009  0.0735  0.6134
  571MPD2    N1 8477   2.131   0.419  17.232  0.7635 -0.5446  0.6089
  571MPD2    H7 8478   2.140   0.374  17.142  1.6006  1.6495 -0.4223
  572TMC3    C1 8479   2.216   0.828   0.053  0.0142 -0.0978  0.0254
  572TMC3    C2 8480   2.205   0.770   0.178 -0.0218  0.3205  0.4340
  572TMC3    C3 8481   2.201   0.860   0.278 -0.0472  0.5238  0.3297
  572TMC3    C4 8482   2.219   0.965   0.032 -0.0607  0.0935  0.4607
  572TMC3    C5 8483   2.223   1.045   0.143 -0.7494 -0.2597 -0.2157
  572TMC3    C6 8484   2.202   0.993   0.266  0.7804 -0.6404 -0.6599
  572TMC3     C 8485   2.215   0.738  17.636  0.2397 -0.2015 -0.4364
  572TMC3     O 8486   2.219   0.619  17.657  0.4024 -0.0439 -0.3680
  572TMC3     H 8487   2.209   0.663   0.194 -1.6775  0.2121  0.1098
  572TMC3    H1 8488   2.246   1.007  17.633 -0.7885 -0.8359 -0.1578
  572TMC3    H2 8489   2.202   1.059   0.352 -1.1825 -3.2968  1.4018
  572TMC3    C7 8490   2.272   1.177   0.120  0.0257  0.6439 -0.0449
  572TMC3    C8 8491   2.194   0.809   0.411  0.0979  0.6121  0.2668
  572TMC3    O1 8492   2.267   1.217   0.002 -0.0665 -0.3784 -0.2950
  572TMC3    O2 8493   2.223   0.690   0.425 -0.2832 -0.6507 -0.2211
  573MPD2     C 8494   3.118   1.132   0.575  0.0041  0.1365  0.2635
  573MPD2    C1 8495   3.102   1.261   0.527  1.2309  0.3432 -0.0075
  573MPD2    C2 8496   3.050   1.287   0.405 -0.0278  0.4993 -0.2371
  573MPD2    C3 8497   3.018   1.174   0.324  0.2491  0.1827  0.4702
  573MPD2    C4 8498   3.040   1.044   0.361  0.2655  0.5043  1.1166
  573MPD2    C5 8499   3.100   1.024   0.489 -0.1356 -0.2784  0.2923
  573MPD2     H 8500   3.053   1.391   0.377  1.8493  0.8693  1.3497
  573MPD2    H1 8501   3.016   0.968   0.287 -2.4719  0.7837  1.7333
  573MPD2    H2 8502   3.145   1.110   0.678  1.8631 -1.0752 -0.4809
  573MPD2    H3 8503   3.139   0.932   0.529  0.7911  0.5611  1.3109
  573MPD2     N 8504   2.962   1.197   0.197 -0.0250 -0.3385  0.2926
  573MPD2    H5 8505   2.950   1.124   0.127  0.4928 -0.4236  0.2883
  573MPD2    N1 8506   3.153   1.361   0.619  0.3548 -0.3415  0.2496
  573MPD2    H7 8507   3.169   1.331   0.715 -2.4936 -2.7054 -0.0097
  574TMC3    C1 8508   2.893   1.327   0.016  0.6895 -0.0424 -0.2764
  574TMC3    C2 8509   2.803   1.413  17.654  0.0781  0.6725  0.4647
  574TMC3    C3 8510   2.819   1.469  17.528  0.1210  0.4049  1.1346
  574TMC3    C4 8511   2.993   1.276  17.631 -0.4497 -0.6161  0.1380
  574TMC3    C5 8512   3.000   1.324  17.504 -0.3934  0.7593  0.1759
  574TMC3    C6 8513   2.929   1.430  17.453 -0.6085  0.3211 -0.4851
  574TMC3     C 8514   2.906   1.315   0.163 -0.2506  0.3319 -0.7347
  574TMC3     O 8515   2.864   1.409   0.225  0.0167  0.3034 -0.3373
  574TMC3     H 8516   2.718   1.441   0.018 -0.8119 -0.8743 -0.0766
  574TMC3    H1 8517   3.067   1.204  17.664 -1.2820 -0.8430  1.5029
  574TMC3    H2 8518   2.941   1.474  17.355  1.5527 -2.3325 -1.3993
  574TMC3    C7 8519   3.083   1.250  17.422 -0.1693 -0.2222  0.6015
  574TMC3    C8 8520   2.690   1.495  17.465 -1.1455 -0.4981  0.2479
  574TMC3    O1 8521   3.182   1.199  17.471  0.4448 -0.0247  0.3698
  574TMC3    O2 8522   2.585   1.449  17.510  0.1181  0.7406  0.2105
  575TMC3    C1 8523   1.179   2.595   9.001 -0.0885 -0.3616  0.5128
  575TMC3    C2 8524   1.150   2.467   8.969 -0.3759  0.6269  0.0621
  575TMC3    C3 8525   1.141   2.378   9.073  0.4840  0.1982  0.2519
  575TMC3    C4 8526   1.206   2.637   9.131  0.1420  0.8466 -0.4360
  575TMC3    C5 8527   1.181   2.547   9.228 -0.2228 -0.4637 -0.0356
  575TMC3    C6 8528   1.137   2.418   9.203 -0.1593  0.0290  0.1830
  575TMC3     C 8529   1.220   2.689   8.894  0.0583  0.4004  0.1841
  575TMC3     O 8530   1.236   2.806   8.928 -0.7944  0.2970 -0.4090
  575TMC3     H 8531   1.121   2.438   8.869  0.5426 -1.9494  0.5293
  575TMC3    H1 8532   1.240   2.738   9.152 -1.7692  1.3562  0.2081
  575TMC3    H2 8533   1.108   2.349   9.282  1.0766 -0.7575 -0.0534
  575TMC3    C7 8534   1.207   2.604   9.357  0.6074  0.0456 -0.0615
  575TMC3    C8 8535   1.085   2.246   9.055 -0.6065  0.2108 -0.2272
  575TMC3    O1 8536   1.297   2.687   9.369 -0.0133 -0.3492  0.0798
  575TMC3    O2 8537   1.010   2.205   9.138 -0.2987 -0.6117 -0.2732
  576MPD2     C 8538   0.821   3.545  12.611 -0.2920  0.4959  0.4907
  576MPD2    C1 8539   0.854   3.661  12.542  0.9673  0.0519 -0.3156
  576MPD2    C2 8540   0.774   3.772  12.549  0.0567  0.5483 -0.0330
  576MPD2    C3 8541   0.661   3.761  12.624  0.2679 -0.3788  0.2898
  576MPD2    C4 8542   0.630   3.646  12.697 -0.0017  0.2104  1.1411
  576MPD2    C5 8543   0.715   3.542  12.686  0.5289 -0.5945 -0.5649
  576MPD2     H 8544   0.795   3.856  12.484  0.0597  1.2256  0.8528
  576MPD2    H1 8545   0.553   3.628  12.771 -1.1282  0.5830  0.0573
  576MPD2    H2 8546   0.872   3.449  12.604 -1.1294  0.0996 -0.0794
  576MPD2    H3 8547   0.706   3.445  12.733  0.9047  0.1429  1.0259
  576MPD2     N 8548   0.589   3.883  12.647 -0.2932 -0.5376 -0.2655
  576MPD2    H5 8549   0.631   3.971  12.622 -2.0586  0.4348  0.1701
  576MPD2    N1 8550   0.950   3.667  12.444 -0.7396 -0.4586  0.1441
  576MPD2    H7 8551   0.958   3.748  12.384  2.3903 -1.0145 -0.2181
  577TMC3    C1 8552   1.106   3.557  12.279 -0.8997  0.5104  0.1735
  577TMC3    C2 8553   1.205   3.463  12.252  0.2054  0.1772  0.2454
  577TMC3    C3 8554   1.254   3.457  12.127 -1.0266 -0.0844 -0.3620
  577TMC3    C4 8555   1.052   3.639  12.180  0.1954  0.0636  0.4410
  577TMC3    C5 8556   1.102   3.624  12.048  0.5973  0.3912  0.1816
  577TMC3    C6 8557   1.200   3.534  12.026 -0.4486  0.0972  0.7137
  577TMC3     C 8558   1.042   3.565  12.419  0.6048  0.9745  0.6227
  577TMC3     O 8559   1.071   3.475  12.499  0.5460  0.5431  0.3146
  577TMC3     H 8560   1.260   3.417  12.333  0.0493 -1.8189 -0.7946
  577TMC3    H1 8561   0.964   3.701  12.194 -0.5343 -0.6681 -0.8225
  577TMC3    H2 8562   1.231   3.529  11.922  0.4699 -0.3782  1.0045
  577TMC3    C7 8563   1.021   3.611  11.933  0.1858 -0.5829 -0.0087
  577TMC3    C8 8564   1.334   3.337  12.097 -0.4564 -0.0170 -0.0250
  577TMC3    O1 8565   0.996   3.501  11.890  0.2378 -0.1139  0.6347
  577TMC3    O2 8566   1.357   3.248  12.182 -0.3004 -0.0614 -0.5189
  578MPD2     C 8567   3.815   3.767   1.732 -0.7752 -0.1079 -0.0581
  578MPD2    C1 8568   3.871   3.779   1.606 -0.5814  0.0455 -0.5212
  578MPD2    C2 8569   3.891   3.656   1.535 -0.0113  0.2805 -0.5912
  578MPD2    C3 8570   3.876   3.529   1.585 -0.1686  0.6647  1.2907
  578MPD2    C4 8571   3.803   3.528   1.702 -0.1112 -0.4899 -0.3821
  578MPD2    C5 8572   3.775   3.642   1.775 -0.0592  0.4587 -0.0305
  578MPD2     H 8573   3.939   3.659   1.438  0.3814 -0.7715 -0.4299
  578MPD2    H1 8574   3.784   3.437   1.758 -1.8881  0.4125  0.5017
  578MPD2    H2 8575   3.787   3.856   1.789  2.9283  0.3346  1.0954
  578MPD2    H3 8576   3.713   3.631   1.864 -1.3338 -2.5488 -1.2760
  578MPD2     N 8577   3.915   3.417   1.513  0.1183 -0.2862 -0.4810
  578MPD2    H5 8578   3.953   3.436   1.421 -0.9529  1.8205 -0.4875
  578MPD2    N1 8579   3.912   3.906   1.564  0.0637 -0.3875  0.0584
  578MPD2    H7 8580   3.895   3.982   1.629 -0.7077  0.5824 -1.2867
  579TMC3    C1 8581   3.985   3.197   1.484 -0.4815 -0.6927  0.1142
  579TMC3    C2 8582   4.079   3.121   1.546  0.1046  0.7963 -0.2890
  579TMC3    C3 8583   4.188   3.087   1.475  0.0857 -0.5579 -1.1778
  579TMC3    C4 8584   3.987   3.232   1.356 -0.0051  0.3979  0.2260
  579TMC3    C5 8585   4.087   3.187   1.279 -0.6172  0.3712 -0.8301
  579TMC3    C6 8586   4.194   3.129   1.347  0.5936 -0.0806  0.5498
  579TMC3     C 8587   3.911   3.292   1.567  0.0087  0.0347 -0.0170
  579TMC3     O 8588   3.872   3.248   1.675  0.3754 -0.2725 -0.4588
  579TMC3     H 8589   4.070   3.109   1.653  1.2677 -1.8119 -0.4942
  579TMC3    H1 8590   3.908   3.292   1.312 -1.6301 -0.8907  1.3467
  579TMC3    H2 8591   4.282   3.110   1.286  0.2544 -1.9034  0.6510
  579TMC3    C7 8592   4.098   3.227   1.143 -0.4481  0.3792 -0.6602
  579TMC3    C8 8593   4.313   3.117   1.543  0.6879 -0.4046  0.0295
  579TMC3    O1 8594   4.209   3.253   1.095 -0.3286 -0.2372  0.3482
  579TMC3    O2 8595   4.323   3.076   1.657 -0.1036 -0.3639 -0.4793
  580TMC3    C1 8596   3.716   3.226  11.959 -0.1886 -0.5299 -0.1081
  580TMC3    C2 8597   3.799   3.330  12.000  0.2409 -0.7232  0.0233
  580TMC3    C3 8598   3.934   3.318  11.986 -0.0369  0.6389 -0.1228
  580TMC3    C4 8599   3.774   3.104  11.915  0.4536 -0.5511 -0.5312
  580TMC3    C5 8600   3.910   3.093  11.931 -0.2065 -0.1938 -0.3168
  580TMC3    C6 8601   3.994   3.191  11.971  0.1513 -1.0748 -0.7640
  580TMC3     C 8602   3.611   3.262  11.873  0.6338  0.2587  0.3833
  580TMC3     O 8603   3.638   3.241  11.755 -0.4840  0.7558  0.7659
  580TMC3     H 8604   3.758   3.430  12.006 -0.2100 -0.9469  0.6695
  580TMC3    H1 8605   3.706   3.022  11.892 -0.4296 -0.0067  0.1498
  580TMC3    H2 8606   4.101   3.184  11.958  0.7592  1.6511  2.8388
  580TMC3    C7 8607   3.972   2.965  11.928  0.5200 -0.6582 -0.2833
  580TMC3    C8 8608   4.006   3.437  11.945 -0.4607  0.1651 -0.2626
  580TMC3    O1 8609   4.074   2.956  11.993  0.7870  0.2534  0.0621
  580TMC3    O2 8610   3.982   3.542  12.006 -0.0558  0.5660  0.0570
  581MPD2     C 8611   1.519   2.640  14.505  0.2470  0.1083  0.0110
  581MPD2    C1 8612   1.486   2.712  14.621  0.9609 -0.9581 -0.6321
  581MPD2    C2 8613   1.366   2.779  14.636 -0.2255 -0.1946 -0.8803
  581MPD2    C3 8614   1.283   2.789  14.522  0.6546 -0.2282 -0.3614
  581MPD2    C4 8615   1.310   2.712  14.416 -0.7175 -0.3981 -0.7789
  581MPD2    C5 8616   1.420   2.631  14.412  0.1487  0.1962  0.0054
  581MPD2     H 8617   1.338   2.838  14.722  1.4554  0.8125 -1.0090
  581MPD2    H1 8618   1.248   2.712  14.327  0.9548 -0.9324 -1.9440
  581MPD2    H2 8619   1.616   2.593  14.495 -0.0715 -1.0906  2.3678
  581MPD2    H3 8620   1.431   2.582  14.316 -0.4982 -0.2488  0.1623
  581MPD2     N 8621   1.170   2.877  14.533  0.1802 -0.4026 -0.2239
  581MPD2    H5 8622   1.153   2.930  14.618 -2.0771 -0.8095 -0.4113
  581MPD2    N1 8623   1.581   2.697  14.721  0.1102  0.3400  0.1208
  581MPD2    H7 8624   1.663   2.643  14.696  0.1127 -0.3070  1.4909
  582TMC3    C1 8625   1.654   2.672  14.938  0.2857 -0.6615 -0.0944
  582TMC3    C2 8626   1.683   2.733  15.059  0.2010 -0.4522 -0.2889
  582TMC3    C3 8627   1.721   2.651  15.164 -0.1745 -0.2919  0.1010
  582TMC3    C4 8628   1.635   2.534  14.932  0.1369 -0.0579 -1.0828
  582TMC3    C5 8629   1.642   2.467  15.050  0.4736 -0.0855  0.0388
  582TMC3    C6 8630   1.700   2.519  15.157 -0.5026 -0.1105 -0.7074
  582TMC3     C 8631   1.564   2.735  14.848 -0.0987 -0.1491  0.6698
  582TMC3     O 8632   1.467   2.790  14.900 -0.1893  0.3055  0.4195
  582TMC3     H 8633   1.684   2.842  15.066 -2.2593 -0.2786 -2.4478
  582TMC3    H1 8634   1.585   2.480  14.852 -0.8795 -1.6618  0.6352
  582TMC3    H2 8635   1.706   2.451  15.241  1.0079  0.9729  0.0755
  582TMC3    C7 8636   1.519   2.401  15.079  0.0046 -0.0068 -0.5323
  582TMC3    C8 8637   1.749   2.712  15.290  0.4483 -0.6266  0.0285
  582TMC3    O1 8638   1.514   2.281  15.093 -0.5790 -0.4693 -0.1862
  582TMC3    O2 8639   1.695   2.817  15.318  0.0497 -0.2083  0.4452
  583MPD2     C 8640   1.425   4.215  16.466  0.0222 -0.3407 -0.5130
  583MPD2    C1 8641   1.363   4.326  16.403  0.0239 -0.7286 -0.3966
  583MPD2    C2 8642   1.286   4.416  16.488  0.2625  0.1806  0.4646
  583MPD2    C3 8643   1.251   4.390  16.612  0.4319  0.0556 -0.1273
  583MPD2    C4 8644   1.309   4.279  16.668  0.0174 -0.4399 -0.2416
  583MPD2    C5 8645   1.394   4.195  16.597  0.0765  0.0880  0.3067
  583MPD2     H 8646   1.258   4.510  16.441  0.6752 -0.8795 -1.9311
  583MPD2    H1 8647   1.282   4.244  16.767 -0.1516  1.9753  0.5560
  583MPD2    H2 8648   1.510   4.163  16.425 -0.1334 -0.0114 -1.2609
  583MPD2    H3 8649   1.440   4.110  16.645  1.0943  0.0178 -0.7811
  583MPD2     N 8650   1.180   4.487  16.681  0.1681  0.0025  0.1629
  583MPD2    H5 8651   1.139   4.564  16.629  1.4947  1.4799  1.2983
  583MPD2    N1 8652   1.400   4.374  16.274  0.0086 -0.5888  0.9564
  583MPD2    H7 8653   1.348   4.456  16.241  0.6676 -0.8255 -0.6718
  584TMC3    C1 8654   1.173   4.634  16.865  0.0653 -0.3728  0.4919
  584TMC3    C2 8655   1.227   0.000  16.778  0.1728 -0.3282 -0.8417
  584TMC3    C3 8656   1.290   0.109  16.834 -0.4061 -0.2964 -0.6247
  584TMC3    C4 8657   1.172   4.658  17.000 -0.0578  1.0823 -0.0686
  584TMC3    C5 8658   1.229   0.052  17.044 -0.2037  0.0232 -0.2328
  584TMC3    C6 8659   1.298   0.137  16.968  0.4755  0.0861 -0.0233
  584TMC3     C 8660   1.172   4.499  16.819  0.3741 -0.3848  0.0992
  584TMC3     O 8661   1.152   4.400  16.891 -0.0403 -0.4096  0.1207
  584TMC3     H 8662   1.219   4.718  16.670 -2.1382 -0.1373 -0.6851
  584TMC3    H1 8663   1.126   4.588  17.069 -0.0295  2.3255  1.2019
  584TMC3    H2 8664   1.368   0.212  17.002  0.2095  0.7276 -0.9104
  584TMC3    C7 8665   1.222   0.078  17.188  0.1503  0.4831  0.3684
  584TMC3    C8 8666   1.352   0.207  16.743 -0.7166 -0.0150  0.0493
  584TMC3    O1 8667   1.213   4.711  17.261 -0.5460 -0.4359  0.1487
  584TMC3    O2 8668   1.372   0.175  16.629  0.3277  0.0989  0.5482
  585MPD2     C 8669   0.574   3.482   0.591  0.1105 -0.2174 -0.4707
  585MPD2    C1 8670   0.633   3.575   0.502 -0.1468  0.1139  1.8894
  585MPD2    C2 8671   0.685   3.527   0.387  0.3352 -0.6128  0.1662
  585MPD2    C3 8672   0.685   3.392   0.360  0.7576 -0.0331 -0.2134
  585MPD2    C4 8673   0.628   3.304   0.442 -0.3284 -0.2552  1.3479
  585MPD2    C5 8674   0.570   3.348   0.554 -0.7193  0.1107  0.9521
  585MPD2     H 8675   0.706   3.598   0.308 -0.3355  0.1419  0.6718
  585MPD2    H1 8676   0.621   3.201   0.410  0.4855  0.7166 -2.0335
  585MPD2    H2 8677   0.511   3.512   0.674  1.5399  2.4834 -0.3488
  585MPD2    H3 8678   0.514   3.272   0.607 -0.9538 -0.9801 -0.8621
  585MPD2     N 8679   0.712   3.348   0.224  0.5293  0.2948  0.0459
  585MPD2    H5 8680   0.699   3.250   0.202 -2.1991  1.0247 -1.5881
  585MPD2    N1 8681   0.623   3.716   0.538  0.6807 -0.1898  0.3735
  585MPD2    H7 8682   0.578   3.749   0.623  0.0873  2.8653 -1.1282
  586TMC3    C1 8683   0.729   3.382  17.693  0.5370 -1.2060  0.6533
  586TMC3    C2 8684   0.809   3.425  17.593 -0.2144  0.0587  0.4240
  586TMC3    C3 8685   0.781   3.383  17.467 -0.2680 -0.4901  0.1821
  586TMC3    C4 8686   0.612   3.310  17.672 -0.3143 -0.4087 -0.0493
  586TMC3    C5 8687   0.576   3.283  17.540  0.5626  0.0006  0.1423
  586TMC3    C6 8688   0.665   3.318  17.440 -0.3823 -0.5089  0.2279
  586TMC3     C 8689   0.775   3.421   0.128  0.0107 -0.3664  0.4611
  586TMC3     O 8690   0.852   3.517   0.134  0.2108 -0.0634 -0.4230
  586TMC3     H 8691   0.899   3.482  17.614  0.3911 -0.4718 -0.7459
  586TMC3    H1 8692   0.545   3.290   0.058 -0.4586  1.0316  0.1813
  586TMC3    H2 8693   0.642   3.303  17.336 -1.0790 -2.6167  0.6819
  586TMC3    C7 8694   0.485   3.187  17.515  0.4885 -0.1566 -0.6540
  586TMC3    C8 8695   0.890   3.364  17.379 -0.0644 -0.2545 -0.2587
  586TMC3    O1 8696   0.516   3.122  17.419 -0.1574  0.1786 -0.3368
  586TMC3    O2 8697   0.966   3.456  17.357  0.0361 -0.0553  0.2487
  587TMC3    C1 8698   3.510   2.223  16.497 -0.0341 -0.1258 -0.5694
  587TMC3    C2 8699   3.453   2.294  16.390 -0.2631 -0.0914  0.6879
  587TMC3    C3 8700   3.536   2.376  16.319  0.2151  0.5542 -0.0005
  587TMC3    C4 8701   3.645   2.222  16.522  0.2393 -0.1115  0.0502
  587TMC3    C5 8702   3.714   2.311  16.447  0.0019 -0.1803  0.5875
  587TMC3    C6 8703   3.666   2.394  16.350 -0.5807 -0.5806 -0.0221
  587TMC3     C 8704   3.434   2.114  16.553  0.3171  0.1651  0.0689
  587TMC3     O 8705   3.497   2.027  16.614  0.1675 -0.1655  0.1862
  587TMC3     H 8706   3.350   2.298  16.356 -0.3856  1.7739  1.2802
  587TMC3    H1 8707   3.690   2.166  16.602  0.7693 -1.0686 -0.9177
  587TMC3    H2 8708   3.726   2.474  16.307  2.8545 -3.5842 -0.8390
  587TMC3    C7 8709   3.852   2.337  16.492  0.1475 -0.5289  0.7459
  587TMC3    C8 8710   3.485   2.479  16.227 -0.4887  0.1150 -0.3502
  587TMC3    O1 8711   3.886   2.284  16.594  1.3151 -0.3914  0.2702
  587TMC3    O2 8712   3.570   2.529  16.155 -0.0100  0.5384  0.1231
  588TMC3    C1 8713   0.789   0.096   9.508  0.1176 -0.6237 -0.0150
  588TMC3    C2 8714   0.750   4.717   9.429 -0.4736 -0.1212  0.1553
  588TMC3    C3 8715   0.812   4.599   9.450  0.6349 -0.6186 -0.4409
  588TMC3    C4 8716   0.901   0.089   9.591  0.2679 -0.3913 -0.0301
  588TMC3    C5 8717   0.957   4.691   9.601  0.0682  0.0303  0.1029
  588TMC3    C6 8718   0.913   4.580   9.538 -0.2278 -0.3388 -0.3222
  588TMC3     C 8719   0.709   0.216   9.509  0.4441  0.0017  0.7916
  588TMC3     O 8720   0.605   0.221   9.443  0.4335 -0.0219  0.4277
  588TMC3     H 8721   0.663   0.011   9.366 -0.3104  0.2490  0.0352
  588TMC3    H1 8722   0.952   0.168   9.645 -0.6058  0.7051 -0.8072
  588TMC3    H2 8723   0.968   4.487   9.547 -0.3383 -0.5948 -2.2451
  588TMC3    C7 8724   1.045   4.675   9.714 -0.2588  0.5388  0.5513
  588TMC3    C8 8725   0.759   4.478   9.378  0.3930 -0.0446 -0.0309
  588TMC3    O1 8726   1.138   4.598   9.706 -0.0585 -0.0272 -0.2367
  588TMC3    O2 8727   0.645   4.492   9.344 -0.5099  0.5360 -0.0800
  589TMC3    C1 8728   3.947   2.168   1.220 -0.5939  0.2124 -0.0059
  589TMC3    C2 8729   4.048   2.145   1.310 -0.6300  0.4352 -0.5432
  589TMC3    C3 8730   4.149   2.055   1.287  0.0104  0.1135 -0.4338
  589TMC3    C4 8731   3.951   2.105   1.104  0.0802  0.8916  0.0834
  589TMC3    C5 8732   4.067   2.040   1.069 -0.5161 -0.1997 -0.3166
  589TMC3    C6 8733   4.162   2.005   1.158  0.1887  0.7497  0.0294
  589TMC3     C 8734   3.852   2.277   1.236  0.1311 -0.0794  0.0536
  589TMC3     O 8735   3.785   2.315   1.136  0.2416 -0.4617  0.2232
  589TMC3     H 8736   4.054   2.187   1.410 -3.5895 -1.1278  0.3131
  589TMC3    H1 8737   3.876   2.136   1.032  1.4121  0.3040 -1.5753
  589TMC3    H2 8738   4.245   1.939   1.131 -0.2881 -0.7818  2.2322
  589TMC3    C7 8739   4.085   1.982   0.935  0.0644  0.6017  0.2655
  589TMC3    C8 8740   4.263   2.034   1.383 -0.5814  0.0506 -0.6774
  589TMC3    O1 8741   4.160   1.888   0.918  0.0142  0.3803 -0.9419
  589TMC3    O2 8742   4.243   2.066   1.501  0.0555 -0.0628 -0.3908
  590MPD2     C 8743   4.009   0.373  16.629 -1.1491 -0.2859  0.2730
  590MPD2    C1 8744   3.958   0.368  16.495 -0.9339  0.3880 -0.1278
  590MPD2    C2 8745   4.038   0.428  16.396  0.0984 -0.0630  0.2333
  590MPD2    C3 8746   4.153   0.492  16.423 -0.7671 -0.4303 -0.0230
  590MPD2    C4 8747   4.200   0.493  16.554  0.6661 -0.3618 -0.3640
  590MPD2    C5 8748   4.129   0.427  16.652 -0.3579 -0.4926 -0.1035
  590MPD2     H 8749   3.998   0.424  16.295  1.2239 -1.6052 -0.1463
  590MPD2    H1 8750   4.292   0.543  16.583  0.3326 -0.0602  0.1889
  590MPD2    H2 8751   3.943   0.343  16.710 -0.8284 -1.2426  0.1763
  590MPD2    H3 8752   4.169   0.435  16.753 -0.6998  0.2431 -0.0208
  590MPD2     N 8753   4.227   0.555  16.315 -0.1090  0.2291 -0.1327
  590MPD2    H5 8754   4.203   0.548  16.217 -2.1158  1.5374  0.2448
  590MPD2    N1 8755   3.824   0.325  16.483 -0.0655 -0.0671  0.1635
  590MPD2    H7 8756   3.777   0.315  16.573 -0.9001 -1.1957 -0.3827
  591TMC3    C1 8757   4.353   0.728  16.209 -0.7051  0.2908 -0.3461
  591TMC3    C2 8758   4.351   0.660  16.092 -0.7557 -0.6560  0.7372
  591TMC3    C3 8759   4.364   0.734  15.976  0.5807 -0.2286 -0.7473
  591TMC3    C4 8760   4.360   0.864  16.214  0.5529 -0.5761  0.5076
  591TMC3    C5 8761   4.373   0.938  16.095 -0.1641 -0.1777 -0.7320
  591TMC3    C6 8762   4.377   0.877  15.974 -0.4604 -0.9944 -0.0822
  591TMC3     C 8763   4.318   0.659  16.336  0.0416  0.5275  0.4456
  591TMC3     O 8764   4.327   0.734  16.436 -0.7007 -0.0669  0.3604
  591TMC3     H 8765   4.347   0.551  16.087  1.7799 -0.6265 -1.8580
  591TMC3    H1 8766   4.360   0.918  16.308  0.5176  1.5847 -0.7248
  591TMC3    H2 8767   4.390   0.934  15.884  1.3341 -0.1593  0.7077
  591TMC3    C7 8768   4.318   1.067  16.104  0.1301  0.0499  0.3351
  591TMC3    C8 8769   4.392   0.659  15.858  0.4487  0.3995  0.6431
  591TMC3    O1 8770   4.246   1.088  16.200 -0.0028 -0.0571  0.2116
  591TMC3    O2 8771   4.431   0.544  15.867 -0.0320  0.7651  0.0674
  592MPD2     C 8772   4.386   2.946  10.830  0.4732 -0.0799  0.6304
  592MPD2    C1 8773   4.439   2.966  10.955  0.5416  0.8392  0.3814
  592MPD2    C2 8774   4.401   2.878  11.052  0.5921  0.8942 -0.4467
  592MPD2    C3 8775   4.306   2.781  11.039  0.1898 -0.0688  0.1432
  592MPD2    C4 8776   4.249   2.767  10.913  0.7362  0.0479  0.6736
  592MPD2    C5 8777   4.290   2.851  10.815 -0.7388  0.0724  0.0546
  592MPD2     H 8778   4.447   2.881  11.150 -1.4352 -1.5759  0.6062
  592MPD2    H1 8779   4.186   2.684  10.885  1.8864 -0.2366 -1.0448
  592MPD2    H2 8780   4.416   3.011  10.748  0.9674 -0.0030  0.8697
  592MPD2    H3 8781   4.249   2.830  10.717 -1.3823 -1.2411  0.6031
  592MPD2     N 8782   4.277   2.682  11.135  0.2691  0.1383 -0.0777
  592MPD2    H5 8783   4.330   2.689  11.221  1.6563 -0.6534 -0.8726
  592MPD2    N1 8784   4.538   3.065  10.978 -0.2858 -0.2506 -0.1263
  592MPD2    H7 8785   4.569   3.122  10.900 -1.6643  0.0674 -0.4568
  593TMC3    C1 8786   4.701   3.174  11.094 -0.1095  0.8574  0.4791
  593TMC3    C2 8787   4.721   3.254  11.203  0.2131  0.1639 -0.1589
  593TMC3    C3 8788   0.106   3.334  11.198  0.5054  0.8519 -0.0415
  593TMC3    C4 8789   0.063   3.177  10.986 -0.0425  0.1938  0.7290
  593TMC3    C5 8790   0.172   3.252  10.995 -0.2289 -0.8981  0.7306
  593TMC3    C6 8791   0.196   3.335  11.101 -0.4796 -0.7222  0.3322
  593TMC3     C 8792   4.590   3.090  11.103 -0.3733  0.1889  0.4929
  593TMC3     O 8793   4.545   3.070  11.216  0.1756 -1.1599  0.0166
  593TMC3     H 8794   4.654   3.259  11.289  0.7115 -1.0981  0.3042
  593TMC3    H1 8795   0.042   3.115  10.900 -2.4440  1.3307  0.5026
  593TMC3    H2 8796   0.289   3.390  11.110  1.5171 -3.4108 -3.7546
  593TMC3    C7 8797   0.271   3.265  10.883 -0.0480  0.2584  0.0338
  593TMC3    C8 8798   0.166   3.369  11.327 -0.1754 -0.3074  0.0711
  593TMC3    O1 8799   0.382   3.296  10.921  0.1140 -0.0869  0.3598
  593TMC3    O2 8800   0.102   3.424  11.417  0.3015 -0.5030 -0.0103
  594MPD2     C 8801   2.857   1.464  13.552 -0.3061 -0.1091  0.1793
  594MPD2    C1 8802   2.885   1.438  13.683  0.0978 -0.4972 -0.2324
  594MPD2    C2 8803   2.994   1.500  13.753 -0.1034  0.1493 -0.6943
  594MPD2    C3 8804   3.067   1.590  13.685  0.2488 -0.1781  0.8433
  594MPD2    C4 8805   3.042   1.613  13.547  0.8430 -0.3174 -0.2024
  594MPD2    C5 8806   2.938   1.546  13.481 -0.1946  0.3135  0.0462
  594MPD2     H 8807   3.023   1.485  13.856 -0.2457  0.5452 -0.5947
  594MPD2    H1 8808   3.093   1.699  13.505 -0.3321  1.3870  1.8755
  594MPD2    H2 8809   2.796   1.398  13.491 -0.7415  1.3039 -0.9080
  594MPD2    H3 8810   2.933   1.551  13.373  0.7887  1.6947  0.0637
  594MPD2     N 8811   3.176   1.657  13.751  0.5887  0.8081 -0.8140
  594MPD2    H5 8812   3.167   1.656  13.852  3.0169 -0.0589 -0.6126
  594MPD2    N1 8813   2.797   1.343  13.743  0.3083 -0.9857 -0.9018
  594MPD2    H7 8814   2.718   1.320  13.685  0.2650 -0.2425 -1.1282
  595TMC3    C1 8815   3.571   1.868  13.851  0.5574  0.0956  0.1262
  595TMC3    C2 8816   3.491   1.783  13.774 -0.1637 -0.3356  0.5353
  595TMC3    C3 8817   3.354   1.795  13.784 -0.2320 -0.1035 -0.4881
  595TMC3    C4 8818   3.512   1.961  13.939  0.8337  0.1155  0.1397
  595TMC3    C5 8819   3.375   1.948  13.961 -0.6196 -0.4550 -0.4098
  595TMC3    C6 8820   3.300   1.866  13.881  0.0841 -0.1156 -0.4596
  595TMC3     C 8821   3.696   1.817  13.902  0.4055 -0.1419 -0.1423
  595TMC3     O 8822   3.767   1.890  13.969 -0.1626 -0.2368 -0.3516
  595TMC3     H 8823   3.538   1.738  13.687  2.0311 -1.0201  2.0656
  595TMC3    H1 8824   3.573   2.024  14.003 -0.7139  1.2867  0.4605
  595TMC3    H2 8825   3.193   1.883  13.888  0.0599  0.0339 -1.1800
  595TMC3    C7 8826   3.331   1.959  14.097 -0.7675 -0.3056  0.6595
  595TMC3    C8 8827   3.271   1.727  13.688  0.2234  0.3594 -0.3217
  595TMC3    O1 8828   3.214   1.921  14.114 -0.2305  0.1179  0.0175
  595TMC3    O2 8829   3.317   1.714  13.573  0.1796  0.0438 -0.3131
  596MPD2     C 8830   2.304   4.156  16.422 -0.4921 -0.3324  0.1660
  596MPD2    C1 8831   2.250   4.254  16.347 -0.4779  0.3643 -0.7787
  596MPD2    C2 8832   2.275   4.255  16.208 -0.3512  0.5084 -0.6896
  596MPD2    C3 8833   2.338   4.148  16.141  0.2962  0.7504  0.1185
  596MPD2    C4 8834   2.401   4.050  16.224 -0.3617  0.1548  0.0640
  596MPD2    C5 8835   2.374   4.055  16.362 -0.4091 -0.6963 -0.4288
  596MPD2     H 8836   2.227   4.339  16.160 -0.0312  0.3750 -1.2444
  596MPD2    H1 8837   2.472   3.979  16.181 -0.0934  1.1318 -1.1054
  596MPD2    H2 8838   2.284   4.149  16.528  0.1014  0.7874  0.3519
  596MPD2    H3 8839   2.413   3.980  16.430  1.5418  0.0935 -0.6848
  596MPD2     N 8840   2.350   4.153  16.000 -0.1837 -0.0767 -0.5985
  596MPD2    H5 8841   2.378   4.064  15.960  2.3049  0.6552 -0.4420
  596MPD2    N1 8842   2.180   4.364  16.399  0.2708  0.3724  0.0176
  596MPD2    H7 8843   2.146   4.435  16.335  0.7457  1.6450  1.1621
  597TMC3    C1 8844   2.087   4.511  16.563  0.3549  0.4250  0.4427
  597TMC3    C2 8845   2.104   4.598  16.464 -0.5323  0.1619 -0.1053
  597TMC3    C3 8846   2.053   0.000  16.479  0.4173 -0.5142 -0.1081
  597TMC3    C4 8847   2.027   4.540  16.685 -0.7640 -0.4816 -0.3712
  597TMC3    C5 8848   1.988   4.668  16.703  0.5178  0.0179  0.2861
  597TMC3    C6 8849   1.994   0.039  16.602 -0.0524  0.0386  0.2292
  597TMC3     C 8850   2.145   4.385  16.534  0.4564  0.0415  0.5438
  597TMC3     O 8851   2.168   4.318  16.636 -0.1913  0.0664  0.1053
  597TMC3     H 8852   2.153   4.585  16.369 -2.4201  0.4888 -1.1217
  597TMC3    H1 8853   2.011   4.472  16.768 -1.3591 -1.0199 -0.9273
  597TMC3    H2 8854   1.954   0.138  16.619  0.6643  0.4296 -0.3364
  597TMC3    C7 8855   1.912   4.690  16.828  0.5651 -0.9010  0.5997
  597TMC3    C8 8856   2.118   0.103  16.400  0.5561 -0.2570 -0.1770
  597TMC3    O1 8857   1.896   4.598  16.909  0.2952 -0.7799 -0.1391
  597TMC3    O2 8858   2.228   0.075  16.360  0.2116 -0.6240 -0.6639
  598TMC3    C1 8859   0.678   1.417  15.171  0.3794 -0.5168 -0.0689
  598TMC3    C2 8860   0.578   1.325  15.205  0.3814 -0.2146  0.7052
  598TMC3    C3 8861   0.517   1.259  15.107 -0.0094 -0.3736  0.1527
  598TMC3    C4 8862   0.711   1.443  15.039 -0.2432  0.6597 -0.0970
  598TMC3    C5 8863   0.638   1.374  14.942  0.1927  0.7375 -0.1220
  598TMC3    C6 8864   0.548   1.276  14.974  0.1358 -0.3718 -0.0436
  598TMC3     C 8865   0.756   1.487  15.270 -0.6742  0.5351  0.2795
  598TMC3     O 8866   0.849   1.562  15.247 -0.6273 -0.1097  0.0253
  598TMC3     H 8867   0.543   1.304  15.305  0.8799  1.2045  1.1808
  598TMC3    H1 8868   0.796   1.501  15.007 -0.9355  1.1828 -0.9726
  598TMC3    H2 8869   0.483   1.231  14.900 -0.3101 -0.4182  0.3847
  598TMC3    C7 8870   0.655   1.403  14.797 -0.0593 -0.4152 -0.0968
  598TMC3    C8 8871   0.399   1.184  15.137  0.3413 -0.4887 -0.1039
  598TMC3    O1 8872   0.600   1.321  14.720  0.3203  0.1214 -0.4590
  598TMC3    O2 8873   0.321   1.221  15.226 -0.3968  0.4471  0.6811
  599MPD2     C 8874   0.653   3.823  15.836 -0.2263 -0.3485 -0.5492
  599MPD2    C1 8875   0.603   3.697  15.825  0.4537  0.3460 -0.8874
  599MPD2    C2 8876   0.465   3.670  15.848  0.9429 -0.9995  0.3277
  599MPD2    C3 8877   0.381   3.773  15.883 -0.3332 -0.3658  0.2135
  599MPD2    C4 8878   0.434   3.900  15.870 -0.6200 -0.8097  0.2198
  599MPD2    C5 8879   0.564   3.927  15.854  0.6540  0.4490  0.5985
  599MPD2     H 8880   0.426   3.570  15.837 -1.3118 -0.0803 -0.0147
  599MPD2    H1 8881   0.370   3.986  15.887  1.5938  1.2273 -1.8285
  599MPD2    H2 8882   0.757   3.857  15.840 -0.1743 -0.6650  0.8120
  599MPD2    H3 8883   0.594   4.031  15.854  3.9137 -0.5251 -0.4548
  599MPD2     N 8884   0.248   3.752  15.944  0.2441  0.1573  0.1140
  599MPD2    H5 8885   0.191   3.836  15.953  0.3895  0.1825  0.8035
  599MPD2    N1 8886   0.702   3.598  15.796  0.7328  0.2138 -0.2116
  599MPD2    H7 8887   0.798   3.633  15.789  0.3482  0.9871 -1.6696
  600TMC3    C1 8888   0.059   3.650  16.033  0.3442 -0.4729 -0.7594
  600TMC3    C2 8889   4.694   3.550  16.010 -0.1761 -0.2263 -0.0976
  600TMC3    C3 8890   4.602   3.526  16.101 -0.1383 -0.0606 -0.0198
  600TMC3    C4 8891   0.051   3.730  16.144 -0.5613  0.4499 -0.6272
  600TMC3    C5 8892   4.677   3.697  16.239 -0.1719  0.1916 -0.0093
  600TMC3    C6 8893   4.585   3.604  16.217  0.1384 -0.8408 -0.4030
  600TMC3     C 8894   0.191   3.632  15.969  0.5411 -1.0639  0.6357
  600TMC3     O 8895   0.241   3.518  15.964  0.0843  0.0146 -0.6193
  600TMC3     H 8896   4.715   3.473  15.936 -0.7448 -1.5400  1.0996
  600TMC3    H1 8897   0.130   3.803  16.160  0.4145 -0.3600 -1.7202
  600TMC3    H2 8898   4.510   3.581  16.291 -0.4085  0.4888 -0.5460
  600TMC3    C7 8899   4.636   3.808  16.321 -0.0329  0.6330 -0.1651
  600TMC3    C8 8900   4.568   3.389  16.111  0.0513 -0.6679  0.2932
  600TMC3    O1 8901   4.532   3.788  16.385 -0.3064 -0.0415  0.1131
  600TMC3    O2 8902   4.577   3.341  16.229  0.0439  0.2005  0.4304
  601MPD2     C 8903   2.515   1.623   0.233 -0.7186 -0.1325  0.3752
  601MPD2    C1 8904   2.447   1.580   0.118 -0.0648  0.3528  0.0058
  601MPD2    C2 8905   2.395   1.451   0.109  0.3394 -0.4979  0.0583
  601MPD2    C3 8906   2.405   1.362   0.219 -0.5540 -0.0115 -0.0815
  601MPD2    C4 8907   2.464   1.407   0.337 -0.4830  0.0919 -0.4535
  601MPD2    C5 8908   2.521   1.531   0.341 -0.2629 -0.0463  0.8075
  601MPD2     H 8909   2.336   1.426   0.022  2.2055 -2.5772 -0.5801
  601MPD2    H1 8910   2.488   1.340   0.418  1.5174 -0.3333 -1.3922
  601MPD2    H2 8911   2.559   1.721   0.245 -2.3796  0.6337  0.2672
  601MPD2    H3 8912   2.576   1.561   0.429  0.6414  1.6320 -0.3139
  601MPD2     N 8913   2.344   1.234   0.224  0.7318  0.0440  0.2335
  601MPD2    H5 8914   2.360   1.189   0.313 -0.1489  0.4554  0.5917
  601MPD2    N1 8915   2.426   1.657   0.001 -0.1486 -0.2030  0.8570
  601MPD2    H7 8916   2.376   1.619  17.617 -2.7318 -0.3511  2.5468
  602TMC3    C1 8917   2.421   1.855  17.560 -0.9958 -0.4615 -0.1357
  602TMC3    C2 8918   2.497   1.971  17.535  0.2131 -0.4264  0.0680
  602TMC3    C3 8919   2.463   2.041  17.423  0.3776 -0.1687  0.2419
  602TMC3    C4 8920   2.328   1.801  17.478 -1.2130  0.9358  0.8671
  602TMC3    C5 8921   2.304   1.871  17.363  0.7869 -0.4056  0.3598
  602TMC3    C6 8922   2.371   1.993  17.336 -0.2973  0.9960  0.7321
  602TMC3     C 8923   2.459   1.788  17.690 -0.6269  0.0972 -0.3046
  602TMC3     O 8924   2.495   1.873   0.075 -0.2299  0.2771 -0.1319
  602TMC3     H 8925   2.577   1.994  17.605 -0.5269 -0.1812  0.8232
  602TMC3    H1 8926   2.258   1.725  17.512  2.5655 -1.6689  2.7677
  602TMC3    H2 8927   2.368   2.038  17.238  0.5521 -2.4256 -0.8726
  602TMC3    C7 8928   2.176   1.838  17.310  0.0372 -0.2534  0.3678
  602TMC3    C8 8929   2.510   2.172  17.418 -0.3549  1.1467  0.1041
  602TMC3    O1 8930   2.125   1.726  17.314 -0.5349 -0.5615  0.1921
  602TMC3    O2 8931   2.600   2.208  17.492  0.0187 -0.4210  0.0432
  603TMC3    C1 8932   0.839   1.973  10.105  0.0412 -0.3774  0.5646
  603TMC3    C2 8933   0.830   1.974  10.243 -0.5040  0.6760  0.3957
  603TMC3    C3 8934   0.823   2.100  10.298  0.1030  0.4380  0.0884
  603TMC3    C4 8935   0.831   2.076  10.024 -1.4707 -0.8494  0.2456
  603TMC3    C5 8936   0.813   2.196  10.091 -0.0173  0.8977 -0.2817
  603TMC3    C6 8937   0.824   2.218  10.226 -0.3455 -0.6048 -0.5887
  603TMC3     C 8938   0.781   1.851  10.046 -0.3004  0.3976  0.4737
  603TMC3     O 8939   0.679   1.807  10.103 -0.6133 -0.2722 -0.1260
  603TMC3     H 8940   0.839   1.885  10.305 -0.7270  0.5490  0.2465
  603TMC3    H1 8941   0.840   2.076   9.916 -1.9559 -0.0418  0.2046
  603TMC3    H2 8942   0.798   2.315  10.267 -2.5505 -1.2978 -0.3289
  603TMC3    C7 8943   0.782   2.316  10.019  0.5026 -0.2141  0.4644
  603TMC3    C8 8944   0.810   2.111  10.442  0.4285  0.4679  0.7505
  603TMC3    O1 8945   0.834   2.416  10.063 -0.2265 -0.0583  0.2363
  603TMC3    O2 8946   0.839   2.010  10.505  0.1123 -0.3966  0.3754
  604MPD2     C 8947   1.558   1.052  15.867  0.3854 -0.1954 -0.4931
  604MPD2    C1 8948   1.459   0.965  15.837  0.0850  0.2240  0.6088
  604MPD2    C2 8949   1.478   0.879  15.725 -0.0948 -0.1000 -0.0330
  604MPD2    C3 8950   1.593   0.883  15.644 -0.2506 -0.4244 -0.0522
  604MPD2    C4 8951   1.681   0.979  15.672 -0.4674  0.2496 -0.6177
  604MPD2    C5 8952   1.665   1.053  15.789 -0.2466  0.6154  0.3056
  604MPD2     H 8953   1.402   0.812  15.686  1.2452 -2.6153  1.7236
  604MPD2    H1 8954   1.767   1.002  15.610  1.0440 -0.9362  1.0567
  604MPD2    H2 8955   1.547   1.121  15.950 -2.9402 -2.4095  0.8838
  604MPD2    H3 8956   1.750   1.114  15.818 -0.7123  0.3632  2.1561
  604MPD2     N 8957   1.598   0.802  15.534 -0.4286  0.1139  0.0302
  604MPD2    H5 8958   1.520   0.738  15.526 -0.8667  0.5329  0.9580
  604MPD2    N1 8959   1.345   0.968  15.919  0.1288 -0.4647  0.1232
  604MPD2    H7 8960   1.352   1.027  16.002 -1.9578 -0.3533  0.2167
  605TMC3    C1 8961   1.129   0.903  16.020  0.0580  0.2747  0.2355
  605TMC3    C2 8962   1.175   0.922  16.151 -0.5285  0.7554 -0.3548
  605TMC3    C3 8963   1.080   0.927  16.254 -0.1031 -0.8317  0.1313
  605TMC3    C4 8964   0.993   0.921  15.999  0.5304 -0.5196 -0.1002
  605TMC3    C5 8965   0.905   0.934  16.106 -0.3776  0.0824  0.4927
  605TMC3    C6 8966   0.945   0.939  16.235 -0.4980 -0.7948  0.5404
  605TMC3     C 8967   1.227   0.904  15.901  0.7446 -0.1068 -0.5970
  605TMC3     O 8968   1.198   0.835  15.804  0.3836 -0.1822  0.2097
  605TMC3     H 8969   1.279   0.893  16.164 -1.4238 -2.0377  0.6234
  605TMC3    H1 8970   0.967   0.927  15.894  0.4400  0.8733  0.0016
  605TMC3    H2 8971   0.881   0.952  16.321  0.3599 -0.1121  1.0851
  605TMC3    C7 8972   0.775   0.982  16.091  0.2447  0.1543  0.0063
  605TMC3    C8 8973   1.128   0.938  16.392 -0.4047  0.4640  0.5241
  605TMC3    O1 8974   0.732   1.078  16.156 -0.3759 -0.4072  0.4099
  605TMC3    O2 8975   1.053   0.903  16.482  0.0138 -0.1813 -0.5425
  606TMC3    C1 8976   2.492   3.694  17.116 -0.1623  0.5964 -0.0693
  606TMC3    C2 8977   2.622   3.699  17.161  0.3222 -1.1743  0.5325
  606TMC3    C3 8978   2.637   3.695  17.298 -0.4117  0.1695 -0.0739
  606TMC3    C4 8979   2.390   3.674  17.199  0.2914  0.7132  0.0702
  606TMC3    C5 8980   2.409   3.678  17.336 -0.3140  0.0994  0.3572
  606TMC3    C6 8981   2.530   3.672  17.391  0.3845 -0.2818 -0.4483
  606TMC3     C 8982   2.472   3.698  16.971 -0.5112 -0.1047  0.2775
  606TMC3     O 8983   2.570   3.669  16.898 -0.0271  0.3846  0.6779
  606TMC3     H 8984   2.708   3.705  17.096  0.1010  0.3204  0.3962
  606TMC3    H1 8985   2.293   3.655  17.156 -0.0508 -0.3677  1.3365
  606TMC3    H2 8986   2.553   3.663  17.497  1.6347 -1.1723 -0.7992
  606TMC3    C7 8987   2.292   3.663  17.427  0.0904  0.0637 -0.0856
  606TMC3    C8 8988   2.772   3.707  17.341  0.7023  0.3571  0.7499
  606TMC3    O1 8989   2.321   3.632  17.543 -0.1615 -0.6098  0.2492
  606TMC3    O2 8990   2.845   3.764  17.260 -0.1732  0.3836 -0.3698
  607MPD2     C 8991   4.459   2.432  11.021  0.5741  0.0159  0.0222
  607MPD2    C1 8992   4.553   2.506  11.094 -0.0396 -0.4520 -0.1320
  607MPD2    C2 8993   4.563   2.485  11.233 -0.0006  0.3263 -0.4604
  607MPD2    C3 8994   4.497   2.378  11.296 -0.7101  0.8431 -0.3079
  607MPD2    C4 8995   4.410   2.308  11.216  0.1021  0.0952 -0.1150
  607MPD2    C5 8996   4.389   2.335  11.084  0.4640  0.4927  0.2736
  607MPD2     H 8997   4.630   2.547  11.291 -2.0364  2.0112  0.0788
  607MPD2    H1 8998   4.359   2.223  11.261  0.2050 -1.0061 -2.0612
  607MPD2    H2 8999   4.437   2.463  10.919  2.8980  0.6764 -0.2810
  607MPD2    H3 9000   4.314   2.278  11.031 -0.0843  1.8923 -0.4606
  607MPD2     N 9001   4.492   2.380  11.437  0.4474 -0.4959 -0.2925
  607MPD2    H5 9002   4.533   2.461  11.482 -1.0909  0.3550 -0.4214
  607MPD2    N1 9003   4.632   2.608  11.042 -0.3224 -0.9148  0.2776
  607MPD2    H7 9004   4.710   2.644  11.096  1.5105 -1.9116 -1.7384
  608TMC3    C1 9005   4.721   2.772  10.924  0.6740 -0.4124 -0.2756
  608TMC3    C2 9006   0.050   2.809  11.043  0.4170 -0.0393  0.4968
  608TMC3    C3 9007   0.173   2.870  11.042 -0.4675  0.3035 -0.3782
  608TMC3    C4 9008   0.060   2.800  10.808  0.0387 -0.3503 -0.0946
  608TMC3    C5 9009   0.180   2.871  10.811  0.1916 -0.3147 -0.0016
  608TMC3    C6 9010   0.240   2.909  10.926  0.1406  0.6462  0.6369
  608TMC3     C 9011   4.638   2.657  10.917 -0.0487  0.2016 -0.5252
  608TMC3     O 9012   4.604   2.610  10.815 -0.3419 -0.4699  0.0071
  608TMC3     H 9013   0.002   2.799  11.140 -2.0015  1.0610 -0.5953
  608TMC3    H1 9014   0.025   2.749  10.719 -0.8966 -0.6738  0.4487
  608TMC3    H2 9015   0.333   2.964  10.924  0.5954 -0.1845 -1.6648
  608TMC3    C7 9016   0.251   2.876  10.684  0.2682 -0.2499 -0.0405
  608TMC3    C8 9017   0.233   2.910  11.169 -0.1748  0.1756  0.4683
  608TMC3    O1 9018   0.175   2.898  10.590  0.0923  0.1831 -0.3580
  608TMC3    O2 9019   0.271   3.024  11.180 -0.3034 -0.1852  0.1701
  609TMC3    C1 9020   2.249   1.053   9.433 -0.1323  0.1513 -0.0045
  609TMC3    C2 9021   2.181   1.041   9.317 -0.2353 -0.8603 -0.3743
  609TMC3    C3 9022   2.244   1.021   9.201 -0.8437  0.2096  0.0682
  609TMC3    C4 9023   2.377   1.015   9.438 -0.2840  0.4857 -0.2478
  609TMC3    C5 9024   2.440   0.982   9.317 -0.7714 -0.0028  0.6818
  609TMC3    C6 9025   2.371   0.985   9.195  0.4593 -0.0177  0.0763
  609TMC3     C 9026   2.187   1.050   9.571 -0.5637 -0.6695 -0.3602
  609TMC3     O 9027   2.255   1.016   9.665 -0.2373  0.1362 -0.1621
  609TMC3     H 9028   2.074   1.053   9.314  0.1306  3.3423  1.8700
  609TMC3    H1 9029   2.429   1.006   9.533 -0.2979 -0.1225 -0.2973
  609TMC3    H2 9030   2.417   0.979   9.097 -0.2794  1.3815 -0.3684
  609TMC3    C7 9031   2.576   0.941   9.336 -0.7648 -0.6063 -0.6170
  609TMC3    C8 9032   2.171   1.039   9.076 -0.2192 -0.6119 -0.5766
  609TMC3    O1 9033   2.620   0.963   9.447  0.0512 -0.2888 -0.6155
  609TMC3    O2 9034   2.222   0.992   8.977 -0.3773 -0.3869 -0.5679
  610TMC3    C1 9035   0.499   2.117  11.886 -0.7544 -0.0570  0.7728
  610TMC3    C2 9036   0.568   2.062  11.781  0.3826 -0.1766 -0.2790
  610TMC3    C3 9037   0.596   1.934  11.794 -0.4607  0.3826  0.4616
  610TMC3    C4 9038   0.481   2.050  12.003  0.1831 -0.6414  0.1783
  610TMC3    C5 9039   0.510   1.917  12.016 -0.0063  0.4137  0.7807
  610TMC3    C6 9040   0.567   1.858  11.905  0.9053  0.3372  0.0116
  610TMC3     C 9041   0.485   2.260  11.889 -0.2149  0.2620  0.5451
  610TMC3     O 9042   0.528   2.319  11.792  0.8193 -0.5558 -0.2960
  610TMC3     H 9043   0.572   2.120  11.689 -1.0836 -0.1454 -0.3298
  610TMC3    H1 9044   0.431   2.101  12.084 -0.8532 -2.0983  0.4800
  610TMC3    H2 9045   0.592   1.753  11.913 -0.6632 -0.0750 -0.3572
  610TMC3    C7 9046   0.506   1.849  12.147 -0.3051 -0.1280  0.6568
  610TMC3    C8 9047   0.692   1.876  11.698  0.7567  0.1500  0.3051
  610TMC3    O1 9048   0.555   1.734  12.148  0.2512 -0.5790  0.2192
  610TMC3    O2 9049   0.716   1.753  11.700 -0.2139 -0.1424 -0.0301
  611MPD2     C 9050   4.715   1.781   9.966  0.3723  0.1814  0.2168
  611MPD2    C1 9051   4.604   1.806   9.885 -0.8910 -0.0203  0.4007
  611MPD2    C2 9052   4.619   1.912   9.795  0.1109 -0.3987  0.4497
  611MPD2    C3 9053   0.016   1.989   9.787 -0.3531 -0.2372 -0.0696
  611MPD2    C4 9054   0.116   1.955   9.870 -0.2162  0.1922 -0.1154
  611MPD2    C5 9055   0.105   1.851   9.954  0.0314 -0.2247  0.1759
  611MPD2     H 9056   4.539   1.949   9.733 -0.5074 -0.1831  1.3721
  611MPD2    H1 9057   0.211   2.008   9.866 -0.3763  0.5907  1.5534
  611MPD2    H2 9058   4.713   1.701  10.040  0.5847  0.5391  0.6131
  611MPD2    H3 9059   0.186   1.837  10.024  0.7423 -0.9843 -0.7993
  611MPD2     N 9060   0.023   2.106   9.713  0.0795  0.2133  0.2997
  611MPD2    H5 9061   0.111   2.153   9.732  1.1845 -1.1941 -1.3008
  611MPD2    N1 9062   4.484   1.736   9.909  0.1417 -0.3077  0.1547
  611MPD2    H7 9063   4.504   1.660   9.974  0.0927  0.0512  0.5971
  612TMC3    C1 9064   4.716   2.260   9.538 -0.0195  0.0471 -0.3927
  612TMC3    C2 9065   0.122   2.307   9.557 -0.4938  0.1426  0.6708
  612TMC3    C3 9066   0.151   2.425   9.497  0.8027 -0.2273 -0.7227
  612TMC3    C4 9067   4.626   2.323   9.452 -0.7727 -0.2485 -0.1577
  612TMC3    C5 9068   4.656   2.448   9.408 -0.5178  0.5466 -0.2040
  612TMC3    C6 9069   0.060   2.495   9.424 -0.2809 -0.0614  0.2686
  612TMC3     C 9070   4.666   2.140   9.608 -0.4475 -0.2816  0.2505
  612TMC3     O 9071   4.566   2.094   9.561 -0.2689 -0.3432  0.1321
  612TMC3     H 9072   0.199   2.249   9.607 -0.1144  1.7816  1.9758
  612TMC3    H1 9073   4.530   2.280   9.428  0.4368 -2.6800 -0.6052
  612TMC3    H2 9074   0.082   2.594   9.386  0.5941 -0.2784  0.2169
  612TMC3    C7 9075   4.574   2.524   9.323 -0.4059 -0.1315 -0.1799
  612TMC3    C8 9076   0.276   2.493   9.532  0.4730  0.0538 -0.2334
  612TMC3    O1 9077   4.622   2.609   9.250  0.5990  0.1027 -0.2463
  612TMC3    O2 9078   0.292   2.605   9.489  0.6491  0.4593 -0.0051
  613MPD2     C 9079   3.425   4.419  16.467  0.3105  0.1400 -0.0983
  613MPD2    C1 9080   3.380   4.441  16.336  0.0339  0.2019 -0.1142
  613MPD2    C2 9081   3.317   4.335  16.264 -0.0555 -0.4288  0.0098
  613MPD2    C3 9082   3.308   4.209  16.315  0.1168 -0.1571  0.0624
  613MPD2    C4 9083   3.355   4.189  16.447 -0.2940 -0.0954 -0.2458
  613MPD2    C5 9084   3.408   4.295  16.521 -0.0160 -0.6261 -0.2721
  613MPD2     H 9085   3.296   4.353  16.159 -0.7362  1.0236  0.3957
  613MPD2    H1 9086   3.345   4.095  16.499 -0.9118  1.2650  2.0789
  613MPD2    H2 9087   3.465   4.497  16.530  2.3603  0.1760 -1.4379
  613MPD2    H3 9088   3.429   4.280  16.626  2.4311 -1.1175 -0.8258
  613MPD2     N 9089   3.282   4.098  16.237 -0.7814  0.0774 -0.2324
  613MPD2    H5 9090   3.316   4.008  16.268  2.6272  0.6253 -2.3208
  613MPD2    N1 9091   3.414   4.560  16.273  0.3960 -0.1307 -0.0172
  613MPD2    H7 9092   3.483   4.617  16.320  0.4996 -1.2675  1.2198
  614TMC3    C1 9093   3.461   4.701  16.084 -0.2696  0.3325  0.1176
  614TMC3    C2 9094   3.576   4.628  16.057  0.1905 -0.0453  0.2653
  614TMC3    C3 9095   3.621   4.602  15.936  0.0706  0.8274 -0.1805
  614TMC3    C4 9096   3.408   0.053  15.978  0.6925 -0.4614 -0.5496
  614TMC3    C5 9097   3.459   0.038  15.855  0.0357  0.7502 -0.6232
  614TMC3    C6 9098   3.562   4.670  15.828  0.6614  0.1810 -0.1666
  614TMC3     C 9099   3.374   4.603  16.149 -0.2103  0.9923  0.7039
  614TMC3     O 9100   3.286   4.555  16.081  0.1216 -0.1972  0.6057
  614TMC3     H 9101   3.621   4.566  16.133 -0.1794 -2.6714 -1.6297
  614TMC3    H1 9102   3.320   0.114  15.995  1.4525  1.1166 -2.2769
  614TMC3    H2 9103   3.615   4.676  15.733 -0.9613 -1.3081 -1.1574
  614TMC3    C7 9104   3.391   0.109  15.747  0.1216  0.6374  0.8652
  614TMC3    C8 9105   3.644   4.463  15.913  0.3687  1.3599  0.1241
  614TMC3    O1 9106   3.345   0.216  15.783  0.1061 -0.4406  0.6556
  614TMC3    O2 9107   3.580   4.395  15.997  0.1359 -0.1997 -0.4407
  615MPD2     C 9108   3.387   1.298  16.315  0.1064 -0.4925  0.3244
  615MPD2    C1 9109   3.268   1.324  16.248 -0.0615  0.4139 -0.7491
  615MPD2    C2 9110   3.238   1.254  16.133  0.4657  0.4291 -0.6017
  615MPD2    C3 9111   3.326   1.149  16.094 -0.2287 -0.4984  0.3384
  615MPD2    C4 9112   3.435   1.120  16.172  0.3606  0.5069  0.3441
  615MPD2    C5 9113   3.467   1.193  16.286  0.1551 -0.2865  0.4860
  615MPD2     H 9114   3.146   1.275  16.079  1.0980  2.7673 -0.7625
  615MPD2    H1 9115   3.504   1.042  16.142  0.6360  0.7957  0.2216
  615MPD2    H2 9116   3.425   1.357  16.397  2.2311 -2.1795  0.5812
  615MPD2    H3 9117   3.566   1.174  16.326  1.2435  2.1230 -1.0327
  615MPD2     N 9118   3.304   1.069  15.983  0.0026 -0.3885  0.6816
  615MPD2    H5 9119   3.379   1.002  15.970  0.4749 -0.1077  2.0109
  615MPD2    N1 9120   3.174   1.429  16.284 -0.6130 -0.2619 -0.1658
  615MPD2    H7 9121   3.103   1.464  16.221  0.4420  0.0812 -1.1650
  616TMC3    C1 9122   3.126   1.644  16.362 -0.4522 -0.0882 -0.4563
  616TMC3    C2 9123   3.207   1.748  16.334  0.3930  0.3705 -0.0773
  616TMC3    C3 9124   3.159   1.842  16.245  0.3173 -0.0915 -0.2623
  616TMC3    C4 9125   3.000   1.637  16.318  0.8220  0.3005 -0.4393
  616TMC3    C5 9126   2.950   1.740  16.242 -0.0211 -0.3292 -0.7296
  616TMC3    C6 9127   3.027   1.841  16.204 -0.2105  0.5764  0.4514
  616TMC3     C 9128   3.198   1.524  16.381 -0.6199 -0.2959  0.5948
  616TMC3     O 9129   3.295   1.535  16.458 -0.2779  0.1981  0.3380
  616TMC3     H 9130   3.311   1.758  16.364  0.1392 -0.9087  1.1865
  616TMC3    H1 9131   2.936   1.553  16.341  1.9795 -0.4929 -0.1364
  616TMC3    H2 9132   3.004   1.929  16.145  1.6844  1.4189  0.9443
  616TMC3    C7 9133   2.817   1.749  16.206 -0.6078  0.6570  0.0346
  616TMC3    C8 9134   3.250   1.951  16.208  0.0297 -0.3150 -0.2197
  616TMC3    O1 9135   2.784   1.846  16.142 -0.1710  0.3726  0.1380
  616TMC3    O2 9136   3.200   2.062  16.179 -0.5412  0.1414 -0.0663
  617MPD2     C 9137   1.492   4.227  13.687 -0.1967 -0.7528  0.1676
  617MPD2    C1 9138   1.472   4.219  13.826 -0.6032  0.1166  0.7896
  617MPD2    C2 9139   1.366   4.152  13.882  0.2943 -0.1899  0.3202
  617MPD2    C3 9140   1.276   4.098  13.793 -0.5717  0.6317  0.1968
  617MPD2    C4 9141   1.291   4.107  13.654  0.4136  0.8883 -0.0401
  617MPD2    C5 9142   1.396   4.175  13.605  0.6198 -0.6865  0.0675
  617MPD2     H 9143   1.350   4.145  13.989 -3.5473 -0.3383 -0.2554
  617MPD2    H1 9144   1.234   4.051  13.581  0.9407 -0.5320  0.6447
  617MPD2    H2 9145   1.574   4.281  13.642 -0.3039  0.0693  0.9640
  617MPD2    H3 9146   1.397   4.162  13.497  1.1090 -1.0787  0.1179
  617MPD2     N 9147   1.153   4.042  13.833  0.0170 -0.2809  0.5323
  617MPD2    H5 9148   1.098   4.001  13.758 -0.5295  0.7305  0.3708
  617MPD2    N1 9149   1.561   4.290  13.905  0.6455  0.1713 -0.4074
  617MPD2    H7 9150   1.635   4.344  13.862  0.3259  0.8313 -0.1335
  618TMC3    C1 9151   1.679   4.362  14.094 -0.0959 -0.0156  0.0947
  618TMC3    C2 9152   1.786   4.312  14.163 -0.4594 -0.0109  0.2888
  618TMC3    C3 9153   1.911   4.368  14.147  0.8502 -0.2158 -0.0225
  618TMC3    C4 9154   1.704   4.475  14.021  0.5465 -0.0677  0.6450
  618TMC3    C5 9155   1.826   4.525  14.002  0.1765  0.6427  0.3595
  618TMC3    C6 9156   1.934   4.471  14.059  0.0877  0.8257  0.1486
  618TMC3     C 9157   1.565   4.280  14.045 -0.0495 -0.3777 -0.0436
  618TMC3     O 9158   1.508   4.207  14.127  0.6733 -0.4420  0.0058
  618TMC3     H 9159   1.767   4.218  14.214  0.4565 -0.9420 -1.0832
  618TMC3    H1 9160   1.624   4.535  13.979 -0.8728 -1.5903  1.1821
  618TMC3    H2 9161   2.032   4.516  14.049 -0.4250  2.2441  1.4781
  618TMC3    C7 9162   1.839   4.639  13.919 -0.0430 -1.1687  1.0175
  618TMC3    C8 9163   2.037   4.295  14.161  0.7114  0.1700  0.1455
  618TMC3    O1 9164   1.773   0.013  13.957 -0.2110  0.3438  0.0147
  618TMC3    O2 9165   2.101   4.315  14.263  0.0662 -0.0085 -0.3803
  619MPD2     C 9166   2.313   0.473  13.387 -0.7235 -0.1476  0.8385
  619MPD2    C1 9167   2.214   0.539  13.319 -0.9217  0.2180  0.1567
  619MPD2    C2 9168   2.083   0.498  13.331 -0.4017  0.0310  0.6852
  619MPD2    C3 9169   2.048   0.382  13.401 -0.2312 -0.7818  0.5095
  619MPD2    C4 9170   2.148   0.319  13.466 -0.1455 -0.4200 -0.3979
  619MPD2    C5 9171   2.282   0.362  13.451 -0.7585  0.0414  0.4041
  619MPD2     H 9172   2.010   0.549  13.271 -1.6646  0.4830  2.6106
  619MPD2    H1 9173   2.131   0.215  13.492 -0.1976 -0.5401 -0.9027
  619MPD2    H2 9174   2.414   0.512  13.387 -0.6593 -0.3110  2.1681
  619MPD2    H3 9175   2.363   0.301  13.490 -0.8273 -0.2654  0.0675
  619MPD2     N 9176   1.914   0.333  13.406  0.9104  0.3133  0.0276
  619MPD2    H5 9177   1.893   0.256  13.469  1.9750 -2.2218 -2.7489
  619MPD2    N1 9178   2.243   0.658  13.244 -0.4364 -0.0986  0.2801
  619MPD2    H7 9179   2.158   0.703  13.209  0.3237  0.7628 -0.4585
  620TMC3    C1 9180   2.332   0.849  13.158 -0.6497 -0.4224 -0.1329
  620TMC3    C2 9181   2.219   0.856  13.081 -0.6476  0.8269 -0.2141
  620TMC3    C3 9182   2.171   0.974  13.035  0.1299  0.4525 -0.0034
  620TMC3    C4 9183   2.395   0.964  13.200  0.1292  0.4958  0.3252
  620TMC3    C5 9184   2.345   1.079  13.147 -0.6768  0.1349 -0.5597
  620TMC3    C6 9185   2.236   1.086  13.072 -0.0506 -0.1696  0.0541
  620TMC3     C 9186   2.356   0.729  13.225  0.1888  0.0662  0.2234
  620TMC3     O 9187   2.470   0.712  13.274  0.3631  0.5984  0.1480
  620TMC3     H 9188   2.170   0.768  13.042  0.7091  1.6584 -3.8476
  620TMC3    H1 9189   2.482   0.962  13.265 -0.5323 -1.0899  1.1594
  620TMC3    H2 9190   2.193   1.178  13.033 -1.0509 -0.9845 -0.7446
  620TMC3    C7 9191   2.371   1.193  13.237  0.8140  0.3996  0.2960
  620TMC3    C8 9192   2.024   0.990  13.043 -0.3202  0.9165 -0.3163
  620TMC3    O1 9193   2.480   1.193  13.288 -1.0271  0.0723  0.8986
  620TMC3    O2 9194   1.987   1.078  13.121  0.3651 -0.8194  0.5037
  621MPD2     C 9195   2.787   0.237  10.656  0.0785  0.2393 -0.0197
  621MPD2    C1 9196   2.909   0.224  10.590  0.3189  0.6648  0.1003
  621MPD2    C2 9197   2.940   0.314  10.490  0.2502  0.2331  0.3401
  621MPD2    C3 9198   2.853   0.423  10.460 -0.7374 -0.5930  1.2292
  621MPD2    C4 9199   2.738   0.441  10.532 -0.5565  0.7868  0.1699
  621MPD2    C5 9200   2.702   0.344  10.627  0.4732  0.4755 -0.3639
  621MPD2     H 9201   3.031   0.294  10.434 -0.6821  0.7737 -1.3704
  621MPD2    H1 9202   2.664   0.517  10.511 -1.3351 -0.0938 -0.2649
  621MPD2    H2 9203   2.753   0.166  10.731  0.2239 -0.8747 -1.0058
  621MPD2    H3 9204   2.609   0.351  10.683  0.8837 -0.8588  0.4890
  621MPD2     N 9205   2.887   0.503  10.351 -0.1138  0.1022 -0.1031
  621MPD2    H5 9206   2.960   0.476  10.285 -0.0717 -1.9048  0.7600
  621MPD2    N1 9207   3.005   0.131  10.630 -0.9628  0.9125  0.1227
  621MPD2    H7 9208   3.099   0.138  10.593 -0.9498 -1.7169 -0.3429
  622TMC3    C1 9209   3.093   4.656  10.724 -0.5693  0.6143  0.3798
  622TMC3    C2 9210   3.068   4.548  10.807  0.0697 -0.4535  0.4975
  622TMC3    C3 9211   3.152   4.445  10.779 -0.3171 -0.7192  0.5482
  622TMC3    C4 9212   3.197   4.667  10.640  0.7930  0.2496  0.2031
  622TMC3    C5 9213   3.281   4.565  10.633 -0.2704  0.3922 -0.1938
  622TMC3    C6 9214   3.258   4.448  10.698 -0.0666 -0.4747 -0.0856
  622TMC3     C 9215   2.988   0.030  10.724 -0.0193  0.0956 -0.1628
  622TMC3     O 9216   2.888   4.708  10.777  0.0319 -0.0372 -0.0487
  622TMC3     H 9217   2.997   4.539  10.888  0.5238 -1.2758  0.7952
  622TMC3    H1 9218   3.219   0.037  10.589 -2.6545  1.0992  0.2704
  622TMC3    H2 9219   3.308   4.355  10.672  3.6209  1.4829 -0.0204
  622TMC3    C7 9220   3.378   4.552  10.528 -0.1071 -0.7560  0.0763
  622TMC3    C8 9221   3.079   4.318  10.774  0.0563 -0.1991  0.0998
  622TMC3    O1 9222   3.480   4.482  10.525  0.1908  0.2173 -0.1585
  622TMC3    O2 9223   3.135   4.216  10.800  0.5372  0.1922  0.8002
  623MPD2     C 9224   1.619   1.393  15.796  0.8305 -1.0343  0.4577
  623MPD2    C1 9225   1.550   1.377  15.914 -0.2736 -0.9209  0.6143
  623MPD2    C2 9226   1.621   1.360  16.032 -0.6866  0.3293  0.4969
  623MPD2    C3 9227   1.757   1.379  16.031 -0.9941  0.3944  0.3111
  623MPD2    C4 9228   1.826   1.389  15.909 -0.2614  0.5155  0.5674
  623MPD2    C5 9229   1.760   1.385  15.790 -0.4805  0.2594 -0.0486
  623MPD2     H 9230   1.585   1.340  16.132  0.5582 -2.3090  0.4141
  623MPD2    H1 9231   1.934   1.392  15.907 -0.3488  2.9951 -0.2422
  623MPD2    H2 9232   1.569   1.394  15.700  0.5326  1.0568  0.6354
  623MPD2    H3 9233   1.805   1.392  15.692  1.7636  0.0579  0.9835
  623MPD2     N 9234   1.823   1.371  16.155  0.1799 -0.1942 -0.1931
  623MPD2    H5 9235   1.761   1.349  16.232 -0.3654  0.6212 -0.3885
  623MPD2    N1 9236   1.411   1.400  15.900  0.8091 -0.0197  0.5433
  623MPD2    H7 9237   1.379   1.425  15.807  0.4016  1.8600  1.1954
  624TMC3    C1 9238   2.076   1.215  16.448 -0.3775  0.3899  0.1259
  624TMC3    C2 9239   1.958   1.175  16.496 -0.6795 -0.6626 -0.7113
  624TMC3    C3 9240   1.857   1.261  16.479  0.3465  0.9207  0.0208
  624TMC3    C4 9241   2.088   1.316  16.355  0.1617 -0.9264  0.0320
  624TMC3    C5 9242   1.978   1.396  16.324  0.7340  0.2410 -0.2031
  624TMC3    C6 9243   1.866   1.371  16.395 -0.1137 -0.0293 -0.2474
  624TMC3     C 9244   2.194   1.139  16.486 -0.4937 -0.2290  0.6492
  624TMC3     O 9245   2.195   1.065  16.586 -0.2975  0.0762  0.2333
  624TMC3     H 9246   1.953   1.082  16.552 -0.2349 -1.7102 -2.3893
  624TMC3    H1 9247   2.186   1.347  16.320 -0.4935  0.8247 -0.2766
  624TMC3    H2 9248   1.782   1.439  16.386  0.2009  0.2857 -0.8746
  624TMC3    C7 9249   1.953   1.408  16.175  0.6015 -0.2007 -0.2546
  624TMC3    C8 9250   1.728   1.200  16.465  1.1564  0.1206 -0.0723
  624TMC3    O1 9251   2.039   1.452  16.097 -0.1584  0.5782 -0.0770
  624TMC3    O2 9252   1.680   1.201  16.351  0.5980  0.0508 -0.3626
  625MPD2     C 9253   1.795   2.119   0.209  0.0989  0.5168  0.3733
  625MPD2    C1 9254   1.832   2.248   0.248 -0.7703 -0.5792  0.1113
  625MPD2    C2 9255   1.911   2.253   0.361  0.2394 -0.3671  0.5838
  625MPD2    C3 9256   1.940   2.138   0.442  0.2260 -0.0971 -0.4494
  625MPD2    C4 9257   1.900   2.012   0.394 -0.2905  0.2028 -0.8371
  625MPD2    C5 9258   1.830   2.006   0.278  0.1776 -0.8861  0.6161
  625MPD2     H 9259   1.944   2.346   0.406 -2.3777 -0.2988  2.3598
  625MPD2    H1 9260   1.923   1.925   0.455  0.9111  0.9897 -0.1775
  625MPD2    H2 9261   1.744   2.110   0.114 -1.0920  1.9735  0.8645
  625MPD2    H3 9262   1.813   1.909   0.233 -2.3438 -0.7626  1.3158
  625MPD2     N 9263   2.005   2.166   0.563 -0.6917  0.3305 -0.5845
  625MPD2    H5 9264   2.016   2.264   0.587 -0.1754  0.4916 -1.4988
  625MPD2    N1 9265   1.786   2.359   0.176 -0.0213 -0.5163 -0.2099
  625MPD2    H7 9266   1.835   2.445   0.201 -0.9986  0.4218 -1.5681
  626TMC3    C1 9267   1.695   2.512   0.029 -0.2837 -0.0796 -0.6331
  626TMC3    C2 9268   1.733   2.553  17.598 -0.3675  0.2020  0.0129
  626TMC3    C3 9269   1.753   2.686  17.580 -0.1597  0.2513 -0.6006
  626TMC3    C4 9270   1.686   2.601   0.134 -0.2800  0.2878 -0.1631
  626TMC3    C5 9271   1.710   2.732   0.107 -0.4089 -1.3295  0.2097
  626TMC3    C6 9272   1.763   2.769  17.684  0.6981  0.8608 -0.5273
  626TMC3     C 9273   1.720   2.371   0.059 -0.3125  0.1769  0.0426
  626TMC3     O 9274   1.694   2.284  17.672  0.1853 -0.3009 -0.3264
  626TMC3     H 9275   1.730   2.483  17.515  0.4724  0.3336 -0.1275
  626TMC3    H1 9276   1.667   2.568   0.236 -2.5816  0.4984 -0.5267
  626TMC3    H2 9277   1.779   2.875  17.666 -0.0725  0.8785 -1.0985
  626TMC3    C7 9278   1.672   2.839   0.203 -0.0672  0.4810  0.3580
  626TMC3    C8 9279   1.736   2.748  17.451 -0.9700 -0.1700 -0.1773
  626TMC3    O1 9280   1.723   2.949   0.199 -0.4718  0.6433 -0.2923
  626TMC3    O2 9281   1.811   2.840  17.423  0.1962 -0.5310  0.0292
  627MPD2     C 9282   0.413   2.866  14.213 -0.0756 -0.4439  0.2428
  627MPD2    C1 9283   0.465   2.821  14.325 -0.4363 -0.7313  0.0209
  627MPD2    C2 9284   0.410   2.706  14.380  1.2388 -0.1888 -0.3890
  627MPD2    C3 9285   0.323   2.621  14.317 -0.3277 -0.1134 -0.2761
  627MPD2    C4 9286   0.265   2.663  14.196 -0.4482 -0.4038  0.2829
  627MPD2    C5 9287   0.313   2.790  14.151 -0.1269  0.3477  1.2432
  627MPD2     H 9288   0.435   2.678  14.482 -0.5344 -1.5329 -0.3136
  627MPD2    H1 9289   0.191   2.616  14.133  0.8772  0.0093 -1.5818
  627MPD2    H2 9290   0.454   2.955  14.167 -0.8525 -0.7359 -1.0291
  627MPD2    H3 9291   0.288   2.836  14.056  1.0924 -0.1949  0.6627
  627MPD2     N 9292   0.278   2.514  14.399  0.1725  0.2736 -0.1069
  627MPD2    H5 9293   0.311   2.498  14.494 -0.3245  0.4808  0.0995
  627MPD2    N1 9294   0.583   2.890  14.388  0.3544  0.8356 -0.0728
  627MPD2    H7 9295   0.630   2.843  14.465 -1.5113 -1.0296 -0.0462
  628TMC3    C1 9296   0.749   3.045  14.435 -0.6734 -0.4219 -0.3926
  628TMC3    C2 9297   0.835   2.941  14.430 -0.3101 -0.0269  0.2698
  628TMC3    C3 9298   0.952   2.964  14.490 -0.1238  0.1154  0.2096
  628TMC3    C4 9299   0.763   3.169  14.489 -0.7049  0.2707 -0.1705
  628TMC3    C5 9300   0.879   3.183  14.556  0.4137  0.2049 -0.0359
  628TMC3    C6 9301   0.975   3.082  14.563  0.1211  0.5151 -0.5075
  628TMC3     C 9302   0.635   3.020  14.360  0.0444 -0.0410  0.3136
  628TMC3     O 9303   0.598   3.114  14.295  0.3512  0.0126 -0.1114
  628TMC3     H 9304   0.820   2.849  14.374 -1.0531  0.6785 -0.6876
  628TMC3    H1 9305   0.681   3.239  14.501 -1.6687 -0.5224 -2.1387
  628TMC3    H2 9306   1.071   3.109  14.606 -0.1743  0.9570 -0.1291
  628TMC3    C7 9307   0.918   3.311  14.597  0.0553  0.4391 -0.8613
  628TMC3    C8 9308   1.072   2.890  14.438 -0.2156 -0.1031  0.2921
  628TMC3    O1 9309   0.992   3.322  14.691 -0.4608 -0.0138  0.3365
  628TMC3    O2 9310   1.048   2.824  14.341  0.2351  0.5081  0.8537
  629MPD2     C 9311   3.725   2.128  16.074  0.5108 -0.3666  0.6247
  629MPD2    C1 9312   3.732   2.005  16.121  0.4251 -0.2027 -0.1036
  629MPD2    C2 9313   3.614   1.947  16.160 -0.5509 -0.2055 -0.2083
  629MPD2    C3 9314   3.488   1.995  16.149 -0.3061  0.7460 -0.2956
  629MPD2    C4 9315   3.480   2.121  16.078  0.0045 -0.3901 -0.2190
  629MPD2    C5 9316   3.599   2.184  16.059  0.2530 -0.2959 -1.0838
  629MPD2     H 9317   3.620   1.849  16.206  0.8182 -0.5098 -1.0158
  629MPD2    H1 9318   3.392   2.184  16.076 -0.5922 -1.2028  0.4128
  629MPD2    H2 9319   3.812   2.189  16.055 -0.2727  0.0279 -1.7592
  629MPD2    H3 9320   3.593   2.289  16.031 -0.5827  0.2281  1.0907
  629MPD2     N 9321   3.378   1.915  16.196 -0.9070 -0.0324 -0.2088
  629MPD2    H5 9322   3.401   1.824  16.233  1.1416  0.1768 -0.9759
  629MPD2    N1 9323   3.856   1.935  16.127  0.1310 -0.1782  0.4736
  629MPD2    H7 9324   3.938   1.990  16.106  0.8429 -0.9658  1.1958
  630TMC3    C1 9325   4.022   1.768  16.173 -0.1937  0.3031 -0.4329
  630TMC3    C2 9326   4.110   1.805  16.073  0.4839  0.1523 -0.2888
  630TMC3    C3 9327   4.241   1.763  16.088  0.0845 -0.6551  0.0869
  630TMC3    C4 9328   4.055   1.672  16.263 -0.3623 -0.5160 -0.6536
  630TMC3    C5 9329   4.190   1.645  16.281 -0.4361 -0.4074 -0.7199
  630TMC3    C6 9330   4.283   1.702  16.203  0.0311 -0.3049  1.0158
  630TMC3     C 9331   3.879   1.805  16.166  0.1918  0.7066 -0.3522
  630TMC3     O 9332   3.799   1.715  16.185  0.2191  0.6083  0.5871
  630TMC3     H 9333   4.092   1.879  15.996  0.3916 -2.9440 -3.1773
  630TMC3    H1 9334   3.980   1.645  16.337  1.3367  0.9935  1.6164
  630TMC3    H2 9335   4.387   1.676  16.221  0.3404 -2.0076 -3.1899
  630TMC3    C7 9336   4.225   1.609  16.416  0.1306 -0.6085  0.3418
  630TMC3    C8 9337   4.358   1.807  16.012  0.4911  0.3049 -0.1191
  630TMC3    O1 9338   4.146   1.545  16.480 -0.5495  0.5079  0.8631
  630TMC3    O2 9339   4.445   1.838  16.090 -0.2815  0.2639 -0.1394
  631MPD2     C 9340   2.373   1.035  15.620 -0.1675  0.2689 -0.2961
  631MPD2    C1 9341   2.440   1.045  15.497 -0.4077 -0.0037 -0.1406
  631MPD2    C2 9342   2.574   1.012  15.489  0.5375  0.0729 -0.7723
  631MPD2    C3 9343   2.640   0.983  15.611 -0.3986  0.0185 -0.3465
  631MPD2    C4 9344   2.576   0.988  15.728  0.1980  0.1521  0.2170
  631MPD2    C5 9345   2.442   1.004  15.732 -0.0141  0.7407  0.0037
  631MPD2     H 9346   2.623   1.008  15.392 -0.0872 -1.4235 -1.0282
  631MPD2    H1 9347   2.625   0.968  15.823 -0.3066 -2.7756 -0.1120
  631MPD2    H2 9348   2.269   1.065  15.623  0.4002  2.0876  1.1638
  631MPD2    H3 9349   2.388   1.001  15.826 -0.0553  2.9772  0.0365
  631MPD2     N 9350   2.776   0.941  15.606 -0.3100 -0.4493  0.7835
  631MPD2    H5 9351   2.827   0.959  15.521  0.0719  0.7886  1.2674
  631MPD2    N1 9352   2.363   1.078  15.382  0.0836 -0.6483  0.0358
  631MPD2    H7 9353   2.264   1.093  15.401 -0.2977 -1.8922 -0.9211
  632TMC3    C1 9354   2.296   1.158  15.180 -0.0021  0.0718 -0.1687
  632TMC3    C2 9355   2.202   1.225  15.250 -0.5766  0.2547 -0.0838
  632TMC3    C3 9356   2.099   1.278  15.182  0.2589 -0.4075 -0.0225
  632TMC3    C4 9357   2.309   1.167  15.044  0.1960 -0.7811 -0.3074
  632TMC3    C5 9358   2.206   1.235  14.980  0.3726  0.4139 -0.3918
  632TMC3    C6 9359   2.101   1.284  15.043 -0.1507  0.1606  0.1733
  632TMC3     C 9360   2.405   1.091  15.252  0.0850  0.9062  0.1148
  632TMC3     O 9361   2.507   1.061  15.192  0.7840  0.3174  0.6177
  632TMC3     H 9362   2.191   1.225  15.357 -0.5964 -2.1831 -0.0894
  632TMC3    H1 9363   2.375   1.105  14.984 -1.8243 -1.7580 -1.5470
  632TMC3    H2 9364   2.039   1.363  15.002  0.8381  0.6683 -0.3440
  632TMC3    C7 9365   2.234   1.300  14.854 -0.2701 -0.1365 -0.6268
  632TMC3    C8 9366   1.990   1.332  15.264 -0.1188  0.3132 -0.1352
  632TMC3    O1 9367   2.142   1.353  14.792 -0.3944  0.3610 -0.0926
  632TMC3    O2 9368   2.016   1.373  15.376 -0.5125  0.0163 -0.3143
  633MPD2     C 9369   1.555   4.476  17.053 -0.6600 -0.5159  0.0819
  633MPD2    C1 9370   1.549   4.386  16.948  0.6917  0.1148 -0.3519
  633MPD2    C2 9371   1.527   4.254  16.973 -0.6763 -0.4343  0.3840
  633MPD2    C3 9372   1.509   4.212  17.102  0.1525 -0.2048  0.0110
  633MPD2    C4 9373   1.507   4.301  17.209  0.2721 -0.1631 -0.6247
  633MPD2    C5 9374   1.529   4.433  17.176  0.2199  0.1155 -0.4994
  633MPD2     H 9375   1.534   4.186  16.889  1.2901  3.7490 -2.8123
  633MPD2    H1 9376   1.493   4.267  17.311  0.7743 -1.7488 -1.0843
  633MPD2    H2 9377   1.587   4.576  17.027  1.5759 -1.0387  0.8375
  633MPD2    H3 9378   1.517   4.496  17.264 -0.6246 -0.6781 -0.0454
  633MPD2     N 9379   1.481   4.076  17.129  0.0142  0.1780 -0.3197
  633MPD2    H5 9380   1.489   4.038  17.223  0.8495  0.0477 -0.4411
  633MPD2    N1 9381   1.596   4.424  16.818 -0.0385 -0.2166 -0.0904
  633MPD2    H7 9382   1.619   4.345  16.759  1.7506  0.7524 -0.7181
  634TMC3    C1 9383   1.624   4.551  16.621  0.6570 -0.3748 -0.2092
  634TMC3    C2 9384   1.719   4.465  16.581 -0.1309 -0.3237  0.4679
  634TMC3    C3 9385   1.746   4.445  16.454  0.6549 -0.1053 -0.2738
  634TMC3    C4 9386   1.556   4.631  16.534  0.4439 -0.5722  0.0825
  634TMC3    C5 9387   1.584   4.611  16.401  0.0835  0.8820  0.0092
  634TMC3    C6 9388   1.687   4.522  16.359  0.2437  0.3766  0.2691
  634TMC3     C 9389   1.575   4.541  16.760  0.7714  0.2766  0.2204
  634TMC3     O 9390   1.519   4.641  16.801  0.0078 -0.1347  0.0565
  634TMC3     H 9391   1.776   4.406  16.652 -0.3073  0.7073  1.4793
  634TMC3    H1 9392   1.488   4.708  16.568  1.6948 -0.2241  1.7528
  634TMC3    H2 9393   1.699   4.508  16.252 -1.3177 -0.5775  0.2136
  634TMC3    C7 9394   1.533   4.697  16.296  0.1394 -0.3196  0.5448
  634TMC3    C8 9395   1.825   4.331  16.418 -0.1696 -0.1775  0.9823
  634TMC3    O1 9396   1.583   4.677  16.187  0.2892 -0.2364 -0.2086
  634TMC3    O2 9397   1.822   4.242  16.501  0.1327  0.6771  0.4776
  635TMC3    C1 9398   2.059   0.202  17.287 -0.0190  0.0545  0.4062
  635TMC3    C2 9399   2.147   0.139  17.202 -0.3078  0.6772 -0.3381
  635TMC3    C3 9400   2.136   0.001  17.196  0.0314 -0.0381  0.7310
  635TMC3    C4 9401   1.969   0.124  17.358  0.0789 -0.5131 -0.0966
  635TMC3    C5 9402   1.965   4.710  17.346  0.1614 -0.5492 -0.1079
  635TMC3    C6 9403   2.052   4.641  17.260 -0.2570 -0.1757  0.1274
  635TMC3     C 9404   2.065   0.344  17.323  0.1636 -0.2439 -0.7582
  635TMC3     O 9405   2.000   0.386  17.418 -0.1069 -0.3420  0.3079
  635TMC3     H 9406   2.228   0.190  17.152 -0.0441 -0.0647 -0.6703
  635TMC3    H1 9407   1.910   0.169  17.437  0.1455  1.9114 -1.4156
  635TMC3    H2 9408   2.075   4.535  17.257  0.9204  0.1228 -1.1806
  635TMC3    C7 9409   1.881   4.628  17.438  0.0959 -0.0451  0.8972
  635TMC3    C8 9410   2.211   4.657  17.096 -0.1373 -0.2379  0.6643
  635TMC3    O1 9411   1.843   4.692  17.537  0.1881  0.0027  0.2242
  635TMC3    O2 9412   2.248   4.541  17.108  0.2600 -0.0329  0.2897
  636MPD2     C 9413   3.083   4.500  15.452  0.0852 -0.5187  0.7774
  636MPD2    C1 9414   3.068   4.516  15.588  0.5027  0.2191  0.7885
  636MPD2    C2 9415   3.104   4.410  15.674  0.9809  0.5940  0.4878
  636MPD2    C3 9416   3.154   4.286  15.625  0.1644 -0.1470  0.0657
  636MPD2    C4 9417   3.159   4.274  15.489  0.6333 -0.3816  0.0141
  636MPD2    C5 9418   3.131   4.383  15.406 -0.6261  0.6328 -0.0672
  636MPD2     H 9419   3.095   4.429  15.780  0.1761 -0.2680  0.5748
  636MPD2    H1 9420   3.203   4.181  15.454  2.4733  0.5806 -0.2512
  636MPD2    H2 9421   3.071   4.571  15.371 -1.0624  2.0323  3.1978
  636MPD2    H3 9422   3.149   4.373  15.300 -0.7528 -2.1272  0.1477
  636MPD2     N 9423   3.179   4.178  15.714 -0.4432  0.6171  0.4010
  636MPD2    H5 9424   3.153   4.204  15.809  0.1398  0.3232  0.6499
  636MPD2    N1 9425   3.011   4.635  15.638 -0.6489  0.6662  0.3648
  636MPD2    H7 9426   3.021   4.648  15.738  0.5761 -0.4987  0.3871
  637TMC3    C1 9427   3.245   3.971  15.800 -0.1132  0.1713 -0.8100
  637TMC3    C2 9428   3.182   3.995  15.916  1.1684 -1.0098  0.4973
  637TMC3    C3 9429   3.246   3.980  16.039 -0.4728 -0.1343 -0.0464
  637TMC3    C4 9430   3.371   3.919  15.802 -0.1534  0.2215  0.2372
  637TMC3    C5 9431   3.441   3.910  15.919  0.1133  0.6187  0.9664
  637TMC3    C6 9432   3.375   3.937  16.038 -0.3769  0.4483 -0.2123
  637TMC3     C 9433   3.217   4.049  15.680  0.3704 -0.0868 -0.2898
  637TMC3     O 9434   3.268   4.006  15.575 -1.1483  0.7367  0.4247
  637TMC3     H 9435   3.081   4.035  15.907  0.8553 -1.5658  1.6302
  637TMC3    H1 9436   3.426   3.915  15.709 -0.4957  0.4853  0.0232
  637TMC3    H2 9437   3.433   3.937  16.129 -0.5017 -0.0323 -0.1285
  637TMC3    C7 9438   3.575   3.955  15.923 -0.1012  0.0631 -0.5603
  637TMC3    C8 9439   3.231   4.105  16.113  0.0698  1.1987  0.4175
  637TMC3    O1 9440   3.602   4.030  16.014  0.0747  0.0424 -0.0548
  637TMC3    O2 9441   3.164   4.196  16.057  0.4488  0.1924  0.1114
  638MPD2     C 9442   2.970   3.317  14.711 -0.6427 -0.0755 -0.1689
  638MPD2    C1 9443   2.933   3.203  14.645 -0.6487 -0.2005 -0.4282
  638MPD2    C2 9444   2.905   3.086  14.712  0.6362 -0.3583 -0.3336
  638MPD2    C3 9445   2.914   3.091  14.855  0.3578 -0.7008 -0.3844
  638MPD2    C4 9446   2.940   3.211  14.919 -0.5839 -0.4046  0.3692
  638MPD2    C5 9447   2.965   3.321  14.845 -0.5144 -0.0669 -0.3749
  638MPD2     H 9448   2.881   2.992  14.664  0.0676  0.2780 -1.2796
  638MPD2    H1 9449   2.946   3.211  15.028  0.5970 -3.6921  0.3127
  638MPD2    H2 9450   3.008   3.399  14.653  0.7705 -1.5461 -1.3200
  638MPD2    H3 9451   2.997   3.415  14.888 -0.9544 -1.6401  3.3392
  638MPD2     N 9452   2.872   2.975  14.928 -0.7339  0.5019 -0.2273
  638MPD2    H5 9453   2.863   2.889  14.875 -0.5648 -0.0834  0.7010
  638MPD2    N1 9454   2.954   3.208  14.506  0.4988 -0.2688 -0.2119
  638MPD2    H7 9455   2.975   3.298  14.465  1.4083  0.1994  1.3202
  639TMC3    C1 9456   2.803   2.837  15.101 -0.4088  0.2868  0.7727
  639TMC3    C2 9457   2.678   2.776  15.094  0.9916  0.3144 -0.1443
  639TMC3    C3 9458   2.672   2.635  15.089 -0.2993  0.3281 -0.2536
  639TMC3    C4 9459   2.923   2.760  15.104  0.7819 -0.3774 -0.3533
  639TMC3    C5 9460   2.911   2.625  15.101 -0.1483 -0.1815  0.4050
  639TMC3    C6 9461   2.788   2.558  15.094 -0.1508 -0.0529  0.7435
  639TMC3     C 9462   2.821   2.975  15.052 -0.4484 -0.2005  0.0747
  639TMC3     O 9463   2.781   3.067  15.114 -0.0261  0.0944 -0.3390
  639TMC3     H 9464   2.594   2.844  15.090 -0.7523 -1.8352  0.4411
  639TMC3    H1 9465   3.015   2.817  15.097  0.8114 -0.4207 -0.3142
  639TMC3    H2 9466   2.782   2.454  15.063  1.6761  0.0671 -0.0708
  639TMC3    C7 9467   3.021   2.536  15.076  0.1794  0.3630  0.0747
  639TMC3    C8 9468   2.593   2.574  14.985 -0.0713 -0.5401 -0.4160
  639TMC3    O1 9469   3.001   2.420  15.119 -0.1018 -0.3225  0.0431
  639TMC3    O2 9470   2.654   2.550  14.880  0.4250 -0.1853  0.4572
  640MPD2     C 9471   2.564   2.049   9.509  0.1256  0.2509  0.2677
  640MPD2    C1 9472   2.691   2.103   9.469 -0.5494  0.0700  0.2868
  640MPD2    C2 9473   2.697   2.182   9.357 -0.9231  0.2939  0.3960
  640MPD2    C3 9474   2.586   2.194   9.274  0.2882 -0.6926 -1.0415
  640MPD2    C4 9475   2.459   2.144   9.312 -0.1328 -0.4658  0.0559
  640MPD2    C5 9476   2.453   2.089   9.434 -0.0065 -0.6980  0.4345
  640MPD2     H 9477   2.786   2.237   9.332 -0.6693 -0.3056 -0.0131
  640MPD2    H1 9478   2.366   2.169   9.261  1.1575 -0.6634 -2.4138
  640MPD2    H2 9479   2.548   1.999   9.604 -3.1665 -0.7608 -0.8044
  640MPD2    H3 9480   2.356   2.051   9.465 -0.2818  0.9334  1.5995
  640MPD2     N 9481   2.589   2.274   9.154  0.1305  0.0657  0.2751
  640MPD2    H5 9482   2.505   2.284   9.099 -0.0432 -1.8528  0.1957
  640MPD2    N1 9483   2.797   2.076   9.562 -0.3888  0.1659  0.0382
  640MPD2    H7 9484   2.774   2.020   9.643  2.7394 -3.6478 -1.7186
  641TMC3    C1 9485   3.018   2.073   9.639  0.1391 -0.3113  0.2411
  641TMC3    C2 9486   2.985   1.958   9.703  0.2605  0.4187  0.7508
  641TMC3    C3 9487   3.057   1.921   9.817 -0.2284 -0.4043  0.2861
  641TMC3    C4 9488   3.123   2.153   9.672 -0.8078  0.0345 -0.8574
  641TMC3    C5 9489   3.191   2.106   9.776  0.4404  0.0301 -0.3070
  641TMC3    C6 9490   3.169   1.990   9.847  0.3414 -0.0914 -0.5546
  641TMC3     C 9491   2.919   2.132   9.552  0.0237 -0.5817  0.7723
  641TMC3     O 9492   2.963   2.216   9.476 -0.1360  0.7408 -0.7734
  641TMC3     H 9493   2.906   1.892   9.668 -0.6329  1.3835  0.9436
  641TMC3    H1 9494   3.139   2.248   9.623  0.8069  1.1692  1.8528
  641TMC3    H2 9495   3.238   1.945   9.917  1.0705 -0.2586 -1.3788
  641TMC3    C7 9496   3.311   2.185   9.803 -0.8444 -0.0613 -0.8704
  641TMC3    C8 9497   3.074   1.774   9.838 -0.0592  0.2989 -0.0415
  641TMC3    O1 9498   3.351   2.243   9.705  0.2562 -0.3486  0.2627
  641TMC3    O2 9499   3.073   1.707   9.734 -0.5277 -0.3510  0.5741
  642TMC3    C1 9500   0.050   3.373  11.741  0.6701  0.8578  0.1254
  642TMC3    C2 9501   0.150   3.358  11.835  0.3698  0.9364  0.3100
  642TMC3    C3 9502   0.183   3.232  11.877 -0.0758 -0.2115  0.4083
  642TMC3    C4 9503   4.703   3.266  11.697 -0.0829 -0.9750 -0.2350
  642TMC3    C5 9504   0.027   3.142  11.724  0.4386 -0.5657  0.3596
  642TMC3    C6 9505   0.126   3.121  11.823 -0.3610 -0.1976  0.7760
  642TMC3     C 9506   4.689   3.488  11.771  0.3921 -0.2807  0.2794
  642TMC3     O 9507   0.023   3.596  11.754 -0.5828  0.0696  0.1755
  642TMC3     H 9508   0.211   3.444  11.861  1.0123  0.6243 -0.1533
  642TMC3    H1 9509   4.614   3.287  11.637 -1.5569 -5.3516  0.4567
  642TMC3    H2 9510   0.166   3.024  11.850 -1.7915 -0.6279  1.3897
  642TMC3    C7 9511   4.663   3.027  11.697  0.0603 -0.9587  0.5599
  642TMC3    C8 9512   0.295   3.212  11.958 -0.3687 -0.6092  0.2398
  642TMC3    O1 9513   4.615   3.029  11.584 -0.7699  0.2043  0.2835
  642TMC3    O2 9514   0.363   3.111  11.935 -0.1486 -0.0828 -0.0304
  643TMC3    C1 9515   3.462   2.387   0.063  0.0802 -0.1211  0.1377
  643TMC3    C2 9516   3.345   2.413  17.693  0.5151 -0.5884  0.3957
  643TMC3    C3 9517   3.315   2.352  17.576  0.2260  0.5898  0.3653
  643TMC3    C4 9518   3.551   2.294   0.017  0.0464  0.6207 -0.6277
  643TMC3    C5 9519   3.518   2.236  17.598 -0.0537  0.1098 -0.3736
  643TMC3    C6 9520   3.406   2.265  17.532  0.4037  0.4015 -0.1962
  643TMC3     C 9521   3.474   2.438   0.204 -0.0549  0.0968 -0.3828
  643TMC3     O 9522   3.371   2.465   0.266  0.1166 -0.0093 -0.1068
  643TMC3     H 9523   3.281   2.488   0.043 -0.0860  0.0285 -1.4495
  643TMC3    H1 9524   3.637   2.254   0.069 -0.2042 -0.9161 -1.3675
  643TMC3    H2 9525   3.388   2.221  17.435  0.0327 -2.0274  0.9623
  643TMC3    C7 9526   3.631   2.225  17.515  0.6979  0.1846 -0.1985
  643TMC3    C8 9527   3.261   2.430  17.464  0.1978 -0.3379  0.5106
  643TMC3    O1 9528   3.706   2.317  17.500  0.0073 -0.3630 -0.4369
  643TMC3    O2 9529   3.184   2.366  17.394  0.0209  0.2764  0.2248
  644MPD2     C 9530   0.635   1.528   9.391 -0.7708 -0.3667 -0.0478
  644MPD2    C1 9531   0.530   1.452   9.429  0.1414  0.2738  0.4030
  644MPD2    C2 9532   0.541   1.314   9.444 -0.0778 -0.5154  0.2882
  644MPD2    C3 9533   0.655   1.251   9.412  0.2950  0.0377 -0.3986
  644MPD2    C4 9534   0.756   1.328   9.350 -0.5824 -0.1406 -0.0805
  644MPD2    C5 9535   0.750   1.465   9.348  0.6852  0.4000  0.2280
  644MPD2     H 9536   0.463   1.243   9.471  0.1076 -0.3712  1.2050
  644MPD2    H1 9537   0.848   1.279   9.320 -0.3830  0.2058 -0.0307
  644MPD2    H2 9538   0.622   1.635   9.376 -0.9240  0.0287  2.9364
  644MPD2    H3 9539   0.830   1.525   9.307  2.5951 -1.8659  0.6462
  644MPD2     N 9540   0.661   1.110   9.422 -0.1266  0.7178 -0.9547
  644MPD2    H5 9541   0.572   1.066   9.444 -0.2643  1.3202 -0.3346
  644MPD2    N1 9542   0.411   1.524   9.450 -0.2448 -0.5524 -0.6051
  644MPD2    H7 9543   0.421   1.625   9.446  0.1260 -0.5718 -0.1931
  645TMC3    C1 9544   0.742   0.894   9.393 -0.5917 -0.1410  0.6464
  645TMC3    C2 9545   0.853   0.810   9.416 -0.0616  0.0930  0.4470
  645TMC3    C3 9546   0.831   0.675   9.395 -0.7727 -0.2469 -0.3782
  645TMC3    C4 9547   0.616   0.847   9.359 -0.5564 -0.1358  0.1697
  645TMC3    C5 9548   0.603   0.715   9.343  0.0723 -0.1957 -0.0611
  645TMC3    C6 9549   0.706   0.629   9.352 -0.1013  0.6675 -0.8004
  645TMC3     C 9550   0.771   1.034   9.400  0.6828 -0.1367  0.4924
  645TMC3     O 9551   0.890   1.063   9.382  0.0972 -0.1908 -0.3281
  645TMC3     H 9552   0.947   0.839   9.461 -0.4049  0.5431  0.8808
  645TMC3    H1 9553   0.533   0.914   9.342  0.2829  1.3857  2.0696
  645TMC3    H2 9554   0.686   0.524   9.337  0.6056  0.2612  1.1152
  645TMC3    C7 9555   0.471   0.660   9.361 -0.2515  0.7299  0.3379
  645TMC3    C8 9556   0.903   0.597   9.495 -0.4408  0.7867 -0.5204
  645TMC3    O1 9557   0.449   0.545   9.328 -0.2299  0.3886 -0.5191
  645TMC3    O2 9558   0.918   0.645   9.605 -0.3633  0.1601  0.7128
  646MPD2     C 9559   2.993   1.897  14.397 -0.2476 -0.0868  0.0629
  646MPD2    C1 9560   2.913   1.866  14.507 -0.2953  0.1758  0.1603
  646MPD2    C2 9561   2.788   1.910  14.518  0.7181 -0.3623  0.6032
  646MPD2    C3 9562   2.739   1.994  14.416 -0.6481 -0.6904  0.1640
  646MPD2    C4 9563   2.824   2.042  14.315 -0.6139 -0.2315 -0.4871
  646MPD2    C5 9564   2.947   1.983  14.301 -0.0573 -0.2391 -0.1416
  646MPD2     H 9565   2.731   1.877  14.604 -0.2885 -1.5083 -0.5248
  646MPD2    H1 9566   2.788   2.116  14.245 -0.8036  0.7868  0.6889
  646MPD2    H2 9567   3.082   1.837  14.383  0.5196  0.9519  0.4713
  646MPD2    H3 9568   3.006   2.006  14.213  0.9082  1.4633  0.9488
  646MPD2     N 9569   2.603   2.029  14.418  0.7364 -0.2662  0.2601
  646MPD2    H5 9570   2.549   2.023  14.503  0.2981 -1.3772 -0.1056
  646MPD2    N1 9571   2.980   1.791  14.603  0.3191 -0.3041  0.6316
  646MPD2    H7 9572   3.079   1.772  14.590  0.0072 -0.7667 -0.9884
  647TMC3    C1 9573   3.043   1.698  14.805  0.0217 -0.1897 -0.5684
  647TMC3    C2 9574   2.997   1.611  14.903  0.4392 -0.2317 -0.2984
  647TMC3    C3 9575   3.080   1.577  15.004 -0.1482 -0.3372  0.7233
  647TMC3    C4 9576   3.172   1.744  14.803 -0.5423 -0.8749 -0.1996
  647TMC3    C5 9577   3.258   1.701  14.905  0.6392  0.0716 -0.4268
  647TMC3    C6 9578   3.215   1.613  15.007  0.6238  0.0046 -0.0386
  647TMC3     C 9579   2.931   1.749  14.722 -0.3191  0.3955 -0.6048
  647TMC3     O 9580   2.816   1.759  14.765  0.4320  0.4241 -0.4940
  647TMC3     H 9581   2.892   1.585  14.896  0.8399 -1.3657 -2.3191
  647TMC3    H1 9582   3.202   1.817  14.728 -1.2121 -0.3167  0.0814
  647TMC3    H2 9583   3.286   1.573  15.078  0.8074  1.4281  0.5916
  647TMC3    C7 9584   3.402   1.698  14.885 -0.0285  0.0365 -0.5364
  647TMC3    C8 9585   3.061   1.445  15.072  0.1421  0.2847 -0.9340
  647TMC3    O1 9586   3.472   1.669  14.980 -0.2406  0.2136 -0.7056
  647TMC3    O2 9587   3.142   1.423  15.164 -0.1021  0.0269  0.4541
  648TMC3    C1 9588   2.332   4.240  15.775 -0.9246 -0.3571 -0.6340
  648TMC3    C2 9589   2.412   4.141  15.727  0.0578  0.1836  0.5010
  648TMC3    C3 9590   2.436   4.135  15.589  0.7395 -0.3625  0.0386
  648TMC3    C4 9591   2.266   4.324  15.691 -0.1693 -0.2533  0.5464
  648TMC3    C5 9592   2.295   4.317  15.554  0.7873 -0.3597  0.4810
  648TMC3    C6 9593   2.383   4.229  15.500 -0.3597 -0.2573 -0.3966
  648TMC3     C 9594   2.316   4.263  15.918  0.3605  0.3528  0.0520
  648TMC3     O 9595   2.271   4.370  15.953  0.1897  0.4884 -0.4544
  648TMC3     H 9596   2.459   4.068  15.793  0.1568 -0.1178  0.0985
  648TMC3    H1 9597   2.209   4.409  15.727 -1.7471 -0.1046 -2.3108
  648TMC3    H2 9598   2.408   4.213  15.396 -0.9366 -2.0303 -0.2573
  648TMC3    C7 9599   2.268   4.427  15.459  0.0779 -0.2259  0.0175
  648TMC3    C8 9600   2.505   4.022  15.533 -0.0800 -0.0235 -0.4083
  648TMC3    O1 9601   2.333   4.442  15.357  0.1482  0.1020  0.5786
  648TMC3    O2 9602   2.554   4.039  15.425 -0.5022  0.0693 -0.1268
  649TMC3    C1 9603   0.670   0.702  12.781  0.0345  0.5647  0.7261
  649TMC3    C2 9604   0.800   0.714  12.747 -0.0775  0.0294 -0.0827
  649TMC3    C3 9605   0.902   0.670  12.831  0.4746 -0.3748 -0.3441
  649TMC3    C4 9606   0.639   0.651  12.900 -0.1455  0.3138 -0.2198
  649TMC3    C5 9607   0.739   0.605  12.979 -0.1047  0.0639 -0.7202
  649TMC3    C6 9608   0.874   0.615  12.948 -0.7371  0.4368 -0.5508
  649TMC3     C 9609   0.584   0.804  12.726  0.4351 -0.0502  0.1572
  649TMC3     O 9610   0.511   0.852  12.812 -0.3941 -0.1483 -0.2098
  649TMC3     H 9611   0.825   0.744  12.646 -0.9732 -0.5362 -0.4662
  649TMC3    H1 9612   0.537   0.625  12.926  1.0639 -2.8644  1.3426
  649TMC3    H2 9613   0.944   0.573  13.020  2.8597  2.0279 -3.1290
  649TMC3    C7 9614   0.697   0.545  13.101  0.4573  0.7150  0.1663
  649TMC3    C8 9615   1.041   0.676  12.799 -0.6368  0.0421  0.3847
  649TMC3    O1 9616   0.582   0.560  13.140 -0.2587 -0.1078  0.3040
  649TMC3    O2 9617   1.124   0.632  12.879 -0.5138 -0.3989 -0.2476
  650TMC3    C1 9618   4.085   2.196  12.366 -0.2577  0.0478  0.6241
  650TMC3    C2 9619   4.119   2.315  12.421  0.1775  0.3990 -0.1453
  650TMC3    C3 9620   4.201   2.400  12.344  0.2615 -0.6230 -0.6220
  650TMC3    C4 9621   4.085   2.177  12.232  0.4439  0.3535 -0.1002
  650TMC3    C5 9622   4.142   2.273  12.151  0.5447 -0.1069 -0.0484
  650TMC3    C6 9623   4.211   2.378  12.206  0.1812 -0.4716  0.1307
  650TMC3     C 9624   4.014   2.102  12.455  0.0585 -0.2316  0.2656
  650TMC3     O 9625   3.978   2.157  12.558 -0.6984  0.4659 -0.6539
  650TMC3     H 9626   4.121   2.332  12.528 -0.9166  1.3776 -0.2898
  650TMC3    H1 9627   4.021   2.107  12.179  0.3561  0.1977  0.2145
  650TMC3    H2 9628   4.279   2.442  12.151 -0.2696 -1.9237 -2.1340
  650TMC3    C7 9629   4.055   2.314  12.044  0.3007 -0.4082  0.3443
  650TMC3    C8 9630   4.197   2.538  12.379  0.1274 -0.3256 -0.2628
  650TMC3    O1 9631   3.986   2.232  11.989  1.2536  0.9787  0.7757
  650TMC3    O2 9632   4.186   2.620  12.291 -0.0278 -0.2804  0.6948
  651MPD2     C 9633   3.038   3.669  10.919  0.6495  0.3486 -0.0626
  651MPD2    C1 9634   3.010   3.805  10.931  0.0843  0.5512  0.0529
  651MPD2    C2 9635   3.119   3.892  10.929 -0.3611  0.9289 -0.1353
  651MPD2    C3 9636   3.243   3.853  10.888  0.4641  0.2752  0.2920
  651MPD2    C4 9637   3.266   3.720  10.871 -0.9020 -0.7782 -0.1554
  651MPD2    C5 9638   3.165   3.624  10.893 -0.2810 -0.5311  0.3212
  651MPD2     H 9639   3.102   3.998  10.945 -2.1233  0.1782  2.9408
  651MPD2    H1 9640   3.362   3.676  10.848 -0.5310 -0.4905  0.8067
  651MPD2    H2 9641   2.958   3.595  10.918 -0.0476  1.0589  1.9063
  651MPD2    H3 9642   3.197   3.521  10.882 -0.4883 -0.8965  3.1391
  651MPD2     N 9643   3.345   3.946  10.875 -0.3035  0.2936 -0.0854
  651MPD2    H5 9644   3.313   4.042  10.881 -1.2705 -0.0145 -0.2052
  651MPD2    N1 9645   2.889   3.860  10.982  0.5556 -0.5349  0.7781
  651MPD2    H7 9646   2.895   3.956  11.013  0.3854 -0.0707 -0.6558
  652TMC3    C1 9647   3.694   4.164  10.654  0.5641 -0.9263 -0.1816
  652TMC3    C2 9648   3.632   4.044  10.684 -0.1226  0.0625 -0.3574
  652TMC3    C3 9649   3.527   4.055  10.770 -0.3496 -0.6404 -0.2844
  652TMC3    C4 9650   3.653   4.287  10.705 -0.1314 -0.3287 -0.1673
  652TMC3    C5 9651   3.555   4.291  10.798  0.1829  0.2969  0.2474
  652TMC3    C6 9652   3.484   4.177  10.827  0.4096  0.1139 -0.1068
  652TMC3     C 9653   3.800   4.165  10.560  0.6920  0.3813 -0.3083
  652TMC3     O 9654   3.802   4.264  10.491  0.3857 -0.1719  0.6962
  652TMC3     H 9655   3.666   3.946  10.653  1.0100  1.1035 -2.4822
  652TMC3    H1 9656   3.704   4.371  10.660  0.1604 -0.3658  0.0918
  652TMC3    H2 9657   3.414   4.188  10.908 -1.7689  1.3505 -2.1722
  652TMC3    C7 9658   3.537   4.408  10.878 -0.1625  0.4751  0.0086
  652TMC3    C8 9659   3.465   3.931  10.813 -0.0887  0.2679 -0.6301
  652TMC3    O1 9660   3.449   4.408  10.962 -0.6793 -0.3364  0.4944
  652TMC3    O2 9661   3.528   3.826  10.798  0.4994  0.6006  0.3304
  653MPD2     C 9662   1.262   4.290  17.501  0.9376  0.0600 -0.6605
  653MPD2    C1 9663   1.236   4.395  17.420 -0.0625  0.1795 -0.6268
  653MPD2    C2 9664   1.179   4.370  17.298 -0.2941  0.6826  0.0507
  653MPD2    C3 9665   1.170   4.236  17.246  0.0228 -0.2702  0.4178
  653MPD2    C4 9666   1.207   4.133  17.333 -0.0697  0.0100  0.2875
  653MPD2    C5 9667   1.260   4.164  17.457 -0.1052 -1.0151  0.1328
  653MPD2     H 9668   1.155   4.446  17.225 -2.4502 -1.4374 -1.4462
  653MPD2    H1 9669   1.204   4.027  17.312 -0.4061  0.6950 -3.1797
  653MPD2    H2 9670   1.306   4.302  17.600  1.3224  1.0518 -0.9583
  653MPD2    H3 9671   1.273   4.092  17.537  2.0383 -1.5226 -0.6873
  653MPD2     N 9672   1.121   4.211  17.114  0.3294  0.3607 -0.3881
  653MPD2    H5 9673   1.115   4.291  17.052  1.5468 -0.1897 -1.2151
  653MPD2    N1 9674   1.268   4.533  17.451  0.2177  0.2308  0.0912
  653MPD2    H7 9675   1.256   4.599  17.375 -0.9156  0.0875  0.1493
  654TMC3    C1 9676   1.060   4.101  16.928  0.1742 -0.1242  0.1082
  654TMC3    C2 9677   0.954   4.179  16.902 -0.2318  0.4811  0.1496
  654TMC3    C3 9678   0.898   4.170  16.785 -0.3394 -0.3291  0.0526
  654TMC3    C4 9679   1.121   4.029  16.832  0.4027  0.0201  0.8218
  654TMC3    C5 9680   1.055   4.008  16.712  0.5727 -0.4500 -0.4875
  654TMC3    C6 9681   0.937   4.077  16.689 -0.7232  0.8822 -0.3166
  654TMC3     C 9682   1.119   4.087  17.059 -0.5714  0.1279 -0.6243
  654TMC3     O 9683   1.140   3.974  17.106  0.3454  0.0814 -0.3533
  654TMC3     H 9684   0.904   4.239  16.977  1.8750  2.0814  0.2639
  654TMC3    H1 9685   1.206   3.971  16.867  1.8279  1.9691  0.5766
  654TMC3    H2 9686   0.889   4.085  16.592 -2.4067 -1.1937  0.3360
  654TMC3    C7 9687   1.123   3.954  16.601  0.1846  0.2666 -0.4736
  654TMC3    C8 9688   0.759   4.225  16.784  0.0342 -0.5008  0.2143
  654TMC3    O1 9689   1.066   3.966  16.494  0.2805 -0.2869  0.7852
  654TMC3    O2 9690   0.736   4.328  16.849  0.2457  0.5231 -0.8881
  655MPD2     C 9691   2.803   4.279  15.523 -0.0409  0.0254 -0.1493
  655MPD2    C1 9692   2.725   4.369  15.445  0.1820 -0.1855  0.4037
  655MPD2    C2 9693   2.702   4.348  15.310  0.7294 -0.1603 -0.8320
  655MPD2    C3 9694   2.766   4.238  15.253 -0.2920  0.0618  0.2960
  655MPD2    C4 9695   2.844   4.150  15.331 -0.4680  0.5923  0.3331
  655MPD2    C5 9696   2.865   4.171  15.465 -0.3963  0.4128  0.4951
  655MPD2     H 9697   2.629   4.405  15.253 -2.0003 -0.4183  2.4168
  655MPD2    H1 9698   2.897   4.068  15.283 -3.4613 -0.7750 -0.6109
  655MPD2    H2 9699   2.821   4.313  15.625  0.1649 -0.5221 -0.0013
  655MPD2    H3 9700   2.936   4.109  15.520 -1.7424  0.2670  2.0684
  655MPD2     N 9701   2.763   4.216  15.109 -0.4620  0.0517 -0.5824
  655MPD2    H5 9702   2.825   4.150  15.064 -1.0424 -0.2814 -0.8993
  655MPD2    N1 9703   2.660   4.479  15.497 -0.3852 -0.0890  0.1138
  655MPD2    H7 9704   2.624   4.552  15.437  1.4841  1.8106  1.3133
  656TMC3    C1 9705   2.589   4.638  15.658  0.3348  0.5463 -0.2246
  656TMC3    C2 9706   2.488   4.656  15.753 -0.3209  0.3691  0.4518
  656TMC3    C3 9707   2.411   0.040  15.750 -0.3225  0.4904 -0.0488
  656TMC3    C4 9708   2.596   4.723  15.555 -0.3826 -0.4388 -0.1885
  656TMC3    C5 9709   2.507   0.107  15.554 -0.3134 -0.7053  0.1661
  656TMC3    C6 9710   2.415   0.136  15.654  0.0311 -0.1341  0.0507
  656TMC3     C 9711   2.633   4.500  15.632 -0.0757  0.5049 -0.2457
  656TMC3     O 9712   2.655   4.427  15.723  0.0982  0.5248  0.6475
  656TMC3     H 9713   2.480   4.582  15.832 -0.6940 -1.5758 -1.4280
  656TMC3    H1 9714   2.662   4.701  15.472  1.5064 -1.4366  1.5930
  656TMC3    H2 9715   2.351   0.224  15.662  4.7661  3.4836 -1.9164
  656TMC3    C7 9716   2.521   0.203  15.440  0.4355 -0.0693 -0.8239
  656TMC3    C8 9717   2.280   0.022  15.808  0.1454  0.0067 -0.4747
  656TMC3    O1 9718   2.624   0.200  15.369 -0.4095  0.0891  0.0604
  656TMC3    O2 9719   2.227   4.634  15.801  0.3310 -0.6575 -0.1455
  657TMC3    C1 9720   1.706   3.862  14.823 -0.5923  0.7505 -0.1447
  657TMC3    C2 9721   1.747   3.827  14.948 -0.2334 -0.1532 -1.0053
  657TMC3    C3 9722   1.738   3.925  15.033 -0.2116 -0.6804 -0.4510
  657TMC3    C4 9723   1.651   3.980  14.788 -0.3425  0.7613 -0.8891
  657TMC3    C5 9724   1.644   4.076  14.890 -0.0757  0.1296  0.2556
  657TMC3    C6 9725   1.683   4.045  15.017  0.3400  0.6823 -0.4214
  657TMC3     C 9726   1.751   3.791  14.708 -0.2436 -1.1565  0.3136
  657TMC3     O 9727   1.696   3.819  14.603 -0.3115  0.0444  0.4042
  657TMC3     H 9728   1.780   3.727  14.973 -0.4139  0.2818  0.9195
  657TMC3    H1 9729   1.611   4.004  14.691  1.7522 -2.1200 -2.4545
  657TMC3    H2 9730   1.685   4.107  15.105 -0.1011  1.4035 -0.9149
  657TMC3    C7 9731   1.606   4.213  14.864  0.7459  0.1471  0.4604
  657TMC3    C8 9732   1.851   3.921  15.126 -0.5843 -0.6436  0.4553
  657TMC3    O1 9733   1.632   4.263  14.750  0.2343  0.1284  0.2038
  657TMC3    O2 9734   1.909   4.027  15.142 -0.1633 -0.3739  0.2952
  658MPD2     C 9735   3.126   4.234  14.501  0.0644  0.0635 -0.9148
  658MPD2    C1 9736   3.039   4.315  14.558  0.6094  0.4246 -0.2518
  658MPD2    C2 9737   3.029   4.448  14.521  0.0301 -0.0574  0.1545
  658MPD2    C3 9738   3.108   4.493  14.417  0.1557 -0.4249 -0.0398
  658MPD2    C4 9739   3.199   4.405  14.358  0.4200  0.2231  0.5126
  658MPD2    C5 9740   3.220   4.277  14.412 -0.5346  0.2175 -0.8485
  658MPD2     H 9741   2.952   4.513  14.560  0.0665 -1.1115  1.9868
  658MPD2    H1 9742   3.267   4.440  14.281 -0.8649  1.2698 -0.1274
  658MPD2    H2 9743   3.143   4.139  14.552  0.8791  0.3599 -0.6209
  658MPD2    H3 9744   3.292   4.210  14.367 -1.5704 -0.7509 -1.0641
  658MPD2     N 9745   3.080   4.622  14.373 -0.1962  0.1853 -1.2658
  658MPD2    H5 9746   3.013   4.678  14.426  0.9543 -1.1850  1.6526
  658MPD2    N1 9747   2.950   4.265  14.651 -0.0640  0.1283 -0.3321
  658MPD2    H7 9748   2.900   4.341  14.695  1.1919  0.1943  1.0040
  659TMC3    C1 9749   2.788   4.106  14.725  0.6613 -0.2074 -0.8457
  659TMC3    C2 9750   2.792   4.168  14.850 -0.1999  0.6496  0.3006
  659TMC3    C3 9751   2.671   4.213  14.899 -0.3524  0.2135 -0.1377
  659TMC3    C4 9752   2.666   4.097  14.657 -0.2678 -0.1632 -0.6696
  659TMC3    C5 9753   2.547   4.126  14.716 -0.0085  0.3621  0.5193
  659TMC3    C6 9754   2.547   4.192  14.841  0.3594 -0.2178 -0.0225
  659TMC3     C 9755   2.894   4.137  14.633  0.2202  0.2008 -0.0548
  659TMC3     O 9756   2.912   4.060  14.539 -0.1836  0.6191 -0.2986
  659TMC3     H 9757   2.889   4.187  14.894  0.6484 -1.5956 -0.6041
  659TMC3    H1 9758   2.665   4.082  14.550 -1.1604 -0.6557 -0.5955
  659TMC3    H2 9759   2.450   4.219  14.881  0.6353 -0.2476  0.6723
  659TMC3    C7 9760   2.419   4.113  14.650 -0.3550  0.7418  0.3666
  659TMC3    C8 9761   2.667   4.266  15.030  0.0827 -1.0699  0.1579
  659TMC3    O1 9762   2.324   4.175  14.686 -0.5817 -0.6162  0.6470
  659TMC3    O2 9763   2.574   4.340  15.052 -0.7983  0.1730  0.0771
  660MPD2     C 9764   1.019   2.586  12.045 -0.3053  1.0190  0.2313
  660MPD2    C1 9765   0.928   2.674  11.998  0.2146 -0.3062  0.3458
  660MPD2    C2 9766   0.823   2.718  12.077 -0.3382  0.5895 -0.7374
  660MPD2    C3 9767   0.794   2.653  12.193  0.2748  0.4648 -1.1292
  660MPD2    C4 9768   0.872   2.547  12.228 -0.8324  0.1770  0.1779
  660MPD2    C5 9769   0.992   2.520  12.162 -0.7208  0.3477 -0.1763
  660MPD2     H 9770   0.756   2.796  12.043  1.1498  2.1023 -0.2414
  660MPD2    H1 9771   0.840   2.489  12.314 -1.7726 -0.8352 -0.8652
  660MPD2    H2 9772   1.112   2.554  11.999  0.0919 -1.8224  3.0098
  660MPD2    H3 9773   1.059   2.437  12.184  0.0712  1.8394  2.9350
  660MPD2     N 9774   0.670   2.662  12.259  0.1112 -0.0649 -0.6115
  660MPD2    H5 9775   0.637   2.582  12.312 -0.8696  1.7317  1.5161
  660MPD2    N1 9776   0.927   2.731  11.875 -0.0952 -0.2437 -0.0149
  660MPD2    H7 9777   0.864   2.810  11.866 -0.1659 -0.3549 -0.4765
  661TMC3    C1 9778   1.002   2.807  11.671  0.5749 -0.0657  0.7441
  661TMC3    C2 9779   1.026   2.755  11.544 -0.6875  0.2294 -0.0353
  661TMC3    C3 9780   0.973   2.831  11.444  0.2894 -0.1105 -1.0414
  661TMC3    C4 9781   0.919   2.915  11.700 -0.1122  0.0594 -0.3556
  661TMC3    C5 9782   0.852   2.971  11.597  0.0744  0.7554  0.3376
  661TMC3    C6 9783   0.880   2.932  11.466  0.4158  0.3507 -0.0549
  661TMC3     C 9784   1.028   2.710  11.779 -0.3184 -0.2503  0.0975
  661TMC3     O 9785   1.120   2.630  11.762  0.0616 -0.3855 -0.7020
  661TMC3     H 9786   1.094   2.672  11.533 -2.0235 -0.7763 -0.7790
  661TMC3    H1 9787   0.912   2.940  11.805 -0.0734 -0.7229 -0.1709
  661TMC3    H2 9788   0.826   2.986  11.389 -0.7916  0.0372  0.5771
  661TMC3    C7 9789   0.779   3.097  11.615 -0.5979 -0.2899 -0.4240
  661TMC3    C8 9790   0.984   2.771  11.304 -0.3441 -0.7747 -0.2684
  661TMC3    O1 9791   0.792   3.155  11.722 -0.0015 -0.6362  0.2771
  661TMC3    O2 9792   1.014   2.649  11.301  0.6275  0.0985  0.2589
  662MPD2     C 9793   1.064   3.040  17.009 -0.3543 -0.8389 -0.0527
  662MPD2    C1 9794   0.973   2.972  17.095 -0.4421 -0.5088 -0.0364
  662MPD2    C2 9795   0.914   3.039  17.201  0.3088 -0.4634  0.1382
  662MPD2    C3 9796   0.944   3.174  17.226  0.7570  0.5256 -1.0494
  662MPD2    C4 9797   1.024   3.240  17.133 -0.1240  0.4810 -1.4438
  662MPD2    C5 9798   1.085   3.175  17.027 -0.2471 -0.2027 -0.1915
  662MPD2     H 9799   0.849   2.987  17.270  1.1319 -0.7433  0.7074
  662MPD2    H1 9800   1.047   3.345  17.143  1.0799 -0.0378  1.2123
  662MPD2    H2 9801   1.114   3.001  16.921  0.8590  1.1713 -0.2758
  662MPD2    H3 9802   1.160   3.224  16.967  0.8581 -1.5025  0.1267
  662MPD2     N 9803   0.883   3.233  17.335 -0.4337  0.2727 -0.1886
  662MPD2    H5 9804   0.828   3.172  17.395  0.1126 -0.1681 -0.1363
  662MPD2    N1 9805   0.953   2.835  17.089  0.2026  0.2627 -0.0014
  662MPD2    H7 9806   0.892   2.802  17.163  0.7310 -1.8327 -0.4812
  663TMC3    C1 9807   0.975   2.607  17.038  0.8331  0.0351  0.7804
  663TMC3    C2 9808   0.848   2.601  17.094 -0.1958 -0.4141 -1.0311
  663TMC3    C3 9809   0.799   2.510  17.192  0.0602 -0.0735 -0.6385
  663TMC3    C4 9810   1.070   2.524  17.087 -0.0293  0.3735  0.4236
  663TMC3    C5 9811   1.028   2.438  17.184  0.3359  0.0814 -0.3649
  663TMC3    C6 9812   0.904   2.432  17.237 -0.3352  0.2191 -0.4192
  663TMC3     C 9813   1.017   2.743  17.009 -0.1526  0.1994 -0.4343
  663TMC3     O 9814   1.091   2.768  16.918 -0.2524  0.0012 -0.1140
  663TMC3     H 9815   0.771   2.666  17.054 -0.3884  0.7931  1.2851
  663TMC3    H1 9816   1.173   2.510  17.058  0.1297  0.1163  1.1332
  663TMC3    H2 9817   0.896   2.368  17.324 -0.3041  1.9661  0.8706
  663TMC3    C7 9818   1.121   2.323  17.203  0.7120 -0.3101  0.5893
  663TMC3    C8 9819   0.749   2.600  17.295  0.1247  0.0778 -0.2823
  663TMC3    O1 9820   1.240   2.351  17.196  0.9255  0.3982 -0.4171
  663TMC3    O2 9821   0.751   2.717  17.262 -0.5860  0.3203 -0.8804
  664MPD2     C 9822   3.752   1.019  17.335  0.0759  0.8656 -0.0811
  664MPD2    C1 9823   3.792   1.138  17.389 -0.0938  0.1958  0.1700
  664MPD2    C2 9824   3.734   1.190  17.507  0.6909 -0.8087  0.0814
  664MPD2    C3 9825   3.631   1.113  17.568  0.2641  0.1535 -0.6587
  664MPD2    C4 9826   3.577   1.001  17.495 -0.0072 -0.9092  0.5233
  664MPD2    C5 9827   3.645   0.951  17.383 -0.1132 -0.7510 -0.1702
  664MPD2     H 9828   3.753   1.282  17.560 -1.2886 -0.4342  0.1388
  664MPD2    H1 9829   3.492   0.949  17.537 -2.1026  0.0716 -2.5416
  664MPD2    H2 9830   3.800   0.971  17.251 -1.0531 -2.5931  1.2773
  664MPD2    H3 9831   3.611   0.857  17.340  0.3578 -1.5265  1.1426
  664MPD2     N 9832   3.591   1.155  17.695 -0.6205 -0.9220 -0.4606
  664MPD2    H5 9833   3.638   1.234   0.041 -1.6653 -0.6492  0.2013
  664MPD2    N1 9834   3.892   1.214  17.329 -0.0606 -0.2548 -0.3076
  664MPD2    H7 9835   3.928   1.300  17.368 -1.1763  0.2302 -0.3509
  665TMC3    C1 9836   3.486   1.176   0.199  0.3376  0.0632 -0.9450
  665TMC3    C2 9837   3.436   1.114   0.312 -0.1490 -0.2756 -0.0501
  665TMC3    C3 9838   3.452   1.182   0.429  0.1390  0.5172  0.8321
  665TMC3    C4 9839   3.518   1.308   0.193  0.4489  0.3120 -0.2061
  665TMC3    C5 9840   3.521   1.374   0.315 -0.2002 -0.3890  1.3078
  665TMC3    C6 9841   3.480   1.316   0.427  0.1121  0.4252 -0.1319
  665TMC3     C 9842   3.511   1.083   0.088 -0.0930 -0.5603 -0.0862
  665TMC3     O 9843   3.471   0.964   0.087  0.0808  0.2516  0.3428
  665TMC3     H 9844   3.419   1.007   0.310  1.6688 -0.5893  1.4719
  665TMC3    H1 9845   3.554   1.353   0.101 -3.1493  3.9694  0.1941
  665TMC3    H2 9846   3.456   1.374   0.515 -0.3210 -1.1453  0.7822
  665TMC3    C7 9847   3.573   1.514   0.330 -0.0059  0.2293 -0.7288
  665TMC3    C8 9848   3.457   1.130   0.565 -0.1373  0.5535 -0.1086
  665TMC3    O1 9849   3.550   1.595   0.244  0.1301  0.4130  0.0788
  665TMC3    O2 9850   3.489   1.207   0.654  0.5927 -0.0215  0.3829
  666TMC3    C1 9851   2.906   0.696  10.229 -0.3437 -0.3509 -0.7846
  666TMC3    C2 9852   3.043   0.673  10.219 -0.8194  0.4553 -0.8665
  666TMC3    C3 9853   3.122   0.763  10.160  0.3987  0.1261  0.2312
  666TMC3    C4 9854   2.851   0.811  10.184 -0.6055  0.0528 -0.7525
  666TMC3    C5 9855   2.930   0.890  10.117  0.3909  0.3186 -0.0452
  666TMC3    C6 9856   3.068   0.881  10.107  0.2329  0.3103  0.0061
  666TMC3     C 9857   2.823   0.612  10.315 -0.3046 -0.0428  0.1671
  666TMC3     O 9858   2.732   0.675  10.366  0.2697 -0.3695  0.1625
  666TMC3     H 9859   3.084   0.576  10.244 -1.0393  0.1976 -1.5168
  666TMC3    H1 9860   2.751   0.835  10.216 -0.2159  0.3424  0.2509
  666TMC3    H2 9861   3.123   0.958  10.054  0.8924  0.6360  1.1533
  666TMC3    C7 9862   2.892   1.025  10.117  0.7416 -0.9996 -0.1474
  666TMC3    C8 9863   3.265   0.735  10.182  0.0991  0.2841  0.2640
  666TMC3    O1 9864   2.840   1.074  10.216  0.3233 -0.0295  0.2881
  666TMC3    O2 9865   3.298   0.629  10.237 -0.5149 -0.1479  0.4068
  667MPD2     C 9866   0.180   0.956  14.585 -0.4682  0.1223  0.3528
  667MPD2    C1 9867   0.064   1.022  14.634  0.3485 -0.3314  0.1347
  667MPD2    C2 9868   4.673   0.960  14.638  0.1544 -0.3975  0.0325
  667MPD2    C3 9869   4.660   0.831  14.588  0.4781  0.4317 -0.7700
  667MPD2    C4 9870   0.042   0.770  14.525  0.6145 -0.2525  0.2121
  667MPD2    C5 9871   0.165   0.830  14.528  0.3192  0.3338  0.3085
  667MPD2     H 9872   4.586   1.006  14.684 -0.4605 -2.6158  1.1174
  667MPD2    H1 9873   0.022   0.677  14.473 -0.5368  0.3888 -0.4863
  667MPD2    H2 9874   0.279   0.998  14.601 -0.1569 -0.7692  0.7938
  667MPD2    H3 9875   0.255   0.788  14.487  1.0620  0.8568  1.3996
  667MPD2     N 9876   4.539   0.755  14.584 -0.2153 -0.2771  0.2978
  667MPD2    H5 9877   4.558   0.656  14.586  0.5428 -0.1520 -0.9864
  667MPD2    N1 9878   0.068   1.145  14.698 -0.1397 -0.3190 -0.4831
  667MPD2    H7 9879   4.706   1.165  14.748 -1.2102 -2.5871 -1.4063
  668TMC3    C1 9880   0.151   1.325  14.821  0.3536  0.3204  0.0694
  668TMC3    C2 9881   0.216   1.444  14.801 -0.4338 -0.6999  0.1415
  668TMC3    C3 9882   0.228   1.518  14.917  0.8705 -0.0146 -0.0370
  668TMC3    C4 9883   0.103   1.284  14.942  0.4079  0.0282  0.3232
  668TMC3    C5 9884   0.124   1.360  15.051  1.0607  0.3678  0.7770
  668TMC3    C6 9885   0.195   1.481  15.038  0.4700  0.2602 -0.3162
  668TMC3     C 9886   0.174   1.231  14.711  0.1690  0.0044 -0.5960
  668TMC3     O 9887   0.276   1.233  14.641  0.0839  0.1793 -0.1680
  668TMC3     H 9888   0.250   1.477  14.704  1.3550  1.9415  1.6503
  668TMC3    H1 9889   0.069   1.181  14.950 -0.9372  0.7283  3.5301
  668TMC3    H2 9890   0.199   1.555  15.117 -0.4188 -2.0603  1.9097
  668TMC3    C7 9891   0.026   1.354  15.160  0.3415  0.4483  0.5982
  668TMC3    C8 9892   0.312   1.637  14.909 -1.0235  0.5036  0.5854
  668TMC3    O1 9893   0.036   1.411  15.267  0.3832  0.1627 -0.4737
  668TMC3    O2 9894   0.352   1.678  15.017  0.3435 -0.2393  0.4749
  669TMC3    C1 9895   2.694   1.002  14.050  0.0292 -0.8503  0.5902
  669TMC3    C2 9896   2.564   0.985  14.008  0.2836  0.1358  0.2479
  669TMC3    C3 9897   2.517   1.075  13.920  0.1901  0.5122  0.0292
  669TMC3    C4 9898   2.765   1.104  14.002 -0.2086 -0.2414 -0.1166
  669TMC3    C5 9899   2.718   1.187  13.907 -0.3499 -0.2530 -0.4622
  669TMC3    C6 9900   2.591   1.168  13.857  0.6186 -0.3968  0.0767
  669TMC3     C 9901   2.732   0.926  14.171 -0.3503 -0.2713  0.1633
  669TMC3     O 9902   2.638   0.864  14.223  0.2819 -0.0268  0.0277
  669TMC3     H 9903   2.498   0.921  14.066 -0.5128 -0.7618 -1.6444
  669TMC3    H1 9904   2.858   1.125  14.054 -0.2263  0.4872 -0.3834
  669TMC3    H2 9905   2.548   1.236  13.784  2.0728 -0.1927 -0.5746
  669TMC3    C7 9906   2.821   1.283  13.866 -0.4936 -0.0280 -0.8142
  669TMC3    C8 9907   2.375   1.078  13.923 -0.4573 -0.2175 -0.1835
  669TMC3    O1 9908   2.926   1.296  13.932  0.1423 -0.3377  0.2078
  669TMC3    O2 9909   2.310   0.975  13.939  0.1019  0.0559 -0.3390
  670MPD2     C 9910   1.229   3.760  13.510  0.1493 -0.2274 -0.2258
  670MPD2    C1 9911   1.302   3.754  13.631  0.0275 -0.5598  0.0541
  670MPD2    C2 9912   1.240   3.707  13.748  0.3073  0.7243  0.3782
  670MPD2    C3 9913   1.105   3.678  13.747  0.0112 -0.6026 -0.4706
  670MPD2    C4 9914   1.040   3.679  13.620  0.2011  0.1212  0.3274
  670MPD2    C5 9915   1.104   3.711  13.509 -0.2038 -0.3252 -0.2623
  670MPD2     H 9916   1.302   3.702  13.837  1.1989  2.0512 -0.1619
  670MPD2    H1 9917   0.932   3.665  13.615  0.2692  0.1206 -1.1060
  670MPD2    H2 9918   1.278   3.792  13.419  2.1949 -3.5709 -0.2890
  670MPD2    H3 9919   1.048   3.708  13.416 -1.7831  0.1496  0.6689
  670MPD2     N 9920   1.048   3.642  13.870  0.2432 -0.4663  0.1792
  670MPD2    H5 9921   1.101   3.667  13.953  2.6047  0.1339 -1.5001
  670MPD2    N1 9922   1.438   3.786  13.617 -0.1652  0.6735 -0.0888
  670MPD2    H7 9923   1.478   3.809  13.527  1.5451 -0.7766  0.3119
  671TMC3    C1 9924   0.894   3.539  14.017  0.1330 -0.7779  0.3893
  671TMC3    C2 9925   0.977   3.479  14.102  0.0247  0.9629 -0.2395
  671TMC3    C3 9926   0.917   3.366  14.169  0.8696  0.8963 -0.1823
  671TMC3    C4 9927   0.759   3.512  14.002  0.2863 -0.2509 -0.4742
  671TMC3    C5 9928   0.708   3.412  14.074  0.6341 -0.2576  0.0637
  671TMC3    C6 9929   0.785   3.336  14.156 -0.2854  0.3982  0.3114
  671TMC3     C 9930   0.946   3.558  13.888 -0.1824 -0.5013  0.0247
  671TMC3     O 9931   0.883   3.498  13.804 -0.5571 -0.6160 -0.1343
  671TMC3     H 9932   1.081   3.478  14.072 -0.2153  0.6388 -1.0856
  671TMC3    H1 9933   0.697   3.566  13.931  2.0411  2.0133 -0.2592
  671TMC3    H2 9934   0.743   3.255  14.215  1.1600  0.3223  1.2387
  671TMC3    C7 9935   0.615   3.332  13.994 -0.3082 -0.1049  0.1013
  671TMC3    C8 9936   0.998   3.244  14.188 -0.3532  0.8179  0.3384
  671TMC3    O1 9937   0.533   3.389  13.918 -0.2596 -0.5763  0.2931
  671TMC3    O2 9938   0.942   3.152  14.138 -0.4557 -0.4792  0.1877
  672MPD2     C 9939   0.900   4.237   1.225 -0.0773 -0.8087  0.0701
  672MPD2    C1 9940   1.018   4.172   1.201 -0.0843  0.2088  0.3918
  672MPD2    C2 9941   1.134   4.234   1.242 -0.9140  0.2891 -0.0187
  672MPD2    C3 9942   1.130   4.356   1.302  0.4944 -0.2657  0.1177
  672MPD2    C4 9943   1.014   4.417   1.334  0.1284  0.2167 -0.3626
  672MPD2    C5 9944   0.900   4.356   1.288 -0.9848  0.1408 -0.1825
  672MPD2     H 9945   1.227   4.187   1.214 -1.7295  0.1392 -2.5475
  672MPD2    H1 9946   1.014   4.512   1.385  0.3868 -0.4669  0.9119
  672MPD2    H2 9947   0.804   4.194   1.198 -0.9116 -0.1276  1.9419
  672MPD2    H3 9948   0.803   4.403   1.306 -0.5290  0.5171  1.3190
  672MPD2     N 9949   1.239   4.430   1.337  0.9995 -0.1301  0.1160
  672MPD2    H5 9950   1.219   4.527   1.359 -1.9946 -0.0294 -3.0035
  672MPD2    N1 9951   1.022   4.061   1.124  0.3546  0.3802 -0.0454
  672MPD2    H7 9952   1.113   4.021   1.101  0.5871 -0.4283  2.2591
  673TMC3    C1 9953   0.970   3.910   0.967  0.6192  0.6248 -0.4277
  673TMC3    C2 9954   1.035   3.812   1.039  0.0123 -0.5622 -0.2140
  673TMC3    C3 9955   1.111   3.732   0.959 -0.4989 -0.1757  0.5259
  673TMC3    C4 9956   0.975   3.928   0.832 -0.5937  0.0040 -1.0295
  673TMC3    C5 9957   1.052   3.837   0.761 -0.6154 -0.5355  0.1421
  673TMC3    C6 9958   1.115   3.740   0.823  0.8957 -0.5378 -0.1411
  673TMC3     C 9959   0.929   4.027   1.036 -0.1957 -0.6003  0.3176
  673TMC3     O 9960   0.827   4.087   0.995  0.1095  0.1132  0.1252
  673TMC3     H 9961   1.024   3.797   1.145 -1.9943 -0.3095 -0.3803
  673TMC3    H1 9962   0.914   4.010   0.794 -0.4683  0.6042  0.0766
  673TMC3    H2 9963   1.164   3.667   0.760  1.8414 -0.0316  0.0117
  673TMC3    C7 9964   1.091   3.871   0.629  0.0456  0.3492  0.9194
  673TMC3    C8 9965   1.154   3.612   1.024  0.0619  0.2245 -0.0368
  673TMC3    O1 9966   1.140   3.784   0.560  0.5639  0.2145 -0.1491
  673TMC3    O2 9967   1.065   3.535   1.059 -0.4388 -0.2973 -0.1995
  674MPD2     C 9968   1.001   3.912  17.477  0.7985  0.0844  0.1228
  674MPD2    C1 9969   1.044   3.850  17.582  0.1041 -0.2790 -0.1122
  674MPD2    C2 9970   0.989   3.875   0.006 -0.5306 -0.1549 -0.4909
  674MPD2    C3 9971   0.895   3.974   0.025  0.6549  0.3880 -0.2803
  674MPD2    C4 9972   0.852   4.038  17.610 -0.1930 -0.2885  0.6634
  674MPD2    C5 9973   0.907   4.006  17.491  0.1422 -0.2324  1.2928
  674MPD2     H 9974   1.030   3.825   0.093  0.6667 -1.3056 -1.7385
  674MPD2    H1 9975   0.782   4.121  17.605  0.6827  0.5104  1.8893
  674MPD2    H2 9976   1.061   3.911  17.386  0.9318  1.5694  0.1936
  674MPD2    H3 9977   0.879   4.054  17.398 -0.5486  0.1621  1.7008
  674MPD2     N 9978   0.839   4.005   0.155  0.2325  0.0982  0.5867
  674MPD2    H5 9979   0.856   3.949   0.237 -1.7416 -0.4614  0.6260
  674MPD2    N1 9980   1.141   3.748  17.563 -0.5744  0.3011 -0.5569
  674MPD2    H7 9981   1.151   3.708  17.470 -0.8590 -0.8205 -0.1042
  675TMC3    C1 9982   1.320   3.590  17.612  0.4770 -0.7666  0.5756
  675TMC3    C2 9983   1.277   3.488  17.531 -1.0153 -0.2639  1.2742
  675TMC3    C3 9984   1.357   3.380  17.506  0.0095  0.1679  0.2401
  675TMC3    C4 9985   1.436   3.572  17.679 -0.7715  1.1016 -0.2842
  675TMC3    C5 9986   1.519   3.464  17.656 -0.1446  0.4851 -0.5534
  675TMC3    C6 9987   1.477   3.365  17.570  0.1558  0.9641  0.2430
  675TMC3     C 9988   1.226   3.696  17.657 -0.2024 -0.4465  0.2214
  675TMC3     O 9989   1.247   3.739   0.075 -0.4193  0.4321 -0.7435
  675TMC3     H 9990   1.175   3.485  17.493  1.1065 -1.0369 -4.2497
  675TMC3    H1 9991   1.480   3.659   0.030  1.2058 -0.0703  0.0306
  675TMC3    H2 9992   1.540   3.286  17.531 -0.3230  0.4499  0.5004
  675TMC3    C7 9993   1.647   3.465   0.028  0.2872  0.3851  0.0777
  675TMC3    C8 9994   1.303   3.256  17.453  0.0586 -0.6277  0.4565
  675TMC3    O1 9995   1.669   3.564   0.096 -0.1210  0.5688  0.3264
  675TMC3    O2 9996   1.365   3.203  17.363 -0.2610  0.2082  0.4374
  676MPD2     C 9997   3.782   2.204  10.649 -0.1781 -0.7489  0.1183
  676MPD2    C1 9998   3.749   2.159  10.776  1.3667  0.0590 -0.2258
  676MPD2    C2 9999   3.742   2.023  10.800 -0.7090 -0.5865  0.7198
  676MPD2    C310000   3.770   1.934  10.699  0.2141 -0.2563  0.2084
  676MPD2    C410001   3.820   1.978  10.584 -0.5094  0.2034 -0.4728
  676MPD2    C510002   3.811   2.112  10.557  0.0134  0.1009 -0.9564
  676MPD2     H10003   3.700   1.988  10.893  0.1862 -3.3440  0.0856
  676MPD2    H110004   3.847   1.913  10.502 -0.7951 -1.1991  0.5483
  676MPD2    H210005   3.789   2.307  10.617  0.7723 -1.0438 -0.6045
  676MPD2    H310006   3.842   2.153  10.462  0.4018 -0.4498 -1.0656
  676MPD2     N10007   3.759   1.796  10.717 -0.7498 -0.2049 -0.3256
  676MPD2    H510008   3.808   1.733  10.655 -1.3498 -1.2494  0.2550
  676MPD2    N110009   3.716   2.243  10.888  0.1352 -0.1340 -0.1058
  676MPD2    H710010   3.692   2.205  10.979 -3.7972 -1.1641 -1.5765
  677TMC3    C110011   3.678   2.438  11.018  0.2186 -0.8435 -0.3322
  677TMC3    C210012   3.565   2.379  11.062  0.7108 -0.1625 -0.4005
  677TMC3    C310013   3.525   2.405  11.188  0.2572  0.3660 -0.1601
  677TMC3    C410014   3.750   2.533  11.090  0.0835 -0.1018 -0.5947
  677TMC3    C510015   3.691   2.579  11.208  0.3760 -0.0509 -0.0716
  677TMC3    C610016   3.578   2.515  11.253  0.0575  0.6356 -0.1771
  677TMC3     C10017   3.736   2.386  10.892  0.3067  0.0591 -0.5983
  677TMC3     O10018   3.804   2.453  10.815  0.0028 -0.1545  0.0060
  677TMC3     H10019   3.510   2.306  11.003  0.9140 -1.9068  1.5633
  677TMC3    H110020   3.853   2.553  11.065  0.6641 -1.2311  0.8783
  677TMC3    H210021   3.531   2.547  11.345 -1.0119 -0.3796 -0.3701
  677TMC3    C710022   3.773   2.644  11.313 -0.1721 -0.2413  0.3100
  677TMC3    C810023   3.390   2.369  11.226  0.3644  0.1038  0.3461
  677TMC3    O110024   3.730   2.659  11.426 -0.3188 -0.1669 -0.4164
  677TMC3    O210025   3.306   2.398  11.146  0.1153 -0.9400  0.0465
  678MPD2     C10026   0.022   1.913   1.514 -0.0858 -0.0262  0.1488
  678MPD2    C110027   4.724   1.892   1.379 -0.5480  0.0841 -0.0930
  678MPD2    C210028   4.594   1.908   1.323 -0.0426 -0.8839  0.2949
  678MPD2    C310029   4.493   1.953   1.399 -0.6346 -0.7057 -1.0877
  678MPD2    C410030   4.515   1.960   1.533  0.0960 -0.2584 -0.0091
  678MPD2    C510031   4.634   1.954   1.581  0.5693  0.2660 -0.1437
  678MPD2     H10032   4.578   1.891   1.217  1.5074  0.6071 -0.1801
  678MPD2    H110033   4.435   1.987   1.601 -0.0513 -1.9967  0.5012
  678MPD2    H210034   0.115   1.897   1.567 -0.2302  0.1623  0.4619
  678MPD2    H310035   4.641   1.962   1.689  0.3660 -2.0040  0.0458
  678MPD2     N10036   4.379   1.989   1.323 -0.5539 -0.3675  0.0415
  678MPD2    H510037   4.387   1.979   1.222 -0.1600  0.2066  0.0166
  678MPD2    N110038   0.105   1.845   1.292  0.2727  0.2295  0.1669
  678MPD2    H710039   0.090   1.856   1.192 -0.9284  0.1451  0.3440
  679TMC3    C110040   0.421   1.519   1.181  0.2426  0.2651 -0.7929
  679TMC3    C210041   0.320   1.564   1.265  0.2082  0.0989  0.2679
  679TMC3    C310042   0.271   1.682   1.233  0.3334 -0.0889  0.0119
  679TMC3    C410043   0.476   1.592   1.083  0.2059 -0.9291  0.4311
  679TMC3    C510044   0.423   1.713   1.064  0.7414 -0.8574  0.4462
  679TMC3    C610045   0.320   1.766   1.135  0.0196 -0.0107 -0.3923
  679TMC3     C10046   0.499   1.407   1.223  0.5150 -0.1619 -0.2513
  679TMC3     O10047   0.591   1.371   1.148  0.0739  0.4520  0.3635
  679TMC3     H10048   0.260   1.507   1.336  0.2475  0.6652  0.7536
  679TMC3    H110049   0.558   1.545   1.030 -1.7394 -1.6062 -2.0101
  679TMC3    H210050   0.285   1.867   1.117  1.6468  0.5286 -0.5251
  679TMC3    C710051   0.452   1.779   0.939  0.1833 -0.0898  0.3415
  679TMC3    C810052   0.193   1.749   1.338 -0.8158 -0.4449  0.4785
  679TMC3    O110053   0.408   1.895   0.929  0.3164  0.4848 -1.1090
  679TMC3    O210054   0.174   1.685   1.442 -0.4685 -0.4555  0.6121
  680MPD2     C10055   0.338   1.089  13.623  0.4370  0.3618 -0.1548
  680MPD2    C110056   0.436   1.019  13.684  0.0461 -0.5758 -0.2261
  680MPD2    C210057   0.554   1.084  13.699  0.2294  0.4456 -0.6141
  680MPD2    C310058   0.572   1.212  13.659 -0.2822  0.1565 -0.8237
  680MPD2    C410059   0.465   1.285  13.606 -0.4974 -0.1932  0.3753
  680MPD2    C510060   0.352   1.220  13.583  0.2434  0.1251 -0.4145
  680MPD2     H10061   0.638   1.025  13.735 -0.4792  0.9612  1.9223
  680MPD2    H110062   0.471   1.389  13.579 -1.4570 -0.4334 -0.7471
  680MPD2    H210063   0.244   1.042  13.598  0.4375  0.7106 -0.8102
  680MPD2    H310064   0.271   1.268  13.530  0.7640  1.5045  0.0369
  680MPD2     N10065   0.704   1.261  13.659  0.1492 -0.2833 -0.6596
  680MPD2    H510066   0.717   1.356  13.625 -1.2436 -0.1123 -0.7090
  680MPD2    N110067   0.422   0.883  13.731  0.3888 -0.4523  0.2085
  680MPD2    H710068   0.510   0.846  13.766  1.3250  0.3689 -1.2554
  681TMC3    C110069   0.337   0.691  13.807 -0.4452  0.1343 -0.4853
  681TMC3    C210070   0.396   0.731  13.927 -0.0534  0.0739 -0.7313
  681TMC3    C310071   0.497   0.656  13.986 -0.4980  0.3868 -0.2540
  681TMC3    C410072   0.388   0.583  13.737  0.0434  0.3565  0.2177
  681TMC3    C510073   0.490   0.511  13.804  1.1853  0.1897 -0.2580
  681TMC3    C610074   0.535   0.540  13.928  0.1672  0.3822  0.8194
  681TMC3     C10075   0.312   0.809  13.725  0.1965  0.1587  0.0187
  681TMC3     O10076   0.196   0.837  13.698  0.4253  0.3940  0.5372
  681TMC3     H10077   0.363   0.822  13.976 -0.6904  0.7391 -2.4275
  681TMC3    H110078   0.346   0.554  13.641 -1.7041  0.6078  0.9051
  681TMC3    H210079   0.599   0.476  13.988  1.5092  2.0849  1.2238
  681TMC3    C710080   0.585   0.418  13.736  0.4964 -0.2666  0.0452
  681TMC3    C810081   0.493   0.666  14.130  0.2533 -0.1201  0.0623
  681TMC3    O110082   0.667   0.359  13.801  0.5160 -0.6354 -0.5126
  681TMC3    O210083   0.382   0.682  14.175 -0.3544  0.2831  0.1852
  682MPD2     C10084   2.892   2.225  10.541 -0.0703  0.3131  0.5250
  682MPD2    C110085   2.758   2.193  10.570  1.1182  0.1590  0.5046
  682MPD2    C210086   2.713   2.224  10.698 -0.0065  0.0520 -0.1293
  682MPD2    C310087   2.799   2.295  10.788  0.0145  0.4734 -0.1203
  682MPD2    C410088   2.930   2.317  10.753  0.0362  0.4048  0.5069
  682MPD2    C510089   2.974   2.292  10.628 -0.0106  0.1565 -0.4105
  682MPD2     H10090   2.618   2.183  10.731  0.7312 -0.5114  1.3056
  682MPD2    H110091   2.991   2.383  10.813  0.2658  2.0468 -1.5346
  682MPD2    H210092   2.935   2.181  10.452 -1.2220 -0.9742  0.6017
  682MPD2    H310093   3.080   2.311  10.612 -0.2977  1.4766 -0.7567
  682MPD2     N10094   2.754   2.340  10.921  0.2038 -0.0843 -0.1978
  682MPD2    H510095   2.830   2.375  10.978  0.6698 -3.0906  1.0233
  682MPD2    N110096   2.679   2.114  10.487  0.5944 -0.0384 -0.5741
  682MPD2    H710097   2.590   2.084  10.526  0.3782  2.3307  0.8239
  683TMC3    C110098   2.705   2.492  11.292 -0.0909  0.4663  0.2456
  683TMC3    C210099   2.586   2.481  11.354 -0.6731 -0.3604 -0.0239
  683TMC3    C310100   2.483   2.406  11.293  0.0621  0.5045  0.5073
  683TMC3    C410101   2.717   2.460  11.154  0.1608  0.6049  1.2026
  683TMC3    C510102   2.609   2.404  11.093 -0.3186 -0.2626 -0.5678
  683TMC3    C610103   2.492   2.376  11.164 -0.2679  0.3378 -0.2564
  683TMC3     C10104   2.812   2.552  11.371  0.6115 -0.4810  0.0376
  683TMC3     O10105   2.786   2.599  11.483  0.1601  0.0465  0.1518
  683TMC3     H10106   2.582   2.506  11.459  0.5799  0.3603 -0.1435
  683TMC3    H110107   2.810   2.483  11.103 -0.1580 -0.0572  0.3240
  683TMC3    H210108   2.411   2.321  11.118  0.6086 -0.6435 -0.6188
  683TMC3    C710109   2.627   2.332  10.971  0.0190 -0.0284 -0.3496
  683TMC3    C810110   2.369   2.379  11.372  0.3764 -0.5746  0.4144
  683TMC3    O110111   2.525   2.294  10.911  0.4568 -0.4148 -0.0125
  683TMC3    O210112   2.361   2.443  11.479  0.1830 -0.1363  0.5403
  684MPD2     C10113   0.839   1.866  16.273 -0.0435  0.8284 -0.4425
  684MPD2    C110114   0.945   1.867  16.180  0.6759 -0.0655 -0.0477
  684MPD2    C210115   1.026   1.980  16.164 -0.1442 -0.4043 -0.2865
  684MPD2    C310116   0.995   2.088  16.238 -0.3705 -0.1977  0.0064
  684MPD2    C410117   0.902   2.083  16.335 -0.1474  0.1876  0.6803
  684MPD2    C510118   0.822   1.975  16.351 -0.0288 -0.3220  0.8358
  684MPD2     H10119   1.106   1.984  16.091 -0.1595 -2.1019 -0.4008
  684MPD2    H110120   0.882   2.162  16.407  1.7161  1.3309 -0.0430
  684MPD2    H210121   0.777   1.777  16.281  1.1391  0.0127 -0.3750
  684MPD2    H310122   0.750   1.982  16.431 -1.0089 -1.6231  0.0609
  684MPD2     N10123   1.078   2.205  16.216  0.4120 -0.4253 -0.2229
  684MPD2    H510124   1.076   2.277  16.288  0.1058 -1.7975  1.1614
  684MPD2    N110125   0.974   1.745  16.113  0.6711 -0.0284  0.2565
  684MPD2    H710126   1.055   1.747  16.053  0.6091  0.2123  0.1832
  685TMC3    C110127   0.993   1.511  16.074 -0.4074  0.2392 -0.5126
  685TMC3    C210128   0.926   1.418  16.003  0.0011  0.3058 -0.0222
  685TMC3    C310129   0.997   1.335  15.921 -0.4914 -0.3707  0.5960
  685TMC3    C410130   1.126   1.533  16.055 -0.0114 -0.2968 -0.4871
  685TMC3    C510131   1.191   1.455  15.967 -0.3528 -0.0919  0.4709
  685TMC3    C610132   1.131   1.359  15.891 -0.2555  0.3836 -0.0892
  685TMC3     C10133   0.915   1.618  16.124 -0.2362  0.8950  0.2842
  685TMC3     O10134   0.802   1.591  16.157  0.0881 -0.2319 -0.4101
  685TMC3     H10135   0.819   1.406  16.017  0.2062  0.9098  2.0736
  685TMC3    H110136   1.180   1.614  16.103 -0.3036 -0.9113  0.8611
  685TMC3    H210137   1.189   1.287  15.835 -1.0591  0.1716 -0.6468
  685TMC3    C710138   1.327   1.428  16.007  0.2797  0.5385 -0.3753
  685TMC3    C810139   0.915   1.242  15.834  0.4428 -0.2096  0.2499
  685TMC3    O110140   1.350   1.408  16.125 -0.4304 -0.2589 -0.0527
  685TMC3    O210141   0.979   1.169  15.759  0.3483  0.3130 -0.3719
  686MPD2     C10142   2.917   1.575  15.705 -0.2773  0.0809 -0.1236
  686MPD2    C110143   2.832   1.466  15.720 -0.0700 -0.8380 -0.2396
  686MPD2    C210144   2.882   1.345  15.666  0.6627  0.0777  0.1590
  686MPD2    C310145   3.007   1.333  15.610 -0.2742 -0.5546  0.4041
  686MPD2    C410146   3.086   1.448  15.604  0.2542 -0.8980  0.3072
  686MPD2    C510147   3.043   1.564  15.652 -0.9420  0.1732  1.4726
  686MPD2     H10148   2.817   1.258  15.675 -0.8115  1.0993 -0.4710
  686MPD2    H110149   3.178   1.451  15.547 -1.3051  0.9148 -2.0524
  686MPD2    H210150   2.887   1.675  15.737 -1.6068 -0.0607 -0.9295
  686MPD2    H310151   3.098   1.657  15.643 -0.5944 -0.0853  0.9254
  686MPD2     N10152   3.042   1.212  15.557  0.3068 -0.1175 -0.4205
  686MPD2    H510153   2.973   1.138  15.556 -0.4849  0.5884  0.9655
  686MPD2    N110154   2.700   1.479  15.769  0.2045  0.0354  0.2730
  686MPD2    H710155   2.646   1.565  15.767 -0.7236 -0.5841 -1.0776
  687TMC3    C110156   3.166   1.019  15.603  0.5659 -1.1889 -0.1010
  687TMC3    C210157   3.048   0.957  15.582  0.0914  0.7889 -0.1864
  687TMC3    C310158   2.997   0.890  15.686 -1.4627 -0.2208 -0.5413
  687TMC3    C410159   3.247   1.009  15.710  0.4383 -0.5457 -0.1464
  687TMC3    C510160   3.192   0.946  15.817  1.1088  0.1029  0.2098
  687TMC3    C610161   3.066   0.894  15.810  0.5365  0.4973 -0.2644
  687TMC3     C10162   3.169   1.161  15.565  0.2408  0.1073  0.1173
  687TMC3     O10163   3.262   1.230  15.601 -0.1996 -0.1404 -0.0959
  687TMC3     H10164   3.010   0.958  15.480  1.5036 -0.2000 -0.7166
  687TMC3    H110165   3.331   1.074  15.732 -0.4548  0.1146  1.3649
  687TMC3    H210166   3.024   0.856  15.903 -0.7254 -1.9319 -1.8291
  687TMC3    C710167   3.186   1.052  15.918 -0.0226  0.4128  0.6739
  687TMC3    C810168   2.854   0.878  15.706 -0.4058 -0.1088 -0.1829
  687TMC3    O110169   3.076   1.100  15.938 -0.1410 -0.2587  0.0057
  687TMC3    O210170   2.822   0.820  15.812 -0.2320 -0.4780 -0.4379
  688MPD2     C10171   1.662   0.323  17.094  0.2249 -0.4533 -0.2599
  688MPD2    C110172   1.674   0.187  17.128  0.4382  0.5847  0.3994
  688MPD2    C210173   1.746   0.108  17.044 -0.3136  0.1420  0.1894
  688MPD2    C310174   1.806   0.162  16.929 -0.2203 -0.5224 -0.8896
  688MPD2    C410175   1.795   0.297  16.907  0.0225  0.4088  0.7919
  688MPD2    C510176   1.735   0.378  17.000 -0.1936 -0.5548  0.7209
  688MPD2     H10177   1.743   0.004  17.074  1.1115 -0.1704 -0.7690
  688MPD2    H110178   1.828   0.356  16.822  2.2079 -1.2568  0.5085
  688MPD2    H210179   1.611   0.405  17.143  0.1329 -0.7923  0.2152
  688MPD2    H310180   1.727   0.483  16.978  2.0502 -0.2551  1.3700
  688MPD2     N10181   1.878   0.095  16.830 -0.1795  0.3365 -0.4075
  688MPD2    H510182   1.908   0.157  16.756 -1.2261  0.4950 -0.6877
  688MPD2    N110183   1.620   0.137  17.245  0.5328 -1.0366 -0.2010
  688MPD2    H710184   1.635   0.038  17.261 -0.7252 -1.5549 -2.1122
  689TMC3    C110185   1.519   0.145  17.456 -0.1121  0.3818  0.4427
  689TMC3    C210186   1.527   0.215  17.574  0.8109  0.1009 -0.1453
  689TMC3    C310187   1.467   0.161  17.686 -0.2751 -0.4280 -0.8121
  689TMC3    C410188   1.453   0.023  17.447  0.5604  0.1799 -0.0859
  689TMC3    C510189   1.390   4.703  17.560  0.4772 -0.1005 -0.2448
  689TMC3    C610190   1.400   0.048  17.681  0.6025 -0.1193  0.4899
  689TMC3     C10191   1.570   0.213  17.342  0.3999 -0.5100 -0.5027
  689TMC3     O10192   1.555   0.336  17.348 -0.1716  0.0070  0.2214
  689TMC3     H10193   1.582   0.308  17.576  2.6918 -1.0434  2.3272
  689TMC3    H110194   1.438   4.694  17.353  1.1112  0.4783 -0.3425
  689TMC3    H210195   1.357   0.005   0.075  0.4218  1.2292  1.0422
  689TMC3    C710196   1.320   4.575  17.571 -0.4546 -0.1640  0.1433
  689TMC3    C810197   1.430   0.256   0.098  0.4392  0.0883 -0.3347
  689TMC3    O110198   1.306   4.522  17.681 -0.5045  0.5393  0.0266
  689TMC3    O210199   1.392   0.202   0.201 -0.2235  0.1639 -0.3099
  690MPD2     C10200   3.752   2.279  15.499  0.1012  0.1296 -0.7274
  690MPD2    C110201   3.833   2.170  15.526 -0.0491 -0.5486  0.2173
  690MPD2    C210202   3.948   2.160  15.449  0.1372  0.0221  0.7596
  690MPD2    C310203   3.978   2.250  15.348  0.2122 -0.3064 -0.3656
  690MPD2    C410204   3.894   2.355  15.320  0.4134 -0.1448  0.5085
  690MPD2    C510205   3.784   2.370  15.398 -0.0810 -0.2629  0.3558
  690MPD2     H10206   4.011   2.073  15.458  0.5660  0.4499  1.8717
  690MPD2    H110207   3.931   2.421  15.242 -1.8503  3.3254  2.4355
  690MPD2    H210208   3.661   2.303  15.552  0.9188 -0.1464  0.8083
  690MPD2    H310209   3.724   2.459  15.388 -1.7898 -1.6645 -1.7877
  690MPD2     N10210   4.098   2.229  15.278 -0.2161 -0.0271 -0.8191
  690MPD2    H510211   4.164   2.162  15.317  1.4101  1.4823 -0.9717
  690MPD2    N110212   3.810   2.075  15.626  0.3114 -0.0460 -0.1258
  690MPD2    H710213   3.881   2.004  15.641  2.1614  1.3802 -2.1416
  691TMC3    C110214   3.662   1.956  15.778  0.0648 -0.1244 -0.1490
  691TMC3    C210215   3.532   1.947  15.818  0.0422  0.3400 -0.4204
  691TMC3    C310216   3.474   1.830  15.838  1.2015  0.0384 -0.8503
  691TMC3    C410217   3.738   1.843  15.757  0.0105  0.0144  0.7862
  691TMC3    C510218   3.678   1.723  15.784  0.6245 -0.2957  0.7053
  691TMC3    C610219   3.543   1.714  15.817  0.0784 -0.6981 -0.1875
  691TMC3     C10220   3.695   2.072  15.701  0.4353  0.1806 -0.4717
  691TMC3     O10221   3.607   2.155  15.708  0.1707  0.7815  0.3800
  691TMC3     H10222   3.477   2.040  15.830  2.5801  2.0980 -2.4168
  691TMC3    H110223   3.840   1.863  15.727  0.2109 -0.8327  0.9113
  691TMC3    H210224   3.490   1.622  15.841  1.0502 -0.4386  3.0246
  691TMC3    C710225   3.752   1.602  15.768  0.5844  0.3485 -0.2622
  691TMC3    C810226   3.333   1.823  15.863 -0.7623 -0.3740 -0.1362
  691TMC3    O110227   3.875   1.606  15.792 -0.8735 -0.1055  0.1889
  691TMC3    O210228   3.287   1.723  15.921 -0.4273  0.4973 -0.1553
  692TMC3    C110229   0.795   3.392  15.742  0.6541  0.2691 -0.4459
  692TMC3    C210230   0.903   3.415  15.827  0.3740  0.4672 -0.0393
  692TMC3    C310231   1.032   3.377  15.794 -0.4992 -0.3387 -0.2637
  692TMC3    C410232   0.800   3.308  15.637 -0.8626  0.2120 -0.1465
  692TMC3    C510233   0.916   3.236  15.628 -0.1262  0.2362 -0.1696
  692TMC3    C610234   1.032   3.268  15.703 -0.0548  0.5506  0.0435
  692TMC3     C10235   0.674   3.467  15.762 -0.0406  0.1643  0.2715
  692TMC3     O10236   0.573   3.407  15.733  0.0564 -0.0203 -0.1704
  692TMC3     H10237   0.888   3.489  15.905 -1.9282  0.9196 -0.8955
  692TMC3    H110238   0.717   3.272  15.576 -2.6873  1.5226  1.5631
  692TMC3    H210239   1.123   3.220  15.669 -1.4294 -1.0963 -1.3003
  692TMC3    C710240   0.905   3.100  15.565 -0.0537 -0.4863  0.0440
  692TMC3    C810241   1.116   3.355  15.904 -0.2210 -0.3904 -0.1933
  692TMC3    O110242   0.811   3.066  15.495 -0.1223 -0.3783 -0.0576
  692TMC3    O210243   1.180   3.251  15.901  0.2443  0.2724 -0.4528
  693MPD2     C10244   0.714   0.859  10.949 -0.2774 -0.4563  0.1142
  693MPD2    C110245   0.639   0.761  10.891  0.2976 -0.0003 -0.0982
  693MPD2    C210246   0.706   0.660  10.830 -0.1831  0.1178 -0.5850
  693MPD2    C310247   0.844   0.645  10.838  0.1585  0.7458  0.4607
  693MPD2    C410248   0.916   0.752  10.878 -0.4085 -0.1941 -0.0588
  693MPD2    C510249   0.849   0.863  10.920 -0.3818  0.4747 -1.0913
  693MPD2     H10250   0.652   0.572  10.797 -2.3961 -0.1736  3.8436
  693MPD2    H110251   1.024   0.753  10.882 -0.4709 -2.7765  2.1211
  693MPD2    H210252   0.667   0.946  10.992  0.7152  0.5998 -0.9521
  693MPD2    H310253   0.902   0.949  10.960 -2.1629  1.4528 -0.8161
  693MPD2     N10254   0.914   0.529  10.790  0.3343 -0.0533  0.0444
  693MPD2    H510255   1.016   0.531  10.785  0.3308 -1.0426 -0.5639
  693MPD2    N110256   0.503   0.781  10.897  0.1773  0.4767 -0.0012
  693MPD2    H710257   0.481   0.867  10.946  0.5425 -0.3869  1.6878
  694TMC3    C110258   0.273   0.739  10.863  0.1949  0.4246 -0.2223
  694TMC3    C210259   0.180   0.673  10.797 -0.2830  0.6346 -0.2640
  694TMC3    C310260   0.048   0.682  10.837  0.8315  0.7468 -0.8411
  694TMC3    C410261   0.243   0.804  10.981 -0.1697  0.3726 -0.1777
  694TMC3    C510262   0.111   0.810  11.021  0.2340  0.0638 -0.0089
  694TMC3    C610263   0.017   0.747  10.948 -0.4477 -0.0084  0.0590
  694TMC3     C10264   0.411   0.713  10.820  0.0742 -0.3736  0.4789
  694TMC3     O10265   0.432   0.617  10.748 -0.2183  0.1505  0.6597
  694TMC3     H10266   0.216   0.620  10.710  1.5060  2.2480 -0.5311
  694TMC3    H110267   0.318   0.861  11.036  1.6398 -2.5116  0.3645
  694TMC3    H210268   4.636   0.774  10.958 -0.8969 -0.6491 -2.7424
  694TMC3    C710269   0.086   0.902  11.131  0.2709 -0.2969  1.2165
  694TMC3    C810270   4.672   0.588  10.794  1.1328  0.4781  0.8802
  694TMC3    O110271   0.186   0.958  11.183  0.9958 -0.3237  0.2526
  694TMC3    O210272   4.580   0.557  10.865 -0.3069 -0.3787 -0.0138
  695MPD2     C10273   1.161   2.669  13.292  0.3203  0.2408 -0.6750
  695MPD2    C110274   1.147   2.763  13.395  0.3104  0.1412  0.1160
  695MPD2    C210275   1.049   2.857  13.386 -0.3508  0.1036 -0.0905
  695MPD2    C310276   0.971   2.870  13.274 -0.3589  0.3947  0.2572
  695MPD2    C410277   0.993   2.784  13.169 -0.0415  0.2858  0.3788
  695MPD2    C510278   1.085   2.682  13.179  0.1558  0.3330 -0.2531
  695MPD2     H10279   1.028   2.920  13.472 -0.5108  0.4566 -0.3926
  695MPD2    H110280   0.936   2.788  13.078 -0.4666  2.1170  0.7218
  695MPD2    H210281   1.224   2.581  13.291  0.1514  0.1095  0.6287
  695MPD2    H310282   1.100   2.613  13.097 -2.5062  0.1444 -0.5804
  695MPD2     N10283   0.868   2.965  13.281 -0.0714 -0.4502 -0.2163
  695MPD2    H510284   0.846   3.015  13.367  0.5857 -0.5519  0.0112
  695MPD2    N110285   1.213   2.755  13.519 -0.5996 -0.0975 -0.2068
  695MPD2    H710286   1.175   2.807  13.598 -0.3127  0.9866 -0.7923
  696TMC3    C110287   0.677   3.094  13.219 -0.1862 -0.2734  0.2278
  696TMC3    C210288   0.603   3.059  13.330 -0.4330  0.4350  0.1034
  696TMC3    C310289   0.511   3.152  13.392 -0.2239  0.5242 -0.2142
  696TMC3    C410290   0.677   3.222  13.165  0.8778  0.0712 -0.0333
  696TMC3    C510291   0.604   3.316  13.237 -0.0058  0.2866 -0.8129
  696TMC3    C610292   0.528   3.285  13.348 -0.5277 -0.2874 -0.4580
  696TMC3     C10293   0.781   3.001  13.179 -0.5990  0.0726 -0.5922
  696TMC3     O10294   0.784   2.980  13.062 -0.5870  0.4471 -0.2635
  696TMC3     H10295   0.602   2.954  13.354 -2.1268  0.6847  1.1201
  696TMC3    H110296   0.746   3.240  13.083  0.0825  3.9664  0.1590
  696TMC3    H210297   0.470   3.370  13.382  1.1952 -0.1445  2.1975
  696TMC3    C710298   0.659   3.446  13.219  0.2577  0.5224 -0.3380
  696TMC3    C810299   0.456   3.135  13.535 -0.2186  0.5198 -0.3473
  696TMC3    O110300   0.699   3.466  13.104  0.2279 -0.8209  0.2762
  696TMC3    O210301   0.406   3.232  13.589  0.1311 -0.5841  0.3690
  697MPD2     C10302   0.336   0.184  15.683 -0.4765  0.0180  0.6254
  697MPD2    C110303   0.370   0.125  15.564  0.0674 -0.4725  0.6089
  697MPD2    C210304   0.396   0.213  15.461 -0.3145 -0.4275 -0.4430
  697MPD2    C310305   0.370   0.344  15.467 -0.5365  0.5231 -0.0945
  697MPD2    C410306   0.324   0.401  15.580  0.0310 -0.1611  0.4759
  697MPD2    C510307   0.315   0.316  15.689 -0.4255  0.3692 -0.0541
  697MPD2     H10308   0.421   0.173  15.364 -1.5345 -0.7537 -0.6191
  697MPD2    H110309   0.292   0.505  15.589 -1.0207 -0.4802  0.4135
  697MPD2    H210310   0.333   0.139  15.782  0.0174  0.6860  0.9521
  697MPD2    H310311   0.294   0.355  15.788  2.9927  1.6157  0.1632
  697MPD2     N10312   0.379   0.420  15.350  0.2680 -0.9279 -0.2811
  697MPD2    H510313   0.423   0.377  15.269  2.2647  2.4879 -1.0544
  697MPD2    N110314   0.380   4.709  15.541  0.0850  0.0871 -0.2808
  697MPD2    H710315   0.400   4.678  15.446  1.3476  2.3049 -0.7437
  698TMC3    C110316   0.404   0.622  15.216 -0.0500  0.6748 -0.1590
  698TMC3    C210317   0.460   0.745  15.228  0.0009 -0.4908  0.0315
  698TMC3    C310318   0.556   0.792  15.142  0.2152 -0.6610 -0.0258
  698TMC3    C410319   0.447   0.543  15.116 -0.4476  0.3001 -0.3262
  698TMC3    C510320   0.544   0.589  15.030 -0.0279 -0.2280  0.4011
  698TMC3    C610321   0.594   0.715  15.035  0.2420  0.1012  0.5337
  698TMC3     C10322   0.358   0.561  15.337  0.3089 -1.1993 -0.9850
  698TMC3     O10323   0.337   0.638  15.425  0.0008 -0.1839 -0.4716
  698TMC3     H10324   0.423   0.812  15.305 -1.0805 -0.2330 -0.7250
  698TMC3    H110325   0.388   0.452  15.107  1.2189 -1.0368  2.0600
  698TMC3    H210326   0.643   0.757  14.949  2.2703 -2.4695  0.4216
  698TMC3    C710327   0.558   0.518  14.905 -0.2893  0.5515 -0.2091
  698TMC3    C810328   0.667   0.867  15.209 -0.3258 -0.4496  0.1350
  698TMC3    O110329   0.457   0.467  14.868 -0.2864 -0.0586  0.0190
  698TMC3    O210330   0.668   0.851  15.329  0.0260 -0.2410  0.4237
  699TMC3    C110331   0.492   2.763  12.367  0.1387 -0.1563 -0.0064
  699TMC3    C210332   0.524   2.690  12.486 -0.3489 -0.4184 -0.3688
  699TMC3    C310333   0.431   2.690  12.583 -0.0407 -0.1933 -0.1651
  699TMC3    C410334   0.376   2.832  12.347 -0.3115 -0.1823  0.0317
  699TMC3    C510335   0.281   2.832  12.447 -0.1198  0.1089 -0.4274
  699TMC3    C610336   0.314   2.762  12.561  0.4010  0.1383  0.0619
  699TMC3     C10337   0.599   2.779  12.262 -0.4123  0.0666  0.0288
  699TMC3     O10338   0.599   2.875  12.190  0.0605 -0.4147  0.0714
  699TMC3     H10339   0.628   2.667  12.508 -0.2821  0.5748  0.3540
  699TMC3    H110340   0.362   2.883  12.253  0.0772 -0.4343 -0.1652
  699TMC3    H210341   0.247   2.761  12.646 -0.3574 -0.8465 -0.5415
  699TMC3    C710342   0.155   2.900  12.432  0.9187  0.1044  0.1671
  699TMC3    C810343   0.440   2.613  12.705  0.2365  0.5177  0.2305
  699TMC3    O110344   0.116   2.940  12.323 -0.8397 -0.0916 -0.0824
  699TMC3    O210345   0.345   2.545  12.746 -0.0200  0.4184  0.1773
  700TMC3    C110346   4.043   0.656  17.174 -0.2409  0.3044 -0.0955
  700TMC3    C210347   4.076   0.524  17.201 -0.2244 -0.3980 -0.0660
  700TMC3    C310348   4.156   0.494  17.308  0.1936  0.1652  0.3384
  700TMC3    C410349   4.099   0.755  17.243  0.3016  0.0693  0.5743
  700TMC3    C510350   4.186   0.719  17.345  0.0200 -0.3063 -0.1499
  700TMC3    C610351   4.215   0.592  17.380  0.5689  0.2094 -0.0346
  700TMC3     C10352   4.019   0.680  17.033 -0.0275  0.1359  0.6878
  700TMC3     O10353   3.934   0.612  16.983  0.2953 -0.3020  0.2192
  700TMC3     H10354   4.031   0.456  17.129  1.4303 -3.0823  1.4239
  700TMC3    H110355   4.079   0.859  17.219 -1.0203 -0.1181  0.8819
  700TMC3    H210356   4.270   0.575  17.472  0.1890  0.4977  0.2411
  700TMC3    C710357   4.275   0.821  17.384 -0.1403 -0.1289  0.2450
  700TMC3    C810358   4.215   0.365  17.308  0.0835  0.7071 -0.1149
  700TMC3    O110359   4.389   0.779  17.397  0.4656  0.1669  0.1851
  700TMC3    O210360   4.333   0.359  17.344 -0.0649 -0.2255  0.8503
  701TMC3    C110361   4.599   3.908  15.206  0.7884 -0.0609 -0.0542
  701TMC3    C210362   4.589   3.889  15.072  0.0155 -0.0041  0.2711
  701TMC3    C310363   4.661   3.973  14.990 -0.3491 -0.0263  0.0369
  701TMC3    C410364   4.678   3.995  15.266  0.2513 -0.4143  0.8345
  701TMC3    C510365   0.021   4.082  15.177 -0.8773 -0.2859 -0.4693
  701TMC3    C610366   0.022   4.068  15.041  0.0670 -0.2069 -0.0637
  701TMC3     C10367   4.522   3.822  15.291 -0.1493 -0.2644  0.6867
  701TMC3     O10368   4.467   3.880  15.381 -0.4924 -0.3469 -0.2037
  701TMC3     H10369   4.513   3.824  15.031  0.7176 -1.3919  1.1535
  701TMC3    H110370   4.666   4.002  15.373  1.5231 -1.0189  1.0237
  701TMC3    H210371   0.058   4.149  14.978 -1.6649 -0.4145 -1.2951
  701TMC3    C710372   0.075   4.200  15.225  0.1408 -0.9542  0.2654
  701TMC3    C810373   4.675   3.944  14.846 -0.0538  0.0524  0.7628
  701TMC3    O110374   0.122   4.284  15.148  0.1240  0.6929 -0.7269
  701TMC3    O210375   0.054   3.984  14.797  0.2055  0.2458  0.4393
  702MPD2     C10376   4.311   1.396  10.671 -0.6335  0.4536  0.2822
  702MPD2    C110377   4.190   1.415  10.617 -0.1643 -0.0154  0.0256
  702MPD2    C210378   4.176   1.436  10.483  0.0744  0.0144  0.1036
  702MPD2    C310379   4.280   1.432  10.397 -0.1569  0.9463  0.4218
  702MPD2    C410380   4.405   1.400  10.447 -0.0562 -0.9376  0.0208
  702MPD2    C510381   4.418   1.377  10.582  0.5317  0.2579  0.8686
  702MPD2     H10382   4.078   1.444  10.438  0.1204 -0.2991 -0.0450
  702MPD2    H110383   4.480   1.370  10.376 -0.6921 -2.7576  0.1253
  702MPD2    H210384   4.338   1.360  10.769  2.2374  2.0582  0.1011
  702MPD2    H310385   4.511   1.341  10.622 -0.1375 -2.1288  0.2649
  702MPD2     N10386   4.278   1.458  10.265 -0.0495  0.2505  1.2474
  702MPD2    H510387   4.371   1.466  10.225 -1.2766  1.3659 -1.4126
  702MPD2    N110388   4.074   1.431  10.696 -0.3090 -0.2636 -0.6513
  702MPD2    H710389   3.991   1.468  10.652  0.9373  1.6585 -1.3701
  703TMC3    C110390   4.200   1.486  10.041  0.3303  0.0143  0.4919
  703TMC3    C210391   4.086   1.465   9.962  0.2274  0.0774  0.7698
  703TMC3    C310392   4.071   1.548   9.853  0.3919 -0.4092  0.2706
  703TMC3    C410393   4.294   1.578  10.003  0.6820  0.1679 -0.4684
  703TMC3    C510394   4.275   1.642   9.887 -0.1811  0.4855 -0.0226
  703TMC3    C610395   4.168   1.629   9.808  0.2862  0.4852  0.1389
  703TMC3     C10396   4.166   1.475  10.185  0.1264 -0.5035  0.1433
  703TMC3     O10397   4.049   1.454  10.213 -0.0606  1.2377 -0.0190
  703TMC3     H10398   4.008   1.393   9.984  2.2742 -2.8216 -1.5388
  703TMC3    H110399   4.374   1.605  10.071  0.1688  1.9610 -0.5734
  703TMC3    H210400   4.150   1.695   9.724  2.5175 -1.0835 -1.5799
  703TMC3    C710401   4.379   1.735   9.830 -0.1532  0.2927  0.8917
  703TMC3    C810402   3.941   1.593   9.813 -1.0398 -0.5864 -0.2842
  703TMC3    O110403   4.341   1.809   9.744 -0.2352 -0.1503  0.3652
  703TMC3    O210404   3.923   1.646   9.705  0.4371  0.4818  0.3960
  704TMC3    C110405   1.875   4.623  12.470 -0.0505  0.1047  0.3139
  704TMC3    C210406   1.992   4.688  12.465 -0.9024  0.8638  0.6051
  704TMC3    C310407   2.096   4.639  12.531  0.1238 -0.8926 -0.2995
  704TMC3    C410408   1.845   4.524  12.552  0.2192  0.4606  0.0597
  704TMC3    C510409   1.951   4.472  12.622 -0.3672 -0.2602 -0.1641
  704TMC3    C610410   2.084   4.521  12.604  0.0012  0.1504  0.2417
  704TMC3     C10411   1.812   4.606  12.337  0.0359 -0.9065 -0.0120
  704TMC3     O10412   1.692   4.602  12.337 -0.0103  0.0643 -0.5709
  704TMC3     H10413   2.008   0.049  12.400 -3.8799  1.7064  0.9723
  704TMC3    H110414   1.764   4.456  12.530  1.4780 -1.4300  1.2603
  704TMC3    H210415   2.169   4.463  12.640  0.1690  1.4510  1.9829
  704TMC3    C710416   1.942   4.339  12.682  0.1395 -0.2729  0.1761
  704TMC3    C810417   2.210   4.631  12.436 -0.1274 -0.4612  0.3246
  704TMC3    O110418   2.036   4.257  12.685  0.3814 -0.5127 -0.6609
  704TMC3    O210419   2.173   4.623  12.318 -0.2780 -0.5623 -0.0433
  705MPD2     C10420   1.538   2.873  16.575 -0.5398 -0.0583 -0.5107
  705MPD2    C110421   1.462   2.949  16.489 -0.4121 -0.0551 -0.5324
  705MPD2    C210422   1.331   2.971  16.517  0.4715 -0.7244  0.3904
  705MPD2    C310423   1.279   2.909  16.632 -0.0296 -0.0103  0.7707
  705MPD2    C410424   1.353   2.836  16.719  0.9869 -0.1065 -0.0011
  705MPD2    C510425   1.481   2.813  16.688 -0.1425 -0.2973 -0.2050
  705MPD2     H10426   1.278   3.031  16.445  1.4055  0.3148  0.5548
  705MPD2    H110427   1.306   2.794  16.807  0.9026 -2.8070 -1.3393
  705MPD2    H210428   1.643   2.856  16.557 -0.7024 -3.5830  1.9129
  705MPD2    H310429   1.539   2.760  16.762  0.0888  0.8916  0.4606
  705MPD2     N10430   1.144   2.933  16.678 -0.3470 -0.3917 -0.0956
  705MPD2    H510431   1.113   2.875  16.755  2.1144 -1.5908 -0.0172
  705MPD2    N110432   1.517   2.999  16.368 -0.0260 -0.4777 -0.4342
  705MPD2    H710433   1.451   3.015  16.292  2.2572 -1.6444 -2.6603
  706TMC3    C110434   1.744   2.950  16.002 -0.1513 -0.0949  0.1403
  706TMC3    C210435   1.663   3.035  15.921 -0.2022 -0.3194  0.9784
  706TMC3    C310436   1.597   3.127  15.985 -0.0156  0.3083  0.6609
  706TMC3    C410437   1.747   2.949  16.136  0.2988  0.2788  0.3290
  706TMC3    C510438   1.664   3.034  16.196  0.0906  0.2475 -0.1902
  706TMC3    C610439   1.584   3.118  16.123 -0.4167 -0.5158  0.7979
  706TMC3     C10440   1.820   2.848  15.937  0.3349  0.3257  0.1582
  706TMC3     O10441   1.904   2.790  16.010  0.4780  0.3470  0.3788
  706TMC3     H10442   1.670   3.055  15.815  0.8990 -0.5423  1.0058
  706TMC3    H110443   1.808   2.876  16.188  0.9238  1.1484  0.8079
  706TMC3    H210444   1.535   3.197  16.178 -0.4093 -0.2478  0.4181
  706TMC3    C710445   1.650   3.011  16.335  0.2177  0.9163 -0.2871
  706TMC3    C810446   1.565   3.251  15.925  0.0515  0.2420  0.2315
  706TMC3    O110447   1.750   2.962  16.386  0.5013 -0.5505  0.0437
  706TMC3    O210448   1.529   3.260  15.812 -0.1179 -0.3606 -0.2640
  707TMC3    C110449   2.901   2.026   1.401 -0.6332 -0.4637  0.0690
  707TMC3    C210450   2.989   1.999   1.505  0.4284 -0.4828  0.0060
  707TMC3    C310451   2.921   1.967   1.621 -0.4667 -0.6982  0.2499
  707TMC3    C410452   2.765   2.041   1.411 -0.2077  0.2863 -0.5105
  707TMC3    C510453   2.714   2.020   1.539  0.1603 -0.4855 -0.1853
  707TMC3    C610454   2.787   1.979   1.643  0.2769  0.3310  0.3780
  707TMC3     C10455   2.964   2.011   1.270  1.0142  0.6783 -0.1530
  707TMC3     O10456   3.075   1.960   1.264  0.6160  0.0531 -0.4148
  707TMC3     H10457   3.096   1.993   1.495  0.5117  0.7915  0.0784
  707TMC3    H110458   2.704   2.047   1.321  1.1383  0.0015 -1.4488
  707TMC3    H210459   2.754   1.949   1.742  0.5429  1.9002  0.9594
  707TMC3    C710460   2.572   2.034   1.556 -0.1138 -0.0727  0.0469
  707TMC3    C810461   2.991   1.879   1.713  0.4513 -0.1129 -0.1658
  707TMC3    O110462   2.527   1.975   1.652 -0.1234 -0.0107  0.2202
  707TMC3    O210463   2.940   1.869   1.824  0.5196 -0.5357 -0.1579
  708MPD2     C10464   4.206   0.981  13.306 -0.3017 -0.7650 -0.5447
  708MPD2    C110465   4.110   1.020  13.398  0.4820 -0.5554  0.5515
  708MPD2    C210466   4.121   0.974  13.531 -0.4736 -0.5634  0.1512
  708MPD2    C310467   4.232   0.902  13.569  0.0444  0.0410 -1.0115
  708MPD2    C410468   4.331   0.872  13.479 -0.5549 -0.1198  1.0328
  708MPD2    C510469   4.318   0.916  13.353  0.1703  0.1064  0.2051
  708MPD2     H10470   4.038   0.992  13.598 -1.0496 -0.2084 -0.6622
  708MPD2    H110471   4.419   0.817  13.510 -1.7860 -2.7812 -0.1881
  708MPD2    H210472   4.218   1.020  13.205  1.8455  1.1465  0.4470
  708MPD2    H310473   4.401   0.906  13.284 -1.7422 -0.2581 -2.0496
  708MPD2     N10474   4.245   0.847  13.697  0.8575  0.1787  0.1948
  708MPD2    H510475   4.317   0.781  13.725  2.6519  2.1818  0.3607
  708MPD2    N110476   4.003   1.110  13.373 -0.1015  0.7465  0.0926
  708MPD2    H710477   3.937   1.133  13.446  0.6961  0.3230  0.9632
  709TMC3    C110478   3.870   1.274  13.280 -0.1569 -0.4439  0.5039
  709TMC3    C210479   3.767   1.240  13.198 -0.1241  0.4719  0.6219
  709TMC3    C310480   3.641   1.265  13.251  0.3192 -0.1368  0.9070
  709TMC3    C410481   3.853   1.313  13.409  0.1889  0.4577  0.5987
  709TMC3    C510482   3.726   1.316  13.462 -0.0585 -1.0648 -0.9808
  709TMC3    C610483   3.617   1.296  13.381 -0.0584 -0.5327 -0.3555
  709TMC3     C10484   3.984   1.185  13.262  0.0547  0.1548  0.2875
  709TMC3     O10485   4.038   1.188  13.155 -0.0687  0.2230  0.3450
  709TMC3     H10486   3.797   1.203  13.101 -0.2258  3.7278 -0.6556
  709TMC3    H110487   3.937   1.360  13.460  1.9283 -0.8845 -1.0602
  709TMC3    H210488   3.513   1.289  13.411  0.0403 -0.1176  0.0796
  709TMC3    C710489   3.743   1.230  13.582  0.1015 -0.5480  0.2298
  709TMC3    C810490   3.519   1.245  13.167 -0.4619  0.0172  0.7500
  709TMC3    O110491   3.854   1.177  13.592  0.0439  0.0128 -0.0989
  709TMC3    O210492   3.407   1.253  13.225 -0.1539 -0.2240  0.3582
  710TMC3    C110493   0.132   2.325   0.328 -0.0586 -0.3392 -0.0419
  710TMC3    C210494   0.225   2.372   0.243  0.3158  0.0081  0.0017
  710TMC3    C310495   0.348   2.313   0.230 -0.2461  0.3770  0.1046
  710TMC3    C410496   0.154   2.214   0.401 -0.5962  0.5346 -0.6196
  710TMC3    C510497   0.267   2.139   0.370 -0.2196 -0.7923 -0.6286
  710TMC3    C610498   0.365   2.186   0.282 -0.3261  0.3306 -0.1558
  710TMC3     C10499   0.023   2.427   0.348  0.1966  0.2151 -0.1403
  710TMC3     O10500   0.013   2.515   0.262 -0.7571  0.3072  0.0381
  710TMC3     H10501   0.205   2.462   0.185  0.5619  0.0250 -0.0604
  710TMC3    H110502   0.091   2.174   0.480  0.6217 -3.5633 -1.7100
  710TMC3    H210503   0.459   2.134   0.266 -0.4962  0.2421 -0.8497
  710TMC3    C710504   0.307   2.032   0.463 -1.1774  0.0498 -0.3582
  710TMC3    C810505   0.431   2.356   0.120 -0.4772 -0.3806 -0.4712
  710TMC3    O110506   0.262   2.045   0.578  0.3608 -0.1148  0.3840
  710TMC3    O210507   0.490   2.278   0.049  0.2811 -0.4464  0.0559
  711TMC3    C110508   0.264   3.749  14.746 -0.5979  0.0096  0.0480
  711TMC3    C210509   0.266   3.779  14.878 -0.0359  0.3104 -0.0984
  711TMC3    C310510   0.378   3.840  14.929 -0.1306 -0.2641 -0.2512
  711TMC3    C410511   0.374   3.773  14.673  0.0725 -0.3608  0.5226
  711TMC3    C510512   0.499   3.805  14.725 -0.2364 -0.2854  0.1770
  711TMC3    C610513   0.494   3.861  14.855 -0.7341 -0.3713 -0.0186
  711TMC3     C10514   0.189   3.629  14.704 -0.3732  0.2089 -0.1354
  711TMC3     O10515   0.214   3.573  14.599 -0.4547 -0.0301 -0.2473
  711TMC3     H10516   0.186   3.759  14.948  0.5502  0.0900  0.5119
  711TMC3    H110517   0.368   3.734  14.572  2.9972  0.0410  0.1841
  711TMC3    H210518   0.583   3.917  14.883 -0.1236  0.7182 -4.0296
  711TMC3    C710519   0.587   3.686  14.734  0.4692 -0.1947  0.1485
  711TMC3    C810520   0.388   3.846  15.071  0.1325  0.2342 -0.0120
  711TMC3    O110521   0.668   3.681  14.824  0.2490  0.3002 -0.2238
  711TMC3    O210522   0.287   3.845  15.144  0.3016 -0.4422 -0.3100
  712MPD2     C10523   1.645   4.244  13.332  0.4546  0.1338 -0.1317
  712MPD2    C110524   1.534   4.314  13.302  0.3505  0.1971 -0.3302
  712MPD2    C210525   1.548   4.456  13.325 -0.6996 -0.6482 -0.2976
  712MPD2    C310526   1.657   4.519  13.385 -0.3413  0.0959  0.1606
  712MPD2    C410527   1.769   4.439  13.403  0.4265 -0.9405 -0.0529
  712MPD2    C510528   1.766   4.308  13.362  0.1021 -0.4823 -0.1399
  712MPD2     H10529   1.459   4.516  13.311  0.4712  1.1089 -0.2973
  712MPD2    H110530   1.857   4.464  13.461 -0.5298  0.1215  0.9430
  712MPD2    H210531   1.646   4.138  13.310 -0.0221  0.6636 -2.6980
  712MPD2    H310532   1.854   4.246  13.369 -0.9288 -2.0560 -1.0956
  712MPD2     N10533   1.658   4.650  13.431  1.0796  0.8540  0.1556
  712MPD2    H510534   1.748   4.695  13.446  2.0614 -1.1036  0.0782
  712MPD2    N110535   1.411   4.253  13.257  0.0238  0.7581  0.3895
  712MPD2    H710536   1.405   4.152  13.259 -1.4585  0.8268 -1.5996
  713TMC3    C110537   1.562   0.143  13.432 -0.3818 -0.0715 -0.7179
  713TMC3    C210538   1.678   0.189  13.385 -0.3298  0.1579  0.5170
  713TMC3    C310539   1.689   0.326  13.365 -0.2424  0.5928  0.1150
  713TMC3    C410540   1.451   0.222  13.455 -0.1587 -0.6608 -0.3952
  713TMC3    C510541   1.460   0.354  13.430  0.0749 -0.4494  0.2743
  713TMC3    C610542   1.583   0.406  13.392 -0.3401  0.2877  0.6658
  713TMC3     C10543   1.543   0.004  13.426  0.3899  0.4089 -0.5755
  713TMC3     O10544   1.428   4.690  13.441  0.4021  0.2536  0.3864
  713TMC3     H10545   1.755   0.127  13.341 -1.6438 -1.5549  0.6620
  713TMC3    H110546   1.367   0.176  13.507 -1.0280  1.9347  0.4833
  713TMC3    H210547   1.595   0.514  13.385 -0.3369  0.2437 -0.0354
  713TMC3    C710548   1.360   0.446  13.482  0.0052 -0.2257  0.1847
  713TMC3    C810549   1.811   0.391  13.331 -0.0968 -0.2116 -0.1359
  713TMC3    O110550   1.338   0.556  13.435 -0.0653 -0.4726  0.0347
  713TMC3    O210551   1.808   0.505  13.283 -0.0825 -0.2621 -0.1072
  714MPD2     C10552   3.589   3.368   1.409  0.2000 -0.0365 -0.9907
  714MPD2    C110553   3.636   3.267   1.330  0.4916 -0.3040 -0.0400
  714MPD2    C210554   3.667   3.300   1.199  0.5691 -0.0344 -0.5516
  714MPD2    C310555   3.653   3.433   1.151  0.1364  0.0626 -0.3140
  714MPD2    C410556   3.612   3.529   1.237 -0.8505  0.4842 -0.2935
  714MPD2    C510557   3.585   3.497   1.368  0.2469  0.6003 -0.5644
  714MPD2     H10558   3.684   3.217   1.131  1.7926  0.1714 -0.4998
  714MPD2    H110559   3.597   3.631   1.204 -0.9380 -0.0865 -1.9895
  714MPD2    H210560   3.575   3.369   1.516 -0.3176  1.2330 -1.0671
  714MPD2    H310561   3.557   3.581   1.430 -1.5969  0.8487 -1.7323
  714MPD2     N10562   3.688   3.463   1.021  0.0989 -0.0458  0.4800
  714MPD2    H510563   3.685   3.388   0.954  2.5089  1.8314 -1.7362
  714MPD2    N110564   3.646   3.139   1.383  0.4901 -0.2743  0.7018
  714MPD2    H710565   3.596   3.113   1.467  0.8760 -2.1973  0.3507
  715TMC3    C110566   3.734   2.912   1.394 -0.5074  0.3471  0.1273
  715TMC3    C210567   3.812   2.821   1.324 -0.3480 -0.1900 -0.3195
  715TMC3    C310568   3.897   2.740   1.389 -0.1599  0.4306 -0.1237
  715TMC3    C410569   3.750   2.912   1.531  0.9493 -0.6838 -0.2440
  715TMC3    C510570   3.837   2.831   1.595 -0.4848  0.0320  0.6144
  715TMC3    C610571   3.911   2.743   1.522 -0.3117  0.5797  0.2955
  715TMC3     C10572   3.714   3.035   1.318  0.3225 -1.0065  0.3990
  715TMC3     O10573   3.783   3.036   1.215 -0.3548 -0.0285 -0.1150
  715TMC3     H10574   3.819   2.813   1.216 -0.0541 -1.0153 -0.2405
  715TMC3    H110575   3.695   2.982   1.593 -1.6162 -1.2890 -1.8593
  715TMC3    H210576   3.983   2.677   1.570 -1.4268 -1.6051 -1.0210
  715TMC3    C710577   3.897   2.859   1.720 -0.3317  0.1877  0.4604
  715TMC3    C810578   3.969   2.644   1.310  0.5661  0.0251  0.1684
  715TMC3    O110579   4.016   2.846   1.726  0.1589  0.5747  0.8148
  715TMC3    O210580   3.946   2.648   1.186 -0.2391 -0.2909 -0.2600
  716MPD2     C10581   3.164   1.590  10.153  0.2018 -0.0832 -0.5544
  716MPD2    C110582   3.150   1.620  10.014  0.8654  0.2420  0.3614
  716MPD2    C210583   3.163   1.513   9.926 -0.3506 -0.1539 -0.4211
  716MPD2    C310584   3.211   1.390   9.960 -0.0964  0.2535 -0.2306
  716MPD2    C410585   3.224   1.367  10.100 -0.2353 -0.1707  0.1619
  716MPD2    C510586   3.203   1.465  10.191  0.1761  0.0757  0.3209
  716MPD2     H10587   3.166   1.535   9.820 -0.1202  0.9481 -0.1831
  716MPD2    H110588   3.254   1.274  10.145 -1.0735 -0.4218  0.2123
  716MPD2    H210589   3.151   1.655  10.239 -2.6079 -1.4614  0.0867
  716MPD2    H310590   3.220   1.440  10.295 -1.2449  0.0439  0.5486
  716MPD2     N10591   3.240   1.302   9.851  0.2076  0.2948  0.6478
  716MPD2    H510592   3.239   1.335   9.755 -0.2701 -1.7050 -0.0346
  716MPD2    N110593   3.109   1.746   9.971  0.7964  0.2938 -0.5631
  716MPD2    H710594   3.088   1.820  10.038  0.8635  0.3044 -0.5538
  717TMC3    C110595   3.317   1.108   9.750 -0.3969  0.4797 -0.3195
  717TMC3    C210596   3.231   1.116   9.642 -0.3202 -0.2167  0.2179
  717TMC3    C310597   3.232   1.027   9.541  0.9015  0.0025 -0.7350
  717TMC3    C410598   3.411   1.005   9.755 -0.6296  0.1448  0.2121
  717TMC3    C510599   3.408   0.915   9.649 -0.3469  0.2206  0.6038
  717TMC3    C610600   3.320   0.917   9.545 -0.5883  0.0876 -0.1308
  717TMC3     C10601   3.275   1.170   9.872  0.0418 -0.6328  0.2067
  717TMC3     O10602   3.286   1.110   9.977  0.3021  0.5613 -0.5133
  717TMC3     H10603   3.157   1.194   9.643  0.8956  0.9203  2.3831
  717TMC3    H110604   3.460   0.984   9.849 -0.6364  0.8615  0.3823
  717TMC3    H210605   3.307   0.833   9.478  0.7852  2.1823 -3.0096
  717TMC3    C710606   3.524   0.825   9.624 -0.1810  0.3501 -0.9963
  717TMC3    C810607   3.104   1.010   9.469 -0.2844 -0.3800  0.0731
  717TMC3    O110608   3.541   0.791   9.507 -0.2902 -0.1853  0.1632
  717TMC3    O210609   3.005   1.038   9.539  0.3196 -0.1393 -0.6523
  718MPD2     C10610   3.270   4.719  13.205  0.2553 -0.2469  0.4091
  718MPD2    C110611   3.278   4.676  13.076  0.3918 -0.3635 -0.3503
  718MPD2    C210612   3.187   4.573  13.040  0.1189  0.0205 -0.6023
  718MPD2    C310613   3.104   4.510  13.130  0.4687 -0.7920  0.3772
  718MPD2    C410614   3.103   4.552  13.259  0.4706 -0.3890 -0.2269
  718MPD2    C510615   3.187   4.652  13.295 -0.1423  0.3049  0.4129
  718MPD2     H10616   3.172   4.542  12.938  0.6619  0.4034 -0.7972
  718MPD2    H110617   3.051   4.500  13.338 -2.1234  1.1148 -0.9259
  718MPD2    H210618   3.342   0.066  13.245  0.4618  0.9103 -2.0081
  718MPD2    H310619   3.187   4.686  13.398 -0.2493  4.0544 -0.8221
  718MPD2     N10620   3.024   4.409  13.075 -0.2715 -0.0388 -0.3588
  718MPD2    H510621   3.026   4.399  12.974  2.3934  0.2807 -0.3372
  718MPD2    N110622   3.362   0.019  12.983  0.7315 -0.0753 -0.0053
  718MPD2    H710623   3.408   0.102  13.018 -1.5080  0.2278  2.2155
  719TMC3    C110624   3.425   0.086  12.760 -0.1265  0.5518  0.2161
  719TMC3    C210625   3.448   0.030  12.635 -0.1808  0.5056  0.0531
  719TMC3    C310626   3.414   0.093  12.516 -1.1006 -0.0147 -0.4944
  719TMC3    C410627   3.380   0.221  12.765 -0.0157  0.2081  0.8371
  719TMC3    C510628   3.357   0.283  12.644 -0.3075 -0.2133 -0.8093
  719TMC3    C610629   3.361   0.217  12.520 -0.4602  0.2491 -0.7930
  719TMC3     C10630   3.367   4.710  12.849  0.2481  0.3289  0.4772
  719TMC3     O10631   3.340   4.598  12.808  0.3379  0.3959  0.3758
  719TMC3     H10632   3.477   4.652  12.612  1.6671  1.3015 -1.1484
  719TMC3    H110633   3.373   0.268  12.862  3.4961  1.2474  0.5914
  719TMC3    H210634   3.349   0.271  12.427 -1.3611 -0.5065 -1.1127
  719TMC3    C710635   3.404   0.412  12.631 -0.2793 -0.0439 -0.0389
  719TMC3    C810636   3.338   0.013  12.424  0.4841  0.5520  0.0419
  719TMC3    O110637   3.388   0.470  12.529  0.5181  0.1599  0.6698
  719TMC3    O210638   3.297   0.065  12.322 -0.6028  0.0321 -0.2907
  720MPD2     C10639   1.519   1.821  13.944  0.3490 -0.2542  0.3958
  720MPD2    C110640   1.606   1.854  13.838  0.6258  0.1488  0.6450
  720MPD2    C210641   1.741   1.828  13.856 -0.4080  0.1593 -0.2712
  720MPD2    C310642   1.784   1.785  13.983  0.5743 -0.0596  0.3095
  720MPD2    C410643   1.694   1.758  14.085 -0.5202  0.1659  0.2173
  720MPD2    C510644   1.557   1.769  14.064 -0.2151  0.2966  0.6469
  720MPD2     H10645   1.809   1.838  13.772  1.2952 -0.1498  1.0859
  720MPD2    H110646   1.723   1.734  14.187  1.9385 -0.1121 -0.5490
  720MPD2    H210647   1.413   1.840  13.930  1.1440  1.2052 -3.7247
  720MPD2    H310648   1.485   1.753  14.143 -1.7743 -0.3209 -0.8794
  720MPD2     N10649   1.920   1.752  13.989 -0.2933  0.2633  0.4617
  720MPD2    H510650   1.958   1.742  13.895 -2.2987  0.8070 -0.4138
  720MPD2    N110651   1.563   1.895  13.713  0.0228  0.9005 -0.2892
  720MPD2    H710652   1.636   1.908  13.644  0.5844 -0.8714 -0.0253
  721TMC3    C110653   2.134   1.710  14.077  0.1012 -0.4354  0.4849
  721TMC3    C210654   2.209   1.670  14.185  0.4046  0.3760 -0.2959
  721TMC3    C310655   2.345   1.676  14.182 -0.6146 -0.4520  0.3173
  721TMC3    C410656   2.194   1.779  13.978 -0.4397  0.0925  0.4497
  721TMC3    C510657   2.331   1.794  13.979 -0.5122 -0.5802  0.1771
  721TMC3    C610658   2.410   1.745  14.084  0.0649  1.1388  0.2529
  721TMC3     C10659   1.990   1.717  14.107  0.7304  0.2734 -0.2705
  721TMC3     O10660   1.953   1.720  14.224 -0.3223  0.2621  0.3597
  721TMC3     H10661   2.148   1.628  14.263 -2.0846  2.8508 -0.8925
  721TMC3    H110662   2.138   1.812  13.891  0.7212 -0.9531 -0.6875
  721TMC3    H210663   2.517   1.762  14.074  0.3637 -0.3559  0.8607
  721TMC3    C710664   2.399   1.829  13.853  0.0361 -0.3685  0.1577
  721TMC3    C810665   2.412   1.672  14.311 -0.3453  0.3679  0.2387
  721TMC3    O110666   2.513   1.784  13.839 -0.2368  0.1375  0.4600
  721TMC3    O210667   2.519   1.731  14.310  0.5139 -0.5435  0.5422
  722MPD2     C10668   0.256   0.619  13.279 -0.2147  0.1105 -0.7192
  722MPD2    C110669   0.333   0.719  13.221 -1.2740 -0.4377 -0.4570
  722MPD2    C210670   0.314   0.741  13.085 -0.1034 -0.0350  0.7321
  722MPD2    C310671   0.236   0.666  13.007  1.3500  0.1352 -0.5448
  722MPD2    C410672   0.168   0.563  13.068  0.5722  0.0230  0.5012
  722MPD2    C510673   0.179   0.537  13.198 -0.8567  0.6363  0.3424
  722MPD2     H10674   0.364   0.820  13.029 -2.5876  1.4551  0.6190
  722MPD2    H110675   0.111   0.489  13.014 -0.1100  1.6583 -1.0426
  722MPD2    H210676   0.259   0.592  13.384 -0.6245  1.3380 -0.4023
  722MPD2    H310677   0.135   0.445  13.235  0.3080 -0.1518 -0.2226
  722MPD2     N10678   0.238   0.681  12.867 -0.2237  0.1200 -0.4476
  722MPD2    H510679   0.274   0.768  12.829 -1.7929  0.3567 -1.4312
  722MPD2    N110680   0.433   0.799  13.285 -0.2063 -0.1197  0.2202
  722MPD2    H710681   0.490   0.866  13.234  0.0502 -0.8632 -0.4496
  723TMC3    C110682   0.180   0.611  12.638  0.7313  0.0092 -0.3920
  723TMC3    C210683   0.121   0.515  12.565 -0.0593  0.7000 -0.1466
  723TMC3    C310684   0.099   0.536  12.432 -0.1731  0.5415 -0.1191
  723TMC3    C410685   0.205   0.733  12.583 -0.6058 -0.0017  0.2194
  723TMC3    C510686   0.176   0.757  12.455  0.0171  0.8427  0.5208
  723TMC3    C610687   0.125   0.656  12.377 -0.9596  0.1668 -0.3828
  723TMC3     C10688   0.178   0.593  12.781 -0.1770 -0.4005 -0.0580
  723TMC3     O10689   0.138   0.480  12.806  0.6463 -0.2290  0.3569
  723TMC3     H10690   0.075   0.428  12.611 -0.2232  1.8949  1.9079
  723TMC3    H110691   0.238   0.814  12.648 -2.1515  1.0002 -0.2276
  723TMC3    H210692   0.108   0.678  12.273 -0.7338 -0.3004 -0.5144
  723TMC3    C710693   0.146   0.894  12.408 -0.2878  0.0369 -1.0620
  723TMC3    C810694   0.026   0.434  12.355  0.5980  0.3066 -0.6359
  723TMC3    O110695   0.133   0.904  12.285  0.1031  0.4689 -0.6936
  723TMC3    O210696   4.678   0.473  12.259  0.4030  0.4137  0.4500
  724TMC3    C110697   0.958   3.043   9.056  0.8683 -0.0072  0.0979
  724TMC3    C210698   0.903   3.162   9.038 -0.1592  0.7462 -0.2947
  724TMC3    C310699   0.985   3.273   9.034  0.6370  0.0267 -0.0751
  724TMC3    C410700   1.091   3.031   9.072 -0.2389 -0.1561  0.1578
  724TMC3    C510701   1.175   3.133   9.049 -1.0419  0.2541 -0.0128
  724TMC3    C610702   1.119   3.257   9.044 -0.5777  0.3889  0.4494
  724TMC3     C10703   0.870   2.927   9.099  0.7174 -0.0463 -0.3021
  724TMC3     O10704   0.918   2.829   9.155  1.3429  0.3304 -0.0289
  724TMC3     H10705   0.797   3.183   9.049 -0.1447 -0.3095  1.9014
  724TMC3    H110706   1.133   2.934   9.094  2.2559  1.1060  0.8829
  724TMC3    H210707   1.189   3.336   9.016 -1.2352  1.6172  2.2764
  724TMC3    C710708   1.309   3.120   9.098 -0.0842 -0.5797 -0.2777
  724TMC3    C810709   0.923   3.404   9.016 -0.3497  0.0262 -0.0862
  724TMC3    O110710   1.357   3.226   9.141 -0.1771  0.4970  0.3076
  724TMC3    O210711   0.802   3.405   8.994 -0.4383 -0.2840  0.0084
  725TMC3    C110712   2.332   2.085  12.548  0.6552 -1.0006  0.8426
  725TMC3    C210713   2.341   2.123  12.413  0.1127  0.5317 -0.0993
  725TMC3    C310714   2.343   2.026  12.320 -0.5922 -0.1824 -0.2966
  725TMC3    C410715   2.339   1.951  12.580 -0.0146  0.3555 -0.6196
  725TMC3    C510716   2.341   1.862  12.480  0.2054 -0.6810  0.3315
  725TMC3    C610717   2.334   1.896  12.350  0.1704 -0.5762 -1.3044
  725TMC3     C10718   2.378   2.177  12.645 -0.4929  0.0526  0.3026
  725TMC3     O10719   2.444   2.271  12.602  0.6616 -0.6969  0.0612
  725TMC3     H10720   2.349   2.227  12.386  0.9040 -0.2768 -2.9996
  725TMC3    H110721   2.349   1.925  12.685 -0.8776 -1.9313 -1.1269
  725TMC3    H210722   2.322   1.828  12.266  0.6520  0.3532 -2.1182
  725TMC3    C710723   2.389   1.731  12.528  0.2529  0.0988 -0.8049
  725TMC3    C810724   2.337   2.062  12.176 -0.5736  0.2396  0.0767
  725TMC3    O110725   2.380   1.690  12.642 -0.4389 -0.2286  0.0230
  725TMC3    O210726   2.290   1.986  12.093  0.2937  0.3384  0.4066
  726MPD2     C10727   0.497   3.576   9.801 -0.1629  0.1791 -0.0863
  726MPD2    C110728   0.404   3.669   9.754  0.3765  0.7296  0.1249
  726MPD2    C210729   0.265   3.662   9.790  0.7588 -0.1651  0.1123
  726MPD2    C310730   0.224   3.558   9.872 -0.3839  0.4377  0.4308
  726MPD2    C410731   0.320   3.471   9.912 -0.7025  0.0765  0.4813
  726MPD2    C510732   0.448   3.475   9.882 -1.2904 -0.3629  0.0891
  726MPD2     H10733   0.199   3.745   9.765  1.2356  0.4059  0.7449
  726MPD2    H110734   0.296   3.380   9.967 -0.6862 -0.7472 -0.8853
  726MPD2    H210735   0.601   3.573   9.768  0.1960 -1.6299  1.2242
  726MPD2    H310736   0.519   3.401   9.916 -2.7029 -2.2709 -1.1463
  726MPD2     N10737   0.096   3.544   9.931 -0.0746  0.3475 -0.2233
  726MPD2    H510738   0.089   3.465   9.994 -2.3124 -0.6238 -1.6802
  726MPD2    N110739   0.441   3.786   9.684  0.0390  0.0245 -0.1458
  726MPD2    H710740   0.368   3.853   9.664  0.0857 -0.3396 -1.5252
  727TMC3    C110741   0.560   3.958   9.607  0.0230 -0.4352 -0.2439
  727TMC3    C210742   0.671   4.037   9.632  0.3693  0.7231 -0.1554
  727TMC3    C310743   0.655   4.173   9.640 -0.3041  0.3886 -0.0032
  727TMC3    C410744   0.442   4.012   9.572  0.6765 -0.0934 -0.9491
  727TMC3    C510745   0.434   4.152   9.567 -0.0729  0.4560  0.1912
  727TMC3    C610746   0.535   4.233   9.609  0.1527  0.2336 -0.0785
  727TMC3     C10747   0.567   3.822   9.652 -0.7102  0.0713 -0.2524
  727TMC3     O10748   0.670   3.763   9.677 -1.0835 -0.4134 -0.1550
  727TMC3     H10749   0.751   3.977   9.675 -1.5084 -1.0742  0.8610
  727TMC3    H110750   0.366   3.958   9.517 -0.4399 -0.2477  0.7488
  727TMC3    H210751   0.532   4.342   9.608  0.7030  0.2491  0.8741
  727TMC3    C710752   0.300   4.203   9.528  0.2994  0.6709 -0.2118
  727TMC3    C810753   0.757   4.233   9.725 -0.8754  0.2661 -0.1990
  727TMC3    O110754   0.248   4.137   9.438  0.4242 -0.0878 -0.2035
  727TMC3    O210755   0.871   4.196   9.717  0.4093 -0.5816 -0.4235
  728TMC3    C110756   4.235   2.206  15.078 -0.2129 -0.6701 -0.3694
  728TMC3    C210757   4.346   2.185  15.152  0.3473 -0.2530  0.3556
  728TMC3    C310758   4.463   2.151  15.087 -0.1444  0.3996  0.7583
  728TMC3    C410759   4.241   2.212  14.939 -0.3922 -0.7251  0.8008
  728TMC3    C510760   4.354   2.159  14.882  0.2678 -0.0570 -0.3375
  728TMC3    C610761   4.469   2.127  14.945  0.1924  0.6707  0.7311
  728TMC3     C10762   4.120   2.263  15.147 -0.5138  0.0395  1.1664
  728TMC3     O10763   4.044   2.326  15.078 -0.4450 -0.3402 -0.4592
  728TMC3     H10764   4.351   2.202  15.259  0.0864 -3.1957  0.8316
  728TMC3    H110765   4.153   2.224  14.878 -0.4864 -0.7030  0.9394
  728TMC3    H210766   4.544   2.079  14.884 -1.1218 -2.4617  1.5614
  728TMC3    C710767   4.345   2.168  14.740  0.1445  0.9344 -0.6649
  728TMC3    C810768   4.577   2.143  15.173 -0.0297  0.4516  0.3711
  728TMC3    O110769   4.236   2.149  14.687  0.6363  0.0699  0.1811
  728TMC3    O210770   4.553   2.133  15.292 -0.2770 -0.1369 -0.2936
  729MPD2     C10771   2.083   3.424  16.947  0.3334  0.3394 -0.7552
  729MPD2    C110772   1.994   3.472  16.854 -0.0066 -0.2261  0.8265
  729MPD2    C210773   1.852   3.483  16.896  0.1808 -0.1130 -0.0675
  729MPD2    C310774   1.811   3.449  17.022 -0.0248 -0.1239 -0.1766
  729MPD2    C410775   1.908   3.403  17.111  0.8615  0.3716  0.0982
  729MPD2    C510776   2.040   3.391  17.070 -0.5344  0.1374  0.1621
  729MPD2     H10777   1.780   3.523  16.824  0.1746 -1.0107 -0.5574
  729MPD2    H110778   1.890   3.381  17.216  1.3363 -1.5793 -0.2204
  729MPD2    H210779   2.186   3.405  16.916  0.4971  0.5592 -0.3407
  729MPD2    H310780   2.109   3.352  17.145 -0.6830  0.3827  0.4262
  729MPD2     N10781   1.679   3.475  17.061 -0.3574  0.5856  0.0849
  729MPD2    H510782   1.645   3.445  17.151  0.7711  1.4668  0.7973
  729MPD2    N110783   2.040   3.506  16.727  0.1803  0.3677 -0.1309
  729MPD2    H710784   2.138   3.484  16.710 -0.4501 -2.7521  0.3569
  730TMC3    C110785   1.492   3.626  17.083  0.3057  0.6765  0.1660
  730TMC3    C210786   1.521   3.631  17.218 -0.5229  0.1963  0.4516
  730TMC3    C310787   1.482   3.736  17.294 -0.4297  0.2925 -0.4543
  730TMC3    C410788   1.445   3.739  17.029  0.2760  0.1974  0.0603
  730TMC3    C510789   1.420   3.853  17.102 -0.2055 -0.2833 -1.1303
  730TMC3    C610790   1.436   3.850  17.237 -0.2839  0.3276 -0.0367
  730TMC3     C10791   1.586   3.557  16.995  0.3393 -0.2754  0.0147
  730TMC3     O10792   1.591   3.603  16.884  0.6678  0.2159 -0.3651
  730TMC3     H10793   1.544   3.538  17.269 -1.9020 -0.5618 -0.3251
  730TMC3    H110794   1.417   3.744  16.925  0.2908 -0.1117  0.0415
  730TMC3    H210795   1.405   3.927  17.307 -0.5978  0.1413  0.0277
  730TMC3    C710796   1.455   3.979  17.034 -0.5650  0.2781 -1.0238
  730TMC3    C810797   1.568   3.753  17.405  0.0223  0.2143 -0.4790
  730TMC3    O110798   1.469   3.977  16.910  0.6451 -0.8588  0.4170
  730TMC3    O210799   1.539   3.813  17.504  0.1188 -0.0919  0.2293
  731MPD2     C10800   1.329   1.509  12.097  0.6526 -0.1223  0.3369
  731MPD2    C110801   1.450   1.451  12.118 -0.7660 -0.0371  0.0535
  731MPD2    C210802   1.459   1.371  12.233 -0.1014 -0.1540 -0.3832
  731MPD2    C310803   1.357   1.361  12.327 -0.2258 -0.2608  0.4544
  731MPD2    C410804   1.240   1.437  12.308 -0.1328  0.1554  0.6497
  731MPD2    C510805   1.230   1.507  12.192 -0.5818 -0.8349  0.4546
  731MPD2     H10806   1.542   1.303  12.242  0.3565  0.3493 -0.8399
  731MPD2    H110807   1.156   1.426  12.375 -1.2115  1.4272 -0.4973
  731MPD2    H210808   1.312   1.570  12.009  3.2867 -1.2489 -0.9667
  731MPD2    H310809   1.137   1.559  12.173 -0.2001  0.0827  1.1364
  731MPD2     N10810   1.371   1.268  12.433 -0.1806  0.1817 -0.4115
  731MPD2    H510811   1.456   1.213  12.438  0.3745  1.1715  1.3786
  731MPD2    N110812   1.556   1.476  12.031 -0.5457 -0.0350 -0.2167
  731MPD2    H710813   1.537   1.532  11.948  1.4722 -1.1343 -1.4370
  732TMC3    C110814   1.762   1.469  11.921  0.3072  0.3483 -0.7402
  732TMC3    C210815   1.699   1.440  11.807 -0.4953  0.5735 -1.1194
  732TMC3    C310816   1.768   1.455  11.687  0.0882  0.2379 -0.5911
  732TMC3    C410817   1.897   1.503  11.929 -0.0045  0.0136 -0.8867
  732TMC3    C510818   1.967   1.519  11.812  0.2967 -0.1459  0.8250
  732TMC3    C610819   1.895   1.503  11.690  0.3665 -0.4687  0.0029
  732TMC3     C10820   1.691   1.440  12.047  0.4868 -0.1782 -0.4210
  732TMC3     O10821   1.753   1.423  12.154  0.4648  0.7063  0.0754
  732TMC3     H10822   1.608   1.381  11.811 -0.3381  0.5054  1.8962
  732TMC3    H110823   1.942   1.530  12.024  1.0946 -1.8984 -0.8767
  732TMC3    H210824   1.946   1.529  11.598 -0.8614 -0.3980 -0.6610
  732TMC3    C710825   2.099   1.575  11.821 -0.2609  0.3457  0.1073
  732TMC3    C810826   1.709   1.424  11.557  0.1562  0.4492  0.3001
  732TMC3    O110827   2.187   1.525  11.891 -0.2148 -0.3296 -0.1850
  732TMC3    O210828   1.782   1.402  11.458  0.4121 -0.1996 -0.1188
  733TMC3    C110829   2.691   4.257  12.916  0.3942 -0.3298 -0.8846
  733TMC3    C210830   2.739   4.262  13.045 -0.2658  0.2504 -0.5607
  733TMC3    C310831   2.870   4.243  13.050 -0.0101 -0.2318 -0.1462
  733TMC3    C410832   2.761   4.233  12.804  0.3216 -0.2929 -0.0910
  733TMC3    C510833   2.894   4.208  12.810  0.9077  0.0062 -0.8232
  733TMC3    C610834   2.949   4.220  12.936 -0.0188  0.2403 -0.0873
  733TMC3     C10835   2.548   4.270  12.899 -0.4106 -0.1745  1.6302
  733TMC3     O10836   2.500   4.321  12.800  0.2485 -0.1065  0.1695
  733TMC3     H10837   2.678   4.291  13.129 -1.4429  0.8439 -1.6153
  733TMC3    H110838   2.718   4.249  12.705  1.0072 -0.2689 -0.3873
  733TMC3    H210839   3.055   4.197  12.944  0.3337  1.4625 -1.4362
  733TMC3    C710840   2.978   4.299  12.735 -0.0063  0.6918  0.8446
  733TMC3    C810841   2.942   4.325  13.145  0.2511  0.3320  0.4801
  733TMC3    O110842   3.033   4.378  12.810 -0.2661  0.5685  0.8876
  733TMC3    O210843   2.901   4.337  13.260 -0.3989 -0.4564  0.3697
  734MPD2     C10844   0.244   2.823  11.671 -0.1165  0.7080 -0.7326
  734MPD2    C110845   0.186   2.719  11.609 -0.1698 -0.6186  0.1008
  734MPD2    C210846   0.190   2.714  11.474 -1.5842 -0.4127 -0.1314
  734MPD2    C310847   0.226   2.824  11.399  0.4038  0.2895 -0.0885
  734MPD2    C410848   0.278   2.933  11.460 -0.3127 -0.5706  0.3796
  734MPD2    C510849   0.284   2.934  11.599  0.2640 -0.1916  0.4235
  734MPD2     H10850   0.164   2.618  11.432 -1.0860 -1.4402  1.9270
  734MPD2    H110851   0.324   3.015  11.405  2.1776 -0.6433  2.3824
  734MPD2    H210852   0.238   2.839  11.778 -0.6942  3.2034 -1.1248
  734MPD2    H310853   0.330   3.018  11.650  1.9710 -2.5126  2.6955
  734MPD2     N10854   0.216   2.813  11.258  0.1864 -0.5886 -0.0924
  734MPD2    H510855   0.192   2.723  11.218 -1.2740 -0.4623  0.5347
  734MPD2    N110856   0.117   2.630  11.694 -0.2063 -0.1887  0.8633
  734MPD2    H710857   0.137   2.612  11.791  0.9963 -0.9271  0.4773
  735TMC3    C110858   4.679   2.456  11.723  0.3787  0.8152  0.6721
  735TMC3    C210859   4.552   2.422  11.677  0.3215 -1.0524  1.3336
  735TMC3    C310860   4.526   2.290  11.653  0.2402 -0.2041  0.8305
  735TMC3    C410861   0.048   2.362  11.768 -0.1579  0.1613  0.2613
  735TMC3    C510862   0.014   2.229  11.748  0.0368  0.3105  0.5448
  735TMC3    C610863   4.622   2.193  11.687 -0.1786 -0.3833  0.4941
  735TMC3     C10864   0.013   2.552  11.633  0.5403  0.1790  0.1875
  735TMC3     O10865   4.676   2.583  11.531  0.4942 -0.4986 -0.2936
  735TMC3     H10866   4.491   2.504  11.641  0.5349 -0.4270  2.4117
  735TMC3    H110867   0.147   2.398  11.791  0.0337  0.8759 -1.6763
  735TMC3    H210868   4.614   2.087  11.665  1.4784 -0.3154 -0.3904
  735TMC3    C710869   0.125   2.150  11.695 -0.3032  0.0345  0.4749
  735TMC3    C810870   4.482   2.268  11.517  0.2014 -0.6224 -0.6837
  735TMC3    O110871   0.212   2.217  11.643  0.7247 -0.6190 -0.6157
  735TMC3    O210872   4.452   2.152  11.483 -0.1007  0.1921  0.4611
  736MPD2     C10873   0.196   1.802  11.783  0.3762  0.2534 -0.4316
  736MPD2    C110874   0.207   1.920  11.714 -0.5087  0.1419 -0.3858
  736MPD2    C210875   0.290   1.920  11.602 -0.2792 -0.5002 -0.4776
  736MPD2    C310876   0.358   1.808  11.564 -0.2322 -0.2594 -0.1311
  736MPD2    C410877   0.346   1.691  11.632 -0.2374  0.5647  0.3688
  736MPD2    C510878   0.255   1.691  11.737 -0.3413 -0.1130  0.6434
  736MPD2     H10879   0.274   2.003  11.535 -0.4456 -1.3017 -1.4274
  736MPD2    H110880   0.394   1.600  11.601  1.4947  2.1175 -1.5223
  736MPD2    H210881   0.128   1.792  11.866  2.6939 -0.8412  1.3344
  736MPD2    H310882   0.253   1.599  11.794  2.1940 -0.7100 -0.1932
  736MPD2     N10883   0.447   1.791  11.451  0.8397 -0.0157  0.8231
  736MPD2    H510884   0.486   1.698  11.436 -0.3372 -0.2963 -0.5380
  736MPD2    N110885   0.130   2.027  11.751  0.7377 -0.0823  0.3358
  736MPD2    H710886   0.062   2.005  11.823  0.3152  2.2205  0.6411
  737TMC3    C110887   0.580   1.850  11.270 -0.2785 -0.1710  0.3167
  737TMC3    C210888   0.596   1.935  11.164  0.2398  0.5266 -0.1344
  737TMC3    C310889   0.696   1.902  11.077  0.4123 -0.5164 -0.3999
  737TMC3    C410890   0.659   1.738  11.290 -0.0329  0.5210 -0.1694
  737TMC3    C510891   0.763   1.719  11.198 -0.2923 -0.0138  0.0771
  737TMC3    C610892   0.790   1.802  11.094  0.7151 -0.1632 -0.6760
  737TMC3     C10893   0.493   1.895  11.377  0.3696 -0.5568 -0.1629
  737TMC3     O10894   0.492   2.015  11.411  0.0276  0.4396  0.5157
  737TMC3     H10895   0.531   2.021  11.152 -1.4535 -0.3622  2.6832
  737TMC3    H110896   0.658   1.694  11.389 -0.4274 -0.3177 -0.5444
  737TMC3    H210897   0.867   1.786  11.019  0.2366 -2.1859 -0.7291
  737TMC3    C710898   0.815   1.582  11.194 -0.5192  0.1970  0.2261
  737TMC3    C810899   0.700   1.965  10.949  0.4625 -0.1933 -0.2268
  737TMC3    O110900   0.751   1.502  11.262 -0.1520 -0.3263 -0.6350
  737TMC3    O210901   0.729   1.899  10.854  0.2617 -0.0263  0.2229
  738MPD2     C10902   0.845   1.088  15.296  0.1719  0.6308 -0.1542
  738MPD2    C110903   0.828   1.051  15.161  0.0561  0.8468  0.0424
  738MPD2    C210904   0.879   1.134  15.061  0.5036 -0.5175  0.6843
  738MPD2    C310905   0.973   1.230  15.097 -0.2877 -0.5915 -0.2007
  738MPD2    C410906   1.005   1.247  15.229  0.4341  0.3952 -0.4277
  738MPD2    C510907   0.941   1.181  15.331  0.2214 -0.3289 -0.2912
  738MPD2     H10908   0.862   1.120  14.955  1.7933 -0.0203  0.4159
  738MPD2    H110909   1.077   1.321  15.261  2.0409 -1.2494 -0.2292
  738MPD2    H210910   0.816   1.025  15.380  1.5496 -0.5344 -0.5375
  738MPD2    H310911   0.963   1.201  15.435  0.2615 -2.5723  0.1277
  738MPD2     N10912   1.045   1.315  15.006 -0.1553 -0.1360  0.8225
  738MPD2    H510913   1.120   1.373  15.042  0.3499  0.5219 -1.2527
  738MPD2    N110914   0.731   0.956  15.125  0.0235  0.2620 -0.2321
  738MPD2    H710915   0.691   0.969  15.032 -0.1111 -0.8318 -0.3236
  739TMC3    C110916   1.150   1.372  14.811 -0.1741  0.0175 -0.4056
  739TMC3    C210917   1.150   1.358  14.674 -0.9168  0.6081  0.6509
  739TMC3    C310918   1.266   1.396  14.613 -0.2282  0.1610 -0.4898
  739TMC3    C410919   1.251   1.440  14.882 -0.2671  0.4816  0.4367
  739TMC3    C510920   1.357   1.485  14.815 -0.3925 -0.5456 -0.7760
  739TMC3    C610921   1.368   1.470  14.676 -0.1787 -0.3871 -0.5165
  739TMC3     C10922   1.036   1.312  14.872 -0.2232 -0.2715 -0.0599
  739TMC3     O10923   0.943   1.268  14.802 -0.4103 -0.0638 -0.1723
  739TMC3     H10924   1.086   1.295  14.612 -1.2953  1.2382  0.3991
  739TMC3    H110925   1.252   1.454  14.989 -1.3714 -0.0880  0.5287
  739TMC3    H210926   1.451   1.514  14.623 -1.5916  1.9808 -0.7780
  739TMC3    C710927   1.450   1.575  14.880 -0.5935  0.1339 -0.3473
  739TMC3    C810928   1.269   1.392  14.466 -0.6580  0.2526 -0.0522
  739TMC3    O110929   1.412   1.654  14.968 -0.0322  0.3107 -0.1509
  739TMC3    O210930   1.170   1.362  14.402 -0.6812  0.5052  0.4517
  740TMC3    C110931   1.665   2.209  13.957 -1.1579 -0.2424  0.9706
  740TMC3    C210932   1.699   2.172  14.085  0.8055  0.0030 -0.4715
  740TMC3    C310933   1.826   2.122  14.117  0.5230  0.9305 -0.2408
  740TMC3    C410934   1.757   2.182  13.860 -0.8200 -0.0090 -0.8721
  740TMC3    C510935   1.879   2.133  13.892  0.8746  0.2966 -0.4573
  740TMC3    C610936   1.910   2.101  14.022  0.1169  0.2955 -0.2163
  740TMC3     C10937   1.529   2.240  13.921  0.2104 -0.2916  0.3777
  740TMC3     O10938   1.500   2.231  13.803  0.3718 -0.3823 -0.7979
  740TMC3     H10939   1.615   2.174  14.154  1.3069  0.0694  0.1351
  740TMC3    H110940   1.713   2.192  13.761  2.6849 -1.6260 -2.5911
  740TMC3    H210941   2.009   2.061  14.040  0.0470 -0.3792 -1.3379
  740TMC3    C710942   1.955   2.071  13.781  0.8023  0.7976  0.3604
  740TMC3    C810943   1.848   2.058  14.247 -0.7654  0.1162  0.0795
  740TMC3    O110944   2.037   1.985  13.811 -0.4758 -0.4113  0.2513
  740TMC3    O210945   1.960   2.072  14.301 -0.0065 -0.7635 -0.0089
  741TMC3    C110946   1.002   1.836  13.912  0.2380 -0.2207 -0.7009
  741TMC3    C210947   0.907   1.736  13.913  0.1131 -0.8149  0.3712
  741TMC3    C310948   0.924   1.631  13.995  0.1976  0.3668  0.2316
  741TMC3    C410949   1.102   1.833  14.003 -0.4772 -0.0409 -0.0206
  741TMC3    C510950   1.102   1.736  14.104  0.7210  0.0934  0.0729
  741TMC3    C610951   1.016   1.629  14.097  0.4177  0.0341  0.4126
  741TMC3     C10952   0.967   1.964  13.854  0.2682 -0.2903 -0.9149
  741TMC3     O10953   0.847   1.994  13.852 -0.1722  0.3110 -0.1646
  741TMC3     H10954   0.830   1.729  13.836 -0.2442  0.4492  0.6053
  741TMC3    H110955   1.160   1.925  14.013  0.1251 -0.4997  0.7282
  741TMC3    H210956   1.001   1.550  14.170  2.5737  0.2500  1.0932
  741TMC3    C710957   1.149   1.791  14.230 -0.1773 -0.5813 -0.3486
  741TMC3    C810958   0.813   1.530  13.999 -0.0594 -0.1112  0.6742
  741TMC3    O110959   1.226   1.885  14.219 -0.1370  0.1459 -0.2501
  741TMC3    O210960   0.707   1.579  13.958 -0.2290  0.2182 -0.4883
  742TMC3    C110961   1.193   0.323  14.974  0.2287  0.0935  0.0245
  742TMC3    C210962   1.160   0.302  14.846 -0.1966 -0.5692 -0.1466
  742TMC3    C310963   1.261   0.271  14.752 -0.4764  0.2479  0.0234
  742TMC3    C410964   1.319   0.304  15.013  0.3105  0.0416 -0.0200
  742TMC3    C510965   1.409   0.266  14.924 -0.2727  0.3110  0.4259
  742TMC3    C610966   1.384   0.241  14.790  0.0296  0.4743  0.5795
  742TMC3     C10967   1.099   0.388  15.060 -0.2807  0.3457  0.7727
  742TMC3     O10968   0.985   0.381  15.016  0.2938  0.2208  0.1339
  742TMC3     H10969   1.058   0.317  14.813  0.7950  0.5588 -2.6311
  742TMC3    H110970   1.350   0.329  15.114  0.9953  2.6159 -0.8606
  742TMC3    H210971   1.458   0.213  14.715  1.2722  3.4092  0.6974
  742TMC3    C710972   1.546   0.237  14.962  0.5486 -0.4118  0.1120
  742TMC3    C810973   1.206   0.219  14.630 -0.2452  0.5730  0.7240
  742TMC3    O110974   1.586   0.293  15.063  0.2810  0.6423  0.4043
  742TMC3    O210975   1.100   0.165  14.651 -0.1291  0.4374 -0.0070
  743MPD2     C10976   3.846   1.064   1.792 -0.1069  0.2057 -0.1018
  743MPD2    C110977   3.836   1.095   1.657 -0.2265 -0.5933  0.1936
  743MPD2    C210978   3.959   1.141   1.594  0.4275 -0.5390  0.0213
  743MPD2    C310979   4.076   1.153   1.669  0.3562  0.1032 -0.6201
  743MPD2    C410980   4.074   1.121   1.801  0.9914  0.5237  0.1401
  743MPD2    C510981   3.961   1.076   1.861 -0.0359 -0.1937 -0.1016
  743MPD2     H10982   3.957   1.168   1.489  0.3882 -1.5668 -0.2345
  743MPD2    H110983   4.159   1.137   1.867  1.7547  2.6301 -1.3732
  743MPD2    H210984   3.773   1.014   1.854  2.0462 -0.9941  1.4610
  743MPD2    H310985   3.963   1.060   1.968 -1.9378  1.0175  0.1040
  743MPD2     N10986   4.195   1.183   1.598  0.9015  0.4148  0.1267
  743MPD2    H510987   4.178   1.191   1.498 -0.1805 -1.4666  0.1693
  743MPD2    N110988   3.717   1.084   1.595 -0.0542  0.1393 -0.0980
  743MPD2    H710989   3.635   1.082   1.655  1.0575  0.8605  1.4364
  744TMC3    C110990   3.570   1.101   1.418  0.2565 -1.3858  0.0370
  744TMC3    C210991   3.507   1.210   1.471 -0.2243 -0.5502 -0.0441
  744TMC3    C310992   3.398   1.254   1.397 -0.0583  0.6083 -0.2448
  744TMC3    C410993   3.530   1.028   1.310  0.8262 -0.2469 -0.2217
  744TMC3    C510994   3.416   1.080   1.249  0.6651  0.6074  0.3645
  744TMC3    C610995   3.345   1.185   1.295  0.7325  0.1063  0.4235
  744TMC3     C10996   3.702   1.069   1.460 -0.4727  0.9039  0.6335
  744TMC3     O10997   3.782   1.033   1.374  0.2510 -0.4567 -0.6440
  744TMC3     H10998   3.551   1.269   1.551  1.0640 -0.1623 -1.0337
  744TMC3    H110999   3.585   0.942   1.273  1.2959 -1.1483  2.5671
  744TMC3    H211000   3.257   1.222   1.245  1.7205 -0.7314 -1.9014
  744TMC3    C711001   3.412   1.071   1.108  0.5515  0.1798  0.2091
  744TMC3    C811002   3.319   1.364   1.455  0.7734 -0.4529  0.2585
  744TMC3    O111003   3.384   1.175   1.051  0.0747 -0.2004 -0.4367
  744TMC3    O211004   3.226   1.408   1.389 -0.0402 -0.1904 -0.0924
  745TMC3    C111005   1.186   4.329  13.238 -0.3025  0.1048  0.6141
  745TMC3    C211006   1.190   4.324  13.378  0.2040  0.2091 -0.3586
  745TMC3    C311007   1.146   4.436  13.445 -0.2009 -0.4174  0.9065
  745TMC3    C411008   1.124   4.434  13.176  0.6429  0.7190 -0.4678
  745TMC3    C511009   1.074   4.545  13.249 -0.5543 -0.0082 -0.2387
  745TMC3    C611010   1.091   4.544  13.386  0.1400 -0.3445 -0.0886
  745TMC3     C11011   1.321   4.327  13.179  0.1884  0.0620  0.0868
  745TMC3     O11012   1.343   4.426  13.112  0.5398  0.0795 -0.3060
  745TMC3     H11013   1.232   4.237  13.427  0.3655 -1.2529 -3.0771
  745TMC3    H111014   1.103   4.420  13.070 -1.5200  1.4073 -0.1518
  745TMC3    H211015   1.060   4.632  13.441  1.8954 -0.7675  1.5798
  745TMC3    C711016   1.086   4.672  13.196  0.2685  0.9895  0.7071
  745TMC3    C811017   1.159   4.435  13.581 -0.6582  0.6464  0.0663
  745TMC3    O111018   0.999   0.032  13.218  0.5137  0.8714 -0.1481
  745TMC3    O211019   1.095   4.344  13.637 -0.1048 -0.0733 -0.1019
  746TMC3    C111020   3.742   1.601  10.854  0.1816  0.4435  0.5666
  746TMC3    C211021   3.864   1.553  10.810  0.1556 -0.2264  0.8585
  746TMC3    C311022   3.925   1.448  10.879 -0.2251 -0.2680  0.2407
  746TMC3    C411023   3.672   1.531  10.949  0.0151  0.0315 -0.2185
  746TMC3    C511024   3.734   1.417  11.012  0.1091  0.7085 -0.3805
  746TMC3    C611025   3.864   1.378  10.984  0.5463 -0.8164 -0.4156
  746TMC3     C11026   3.695   1.738  10.826 -0.5757  0.1398  0.0913
  746TMC3     O11027   3.613   1.785  10.900 -0.3252 -0.1433  0.2605
  746TMC3     H11028   3.917   1.618  10.741  0.2102  1.0908  2.1338
  746TMC3    H111029   3.575   1.563  10.983 -0.8212 -0.2013 -2.3660
  746TMC3    H211030   3.921   1.297  11.029  0.8879 -0.6289 -0.5152
  746TMC3    C711031   3.643   1.324  11.074 -0.0823  0.4329 -0.0355
  746TMC3    C811032   4.057   1.400  10.828  0.3648  0.6715  0.0474
  746TMC3    O111033   3.699   1.228  11.130  0.1486  0.4853 -0.3468
  746TMC3    O211034   4.126   1.321  10.888 -0.1517 -0.6628 -0.3050
  747TMC3    C111035   1.367   1.377  10.395  0.8541  0.0280 -0.0099
  747TMC3    C211036   1.328   1.289  10.490  0.1627  0.2037  0.0184
  747TMC3    C311037   1.339   1.335  10.617  0.3615 -0.2256  0.0885
  747TMC3    C411038   1.395   1.511  10.424 -0.4042 -0.4122 -0.9870
  747TMC3    C511039   1.408   1.544  10.556  0.0839  0.2527 -0.1317
  747TMC3    C611040   1.376   1.461  10.653 -0.8149  0.1673 -0.3123
  747TMC3     C11041   1.316   1.359  10.260 -0.4570 -0.1868 -0.0329
  747TMC3     O11042   1.295   1.455  10.192 -0.4156 -0.2201 -0.4278
  747TMC3     H11043   1.298   1.186  10.472 -1.0366  0.2802  1.5313
  747TMC3    H111044   1.416   1.578  10.341  0.5053 -0.7285 -1.0103
  747TMC3    H211045   1.401   1.478  10.757  2.8481  1.2628 -1.3862
  747TMC3    C711046   1.448   1.674  10.600 -0.7875  0.3611 -0.0763
  747TMC3    C811047   1.254   1.268  10.712  0.5908 -0.2791  0.0369
  747TMC3    O111048   1.469   1.690  10.718  0.0302  0.1767 -0.1169
  747TMC3    O211049   1.239   1.143  10.719 -0.2128 -0.2002 -0.1038
  748MPD2     C11050   2.321   2.554   1.494  0.0443  0.0144 -0.9973
  748MPD2    C111051   2.376   2.620   1.388  0.2644  0.3493 -0.2970
  748MPD2    C211052   2.513   2.622   1.373 -0.6492 -0.3334  0.3308
  748MPD2    C311053   2.599   2.548   1.453  0.0991  0.4214 -0.1796
  748MPD2    C411054   2.541   2.481   1.560  0.2730  0.2776 -0.6956
  748MPD2    C511055   2.405   2.486   1.574 -0.0934  0.3537  0.3980
  748MPD2     H11056   2.561   2.683   1.297 -0.1366 -0.4757  0.5411
  748MPD2    H111057   2.596   2.410   1.622  0.2860  0.2713 -0.7143
  748MPD2    H211058   2.215   2.536   1.509  0.2310 -1.4257 -1.4234
  748MPD2    H311059   2.356   2.428   1.651  2.4746 -2.3586  0.0069
  748MPD2     N11060   2.736   2.541   1.425  0.0881  0.1065  0.0802
  748MPD2    H511061   2.753   2.602   1.346  1.8942 -0.9793 -0.3665
  748MPD2    N111062   2.284   2.689   1.300  0.1415 -0.2286  0.1162
  748MPD2    H711063   2.185   2.672   1.314  0.4576 -1.1360  1.2530
  749TMC3    C111064   2.964   2.499   1.470 -0.4635  0.0976  0.3322
  749TMC3    C211065   3.057   2.443   1.556  0.0890 -0.6198 -0.5027
  749TMC3    C311066   3.176   2.413   1.500  0.0905 -0.1516  0.6228
  749TMC3    C411067   2.985   2.509   1.334  0.7117  0.8911 -0.1849
  749TMC3    C511068   3.108   2.462   1.284 -0.1737  0.2204  0.0030
  749TMC3    C611069   3.205   2.424   1.368 -0.0491 -0.3964 -0.2002
  749TMC3     C11070   2.828   2.483   1.511 -0.5580  0.0600 -0.1718
  749TMC3     O11071   2.816   2.420   1.615  0.8274  0.0550  0.1492
  749TMC3     H11072   3.038   2.428   1.661 -0.9912  0.5758 -0.5297
  749TMC3    H111073   2.913   2.555   1.267 -0.9349 -2.2532 -0.5979
  749TMC3    H211074   3.305   2.406   1.332 -0.9109 -1.5045 -1.9795
  749TMC3    C711075   3.150   2.511   1.155  0.2461 -0.4803  0.1183
  749TMC3    C811076   3.275   2.360   1.592  0.2183  0.2359  0.2335
  749TMC3    O111077   3.248   2.586   1.157  0.1177  0.3559  0.7629
  749TMC3    O211078   3.263   2.379   1.713 -0.6118 -0.2198 -0.7828
  750MPD2     C11079   3.522   3.086  11.184  0.3622  0.0156  0.0341
  750MPD2    C111080   3.514   3.192  11.099  0.0795  0.5980  0.2243
  750MPD2    C211081   3.549   3.159  10.968 -0.0500  0.7529  0.8531
  750MPD2    C311082   3.580   3.027  10.930  0.1111 -0.5564 -0.2283
  750MPD2    C411083   3.584   2.922  11.023  0.2353 -0.1812 -0.1466
  750MPD2    C511084   3.545   2.955  11.150  0.0044 -0.7538  0.2750
  750MPD2     H11085   3.543   3.234  10.891  2.1570  0.6115  0.5571
  750MPD2    H111086   3.611   2.820  10.995 -2.5929 -1.1330  0.5385
  750MPD2    H211087   3.496   3.094  11.289 -4.4667  0.9960 -1.2345
  750MPD2    H311088   3.534   2.890  11.236 -1.5376 -1.9330 -0.8151
  750MPD2     N11089   3.623   2.998  10.797 -0.1007  0.6240 -0.2962
  750MPD2    H511090   3.641   2.899  10.788 -0.9475  0.6443 -2.1781
  750MPD2    N111091   3.479   3.321  11.141 -0.2574 -0.6154  0.8332
  750MPD2    H711092   3.432   3.318  11.231 -1.2526  1.3643  0.3954
  751TMC3    C111093   3.583   2.989  10.568  0.2163  0.4568  0.2646
  751TMC3    C211094   3.519   2.869  10.576 -0.1137 -0.3130  0.4598
  751TMC3    C311095   3.547   2.777  10.482 -0.8299 -0.6343 -0.7907
  751TMC3    C411096   3.690   3.004  10.476 -0.5366 -0.4013 -0.1578
  751TMC3    C511097   3.706   2.911  10.379 -0.3623 -0.5790 -0.2555
  751TMC3    C611098   3.633   2.798  10.379  0.5325 -0.6326  0.4032
  751TMC3     C11099   3.592   3.071  10.687  0.2827 -0.0758 -0.2037
  751TMC3     O11100   3.579   3.189  10.677 -0.2832  0.2405 -0.0818
  751TMC3     H11101   3.436   2.865  10.645  0.4061  1.0145  1.1603
  751TMC3    H111102   3.749   3.095  10.472 -3.1914  1.3132 -0.1690
  751TMC3    H211103   3.656   2.722  10.305  0.9373  1.1590 -1.3026
  751TMC3    C711104   3.779   2.938  10.254 -0.6610  0.1140  1.4303
  751TMC3    C811105   3.499   2.648  10.516 -0.1653  0.5528  0.5104
  751TMC3    O111106   3.741   2.876  10.155  0.0389  0.5439  0.7760
  751TMC3    O211107   3.508   2.556  10.437 -0.5921  0.5671 -0.4635
  752TMC3    C111108   2.952   3.532  16.825  0.3323  0.2509  0.4114
  752TMC3    C211109   2.852   3.486  16.911  0.0746  0.2431  1.2129
  752TMC3    C311110   2.887   3.475  17.044  0.0024 -0.0140 -0.1314
  752TMC3    C411111   3.071   3.573  16.875  0.0107 -0.7865 -0.3768
  752TMC3    C511112   3.096   3.560  17.010 -0.6046 -0.3148  0.4820
  752TMC3    C611113   3.012   3.509  17.100 -0.0457  0.2367 -0.2773
  752TMC3     C11114   2.925   3.550  16.684 -0.3647  0.0287 -0.1138
  752TMC3     O11115   3.014   3.606  16.620  0.3007  0.2334 -0.5000
  752TMC3     H11116   2.748   3.480  16.881 -0.6242 -2.9626  4.2772
  752TMC3    H111117   3.144   3.616  16.807 -0.1750 -3.8149 -2.4838
  752TMC3    H211118   3.039   3.502  17.205 -2.0948  0.5427  0.2628
  752TMC3    C711119   3.241   3.572  17.043 -0.0447 -0.4663 -0.3911
  752TMC3    C811120   2.790   3.404  17.130  0.4979 -0.0953 -0.6835
  752TMC3    O111121   3.304   3.658  16.982  0.6518  0.2471  0.0059
  752TMC3    O211122   2.698   3.356  17.065 -0.4926 -0.3117  0.4990
  753TMC3    C111123   4.592   4.317  13.291  0.1813 -0.1797 -0.7177
  753TMC3    C211124   4.633   4.318  13.416 -0.2783  0.1278  0.3351
  753TMC3    C311125   4.662   4.196  13.468 -0.3820  0.0409 -0.2303
  753TMC3    C411126   4.565   4.201  13.225  0.2520 -0.1201  0.7248
  753TMC3    C511127   4.592   4.078  13.279  0.2717 -0.0516  0.3614
  753TMC3    C611128   4.652   4.078  13.401  0.2654 -0.4872  0.0465
  753TMC3     C11129   4.571   4.441  13.222  0.2770  0.1170 -0.0514
  753TMC3     O11130   4.538   4.539  13.286  0.2498 -0.0350 -0.6327
  753TMC3     H11131   4.648   4.416  13.459 -2.3198  0.1494  0.9862
  753TMC3    H111132   4.538   4.210  13.121  0.6993 -2.0408  0.4329
  753TMC3    H211133   4.701   3.990  13.442 -0.2219  0.1864  2.0502
  753TMC3    C711134   4.498   3.973  13.254  0.2032 -0.1495  0.1758
  753TMC3    C811135   0.017   4.190  13.594 -0.0308  0.4370  0.5215
  753TMC3    O111136   4.426   3.988  13.155 -0.0813  0.0531  0.7849
  753TMC3    O211137   0.061   4.084  13.630 -0.0813  0.2530 -0.0222
  754MPD2     C11138   3.271   3.128  12.479 -0.8395 -0.1918  0.2650
  754MPD2    C111139   3.235   2.996  12.491  0.6491  0.4570  0.1809
  754MPD2    C211140   3.106   2.965  12.528 -0.1199  0.2502 -0.7747
  754MPD2    C311141   3.025   3.065  12.594  0.1761  0.2017 -0.1539
  754MPD2    C411142   3.070   3.194  12.585  0.7562 -0.2133  0.8306
  754MPD2    C511143   3.187   3.229  12.524  0.3726 -0.4836 -0.3244
  754MPD2     H11144   3.071   2.863  12.522  1.2721 -0.1452 -2.1985
  754MPD2    H111145   3.008   3.273  12.624 -1.3431 -0.6617 -1.5574
  754MPD2    H211146   3.366   3.152  12.433 -1.4248  2.8538  0.6475
  754MPD2    H311147   3.210   3.334  12.529  0.1243 -0.4859  1.0812
  754MPD2     N11148   2.904   3.041  12.660 -0.3875 -0.5647  0.3370
  754MPD2    H511149   2.866   3.121  12.709  2.4268  1.4616 -0.7552
  754MPD2    N111150   3.327   2.893  12.456 -0.1162  0.0089  0.2373
  754MPD2    H711151   3.423   2.924  12.452  0.6098 -2.2390  0.1519
  755MPD2     C11152   2.738   3.404  13.409  0.1745  0.2539  0.2443
  755MPD2    C111153   2.613   3.365  13.353 -0.2106  0.1516  0.2665
  755MPD2    C211154   2.606   3.252  13.269  0.3759  0.3402 -0.1430
  755MPD2    C311155   2.722   3.183  13.228 -0.1619  0.3494 -0.6447
  755MPD2    C411156   2.836   3.226  13.288 -0.9956  0.0287  0.4364
  755MPD2    C511157   2.848   3.326  13.378 -0.0801  0.5629  0.5685
  755MPD2     H11158   2.508   3.224  13.233  0.1302  0.4990  0.4128
  755MPD2    H111159   2.929   3.174  13.268 -1.1633 -0.9544  2.1113
  755MPD2    H211160   2.746   3.500  13.460 -1.3526  0.6101 -0.1929
  755MPD2    H311161   2.945   3.371  13.398  0.5004 -0.5677  0.2701
  755MPD2     N11162   2.719   3.092  13.118  0.5271 -0.0307 -0.4166
  755MPD2    H511163   2.805   3.077  13.067  1.1074  1.2436  0.1921
  755MPD2    N111164   2.496   3.432  13.378 -0.0902 -0.6425 -0.3030
  755MPD2    H711165   2.420   3.418  13.313  0.9160 -1.2145 -1.3580
  756MPD2     C11166   3.802   3.957   9.296  0.2726  0.7962  0.1229
  756MPD2    C111167   3.774   3.899   9.420 -0.1899  0.0249 -0.4647
  756MPD2    C211168   3.677   3.798   9.421 -0.0039 -0.3242  0.0652
  756MPD2    C311169   3.617   3.738   9.305 -0.3480  0.6643  0.1195
  756MPD2    C411170   3.649   3.801   9.183 -0.2992 -0.4253 -0.2384
  756MPD2    C511171   3.743   3.903   9.182 -0.3283 -0.0359  0.4881
  756MPD2     H11172   3.641   3.754   9.514  2.8483  0.1123  1.3667
  756MPD2    H111173   3.603   3.775   9.088  0.1575 -0.6876 -0.3881
  756MPD2    H211174   3.883   4.029   9.291  1.2809 -0.2284  1.3997
  756MPD2    H311175   3.776   3.937   9.085  0.1839 -0.7003  0.4329
  756MPD2     N11176   3.520   3.636   9.319  0.1688  0.8217 -0.5971
  756MPD2    H511177   3.500   3.623   9.417 -0.0975 -0.4958 -0.8298
  756MPD2    N111178   3.817   3.956   9.546 -0.5365 -0.2263 -0.0709
  756MPD2    H711179   3.763   3.921   9.625 -0.3966 -1.7177 -0.6320
  757MPD2     C11180   2.676   3.020   8.971  0.3126 -0.7209 -0.7360
  757MPD2    C111181   2.708   2.976   9.091  0.4688  1.5447 -1.2667
  757MPD2    C211182   2.810   3.040   9.156 -0.1070 -0.0478  0.6499
  757MPD2    C311183   2.871   3.149   9.103  0.0571  0.7593 -1.6479
  757MPD2    C411184   2.818   3.203   8.989  0.7979 -0.5950 -0.0980
  757MPD2    C511185   2.724   3.137   8.919  0.6565 -0.3098 -0.0460
  757MPD2     H11186   2.839   3.005   9.254 -0.8780  1.5117  1.4221
  757MPD2    H111187   2.848   3.297   8.946  3.7505 -0.2165  2.7460
  757MPD2    H211188   2.610   2.961   8.909  0.0563 -0.2096 -0.9470
  757MPD2    H311189   2.693   3.185   8.827  0.6799  1.1029  0.6844
  757MPD2     N11190   2.969   3.216   9.181 -0.1402  0.5018 -0.5666
  757MPD2    H511191   2.983   3.183   9.275 -0.3443 -2.1479 -1.4652
  757MPD2    N111192   2.648   2.858   9.143 -0.2466 -0.3994  0.3109
  757MPD2    H711193   2.563   2.826   9.098 -1.1015 -1.1573  2.4574
  758MPD2     C11194   3.660   2.864  15.429 -0.2992 -0.4054 -0.5707
  758MPD2    C111195   3.730   2.806  15.529 -0.3594 -0.0226 -0.8291
  758MPD2    C211196   3.684   2.823  15.657 -0.8164  0.2684  0.0941
  758MPD2    C311197   3.578   2.910  15.686  0.2102  0.4445  0.1918
  758MPD2    C411198   3.502   2.962  15.583 -0.1599 -0.2321  0.0352
  758MPD2    C511199   3.546   2.938  15.457 -0.1351 -0.8035 -0.0502
  758MPD2     H11200   3.743   2.786  15.740  0.8553  0.8292 -0.8539
  758MPD2    H111201   3.420   3.029  15.606 -0.0601 -0.8410  2.1178
  758MPD2    H211202   3.688   2.848  15.325  0.1262  0.4595 -0.5825
  758MPD2    H311203   3.488   2.979  15.375 -1.1023 -0.1726  0.9478
  758MPD2     N11204   3.548   2.957  15.820 -0.6528  0.1589 -0.4585
  758MPD2    H511205   3.455   2.995  15.836 -0.2659  1.1637 -0.5703
  758MPD2    N111206   3.831   2.715  15.495 -0.7583  0.0736 -0.2089
  758MPD2    H711207   3.852   2.704  15.397  0.0616 -0.0922 -0.0154
  759MPD2     C11208   2.509   0.235  10.329  0.0952  0.2931 -0.0634
  759MPD2    C111209   2.381   0.209  10.375  0.8867  0.3613 -0.0314
  759MPD2    C211210   2.282   0.309  10.372 -0.1754  0.0704 -0.1597
  759MPD2    C311211   2.302   0.436  10.321  0.5812 -0.6875  0.0411
  759MPD2    C411212   2.432   0.462  10.277  0.5855  0.0373 -0.8938
  759MPD2    C511213   2.531   0.363  10.278  0.2946  0.3115  0.6659
  759MPD2     H11214   2.184   0.289  10.414  0.6114 -0.0330  1.6542
  759MPD2    H111215   2.462   0.556  10.233 -3.4389  2.5302  1.6251
  759MPD2    H211216   2.585   0.158  10.331 -3.0929 -2.8019 -0.4899
  759MPD2    H311217   2.625   0.407  10.246  0.4966 -0.0101  0.8120
  759MPD2     N11218   2.197   0.538  10.341  0.2683 -0.3198 -0.5737
  759MPD2    H511219   2.118   0.503  10.395  2.4154  0.7957  3.3411
  759MPD2    N111220   2.342   0.078  10.419  0.0879  0.0065 -0.4570
  759MPD2    H711221   2.249   0.078  10.459  0.6506  1.4283  0.8223
  760MPD2     C11222   1.983   3.355  11.706 -0.6417 -0.6095 -0.3388
  760MPD2    C111223   2.111   3.394  11.719 -0.5151  0.0086 -0.3631
  760MPD2    C211224   2.201   3.317  11.790  0.6059  0.2301 -0.5540
  760MPD2    C311225   2.159   3.192  11.841  0.4584 -0.4661  0.7769
  760MPD2    C411226   2.025   3.155  11.830  0.0671 -0.1478  0.7064
  760MPD2    C511227   1.939   3.236  11.756 -0.1447 -0.1793  0.4520
  760MPD2     H11228   2.307   3.339  11.791  0.9878 -1.6992  2.5141
  760MPD2    H111229   1.986   3.062  11.870  2.7885 -1.2223  0.8686
  760MPD2    H211230   1.908   3.419  11.662 -1.9093 -1.8106  0.0978
  760MPD2    H311231   1.834   3.214  11.737 -0.7444  0.9852  2.4529
  760MPD2     N11232   2.245   3.099  11.909  0.7139  0.4880 -0.2083
  760MPD2    H511233   2.203   3.020  11.957 -2.6352  0.8769 -2.5196
  760MPD2    N111234   2.164   3.513  11.659  0.2174  0.0525  0.4412
  760MPD2    H711235   2.266   3.518  11.659  0.1801  0.9843  1.2140
  761MPD2     C11236   3.273   2.312  10.822  0.0062  0.0796 -0.1483
  761MPD2    C111237   3.346   2.292  10.709  0.2653  0.2965 -0.0402
  761MPD2    C211238   3.420   2.393  10.653 -0.0712 -0.5570 -0.0376
  761MPD2    C311239   3.405   2.518  10.703  0.0336 -0.4953 -0.2832
  761MPD2    C411240   3.336   2.534  10.816  0.0711 -0.1731  0.5410
  761MPD2    C511241   3.266   2.433  10.873 -0.1736  1.0213  0.1061
  761MPD2     H11242   3.489   2.380  10.570 -0.5463  0.9047 -0.6738
  761MPD2    H111243   3.312   2.636  10.845  0.8334  0.6097 -1.5070
  761MPD2    H211244   3.205   2.238  10.864 -0.2122  1.3689  1.7520
  761MPD2    H311245   3.201   2.463  10.955 -0.2110  0.1557  0.3984
  761MPD2     N11246   3.447   2.639  10.645  0.0981 -0.2398 -0.0352
  761MPD2    H511247   3.442   2.722  10.703  1.0355 -1.8282  2.2925
  761MPD2    N111248   3.351   2.157  10.672 -0.8526  0.4179  0.0321
  761MPD2    H711249   3.310   2.101  10.746  2.1300  0.1680  1.4737
  762MPD2     C11250   3.479   1.748   9.969 -0.7622  0.9495 -0.5689
  762MPD2    C111251   3.560   1.724  10.079  0.1222  0.5811  0.0968
  762MPD2    C211252   3.689   1.684  10.065  0.5034  0.4157  0.1305
  762MPD2    C311253   3.734   1.643   9.948 -0.1272 -0.0555 -0.5783
  762MPD2    C411254   3.653   1.660   9.837  0.4182  0.5693  0.7023
  762MPD2    C511255   3.522   1.695   9.853 -0.9820  0.3375 -0.4366
  762MPD2     H11256   3.756   1.675  10.150  1.4161  1.3775 -0.4803
  762MPD2    H111257   3.673   1.634   9.734  0.3683 -2.0815  1.3605
  762MPD2    H211258   3.383   1.797   9.980 -0.6268  0.9570  0.6156
  762MPD2    H311259   3.454   1.705   9.770 -0.4620  2.4137 -0.6160
  762MPD2     N11260   3.864   1.596   9.928  0.2507 -0.7494  0.7582
  762MPD2    H511261   3.927   1.587  10.007  2.4493  0.9441 -0.8239
  762MPD2    N111262   3.499   1.750  10.205 -0.2163  0.0794  0.3752
  762MPD2    H711263   3.405   1.790  10.197 -0.5155 -1.4495 -3.4619
  763MPD2     C11264   0.888   2.908  15.923 -0.0075  0.6074  0.5251
  763MPD2    C111265   0.774   2.976  15.883  0.4855 -0.2536  1.1151
  763MPD2    C211266   0.745   3.097  15.952  0.0611  0.7683  0.3689
  763MPD2    C311267   0.839   3.148  16.041 -0.4448 -0.6819 -0.2384
  763MPD2    C411268   0.951   3.082  16.073  0.0773  0.1397  0.1434
  763MPD2    C511269   0.978   2.969  16.007 -0.2407  0.3119  1.1714
  763MPD2     H11270   0.652   3.146  15.924  0.3451  2.4664  2.4451
  763MPD2    H111271   1.019   3.116  16.150 -2.0106  1.5124  1.3830
  763MPD2    H211272   0.910   2.806  15.894  0.3918  0.5756  0.9380
  763MPD2    H311273   1.071   2.923  16.039  0.3267  1.9992  2.0003
  763MPD2     N11274   0.818   3.269  16.114 -0.5169 -0.1852  0.3163
  763MPD2    H511275   0.881   3.291  16.191 -0.5914  0.0064  0.3210
  763MPD2    N111276   0.681   2.929  15.790 -0.3916 -0.5846  0.1409
  763MPD2    H711277   0.606   2.988  15.755  0.3318  0.4536  0.3392
  764MPD2     C11278   3.566   4.475  16.970 -0.4583 -0.0748 -0.1624
  764MPD2    C111279   3.459   4.393  16.964  0.0282  1.2444 -0.4364
  764MPD2    C211280   3.460   4.276  17.034 -0.1715 -0.2422 -0.5926
  764MPD2    C311281   3.573   4.246  17.108 -0.7785  0.3116  0.1136
  764MPD2    C411282   3.682   4.333  17.118  0.0434  0.3023 -0.3442
  764MPD2    C511283   3.679   4.448  17.041  0.0388  0.4869  0.1694
  764MPD2     H11284   3.379   4.204  17.037 -2.3461  2.1947 -0.6073
  764MPD2    H111285   3.770   4.328  17.181 -1.8648 -0.3609  2.2458
  764MPD2    H211286   3.560   4.568  16.915 -0.7050  1.6142  2.7229
  764MPD2    H311287   3.757   4.522  17.050  0.1102  0.4100  0.1804
  764MPD2     N11288   3.558   4.116  17.180  0.0532 -0.4726 -0.3602
  764MPD2    H511289   3.483   4.049  17.165 -0.1608 -0.6116  1.3253
  764MPD2    N111290   3.337   4.425  16.891 -0.6272 -0.1846  0.4147
  764MPD2    H711291   3.273   4.346  16.890  0.0552 -0.7422  0.9614
  765MPD2     C11292   2.862   2.032  15.790 -0.1532 -0.2760  0.2032
  765MPD2    C111293   2.959   2.133  15.773  0.0100 -0.5186 -0.3613
  765MPD2    C211294   3.093   2.101  15.799 -0.3384 -0.9904  0.5481
  765MPD2    C311295   3.128   1.976  15.830 -0.5577 -0.4632  0.5022
  765MPD2    C411296   3.034   1.881  15.854  0.3346  0.2902  0.6162
  765MPD2    C511297   2.900   1.908  15.841 -0.7819  0.4351  0.3580
  765MPD2     H11298   3.169   2.176  15.781  0.7343 -1.6531  2.3353
  765MPD2    H111299   3.071   1.784  15.884 -2.5033 -0.3864  1.9186
  765MPD2    H211300   2.760   2.058  15.768 -0.6126 -1.6612  0.6555
  765MPD2    H311301   2.832   1.828  15.867 -0.1089 -0.3738 -0.3732
  765MPD2     N11302   3.270   1.945  15.828  0.0490  0.0525  0.3430
  765MPD2    H511303   3.332   2.017  15.791  1.0262 -0.4740  0.9909
  765MPD2    N111304   2.916   2.260  15.742  0.5374  0.2220  1.0060
  765MPD2    H711305   2.818   2.282  15.756  0.7381  1.2640  0.7650
  766MPD2     C11306   2.433   2.362  15.298 -0.8766 -0.4951  0.5708
  766MPD2    C111307   2.567   2.357  15.299  0.4881 -0.3420 -0.3285
  766MPD2    C211308   2.629   2.300  15.196  0.2425  0.5570  0.0380
  766MPD2    C311309   2.556   2.226  15.098  0.1891  0.0571 -0.2623
  766MPD2    C411310   2.416   2.220  15.107  0.8482  0.1826 -0.3000
  766MPD2    C511311   2.355   2.295  15.207 -0.8232  0.4055 -1.0674
  766MPD2     H11312   2.737   2.293  15.198  0.0908 -1.5975  1.2247
  766MPD2    H111313   2.352   2.165  15.039 -2.4081 -0.0249  2.9084
  766MPD2    H211314   2.383   2.418  15.377 -0.5201 -0.0388  0.4743
  766MPD2    H311315   2.248   2.310  15.213 -0.8194  0.4224 -1.0400
  766MPD2     N11316   2.630   2.172  14.988  0.6623  0.7840  0.3500
  766MPD2    H511317   2.581   2.145  14.904  2.3404  0.1543 -0.4403
  766MPD2    N111318   2.651   2.421  15.396  0.6761 -0.0716  0.0068
  766MPD2    H711319   2.750   2.403  15.388  0.3823 -0.5620 -2.4251
  767MPD2     C11320   2.227   2.565  14.971  0.1210 -0.3692  0.5135
  767MPD2    C111321   2.353   2.528  14.931 -0.2936 -0.1406 -0.5606
  767MPD2    C211322   2.380   2.440  14.826 -0.1858  0.4887  0.5457
  767MPD2    C311323   2.277   2.407  14.734 -0.7406  0.7500 -0.0692
  767MPD2    C411324   2.146   2.438  14.774 -0.2094 -0.3828  0.1029
  767MPD2    C511325   2.125   2.519  14.892  0.2342  0.2333 -0.1039
  767MPD2     H11326   2.482   2.417  14.795 -1.6332 -0.4494 -3.4710
  767MPD2    H111327   2.062   2.421  14.708 -0.1015  0.6929 -0.3141
  767MPD2    H211328   2.202   2.631  15.053  2.6128 -2.3933  2.8762
  767MPD2    H311329   2.022   2.546  14.911 -0.2062 -1.0473 -0.6609
  767MPD2     N11330   2.305   2.341  14.610 -0.4881  0.1637  0.4358
  767MPD2    H511331   2.403   2.324  14.590 -0.5571  0.4424 -0.1358
  767MPD2    N111332   2.456   2.592  15.003  0.3208  0.0066 -0.1529
  767MPD2    H711333   2.421   2.626  15.093 -0.1067  0.4558 -0.4905
  768MPD2     C11334   2.947   0.624  10.811  0.7456 -0.8886 -0.4255
  768MPD2    C111335   2.978   0.700  10.918  0.3910 -0.3470  0.5117
  768MPD2    C211336   3.073   0.661  11.008 -0.4296 -0.4166 -0.4946
  768MPD2    C311337   3.139   0.541  10.991 -0.4281  0.3655  0.6906
  768MPD2    C411338   3.113   0.469  10.880  1.1322  0.0631  0.7640
  768MPD2    C511339   3.015   0.504  10.793  0.0291 -0.5520 -1.0073
  768MPD2     H11340   3.082   0.729  11.092  0.9176  0.5881 -1.4433
  768MPD2    H111341   3.159   0.371  10.869  0.3870 -0.3279  1.1334
  768MPD2    H211342   2.863   0.647  10.746 -0.7502  1.5970  2.3731
  768MPD2    H311343   2.998   0.436  10.710 -0.6236 -1.6838  0.0622
  768MPD2     N11344   3.236   0.492  11.079 -0.2473  0.3252  0.1873
  768MPD2    H511345   3.299   0.424  11.037 -1.0753  0.5268 -1.3893
  768MPD2    N111346   2.912   0.816  10.953 -0.1119 -0.1563  0.3141
  768MPD2    H711347   2.946   0.857  11.040 -1.3717  1.7896 -0.1182
  769MPD2     C11348   4.543   3.767  14.382 -0.7699 -0.8179 -0.1321
  769MPD2    C111349   4.441   3.752  14.471 -0.6702 -0.0983  0.2374
  769MPD2    C211350   4.460   3.789  14.604 -0.8100 -0.3412 -0.2003
  769MPD2    C311351   4.574   3.834  14.646  0.4409  0.0670 -0.4081
  769MPD2    C411352   4.681   3.844  14.554  0.3847  0.2518  0.6909
  769MPD2    C511353   4.665   3.801  14.427 -0.5241 -0.1718  0.3058
  769MPD2     H11354   4.377   3.776  14.673 -1.4822  2.7865 -0.4084
  769MPD2    H111355   0.057   3.871  14.587  1.1954 -1.3767 -0.3687
  769MPD2    H211356   4.521   3.756  14.277 -1.1629 -2.0208  0.0713
  769MPD2    H311357   0.027   3.797  14.361  0.6882 -0.0540  1.8776
  769MPD2     N11358   4.578   3.864  14.785 -0.1010 -0.5797 -0.2412
  769MPD2    H511359   4.490   3.853  14.835 -0.5144 -1.0604 -1.0657
  769MPD2    N111360   4.316   3.719  14.420  1.4481  0.1960 -0.0596
  769MPD2    H711361   4.302   3.719  14.320  0.9073 -1.1106  0.0123
  770MPD2     C11362   3.608   3.178  14.773 -0.3487  0.5671 -0.4817
  770MPD2    C111363   3.677   3.162  14.656 -0.3254  1.0736  0.2901
  770MPD2    C211364   3.737   3.272  14.592  0.8175 -0.4446  0.1185
  770MPD2    C311365   3.725   3.399  14.645 -0.2385 -0.4252  0.6057
  770MPD2    C411366   3.637   3.417  14.753 -0.1183  0.3604  0.3182
  770MPD2    C511367   3.586   3.304  14.822 -0.4451  0.9952 -0.2781
  770MPD2     H11368   3.789   3.271  14.496 -1.2185  0.5960 -1.0041
  770MPD2    H111369   3.626   3.518  14.792 -0.6429 -0.3135  1.9385
  770MPD2    H211370   3.566   3.094  14.828 -1.5500  2.1545  1.0085
  770MPD2    H311371   3.541   3.320  14.919 -3.3493  1.6612 -1.7591
  770MPD2     N11372   3.781   3.501  14.562  0.1883 -0.4549 -0.1376
  770MPD2    H511373   3.814   3.480  14.468 -0.0017 -1.4102  0.0087
  770MPD2    N111374   3.694   3.030  14.617 -0.3585  0.0079 -0.2914
  770MPD2    H711375   3.630   2.973  14.672 -0.1928  0.8197  0.7311
  771MPD2     C11376   0.338   1.748  13.500  0.4021 -0.1302  0.3631
  771MPD2    C111377   0.236   1.840  13.469  0.3155  0.2720 -0.0646
  771MPD2    C211378   0.139   1.799  13.378  0.0952 -0.1279  0.2232
  771MPD2    C311379   0.146   1.676  13.311  0.3634 -0.3056  0.2684
  771MPD2    C411380   0.260   1.603  13.325  0.8584 -0.1880 -0.2066
  771MPD2    C511381   0.346   1.627  13.429  0.0282 -0.6668  0.2178
  771MPD2     H11382   0.054   1.863  13.355 -0.0829 -0.4882 -0.1175
  771MPD2    H111383   0.286   1.517  13.264  0.7281 -0.9721  0.8472
  771MPD2    H211384   0.411   1.770  13.577  1.5204 -0.6413 -0.5369
  771MPD2    H311385   0.432   1.561  13.438  0.6986 -0.0070 -1.2153
  771MPD2     N11386   0.051   1.656  13.210 -0.3104 -0.0639 -0.0320
  771MPD2    H511387   4.704   1.728  13.200 -1.7898 -1.6763 -1.0255
  771MPD2    N111388   0.245   1.978  13.502 -0.8254  0.0932  0.0701
  771MPD2    H711389   0.162   2.028  13.473  0.0305  0.4878 -1.6806
  772MPD2     C11390   4.534   2.513  13.520  0.2410 -0.5674  1.0661
  772MPD2    C111391   4.564   2.386  13.488 -0.3672  0.1994 -0.0775
  772MPD2    C211392   4.464   2.290  13.464  0.0067  0.0872 -0.7524
  772MPD2    C311393   4.323   2.318  13.479  0.2259  0.4450  1.0498
  772MPD2    C411394   4.301   2.458  13.506  0.2753 -0.1542 -0.2439
  772MPD2    C511395   4.398   2.546  13.520  0.4759  0.5470 -0.4479
  772MPD2     H11396   4.487   2.188  13.434 -0.4021 -0.1025 -0.4246
  772MPD2    H111397   4.205   2.506  13.522  0.8190 -0.4213  3.8186
  772MPD2    H211398   4.606   2.593  13.532 -0.8918  0.2683  2.3371
  772MPD2    H311399   4.366   2.647  13.545 -1.5477 -0.6462  1.7246
  772MPD2     N11400   4.231   2.215  13.465  0.6715 -0.1124  0.5532
  772MPD2    H511401   4.269   2.122  13.451 -1.9660 -1.0997 -0.1668
  772MPD2    N111402   4.694   2.339  13.488  0.3336  0.6008 -0.5008
  772MPD2    H711403   4.694   2.238  13.489  1.8602  0.6507  1.8085
  773MPD2     C11404   4.024   3.195  17.510 -1.2136  0.2444 -0.3379
  773MPD2    C111405   3.948   3.090  17.464 -0.2868  0.0243 -0.2910
  773MPD2    C211406   3.959   2.964  17.522  0.5799  0.3165 -0.5025
  773MPD2    C311407   4.041   2.944  17.630 -0.8442  0.1990 -0.0677
  773MPD2    C411408   4.109   3.056  17.684  0.2479  1.2434 -0.2309
  773MPD2    C511409   4.103   3.175  17.617 -0.1675 -0.1124  0.2636
  773MPD2     H11410   3.913   2.877  17.476 -2.7450  2.6292 -1.5605
  773MPD2    H111411   4.179   3.048   0.070 -0.4680 -3.5987 -0.0799
  773MPD2    H211412   4.020   3.296  17.471  0.2547  0.0575 -0.9776
  773MPD2    H311413   4.174   3.251  17.649 -0.2099  0.6897 -1.5666
  773MPD2     N11414   4.050   2.805  17.672  0.6598  0.2618  0.3228
  773MPD2    H511415   3.990   2.736  17.629  3.5006 -1.4438 -0.8647
  773MPD2    N111416   3.867   3.101  17.349 -0.4656 -0.4366  0.5882
  773MPD2    H711417   3.814   3.018  17.327  0.3986 -1.3895  2.1730
  774MPD2     C11418   3.108   1.923  12.654 -0.2565 -0.1892 -0.0546
  774MPD2    C111419   3.131   2.006  12.759 -0.7708  0.3113  0.1893
  774MPD2    C211420   3.214   2.115  12.748 -0.4802 -0.2854 -0.5306
  774MPD2    C311421   3.268   2.142  12.625  0.4219  0.4890 -0.0325
  774MPD2    C411422   3.242   2.051  12.520 -0.2964 -0.6150 -0.7929
  774MPD2    C511423   3.160   1.944  12.539 -0.0226  0.5965  0.3541
  774MPD2     H11424   3.223   2.181  12.834  0.3879  0.5332 -1.2465
  774MPD2    H111425   3.270   2.068  12.416 -1.4593  0.1257 -0.9904
  774MPD2    H211426   3.037   1.841  12.660 -1.1867  0.5723 -0.7585
  774MPD2    H311427   3.127   1.894  12.449  2.6689 -0.0283 -0.2755
  774MPD2     N11428   3.326   2.270  12.601  0.3216 -0.3307  0.0214
  774MPD2    H511429   3.321   2.341  12.673  1.4885  0.3276 -0.5680
  774MPD2    N111430   3.069   1.990  12.884  0.3914 -0.7847 -0.3971
  774MPD2    H711431   3.095   2.052  12.960 -1.4971 -0.9065  0.3328
  775MPD2     C11432   4.663   3.727  15.646  0.3357  0.1893  1.0800
  775MPD2    C111433   4.631   3.838  15.731  0.4589 -0.7250  0.3721
  775MPD2    C211434   4.708   3.950  15.719  0.2738 -0.3494  0.3669
  775MPD2    C311435   0.091   3.956  15.628  0.5174 -0.0981 -0.2874
  775MPD2    C411436   0.111   3.847  15.547  0.6753  1.0013 -0.0510
  775MPD2    C511437   0.031   3.734  15.550 -0.8629  0.1864 -0.4630
  775MPD2     H11438   4.684   4.036  15.781  0.4321  0.3006 -0.4788
  775MPD2    H111439   0.198   3.847  15.482  0.1467 -2.9061 -0.7950
  775MPD2    H211440   4.611   3.632  15.647 -0.5442  0.6599 -0.4384
  775MPD2    H311441   0.052   3.642  15.496 -3.1293 -0.7091  0.1746
  775MPD2     N11442   0.183   4.061  15.624 -0.1074  0.2212  0.2417
  775MPD2    H511443   0.245   4.064  15.544 -0.4738 -1.0107 -0.0979
  775MPD2    N111444   4.523   3.813  15.820 -0.6017  0.4431 -0.3006
  775MPD2    H711445   4.470   3.729  15.799 -1.6828  1.0450  0.0070
  776MPD2     C11446   3.548   4.239  11.242  0.3287 -0.9724 -0.5304
  776MPD2    C111447   3.601   4.146  11.157  0.2567 -0.6749  0.6113
  776MPD2    C211448   3.712   4.170  11.078 -0.7744 -0.6263  0.5640
  776MPD2    C311449   3.779   4.291  11.102  0.2214 -0.5603  0.0415
  776MPD2    C411450   3.717   4.391  11.180 -0.0405  0.1504 -0.0018
  776MPD2    C511451   3.603   4.366  11.242 -1.2569 -0.2184  0.0301
  776MPD2     H11452   3.737   4.107  10.994  1.0637  0.7182  0.1058
  776MPD2    H111453   3.768   4.483  11.205  0.9248 -0.4431  0.2194
  776MPD2    H211454   3.468   4.216  11.312 -0.2049  0.7548 -0.5705
  776MPD2    H311455   3.552   4.437  11.305 -0.1013  1.5741 -1.0714
  776MPD2     N11456   3.896   4.334  11.035  0.0825  0.2596  0.1004
  776MPD2    H511457   3.921   4.431  11.051  0.5731 -0.0699  1.3928
  776MPD2    N111458   3.540   4.019  11.165  0.5491 -0.6487 -0.3437
  776MPD2    H711459   3.444   4.007  11.198  1.5776 -0.5619  2.6415
  777MPD2     C11460   3.584   1.862   0.687 -0.1218  0.5798 -0.1484
  777MPD2    C111461   3.670   1.764   0.725  0.1766  0.1179  0.5762
  777MPD2    C211462   3.682   1.654   0.645 -0.3115 -0.0962 -0.4965
  777MPD2    C311463   3.620   1.651   0.525  0.2760 -0.5265  1.0777
  777MPD2    C411464   3.532   1.754   0.491  0.1229  0.1572  0.5666
  777MPD2    C511465   3.515   1.860   0.576  0.0838 -0.1953  0.2749
  777MPD2     H11466   3.746   1.572   0.679 -1.4072 -1.2118 -1.1225
  777MPD2    H111467   3.468   1.737   0.405  1.3164  3.2860 -0.9551
  777MPD2    H211468   3.567   1.952   0.744 -0.0450  0.4664  0.0570
  777MPD2    H311469   3.440   1.935   0.555 -1.4595 -1.6929  0.4041
  777MPD2     N11470   3.626   1.530   0.455 -0.1109  1.3883 -0.0285
  777MPD2    H511471   3.663   1.449   0.505 -2.8973 -0.3138 -0.7317
  777MPD2    N111472   3.721   1.781   0.857 -0.4485  0.5564 -0.6408
  777MPD2    H711473   3.680   1.856   0.913  1.9031  1.8687 -0.6647
  778MPD2     C11474   0.452   1.880  14.832  0.4806 -0.2462  0.4669
  778MPD2    C111475   0.372   1.813  14.745 -0.3584  0.4264 -0.6476
  778MPD2    C211476   0.344   1.863  14.613  0.1000  0.3863 -0.0063
  778MPD2    C311477   0.401   1.986  14.572  0.6998  0.0145  0.6268
  778MPD2    C411478   0.456   2.065  14.668  0.3114  0.0997  0.2166
  778MPD2    C511479   0.483   2.011  14.794 -0.2270  0.1203 -0.9564
  778MPD2     H11480   0.290   1.806  14.539 -0.0323  0.8080 -0.2267
  778MPD2    H111481   0.474   2.172  14.666  0.8121 -0.0304 -2.2516
  778MPD2    H211482   0.483   1.845  14.930 -3.2645  0.5688  1.9389
  778MPD2    H311483   0.524   2.071  14.874 -0.5001  0.8976 -1.4100
  778MPD2     N11484   0.396   2.024  14.433  0.5088 -0.3413 -0.7214
  778MPD2    H511485   0.362   1.957  14.365 -0.5135 -2.2434  1.6355
  778MPD2    N111486   0.315   1.686  14.779 -0.2937 -0.3692 -0.4948
  778MPD2    H711487   0.264   1.645  14.702 -0.1777  0.7163 -1.1537
  779MPD2     C11488   4.660   0.501  14.000  0.2491  0.0757  0.4853
  779MPD2    C111489   0.054   0.550  14.057 -0.5670  0.3124  0.2065
  779MPD2    C211490   0.071   0.683  14.086 -0.1833  0.3032 -0.0113
  779MPD2    C311491   4.710   0.769  14.020  0.6014 -0.5633  0.1111
  779MPD2    C411492   4.603   0.724  13.951  0.1832  0.4800 -0.0800
  779MPD2    C511493   4.572   0.592  13.952  0.3017 -0.3497  0.6435
  779MPD2     H11494   0.170   0.718  14.114 -0.8020  0.4111  2.0975
  779MPD2    H111495   4.531   0.788  13.902 -0.8610 -2.4834 -2.4359
  779MPD2    H211496   4.650   0.394  13.991 -1.2836  0.0711  2.3859
  779MPD2    H311497   4.495   0.563  13.882  0.8136 -1.9543  0.7388
  779MPD2     N11498   0.020   0.908  14.020 -0.3661  0.1508  0.3458
  779MPD2    H511499   0.108   0.924  14.068  0.1145 -0.4300 -0.3277
  779MPD2    N111500   0.169   0.455  14.090  0.1320  0.2370  0.2522
  779MPD2    H711501   0.244   0.501  14.141  1.1863  1.8888 -2.7884
  780MPD2     C11502   4.286   0.814   0.896 -0.6760 -0.4950  0.2006
  780MPD2    C111503   4.200   0.716   0.922 -0.6531 -0.1287  0.0617
  780MPD2    C211504   4.141   0.650   0.812  0.3524  0.5748  0.1635
  780MPD2    C311505   4.178   0.677   0.681 -0.2722 -0.5919 -0.8057
  780MPD2    C411506   4.271   0.778   0.661 -0.1724  0.9484 -0.0270
  780MPD2    C511507   4.329   0.840   0.770 -0.2742 -0.3342 -0.1282
  780MPD2     H11508   4.058   0.584   0.833 -0.5678  1.9389  0.8133
  780MPD2    H111509   4.299   0.817   0.564  1.9528 -2.8793 -0.9591
  780MPD2    H211510   4.323   0.874   0.978 -1.8100  0.4671  0.0001
  780MPD2    H311511   4.403   0.918   0.752  0.1738 -0.7095  0.0860
  780MPD2     N11512   4.120   0.621   0.565  0.8002  0.1569 -0.0169
  780MPD2    H511513   4.155   0.659   0.477 -0.1502  1.2481  0.0790
  780MPD2    N111514   4.173   0.684   1.057 -0.6767  0.0993  0.2017
  780MPD2    H711515   4.234   0.723   1.128 -0.3089  0.9549 -0.5792
  781MPD2     C11516   1.693   1.793  11.494  0.3516 -0.1084  0.3068
  781MPD2    C111517   1.642   1.903  11.555  0.3090 -0.3828 -0.0230
  781MPD2    C211518   1.559   1.989  11.477  0.4226  0.4539  0.2801
  781MPD2    C311519   1.538   1.970  11.347  0.8520 -0.3532  0.6183
  781MPD2    C411520   1.584   1.857  11.290  0.6707  0.0999 -0.2230
  781MPD2    C511521   1.658   1.767  11.366 -0.3693  0.1060  0.1082
  781MPD2     H11522   1.515   2.076  11.525  0.2291  1.5962 -1.9666
  781MPD2    H111523   1.564   1.826  11.188 -1.6533  0.1479  0.2164
  781MPD2    H211524   1.750   1.714  11.542 -0.3700 -0.9367 -0.1844
  781MPD2    H311525   1.691   1.670  11.329 -0.3651  1.0277 -2.3055
  781MPD2     N11526   1.493   2.066  11.256  0.2590  0.2683  0.0213
  781MPD2    H511527   1.489   2.037  11.159 -2.8035  1.8179 -0.2964
  781MPD2    N111528   1.654   1.932  11.692  0.0494  0.2828 -0.3580
  781MPD2    H711529   1.597   2.002  11.739  0.4341  2.3528 -2.9919
  782MPD2     C11530   3.951   3.506   9.546  0.2634  0.2654 -0.5923
  782MPD2    C111531   4.057   3.421   9.553 -0.1007 -0.5042  0.0227
  782MPD2    C211532   4.154   3.447   9.648  0.2518 -0.0519  0.1999
  782MPD2    C311533   4.142   3.548   9.744  0.0065 -0.3504  0.3871
  782MPD2    C411534   4.027   3.629   9.739  0.1638  0.0055 -1.1491
  782MPD2    C511535   3.929   3.600   9.643  0.2794 -0.2420 -0.3009
  782MPD2     H11536   4.241   3.383   9.656  0.9667  0.8011 -0.6868
  782MPD2    H111537   4.012   3.712   9.806 -0.0433 -1.5991  0.7999
  782MPD2    H211538   3.876   3.489   9.470 -0.2702  2.4260 -0.5447
  782MPD2    H311539   3.835   3.655   9.653  1.6408  1.3518  3.9343
  782MPD2     N11540   4.240   3.557   9.838  0.0974  0.2108 -0.1240
  782MPD2    H511541   4.326   3.507   9.820 -0.5735 -0.6419 -0.9048
  782MPD2    N111542   4.049   3.311   9.459  0.1362 -0.2835  0.0542
  782MPD2    H711543   3.955   3.284   9.431  0.1751 -0.2215 -0.1364
  783MPD2     C11544   4.064   3.154  10.219  0.2066 -0.5123  0.6930
  783MPD2    C111545   3.970   3.071  10.171 -0.1260 -0.3142  0.6906
  783MPD2    C211546   3.963   3.027  10.042  0.7145 -0.4121 -0.0425
  783MPD2    C311547   4.057   3.075   9.956  0.1107  0.2312 -0.5640
  783MPD2    C411548   4.147   3.169   9.999 -0.7769 -0.0222  0.3796
  783MPD2    C511549   4.155   3.200  10.134  0.1483  0.0836  0.1140
  783MPD2     H11550   3.882   2.961  10.012 -2.7624  3.6497  0.4704
  783MPD2    H111551   4.220   3.222   9.939 -1.1860 -2.2060 -2.0334
  783MPD2    H211552   4.059   3.179  10.324  0.8646 -1.9649  1.0748
  783MPD2    H311553   4.220   3.279  10.171  0.0641  0.1000  0.2273
  783MPD2     N11554   4.064   3.028   9.825  0.6397 -0.6852  0.0177
  783MPD2    H511555   4.149   3.062   9.780 -0.4717 -0.7570 -2.1160
  783MPD2    N111556   3.876   3.033  10.268 -0.1509 -0.1492 -0.5378
  783MPD2    H711557   3.886   3.066  10.363  0.6411  0.3092 -0.7724
  784MPD2     C11558   1.514   3.321   1.247 -0.1451 -0.1102  1.1669
  784MPD2    C111559   1.580   3.428   1.181  0.3048 -0.1056  0.0335
  784MPD2    C211560   1.504   3.519   1.111 -0.4761  0.5288 -0.0566
  784MPD2    C311561   1.367   3.495   1.092  0.2180 -0.4601  0.6081
  784MPD2    C411562   1.305   3.386   1.146  0.0183 -0.4702  0.5405
  784MPD2    C511563   1.379   3.299   1.227  0.2274 -0.3936  0.7746
  784MPD2     H11564   1.549   3.607   1.068 -0.1271  0.5070  0.2583
  784MPD2    H111565   1.200   3.361   1.131 -0.0629 -0.1811  0.6253
  784MPD2    H211566   1.569   3.252   1.309  1.2085 -0.9987 -1.0278
  784MPD2    H311567   1.336   3.210   1.272  2.3222 -0.6958  2.2013
  784MPD2     N11568   1.292   3.595   1.026  0.0622  0.6131 -0.5143
  784MPD2    H511569   1.345   3.673   0.987  1.3597  0.1413  0.3000
  784MPD2    N111570   1.713   3.462   1.212 -0.1566  0.0579  0.0732
  784MPD2    H711571   1.742   3.548   1.165 -0.9694  0.0123 -0.5000
  785MPD2     C11572   2.377   1.993  10.086  0.1163  0.3893 -0.2922
  785MPD2    C111573   2.348   2.037  10.215  0.0224 -0.2964  0.2069
  785MPD2    C211574   2.290   1.949  10.298  0.5011  0.0935 -0.0765
  785MPD2    C311575   2.268   1.815  10.266  0.4834  0.0189  0.0474
  785MPD2    C411576   2.304   1.773  10.139 -0.4053 -0.0992 -0.2544
  785MPD2    C511577   2.351   1.866  10.049 -0.3882  0.0735  0.4964
  785MPD2     H11578   2.252   1.982  10.394  1.5986 -0.5566  0.5810
  785MPD2    H111579   2.300   1.671  10.105  2.7143 -0.0959 -0.6097
  785MPD2    H211580   2.428   2.064  10.022  0.0479  1.4173  0.7946
  785MPD2    H311581   2.380   1.821   9.955  1.0585  0.1724  0.8950
  785MPD2     N11582   2.195   1.731  10.345 -0.0492 -0.1863 -0.1490
  785MPD2    H511583   2.159   1.774  10.429  3.4478  0.4045  1.0319
  785MPD2    N111584   2.360   2.167  10.254 -0.5092 -0.5957  0.1080
  785MPD2    H711585   2.321   2.195  10.343  0.8369 -0.9447  0.7973
  786MPD2     C11586   1.101   0.223  14.142 -0.3255  0.4191  0.6233
  786MPD2    C111587   1.066   0.139  14.249 -0.4581 -0.1703 -0.2099
  786MPD2    C211588   1.111   0.167  14.373 -0.2495  0.6808 -1.0058
  786MPD2    C311589   1.198   0.273  14.391 -0.2770 -0.2036  0.3647
  786MPD2    C411590   1.228   0.362  14.292 -0.1213  0.5897  0.4096
  786MPD2    C511591   1.179   0.336  14.168 -0.1504 -1.0928  0.2498
  786MPD2     H11592   1.089   0.090  14.446 -1.9702  1.4228 -0.7251
  786MPD2    H111593   1.292   0.445  14.318  0.0288  0.7098 -0.3334
  786MPD2    H211594   1.073   0.196  14.041 -0.6006  1.6696  0.3755
  786MPD2    H311595   1.200   0.402  14.084  4.3121 -1.8147  0.7763
  786MPD2     N11596   1.254   0.282  14.521  0.1285  0.0978 -0.5471
  786MPD2    H511597   1.329   0.347  14.538 -0.3699  0.5374 -0.0508
  786MPD2    N111598   0.994   0.016  14.228 -0.2633 -0.1411 -0.0318
  786MPD2    H711599   0.980   4.682  14.311 -0.1296  0.8788  0.6914
  787MPD2     C11600   1.113   4.314  14.656  0.5100 -0.5447  0.4611
  787MPD2    C111601   1.086   4.242  14.543  0.5039 -0.4563 -0.3840
  787MPD2    C211602   1.147   4.120  14.531 -0.5890 -0.1231  0.0911
  787MPD2    C311603   1.218   4.061  14.632  0.0272 -0.1782  1.7036
  787MPD2    C411604   1.244   4.141  14.746 -0.5781 -0.4006  0.2285
  787MPD2    C511605   1.188   4.266  14.756 -0.4880 -0.4848 -0.4243
  787MPD2     H11606   1.134   4.063  14.440 -0.1158 -2.3132  1.3938
  787MPD2    H111607   1.301   4.103  14.830  1.2953 -0.9379 -1.2945
  787MPD2    H211608   1.069   4.412  14.665  0.8707 -0.4754  1.5255
  787MPD2    H311609   1.194   4.335  14.840  0.7932 -1.2829  0.1518
  787MPD2     N11610   1.262   3.931  14.606  0.2242  0.0359  0.3099
  787MPD2    H511611   1.256   3.889  14.514  0.1361  1.5963 -0.3910
  787MPD2    N111612   1.033   4.314  14.430  0.7111 -0.6756  0.2142
  787MPD2    H711613   1.009   4.411  14.451  0.8825 -0.8289  1.1266
  788MPD2     C11614   2.362   2.691   0.845 -0.6366 -0.5991 -0.2609
  788MPD2    C111615   2.285   2.612   0.747  0.8396 -0.2408 -0.8656
  788MPD2    C211616   2.279   2.652   0.617  0.6003  0.2234 -0.4086
  788MPD2    C311617   2.348   2.763   0.575  0.2551  0.1747  0.3157
  788MPD2    C411618   2.422   2.830   0.664 -0.6266  0.4495 -0.4409
  788MPD2    C511619   2.430   2.800   0.796 -0.2872  0.1357 -0.1977
  788MPD2     H11620   2.238   2.582   0.545  0.1878  0.2206 -0.1667
  788MPD2    H111621   2.487   2.907   0.624 -0.6153  0.5775 -0.1806
  788MPD2    H211622   2.370   2.668   0.951  0.5807 -0.3549 -0.2929
  788MPD2    H311623   2.486   2.859   0.868 -0.7832  0.0229  0.2802
  788MPD2     N11624   2.351   2.810   0.439 -0.3426 -0.0098  0.0353
  788MPD2    H511625   2.415   2.879   0.402  0.1019  0.4507  1.6762
  788MPD2    N111626   2.241   2.484   0.788 -0.3766 -0.0248 -0.0757
  788MPD2    H711627   2.222   2.411   0.720 -1.4882  0.1870  0.0108
  789MPD2     C11628   3.337   2.660  16.055 -0.4588  0.0991 -0.5491
  789MPD2    C111629   3.286   2.613  16.169  0.5920  0.2977 -0.2280
  789MPD2    C211630   3.168   2.674  16.215  0.0546 -0.6549  0.8972
  789MPD2    C311631   3.100   2.770  16.142  0.2812  0.9892  0.1132
  789MPD2    C411632   3.155   2.804  16.019 -0.1748  0.4633  0.9948
  789MPD2    C511633   3.264   2.740  15.972  0.2817  0.2879 -0.1713
  789MPD2     H11634   3.126   2.632  16.305 -2.0198  1.0648  0.7314
  789MPD2    H111635   3.106   2.872  15.949 -1.1918  0.8505  2.0705
  789MPD2    H211636   3.438   2.637  16.023 -0.7010 -0.8247 -0.6296
  789MPD2    H311637   3.296   2.755  15.870 -2.2876 -1.7821 -1.2897
  789MPD2     N11638   2.974   2.831  16.178 -0.0034 -0.5830 -0.1115
  789MPD2    H511639   2.937   2.898  16.112  2.4263  2.4069  1.5302
  789MPD2    N111640   3.357   2.525  16.251 -0.0178 -1.1027  0.8666
  789MPD2    H711641   3.311   2.485  16.332 -1.9927  0.9454  0.7879
  790MPD2     C11642   3.690   4.666  13.515  0.3260 -0.0373 -0.0600
  790MPD2    C111643   3.778   4.557  13.516 -0.2473 -0.2762 -0.3568
  790MPD2    C211644   3.824   4.503  13.392 -0.2254 -1.0940  0.5494
  790MPD2    C311645   3.786   4.563  13.276  0.1863 -0.1256  0.5338
  790MPD2    C411646   3.696   4.668  13.277 -0.1754  0.3265  0.1282
  790MPD2    C511647   3.657   0.001  13.397  0.8196  0.1257 -0.5852
  790MPD2     H11648   3.896   4.422  13.386  2.5747  1.6655 -2.7862
  790MPD2    H111649   3.648   4.714  13.192 -1.0582 -0.5566  0.1495
  790MPD2    H211650   3.657   4.709  13.610  4.1361 -2.2705  2.2714
  790MPD2    H311651   3.591   0.086  13.394  1.6983  0.7487 -2.7858
  790MPD2     N11652   3.817   4.486  13.155  0.2791 -0.1268  0.2392
  790MPD2    H511653   3.844   4.389  13.168 -0.9944 -0.4603  0.3575
  790MPD2    N111654   3.822   4.507  13.638 -0.0366 -0.1184  0.4948
  790MPD2    H711655   3.776   4.547  13.719 -1.4364 -1.4583  0.3645
  791MPD2     C11656   3.386   4.255  12.423  0.5293  0.5080 -0.5596
  791MPD2    C111657   3.436   4.164  12.510  0.1949 -0.3672  0.1594
  791MPD2    C211658   3.374   4.041  12.523  0.6597  0.9557 -0.7457
  791MPD2    C311659   3.268   4.011  12.446 -0.8707  0.1291  0.7540
  791MPD2    C411660   3.225   4.098  12.348 -0.0972 -0.2949  0.2523
  791MPD2    C511661   3.280   4.221  12.344  0.2651 -0.5947  0.1021
  791MPD2     H11662   3.409   3.977  12.603 -0.0683  0.8205 -0.5403
  791MPD2    H111663   3.138   4.073  12.290 -0.0530 -1.3247  0.6360
  791MPD2    H211664   3.427   4.354  12.407 -0.5295  1.3210  1.8274
  791MPD2    H311665   3.246   4.293  12.270  1.1758 -1.9878 -1.6808
  791MPD2     N11666   3.209   3.885  12.464  0.2047  0.1169  0.3505
  791MPD2    H511667   3.262   3.820  12.521  0.1782  0.3384  0.6292
  791MPD2    N111668   3.552   4.183  12.597 -0.6817  0.1951 -0.3964
  791MPD2    H711669   3.588   4.101  12.644 -0.1869 -0.9674 -2.8120
  792MPD2     C11670   4.049   3.643  11.272  0.6174  0.1191  0.1658
  792MPD2    C111671   4.093   3.675  11.142 -0.3718 -0.0251 -0.3202
  792MPD2    C211672   4.015   3.629  11.034 -0.7254 -0.2801 -0.1311
  792MPD2    C311673   3.906   3.553  11.058  0.1480 -0.1416 -0.5259
  792MPD2    C411674   3.867   3.522  11.185 -0.0823 -0.0615  0.6855
  792MPD2    C511675   3.947   3.556  11.290  0.6492 -0.2567 -0.2986
  792MPD2     H11676   4.038   3.650  10.930  0.3417 -0.7355  0.0053
  792MPD2    H111677   3.775   3.467  11.203  0.3925 -0.6710  1.2134
  792MPD2    H211678   4.097   3.682  11.360 -0.5477 -0.7244  1.1720
  792MPD2    H311679   3.913   3.545  11.392  0.4536  1.3385 -0.1968
  792MPD2     N11680   3.824   3.513  10.949  0.3481  0.1112 -0.4631
  792MPD2    H511681   3.728   3.484  10.966  0.8225 -2.1555 -1.6602
  792MPD2    N111682   4.205   3.753  11.131  0.1267  0.2003  0.6608
  792MPD2    H711683   4.254   3.779  11.217  3.1947 -3.0515 -0.1233
  793MPD2     C11684   3.526   4.009  10.201 -0.6185  0.0637  0.0725
  793MPD2    C111685   3.649   3.946  10.205 -0.0135  0.2768  0.0975
  793MPD2    C211686   3.678   3.866  10.313 -0.3235  0.0672 -0.3340
  793MPD2    C311687   3.577   3.813  10.392  0.7785  0.3230  0.2673
  793MPD2    C411688   3.448   3.874  10.380 -0.0255  0.4475  0.2238
  793MPD2    C511689   3.427   3.972  10.288  0.6796 -0.6725  0.4184
  793MPD2     H11690   3.776   3.821  10.302 -1.1635 -1.5648 -1.1054
  793MPD2    H111691   3.374   3.853  10.456 -0.6590  1.5417 -0.0857
  793MPD2    H211692   3.501   4.086  10.129 -1.2783  0.2631  0.5240
  793MPD2    H311693   3.326   4.012  10.285  0.6901 -0.7056 -0.3375
  793MPD2     N11694   3.607   3.720  10.491  1.1378 -0.3409  0.0983
  793MPD2    H511695   3.702   3.686  10.502  0.3640 -2.2569  0.7845
  793MPD2    N111696   3.755   3.991  10.124 -0.2932 -0.2978 -0.3639
  793MPD2    H711697   3.846   3.947  10.132 -1.3728 -2.2364  1.2690
  794MPD2     C11698   3.773   3.285  16.502 -0.1071  0.3810 -0.4882
  794MPD2    C111699   3.653   3.286  16.570  0.3815  0.6365  0.0857
  794MPD2    C211700   3.540   3.317  16.500  1.0148 -0.5742 -0.1126
  794MPD2    C311701   3.542   3.339  16.359  0.5158  0.0245 -0.2597
  794MPD2    C411702   3.664   3.334  16.290 -0.4068 -0.6046  0.4971
  794MPD2    C511703   3.774   3.301  16.369 -0.2265 -1.0322 -0.5231
  794MPD2     H11704   3.450   3.320  16.559  1.7230  0.4614  0.9157
  794MPD2    H111705   3.679   3.369  16.188 -1.0977  0.1392  0.6527
  794MPD2    H211706   3.865   3.263  16.555 -0.2667  3.0802  0.9224
  794MPD2    H311707   3.869   3.301  16.317  0.3611 -2.8109  0.5502
  794MPD2     N11708   3.431   3.382  16.286  0.2864 -0.2662 -1.0049
  794MPD2    H511709   3.457   3.402  16.189 -1.2860  0.4781 -1.2705
  794MPD2    N111710   3.634   3.284  16.708  0.1228  0.1825  0.0990
  794MPD2    H711711   3.536   3.286  16.733  0.1531  1.0926  0.1411
  795MPD2     C11712   0.951   0.536  13.775 -0.8402 -0.3918 -0.4985
  795MPD2    C111713   0.991   0.600  13.661 -0.6600  0.3633  0.4026
  795MPD2    C211714   1.110   0.553  13.605  0.2763 -0.5931 -0.3904
  795MPD2    C311715   1.184   0.450  13.654 -0.4757  0.0971  0.4929
  795MPD2    C411716   1.139   0.386  13.773  0.5612  0.4755 -0.3215
  795MPD2    C511717   1.025   0.435  13.829 -0.2869 -1.0228  0.4351
  795MPD2     H11718   1.143   0.596  13.511 -0.7013 -1.6956 -1.2465
  795MPD2    H111719   1.186   0.302  13.822  0.3415  0.2340 -0.5234
  795MPD2    H211720   0.857   0.563  13.821  0.4384  0.7230  1.4634
  795MPD2    H311721   0.979   0.375  13.906  1.6517 -0.8421  1.7143
  795MPD2     N11722   1.295   0.397  13.593 -0.1620 -0.3493  0.3790
  795MPD2    H511723   1.341   0.319  13.640 -0.7388 -0.1480  1.2759
  795MPD2    N111724   0.908   0.706  13.612  0.3114  0.1054  0.7218
  795MPD2    H711725   0.816   0.705  13.657 -0.3531 -0.4574 -0.6374
  796MPD2     C11726   1.073   2.608  15.605  0.7947  0.2267  0.1178
  796MPD2    C111727   1.141   2.687  15.697 -0.3945 -0.3435  0.9606
  796MPD2    C211728   1.130   2.825  15.701 -0.2906  0.3069 -0.4628
  796MPD2    C311729   1.034   2.883  15.608 -0.4366  1.0291 -0.3930
  796MPD2    C411730   0.955   2.804  15.528  0.4334  0.3711 -0.0575
  796MPD2    C511731   0.980   2.670  15.531  0.0096 -0.1070 -0.2396
  796MPD2     H11732   1.198   2.880  15.764  0.5107  1.1496 -2.0715
  796MPD2    H111733   0.876   2.845  15.466  1.6244  2.2789 -0.2847
  796MPD2    H211734   1.082   2.500  15.603  1.7662  0.2668  2.0182
  796MPD2    H311735   0.912   2.615  15.468 -0.5647 -0.4311  0.6565
  796MPD2     N11736   1.002   3.021  15.627  0.2888  0.7312  0.2043
  796MPD2    H511737   1.068   3.056  15.696  0.7593 -1.7084  1.0091
  796MPD2    N111738   1.217   2.612  15.784 -0.1768 -0.1502  0.0729
  796MPD2    H711739   1.216   2.511  15.772 -0.1957 -0.2606  1.0329
  797MPD2     C11740   1.904   1.871  17.208  0.0161 -0.4686 -1.0943
  797MPD2    C111741   1.994   1.973  17.222 -0.1675 -1.0418  0.1436
  797MPD2    C211742   1.947   2.102  17.198 -0.6902 -0.4648 -0.2409
  797MPD2    C311743   1.826   2.138  17.142 -0.3496 -0.1665  0.2128
  797MPD2    C411744   1.742   2.037  17.114  0.4201 -0.3180 -0.4371
  797MPD2    C511745   1.783   1.904  17.152  0.7338 -0.2294  0.0314
  797MPD2     H11746   2.022   2.178  17.218  0.1962 -1.2427 -0.6308
  797MPD2    H111747   1.642   2.056  17.078  0.7661  1.0843 -0.6313
  797MPD2    H211748   1.912   1.766  17.235  2.7042  0.0622  0.1513
  797MPD2    H311749   1.713   1.823  17.138  0.7970 -0.3090  0.1863
  797MPD2     N11750   1.789   2.272  17.109  0.4894 -0.0995  0.4405
  797MPD2    H511751   1.693   2.290  17.082  0.4565  0.5399  0.9892
  797MPD2    N111752   2.125   1.956  17.268 -0.4500  0.8421  0.0650
  797MPD2    H711753   2.182   2.037  17.287  2.0317 -1.0124  0.5068
  798MPD2     C11754   2.377   2.652  17.288 -0.0548  0.5932 -0.3380
  798MPD2    C111755   2.269   2.568  17.275  0.5940 -0.3650 -0.5183
  798MPD2    C211756   2.285   2.431  17.297 -0.3681  0.5165  0.2233
  798MPD2    C311757   2.407   2.378  17.338 -0.5534 -0.5203  0.2013
  798MPD2    C411758   2.509   2.465  17.369  0.3543 -0.2936  0.2473
  798MPD2    C511759   2.494   2.598  17.334  0.1823  0.2344 -0.3127
  798MPD2     H11760   2.203   2.366  17.270  0.7818  0.0082 -2.0354
  798MPD2    H111761   2.605   2.435  17.409  0.1453  1.6287  2.1948
  798MPD2    H211762   2.362   2.759  17.278  1.6047  0.9061  0.5709
  798MPD2    H311763   2.574   2.667  17.356  0.0652  1.2652 -3.0546
  798MPD2     N11764   2.407   2.243  17.361 -0.2777 -0.3742 -0.7724
  798MPD2    H511765   2.326   2.187  17.336 -0.8580 -0.1915  0.6788
  798MPD2    N111766   2.143   2.598  17.218  0.8543 -0.3373  0.0189
  798MPD2    H711767   2.086   2.518  17.192 -0.8914  1.1598 -0.7164
  799MPD2     C11768   0.932   3.602  14.633 -0.2722  0.3333  0.1470
  799MPD2    C111769   0.871   3.546  14.522 -0.1851 -0.6331  0.2169
  799MPD2    C211770   0.833   3.622  14.421  0.1038  0.9760  0.2086
  799MPD2    C311771   0.875   3.756  14.421  0.4635 -0.3288  0.2215
  799MPD2    C411772   0.957   3.804  14.512  0.1647 -0.5234 -0.6687
  799MPD2    C511773   0.975   3.731  14.631 -0.6031 -0.5978  0.3100
  799MPD2     H11774   0.767   3.584  14.343  0.6441  2.4464 -0.9817
  799MPD2    H111775   0.984   3.909  14.517  0.7041 -0.6647 -0.6368
  799MPD2    H211776   0.951   3.546  14.723 -0.8086  1.2056  0.8018
  799MPD2    H311777   1.034   3.772  14.712 -0.8987 -0.0456  0.2448
  799MPD2     N11778   0.840   3.841  14.318  0.1138 -0.3631  0.6823
  799MPD2    H511779   0.880   3.934  14.321  2.2107 -1.2083 -1.2617
  799MPD2    N111780   0.852   3.407  14.514 -0.7199 -0.3243 -0.3018
  799MPD2    H711781   0.795   3.368  14.438  0.9729  1.2740 -2.3889
  800MPD2     C11782   1.345   4.609  14.033 -0.9075 -0.1336  0.5633
  800MPD2    C111783   1.385   4.699  13.931 -0.2936  0.4212 -0.6360
  800MPD2    C211784   1.353   4.661  13.800 -0.8311  0.8851 -0.0327
  800MPD2    C311785   1.272   4.550  13.770 -1.3603  0.0948  0.2865
  800MPD2    C411786   1.234   4.467  13.876  0.5242 -0.3545  0.4321
  800MPD2    C511787   1.287   4.492  14.003  0.5643  0.0117  0.2746
  800MPD2     H11788   1.393   4.714  13.715  1.0046 -1.9624 -0.9753
  800MPD2    H111789   1.174   4.377  13.868  0.1961 -0.1217  0.2625
  800MPD2    H211790   1.369   4.620  14.138  1.6523  0.6664 -0.1194
  800MPD2    H311791   1.255   4.434  14.088 -3.7577  0.1213 -1.2663
  800MPD2     N11792   1.240   4.532  13.632  0.3761  0.4617  0.2867
  800MPD2    H511793   1.281   4.589  13.558 -0.7590 -0.5382 -1.1156
  800MPD2    N111794   1.464   0.091  13.969  0.6817  0.0909  0.1606
  800MPD2    H711795   1.500   0.092  14.064  2.4957 -1.3940 -0.5018
  801MPD2     C11796   1.467   0.956  13.957  0.2216  0.5913  0.2846
  801MPD2    C111797   1.499   0.863  14.063  0.8484 -0.0593  0.4287
  801MPD2    C211798   1.463   0.895  14.194  0.4620  0.3069  0.1300
  801MPD2    C311799   1.359   0.991  14.214 -0.0617 -0.2412  0.5115
  801MPD2    C411800   1.317   1.073  14.108  0.6459  0.0674 -0.3951
  801MPD2    C511801   1.365   1.042  13.980 -0.5683 -0.7320 -0.2103
  801MPD2     H11802   1.509   0.844  14.277 -0.1245 -1.2003 -0.4806
  801MPD2    H111803   1.236   1.141  14.128  1.3551  1.1842 -1.3681
  801MPD2    H211804   1.504   0.939  13.856 -0.3252  1.5811 -0.0731
  801MPD2    H311805   1.325   1.105  13.901 -0.8125 -1.1728 -0.4378
  801MPD2     N11806   1.302   1.020  14.339 -0.3749  0.6433 -0.3512
  801MPD2    H511807   1.218   1.077  14.348  0.5607  2.0810 -0.7210
  801MPD2    N111808   1.572   0.750  14.035  0.3426  0.7585 -0.0738
  801MPD2    H711809   1.626   0.710  14.112  1.0084 -0.4723 -1.1842
  802MPD2     C11810   0.474   0.756   0.232 -0.0943  0.5335 -0.3643
  802MPD2    C111811   0.431   0.794   0.106 -0.3359 -0.2525  0.0996
  802MPD2    C211812   0.506   0.745  17.695  0.1607 -0.3217 -0.8634
  802MPD2    C311813   0.600   0.644   0.018 -0.8413 -0.1579  0.0483
  802MPD2    C411814   0.628   0.604   0.146 -0.2598 -0.4024 -0.4547
  802MPD2    C511815   0.560   0.658   0.259 -0.2873  0.5563 -0.1562
  802MPD2     H11816   0.488   0.784  17.595  1.4509  0.2462 -0.8794
  802MPD2    H111817   0.705   0.531   0.171  1.9486  2.1663  0.2696
  802MPD2    H211818   0.420   0.793   0.318  2.5562 -0.0069  1.5214
  802MPD2    H311819   0.590   0.621   0.356 -0.2255 -0.3065 -0.5085
  802MPD2     N11820   0.674   0.618  17.601  0.0282  0.5028 -0.4436
  802MPD2    H511821   0.658   0.671  17.516  2.3919  0.4101 -0.9289
  802MPD2    N111822   0.332   0.890   0.088  0.2199  0.5750  0.1464
  802MPD2    H711823   0.326   0.935  17.693 -0.1708 -0.7843 -0.4947
  803MPD2     C11824   2.047   4.083  11.820  0.7739 -0.7552 -0.2966
  803MPD2    C111825   2.140   4.047  11.912 -0.0008 -0.2756 -0.5138
  803MPD2    C211826   2.101   3.959  12.020 -0.3746  1.1776 -0.0745
  803MPD2    C311827   1.969   3.917  12.030 -0.0407 -0.6392 -0.2267
  803MPD2    C411828   1.882   3.948  11.925  0.2073 -0.6107  0.1801
  803MPD2    C511829   1.921   4.028  11.826 -0.0703 -0.5609 -0.2956
  803MPD2     H11830   2.182   3.933  12.088 -2.1741  2.3708  2.5473
  803MPD2    H111831   1.779   3.916  11.925  0.2459 -0.7239 -1.3399
  803MPD2    H211832   2.076   4.151  11.741 -1.7749  0.7497  0.0604
  803MPD2    H311833   1.849   4.055  11.749  0.1084 -2.9292 -1.2955
  803MPD2     N11834   1.921   3.841  12.141  0.2645 -0.1413 -0.4361
  803MPD2    H511835   1.822   3.823  12.155  0.1570  1.5658  1.0645
  803MPD2    N111836   2.270   4.110  11.919  0.2405 -0.1942 -0.0060
  803MPD2    H711837   2.315   4.090  12.007 -1.1269  0.3904  0.8353
  804MPD2     C11838   1.522   0.412  16.619 -0.3826 -0.2538  0.2869
  804MPD2    C111839   1.464   0.432  16.744 -0.1084  0.0885 -0.5203
  804MPD2    C211840   1.498   0.549  16.813 -0.0713 -0.0337 -0.3139
  804MPD2    C311841   1.598   0.636  16.766  0.2857  0.8517 -1.3395
  804MPD2    C411842   1.666   0.601  16.646  0.5745 -0.3941 -0.3099
  804MPD2    C511843   1.626   0.492  16.578  0.2707 -0.0764  0.3587
  804MPD2     H11844   1.448   0.583  16.903  0.8232 -1.0691  0.5670
  804MPD2    H111845   1.742   0.670  16.611  0.4382 -0.3136 -0.4426
  804MPD2    H211846   1.495   0.334  16.550 -1.0616  1.3067 -1.2197
  804MPD2    H311847   1.684   0.479  16.487  0.2107 -3.2469  0.7848
  804MPD2     N11848   1.620   0.755  16.838 -0.1635  0.1219 -0.3197
  804MPD2    H511849   1.577   0.760  16.930  2.7362  1.4570  0.9657
  804MPD2    N111850   1.380   0.325  16.799 -0.2741  0.5468 -0.4536
  804MPD2    H711851   1.345   0.344  16.893 -1.8784 -2.0322 -0.5367
  805MPD2     C11852   0.496   3.760  15.335 -0.2720  0.0028 -0.4490
  805MPD2    C111853   0.574   3.799  15.230 -0.2466  0.0593  0.9216
  805MPD2    C211854   0.710   3.802  15.242  0.3024  0.7569  0.3749
  805MPD2    C311855   0.765   3.785  15.365 -0.4145 -0.0264 -0.4283
  805MPD2    C411856   0.691   3.749  15.473 -0.5615 -0.6939  0.3829
  805MPD2    C511857   0.556   3.740  15.457  0.6550  0.0224  0.3968
  805MPD2     H11858   0.776   3.830  15.160 -1.5692  2.5225 -0.5263
  805MPD2    H111859   0.724   3.752  15.576 -0.0549 -0.5889  0.2168
  805MPD2    H211860   0.388   3.752  15.341 -0.0022 -2.0508  1.5165
  805MPD2    H311861   0.495   3.720  15.544 -0.4080  0.3875 -0.2632
  805MPD2     N11862   0.905   3.794  15.367  0.0423 -0.0094 -0.3691
  805MPD2    H511863   0.963   3.820  15.288 -0.4474  1.2697 -0.2955
  805MPD2    N111864   0.519   3.836  15.104  0.5126 -0.2931  0.4111
  805MPD2    H711865   0.586   3.857  15.031  1.4416  0.0106  1.3368
  806MPD2     C11866   1.001   2.854  17.530  0.6436  0.1371  0.3793
  806MPD2    C111867   0.972   2.946  17.629  0.3850 -0.3187  0.3739
  806MPD2    C211868   1.026   3.067  17.611 -0.4120  0.4794 -0.2201
  806MPD2    C311869   1.125   3.095  17.519  0.0931  0.7113 -0.4323
  806MPD2    C411870   1.160   2.999  17.425 -0.0677 -0.2027 -0.0137
  806MPD2    C511871   1.087   2.886  17.430 -0.2015  0.1231 -0.4281
  806MPD2     H11872   1.005   3.154  17.672  0.1211  0.0270  0.6099
  806MPD2    H111873   1.229   3.015  17.343  1.1013  0.6181  1.1338
  806MPD2    H211874   0.952   2.757  17.528 -1.1588  1.0340  1.3919
  806MPD2    H311875   1.093   2.814  17.349  3.0529  1.3013 -1.2347
  806MPD2     N11876   1.196   3.217  17.527 -0.5058  0.0137  0.4756
  806MPD2    H511877   1.172   3.278  17.604  0.0856 -0.2273  0.8500
  806MPD2    N111878   0.869   2.913   0.026 -0.7188  0.1242  0.3527
  806MPD2    H711879   0.846   2.815   0.036  1.0170 -0.3143  0.1654
  807MPD2     C11880   0.721   2.297   0.397  0.3446 -0.3567  0.6178
  807MPD2    C111881   0.735   2.388   0.501  0.5602 -0.7356 -0.5341
  807MPD2    C211882   0.733   2.342   0.627  0.1844  0.2142  0.1580
  807MPD2    C311883   0.731   2.210   0.660 -0.5009  0.3980  0.2666
  807MPD2    C411884   0.719   2.117   0.561 -0.0159 -0.3711 -0.1805
  807MPD2    C511885   0.720   2.163   0.429 -0.1853  0.1203 -0.1514
  807MPD2     H11886   0.742   2.408   0.713 -1.3945  0.1955  0.3311
  807MPD2    H111887   0.699   2.011   0.575  0.6632 -0.1916  2.0636
  807MPD2    H211888   0.726   2.319   0.291  2.0757  3.7585  1.5689
  807MPD2    H311889   0.716   2.082   0.357  0.2568 -0.3476  0.3525
  807MPD2     N11890   0.724   2.191   0.797 -0.1019  0.2506  0.4925
  807MPD2    H511891   0.724   2.269   0.861 -1.3463 -0.3604  1.2548
  807MPD2    N111892   0.758   2.524   0.469  0.4833  0.4533  0.1561
  807MPD2    H711893   0.777   2.582   0.550 -5.3321  2.8493 -0.2156
  808MPD2     C11894   1.908   4.402   9.180 -0.2519  0.2727  0.6227
  808MPD2    C111895   1.822   4.415   9.286  0.5955 -0.1512  0.4809
  808MPD2    C211896   1.855   4.508   9.383 -0.2126  0.4240  0.0409
  808MPD2    C311897   1.965   4.591   9.363 -0.0906 -0.6051  0.0836
  808MPD2    C411898   2.043   4.582   9.252  0.2944  0.4551 -0.2974
  808MPD2    C511899   2.018   4.485   9.159 -0.4635  0.3823 -0.3440
  808MPD2     H11900   1.793   4.510   9.472 -0.0197 -0.4061  0.1973
  808MPD2    H111901   2.125   4.650   9.232  1.7865 -0.9851  0.8300
  808MPD2    H211902   1.892   4.323   9.108  1.7697  3.4211 -3.2495
  808MPD2    H311903   2.081   4.487   9.071 -0.7682  1.8040 -0.5218
  808MPD2     N11904   1.996   4.696   9.448 -0.1396  0.2143  0.0970
  808MPD2    H511905   2.085   0.019   9.433  0.2456 -0.7901 -0.7795
  808MPD2    N111906   1.703   4.337   9.296  0.0812  0.6933  0.5270
  808MPD2    H711907   1.648   4.350   9.380 -1.6449  1.0440 -0.6573
  809MPD2     C11908   2.679   0.551   9.910  0.0866 -1.0519  0.0434
  809MPD2    C111909   2.681   0.452   9.815  0.4746  0.2609  0.0827
  809MPD2    C211910   2.565   0.398   9.755 -0.4270  0.7854 -0.2602
  809MPD2    C311911   2.441   0.447   9.802  0.1935 -0.1220  0.3898
  809MPD2    C411912   2.436   0.553   9.893 -0.6316 -0.2025 -0.4482
  809MPD2    C511913   2.551   0.600   9.942 -0.9808 -0.1378  0.8700
  809MPD2     H11914   2.573   0.316   9.685  1.2655  0.4757  0.3058
  809MPD2    H111915   2.336   0.578   9.926 -1.2455 -2.4658 -0.5672
  809MPD2    H211916   2.762   0.605   9.952  0.6509 -0.9632 -1.1760
  809MPD2    H311917   2.548   0.685  10.009 -1.3013 -1.5803  2.6791
  809MPD2     N11918   2.311   0.404   9.770  0.9342 -0.5753  1.2918
  809MPD2    H511919   2.233   0.462   9.799  1.7848  2.3014 -2.1241
  809MPD2    N111920   2.802   0.392   9.800 -0.3002  0.0992 -0.4352
  809MPD2    H711921   2.879   0.419   9.860 -1.1166 -0.2031  0.7543
  810MPD2     C11922   1.271   3.542  10.114 -0.0522 -0.3024 -0.2353
  810MPD2    C111923   1.275   3.632  10.008 -0.1086 -0.5635  0.0794
  810MPD2    C211924   1.308   3.761  10.036 -0.5670 -0.8304  0.8572
  810MPD2    C311925   1.345   3.804  10.168  0.5722 -0.2822  0.3056
  810MPD2    C411926   1.351   3.707  10.267  0.3597 -0.6545 -0.0314
  810MPD2    C511927   1.314   3.568  10.241 -0.6408  0.5750 -0.4258
  810MPD2     H11928   1.295   3.834   9.957  1.8406 -1.6235 -0.2734
  810MPD2    H111929   1.401   3.742  10.356 -1.0138 -0.2492  0.5799
  810MPD2    H211930   1.233   3.442  10.098  0.7500 -0.9859  2.1212
  810MPD2    H311931   1.321   3.488  10.313 -2.1991  1.0453  0.2474
  810MPD2     N11932   1.377   3.939  10.205  0.2013 -0.3150  0.3104
  810MPD2    H511933   1.409   3.958  10.299 -1.2857 -0.0141  0.7495
  810MPD2    N111934   1.227   3.588   9.882  0.1005 -0.4684 -0.2858
  810MPD2    H711935   1.174   3.502   9.871 -0.4360 -0.3176  1.0573
  811MPD2     C11936   0.727   3.981   9.264 -0.1144  0.1219 -0.3027
  811MPD2    C111937   0.835   4.002   9.348 -1.1044 -0.3294 -0.0676
  811MPD2    C211938   0.873   4.125   9.383  0.3127  0.2792 -0.0037
  811MPD2    C311939   0.798   4.234   9.343  0.6336 -0.2638  0.2786
  811MPD2    C411940   0.701   4.215   9.247 -0.0309 -0.0102 -0.2997
  811MPD2    C511941   0.667   4.089   9.217  0.5259 -0.6634  0.0205
  811MPD2     H11942   0.955   4.140   9.452  0.4067  0.2013 -0.0975
  811MPD2    H111943   0.640   4.295   9.206 -0.5933 -1.3598 -2.0844
  811MPD2    H211944   0.714   3.878   9.230 -0.6259  0.2023 -0.3482
  811MPD2    H311945   0.581   4.085   9.151 -0.0808  0.2157  0.7635
  811MPD2     N11946   0.837   4.359   9.384  0.5344 -0.1267 -0.3014
  811MPD2    H511947   0.930   4.358   9.424  0.9924  0.8982 -1.3495
  811MPD2    N111948   0.899   3.884   9.393 -0.1868 -0.5745 -0.6879
  811MPD2    H711949   0.862   3.797   9.355 -1.2279 -0.3414 -0.2038
  812MPD2     C11950   4.652   4.023  12.174 -0.7643  0.2384 -0.2874
  812MPD2    C111951   4.523   4.051  12.217  0.0196  0.9517  0.2289
  812MPD2    C211952   4.466   3.966  12.311  0.0657  0.3717  0.5570
  812MPD2    C311953   4.535   3.857  12.361  0.3378 -0.2377  0.0491
  812MPD2    C411954   4.650   3.827  12.303  0.9450  0.1233  0.0149
  812MPD2    C511955   4.714   3.913  12.220  0.6375  0.1932 -0.0840
  812MPD2     H11956   4.381   3.995  12.370  0.7953  1.5566  1.0172
  812MPD2    H111957   4.707   3.737  12.323  2.1936  0.7876 -0.5927
  812MPD2    H211958   4.701   4.087  12.101 -0.9205 -0.5951 -1.1304
  812MPD2    H311959   0.081   3.876  12.172 -1.1486 -0.8248 -2.6821
  812MPD2     N11960   4.479   3.796  12.471  0.3930  0.3267  0.7032
  812MPD2    H511961   4.390   3.831  12.507  0.2813  0.8509 -0.0830
  812MPD2    N111962   4.462   4.170  12.172 -0.1860  0.0904  0.9651
  812MPD2    H711963   4.513   4.222  12.101 -2.5506 -0.2324 -0.9420
  813MPD2     C11964   3.131   1.320  12.257  0.2648 -0.3088 -0.0840
  813MPD2    C111965   3.231   1.377  12.341 -0.6214  0.8836  0.7371
  813MPD2    C211966   3.208   1.407  12.474  0.5089 -0.0616  0.4371
  813MPD2    C311967   3.086   1.394  12.531 -0.6139  0.5124  0.1614
  813MPD2    C411968   2.985   1.335  12.448  0.0969  0.2727  0.3847
  813MPD2    C511969   3.013   1.291  12.320  0.9147  0.4433 -0.5623
  813MPD2     H11970   3.293   1.440  12.533  1.3070 -0.5221 -0.4445
  813MPD2    H111971   2.886   1.315  12.485  0.3748 -1.7906  0.0215
  813MPD2    H211972   3.143   1.296  12.152 -0.3448 -0.3184 -0.1504
  813MPD2    H311973   2.936   1.238  12.265  1.3653 -0.6121 -0.1642
  813MPD2     N11974   3.055   1.450  12.654 -0.1944 -0.3397 -0.8465
  813MPD2    H511975   3.117   1.525  12.685  3.5386 -2.6422 -2.7725
  813MPD2    N111976   3.365   1.389  12.302  0.2419 -0.5987 -0.2536
  813MPD2    H711977   3.431   1.423  12.371 -0.2155 -0.8813  0.3107
  814MPD2     C11978   4.349   2.639  11.844  0.1478 -0.2236 -0.3683
  814MPD2    C111979   4.354   2.702  11.724 -0.3652 -1.1824 -0.1124
  814MPD2    C211980   4.440   2.811  11.709 -0.0546  0.3714 -0.1693
  814MPD2    C311981   4.531   2.850  11.807  0.5297 -0.4605  0.0679
  814MPD2    C411982   4.529   2.776  11.917 -0.5188 -0.2580 -0.5199
  814MPD2    C511983   4.445   2.669  11.936 -0.2388 -0.3125 -0.7451
  814MPD2     H11984   4.446   2.852  11.610  2.2006 -1.3721 -0.7433
  814MPD2    H111985   4.607   2.786  11.992 -1.1192  2.3868 -0.2484
  814MPD2    H211986   4.292   2.549  11.864 -1.4944  1.3346  1.9304
  814MPD2    H311987   4.455   2.609  12.026  1.3866 -0.1377 -0.8041
  814MPD2     N11988   4.624   2.956  11.806 -0.4527 -0.1078 -0.1712
  814MPD2    H511989   4.673   2.976  11.893 -1.0023 -0.6014  0.2577
  814MPD2    N111990   4.284   2.655  11.610  0.0117  0.1125 -0.2814
  814MPD2    H711991   4.292   2.709  11.524  1.1199  0.2852 -0.0695
  815MPD2     C11992   4.634   1.036  11.928  0.4779 -0.9500 -0.0795
  815MPD2    C111993   4.564   0.918  11.895  0.5254 -0.0695 -0.1547
  815MPD2    C211994   4.430   0.908  11.926 -0.2346  0.2991  0.4861
  815MPD2    C311995   4.372   0.988  12.021  0.1473 -0.5772  0.5779
  815MPD2    C411996   4.444   1.100  12.059  0.2088  0.3996  0.3138
  815MPD2    C511997   4.570   1.128  12.011 -0.2020 -0.4316 -0.6339
  815MPD2     H11998   4.379   0.818  11.896  0.7740 -0.2251  0.3534
  815MPD2    H111999   4.405   1.173  12.129 -0.4657  2.7606 -2.5129
  815MPD2    H212000   0.005   1.071  11.890 -0.4961  0.9326 -0.7746
  815MPD2    H312001   4.615   1.219  12.048  0.6623 -1.4132  0.7535
  815MPD2     N12002   4.245   0.949  12.062 -0.3794 -0.0707  0.0797
  815MPD2    H512003   4.210   0.857  12.036 -1.4411  0.2010  0.5403
  815MPD2    N112004   4.625   0.825  11.810  0.1378 -0.5650  0.2756
  815MPD2    H712005   4.720   0.849  11.786  0.9215 -2.4415  1.5478
  816MPD2     C12006   4.033   0.054  17.242  0.6234 -0.4325  0.6690
  816MPD2    C112007   4.142   0.139  17.244  0.3284 -0.1923  0.0753
  816MPD2    C212008   4.271   0.090  17.220  0.0573  0.3228 -0.1702
  816MPD2    C312009   4.284   4.686  17.183  0.1953 -0.7812 -0.9303
  816MPD2    C412010   4.179   4.600  17.188  0.1030  0.3902  0.2010
  816MPD2    C512011   4.053   4.645  17.230  0.0659  0.1746  0.6930
  816MPD2     H12012   4.354   0.158  17.205  0.4773  0.5374  3.0291
  816MPD2    H112013   4.192   4.495  17.165 -0.4940  0.7296 -1.6688
  816MPD2    H212014   3.933   0.082  17.273  0.5219  1.4657 -1.3683
  816MPD2    H312015   3.972   4.574  17.243  0.9949 -1.0661 -0.2853
  816MPD2     N12016   4.406   4.643  17.127 -1.3784 -0.0302  0.3518
  816MPD2    H512017   4.482   4.710  17.118 -0.8374 -0.8493 -1.1812
  816MPD2    N112018   4.117   0.273  17.278 -0.5868 -0.1237 -0.0749
  816MPD2    H712019   4.022   0.308  17.287 -0.7233  0.0778 -2.4251
  817MPD2     C12020   4.197   1.227   9.769  0.0968 -0.6361  0.4755
  817MPD2    C112021   4.317   1.224   9.843 -0.4049 -0.3006  0.2207
  817MPD2    C212022   4.425   1.301   9.797 -0.5505 -0.4885  1.2155
  817MPD2    C312023   4.420   1.377   9.684  0.2371 -0.2882 -0.0004
  817MPD2    C412024   4.305   1.358   9.605  0.2415  0.0866  0.1177
  817MPD2    C512025   4.192   1.293   9.646  0.1319 -0.1944 -0.1940
  817MPD2     H12026   4.519   1.313   9.849 -0.0184  0.8726 -0.0420
  817MPD2    H112027   4.302   1.410   9.510 -0.9539 -1.2908 -0.6137
  817MPD2    H212028   4.116   1.171   9.814  0.4440 -0.3767  1.4197
  817MPD2    H312029   4.108   1.281   9.578 -2.8797  1.7845  3.2047
  817MPD2     N12030   4.530   1.450   9.649  0.7020  0.1342 -0.0653
  817MPD2    H512031   4.610   1.441   9.710  0.6318 -0.3887 -0.0465
  817MPD2    N112032   4.306   1.158   9.968  0.0726 -0.2306  1.0699
  817MPD2    H712033   4.220   1.116  10.002 -0.2614 -0.3055  0.1425
  818MPD2     C12034   2.833   1.481   9.878  0.4810 -0.3854 -0.6244
  818MPD2    C112035   2.832   1.458  10.014 -0.1788 -0.0903 -0.4571
  818MPD2    C212036   2.859   1.326  10.059  0.2695  0.1442 -0.2705
  818MPD2    C312037   2.885   1.220   9.965  0.0192 -0.3798 -0.4043
  818MPD2    C412038   2.896   1.255   9.835 -0.0678 -0.6404  0.4654
  818MPD2    C512039   2.865   1.382   9.789  0.2315 -0.4487  0.5954
  818MPD2     H12040   2.854   1.301  10.164  0.4123 -0.6473 -0.4544
  818MPD2    H112041   2.936   1.187   9.761 -1.4650 -0.7127 -0.2179
  818MPD2    H212042   2.805   1.579   9.841 -1.3378 -0.8098 -0.3689
  818MPD2    H312043   2.876   1.399   9.682 -0.2264  2.0754  0.9526
  818MPD2     N12044   2.906   1.082   9.996 -0.2325 -0.2432 -0.0186
  818MPD2    H512045   2.928   1.017   9.922  1.4191 -1.7051  1.7679
  818MPD2    N112046   2.781   1.553  10.105 -1.0742 -0.6939  0.1906
  818MPD2    H712047   2.787   1.521  10.201  0.8124  1.9249  0.9460
  819MPD2     C12048   1.313   3.484  15.340  0.4659 -0.5960 -0.1540
  819MPD2    C112049   1.309   3.351  15.346 -1.3850  0.6460 -0.5477
  819MPD2    C212050   1.413   3.287  15.409  0.3715  0.4955 -0.2085
  819MPD2    C312051   1.520   3.370  15.457  0.3646 -0.3465 -0.4349
  819MPD2    C412052   1.523   3.508  15.448  0.6556 -0.2451  0.3074
  819MPD2    C512053   1.416   3.560  15.393  0.3742 -0.4981  0.6645
  819MPD2     H12054   1.414   3.179  15.420  0.4571  0.6329  1.1185
  819MPD2    H112055   1.606   3.571  15.479 -1.4623  2.6732 -0.0024
  819MPD2    H212056   1.229   3.537  15.296  1.2794  0.8403  0.0184
  819MPD2    H312057   1.407   3.668  15.386 -0.1212 -0.7673 -2.5773
  819MPD2     N12058   1.634   3.301  15.509 -0.7072 -0.5897  0.3252
  819MPD2    H512059   1.632   3.200  15.501  0.2133 -0.6879  1.3943
  819MPD2    N112060   1.183   3.292  15.314 -0.0047 -0.1976 -0.6223
  819MPD2    H712061   1.103   3.350  15.292 -0.2824  0.0028  0.9312
  820MPD2     C12062   0.461   3.359  14.630  0.2030  0.5448  0.3471
  820MPD2    C112063   0.538   3.449  14.705  0.4810 -0.1163 -0.5464
  820MPD2    C212064   0.621   3.396  14.806  0.4425 -0.1107  0.1011
  820MPD2    C312065   0.613   3.259  14.836 -0.3635  1.0193 -0.0083
  820MPD2    C412066   0.528   3.176  14.763  0.2776  0.1214 -0.5890
  820MPD2    C512067   0.451   3.224  14.658  0.2693  0.2058 -0.0530
  820MPD2     H12068   0.686   3.460  14.864  0.0223 -1.1807  1.7598
  820MPD2    H112069   0.540   3.069  14.775 -3.7726 -0.2700 -0.1095
  820MPD2    H212070   0.402   3.396  14.547  0.1730 -0.4220 -0.0558
  820MPD2    H312071   0.389   3.154  14.602  3.1403 -0.9599 -1.7575
  820MPD2     N12072   0.700   3.187  14.921  0.2589  0.1635  0.0234
  820MPD2    H512073   0.676   3.090  14.936  0.5753  0.0742 -0.0357
  820MPD2    N112074   0.528   3.586  14.669  1.1134  0.5547  0.3243
  820MPD2    H712075   0.470   3.608  14.588 -1.7012 -1.6892  1.7432
  821MPD2     C12076   1.231   0.206  13.126 -0.3966  0.4982 -0.2059
  821MPD2    C112077   1.282   0.078  13.119 -0.8459  0.3364 -0.6306
  821MPD2    C212078   1.411   0.059  13.083 -0.0997 -0.3975  0.4103
  821MPD2    C312079   1.496   0.165  13.061  0.6060 -0.2374 -0.0142
  821MPD2    C412080   1.442   0.298  13.058 -0.3358  0.3050 -0.7043
  821MPD2    C512081   1.305   0.314  13.088  0.7078  0.1928  0.4618
  821MPD2     H12082   1.442   4.678  13.080  1.7055  0.1947 -1.3928
  821MPD2    H112083   1.499   0.385  13.026 -0.1510  0.9209  1.3283
  821MPD2    H212084   1.131   0.227  13.162 -0.0860  1.5354  0.0422
  821MPD2    H312085   1.257   0.408  13.065 -1.0998 -1.0446 -0.8300
  821MPD2     N12086   1.632   0.149  13.036 -0.2097  0.0616  0.7236
  821MPD2    H512087   1.683   0.236  13.020  3.2817 -2.0159  0.4295
  821MPD2    N112088   1.212   4.684  13.144 -0.3586  0.0835 -0.5010
  821MPD2    H712089   1.265   4.598  13.136  0.6337  0.7067 -0.5951
  822MPD2     C12090   2.202   4.697  15.345 -0.4829  0.9038  0.3970
  822MPD2    C112091   2.142   4.641  15.462 -0.4298 -0.5044 -0.2458
  822MPD2    C212092   2.055   4.717  15.541 -0.3865  0.2413  0.6197
  822MPD2    C312093   2.018   0.119  15.504 -0.4569  0.6618  0.4394
  822MPD2    C412094   2.066   0.166  15.380 -0.0016 -0.7684 -0.6258
  822MPD2    C512095   2.160   0.095  15.298  0.4913  0.3066  0.8380
  822MPD2     H12096   2.000   4.673  15.623  0.1894 -0.7192  0.4914
  822MPD2    H112097   2.029   0.258  15.336  0.3702 -0.2748  0.0853
  822MPD2    H212098   2.275   4.654  15.277 -0.3480  0.9258  0.5283
  822MPD2    H312099   2.193   0.125  15.200 -3.8153  1.0206 -0.4179
  822MPD2     N12100   1.924   0.193  15.586 -0.0090  0.2366  0.6554
  822MPD2    H512101   1.876   0.137  15.656 -0.8073 -1.2798 -1.1135
  822MPD2    N112102   2.173   4.510  15.510 -0.4029 -0.1201  0.4297
  822MPD2    H712103   2.116   4.484  15.591 -0.2871 -0.5414  0.3790
  823MPD2     C12104   1.282   0.376  16.113  0.0927 -0.5623 -1.3140
  823MPD2    C112105   1.381   0.303  16.052  0.3778  0.5197  0.1926
  823MPD2    C212106   1.433   0.192  16.120 -0.2205  0.0563  0.2931
  823MPD2    C312107   1.383   0.162  16.249  0.0001  0.5340  0.5758
  823MPD2    C412108   1.286   0.244  16.311 -0.4428  0.5608 -0.0042
  823MPD2    C512109   1.234   0.354  16.241 -0.0495  0.7820 -0.7955
  823MPD2     H12110   1.496   0.118  16.072  0.3915 -0.1832  1.4481
  823MPD2    H112111   1.251   0.231  16.413 -3.7164  0.6200 -1.1310
  823MPD2    H212112   1.246   0.460  16.055  0.1800  0.9262  0.8082
  823MPD2    H312113   1.151   0.417  16.271 -3.3588 -4.3332  0.7904
  823MPD2     N12114   1.433   0.063  16.333  0.0500  0.0613  0.0640
  823MPD2    H512115   1.402   0.065  16.430 -2.9045 -0.5598 -0.8673
  823MPD2    N112116   1.421   0.353  15.925  0.7232 -0.1189  0.3018
  823MPD2    H712117   1.393   0.449  15.909 -0.0099 -0.3893  0.0091
  824MPD2     C12118   2.537   3.680  15.670  0.5096 -0.6546  0.0243
  824MPD2    C112119   2.558   3.784  15.578  0.1801  0.1894  0.1951
  824MPD2    C212120   2.653   3.761  15.479  0.1119  0.2580  0.1038
  824MPD2    C312121   2.728   3.646  15.474 -0.1677 -0.5490  0.3634
  824MPD2    C412122   2.698   3.545  15.562  0.2459 -0.0264  0.1458
  824MPD2    C512123   2.600   3.560  15.661  0.3857  0.7748  0.0639
  824MPD2     H12124   2.684   3.841  15.413  1.1391 -0.9477 -0.8788
  824MPD2    H112125   2.757   3.455  15.563 -0.1317 -0.2823 -0.2927
  824MPD2    H212126   2.467   3.683  15.753  1.6072 -0.6984  0.9683
  824MPD2    H312127   2.579   3.488  15.739  0.4685  1.3201  0.5913
  824MPD2     N12128   2.843   3.645  15.392  0.6170  0.6688 -0.2892
  824MPD2    H512129   2.859   3.720  15.324 -0.1320  1.8344  0.8139
  824MPD2    N112130   2.490   3.902  15.604 -0.1325  0.9186 -0.4568
  824MPD2    H712131   2.433   3.907  15.689 -0.7441 -2.1994 -0.7081
  825MPD2     C12132   3.450   3.787  14.774 -0.3929  0.4433  0.2040
  825MPD2    C112133   3.350   3.835  14.865 -0.6065  0.1676 -0.3967
  825MPD2    C212134   3.316   3.970  14.877  0.6591 -0.0058  0.1089
  825MPD2    C312135   3.381   4.061  14.786  0.0776 -0.4856 -0.4710
  825MPD2    C412136   3.478   4.015  14.701 -0.4531 -0.5368  0.1019
  825MPD2    C512137   3.515   3.880  14.701 -0.2161  1.0723  0.9912
  825MPD2     H12138   3.244   4.010  14.947 -0.3781 -1.9560  0.1525
  825MPD2    H112139   3.525   4.083  14.630  0.5031 -1.3700 -0.0710
  825MPD2    H212140   3.478   3.683  14.765 -5.2671 -0.6089 -2.5884
  825MPD2    H312141   3.586   3.853  14.624 -0.8134 -0.4379  0.9810
  825MPD2     N12142   3.351   4.195  14.772  0.5297 -0.2665  0.0786
  825MPD2    H512143   3.408   4.241  14.702 -2.1048 -0.5755 -2.2786
  825MPD2    N112144   3.291   3.730  14.943  0.1713  0.2518 -0.0624
  825MPD2    H712145   3.314   3.638  14.907  0.8852  0.0457  0.9019
  826MPD2     C12146   3.324   3.648  13.676  0.1175  0.5132  0.3173
  826MPD2    C112147   3.239   3.668  13.567 -0.0922 -0.9998 -1.6289
  826MPD2    C212148   3.118   3.730  13.580 -0.9608 -0.9139 -0.3889
  826MPD2    C312149   3.074   3.762  13.701  0.4227  0.8300 -0.4389
  826MPD2    C412150   3.164   3.768  13.802 -0.2907  0.2847 -0.0187
  826MPD2    C512151   3.286   3.710  13.792  0.3279 -0.7809  0.6540
  826MPD2     H12152   3.053   3.735  13.493 -0.5426  2.4474 -0.5173
  826MPD2    H112153   3.135   3.803  13.901 -0.2837  2.6212 -0.8502
  826MPD2    H212154   3.417   3.593  13.679 -0.7282 -0.9151  0.3434
  826MPD2    H312155   3.349   3.724  13.879 -0.3471  1.9161  0.7288
  826MPD2     N12156   2.943   3.812  13.730 -0.4612 -0.0835 -0.2736
  826MPD2    H512157   2.932   3.840  13.828  2.9278  1.8024 -0.4118
  826MPD2    N112158   3.270   3.617  13.437 -0.7284  0.4611  0.7544
  826MPD2    H712159   3.209   3.644  13.361 -1.0766 -4.0986 -0.5626
  827MPD2     C12160   4.133   4.454  10.258  0.4319  0.2380  0.1078
  827MPD2    C112161   4.023   4.493  10.333 -0.2931  0.3594 -0.6926
  827MPD2    C212162   3.891   4.488  10.272  0.3285  0.1890  0.1169
  827MPD2    C312163   3.879   4.454  10.143  0.1721 -0.7243  0.9925
  827MPD2    C412164   3.989   4.432  10.069 -0.3576  0.4624 -0.0382
  827MPD2    C512165   4.110   4.418  10.128 -0.2656  0.1748  0.1762
  827MPD2     H12166   3.801   4.519  10.324  0.4056 -0.2716  0.5248
  827MPD2    H112167   3.979   4.406   9.964 -0.1207 -0.3123  0.1310
  827MPD2    H212168   4.231   4.440  10.301 -0.8477  0.0562  2.9779
  827MPD2    H312169   4.195   4.397  10.064  0.2517  2.5518  0.0869
  827MPD2     N12170   3.748   4.446  10.089  0.2719  0.0539  0.4430
  827MPD2    H512171   3.680   4.453  10.164 -1.7702 -1.8524 -1.2117
  827MPD2    N112172   4.054   4.537  10.465  0.0319 -0.6062  0.2610
  827MPD2    H712173   4.150   4.525  10.497  0.8843  0.6224 -1.8372
  828MPD2     C12174   2.082   0.322  12.511 -0.8358 -0.1625  0.3162
  828MPD2    C112175   2.114   0.321  12.375 -0.2530  0.1232 -0.0248
  828MPD2    C212176   2.244   0.319  12.333 -0.6119 -0.0244  0.2773
  828MPD2    C312177   2.348   0.306  12.424 -0.0860 -0.0885 -0.1911
  828MPD2    C412178   2.311   0.305  12.553  0.0738 -0.1100 -0.6293
  828MPD2    C512179   2.184   0.318  12.603 -0.1165 -0.1310 -0.4035
  828MPD2     H12180   2.267   0.321  12.227  0.3121  1.3494  0.4946
  828MPD2    H112181   2.380   0.282  12.634  0.8979 -0.9275 -1.5602
  828MPD2    H212182   1.980   0.334  12.545 -0.7867 -2.2166  1.1840
  828MPD2    H312183   2.161   0.336  12.707  0.8847  1.3980 -0.4515
  828MPD2     N12184   2.481   0.287  12.381 -0.3121  0.1651  0.2732
  828MPD2    H512185   2.552   0.284  12.454  0.4085 -2.2864 -0.5078
  828MPD2    N112186   2.016   0.285  12.276 -0.9052 -0.5510  0.2277
  828MPD2    H712187   2.044   0.277  12.178  0.2006  2.2526  0.2917
  829MPD2     C12188   2.131   0.064  11.470 -0.2073  0.1390 -0.4399
  829MPD2    C112189   2.021   4.722  11.496 -0.7567 -0.1439  1.6283
  829MPD2    C212190   1.945   0.027  11.610  0.4550  0.1745 -0.6650
  829MPD2    C312191   1.988   0.119  11.700  0.0804 -0.5737 -0.0118
  829MPD2    C412192   2.103   0.184  11.669  0.3675  1.0101 -0.0369
  829MPD2    C512193   2.172   0.162  11.553  0.0496 -0.8401 -0.0761
  829MPD2     H12194   1.853   4.698  11.632  1.6166 -0.2671  3.1808
  829MPD2    H112195   2.143   0.262  11.734  1.3925 -0.8868  1.5871
  829MPD2    H212196   2.179   0.047  11.375  0.1290 -0.9219 -0.0802
  829MPD2    H312197   2.253   0.225  11.519  0.3560 -1.5548 -0.6868
  829MPD2     N12198   1.928   0.145  11.825 -0.1095 -0.2354 -0.5171
  829MPD2    H512199   1.983   0.187  11.899 -1.0920  1.0652 -0.5289
  829MPD2    N112200   1.973   4.619  11.406  0.4589  0.1570 -0.2464
  829MPD2    H712201   2.044   4.592  11.339 -0.9744 -1.0314 -1.2781
  830MPD2     C12202   2.426   2.951  15.531  0.3022 -0.0490 -0.3930
  830MPD2    C112203   2.316   2.990  15.454 -0.0524  0.4443  0.6726
  830MPD2    C212204   2.342   3.047  15.330  0.1597 -0.1021 -0.4610
  830MPD2    C312205   2.472   3.055  15.282  0.1459 -0.2784 -0.4007
  830MPD2    C412206   2.574   3.005  15.357  0.2119 -0.5644 -0.0333
  830MPD2    C512207   2.553   2.957  15.482 -0.3801 -0.2596 -0.5598
  830MPD2     H12208   2.260   3.080  15.267  0.3032  0.3690 -0.4034
  830MPD2    H112209   2.676   3.006  15.319  0.8660 -1.3589  1.7118
  830MPD2    H212210   2.408   2.907  15.629  0.2273 -0.6780 -0.6900
  830MPD2    H312211   2.640   2.933  15.541 -1.0205 -0.4884  0.2796
  830MPD2     N12212   2.504   3.110  15.156 -0.1107 -1.0820 -0.0966
  830MPD2    H512213   2.597   3.099  15.116 -0.1178  1.0821 -0.6708
  830MPD2    N112214   2.191   2.996  15.515  0.2063 -0.1172 -0.5097
  830MPD2    H712215   2.181   2.955  15.608  1.7056 -3.8613 -1.9937
  831MPD2     C12216   2.072   0.272  15.968 -0.3121  0.1916 -0.9905
  831MPD2    C112217   2.096   0.153  15.911 -0.4464 -0.7387  0.7476
  831MPD2    C212218   1.996   0.056  15.898  0.2086 -0.7236  0.5597
  831MPD2    C312219   1.866   0.085  15.948  0.1820 -0.1087 -0.0386
  831MPD2    C412220   1.848   0.213  16.005  0.0268 -0.1386 -0.6367
  831MPD2    C512221   1.946   0.308  16.002 -0.2560  0.2578 -0.8516
  831MPD2     H12222   2.017   4.683  15.851 -1.7604 -0.5870 -0.5762
  831MPD2    H112223   1.750   0.249  16.033  0.0950  1.0252 -1.8662
  831MPD2    H212224   2.147   0.350  15.977  1.2660 -1.6285  1.6069
  831MPD2    H312225   1.917   0.410  16.021 -0.8464  0.2271 -1.6217
  831MPD2     N12226   1.755   4.716  15.940  0.5966  0.5967 -0.1549
  831MPD2    H512227   1.667   0.034  15.969  1.2147  1.4974  0.4349
  831MPD2    N112228   2.233   0.134  15.869  0.4369  0.5856 -0.4683
  831MPD2    H712229   2.296   0.214  15.870  0.7026  0.3732 -0.2854
  832MPD2     C12230   0.542   1.005  16.894 -0.0121  0.2883 -0.1860
  832MPD2    C112231   0.534   1.144  16.895 -0.1371 -0.1367 -0.8334
  832MPD2    C212232   0.424   1.206  16.846 -0.7359 -0.3906 -0.0246
  832MPD2    C312233   0.318   1.129  16.799  0.1916 -0.2486  0.1226
  832MPD2    C412234   0.333   0.991  16.799  0.3224  0.7626 -0.2560
  832MPD2    C512235   0.440   0.927  16.846 -0.3375  0.3013 -0.0272
  832MPD2     H12236   0.406   1.310  16.869  1.3035 -0.3141  1.1243
  832MPD2    H112237   0.251   0.930  16.764  0.5448  1.0135 -1.2183
  832MPD2    H212238   0.609   0.956  16.964  0.7885  1.5527 -0.0742
  832MPD2    H312239   0.435   0.820  16.862  0.4973  0.1553 -0.6944
  832MPD2     N12240   0.192   1.171  16.766  0.3966 -0.5686  0.0130
  832MPD2    H512241   0.120   1.102  16.751 -0.2989 -0.1958  1.5601
  832MPD2    N112242   0.628   1.216  16.960  0.4560  0.4460  1.0107
  832MPD2    H712243   0.714   1.163  16.972  0.2646 -0.0818  0.0090
  833MPD2     C12244   2.786   2.820  12.326  0.0896  0.6005 -0.4636
  833MPD2    C112245   2.799   2.955  12.305 -0.1978  0.1594 -0.6350
  833MPD2    C212246   2.920   2.999  12.242  0.3230 -0.5505 -0.4562
  833MPD2    C312247   3.009   2.910  12.194  0.0255  0.8621  0.4190
  833MPD2    C412248   2.997   2.775  12.211  0.7342 -0.3112  0.6790
  833MPD2    C512249   2.884   2.734  12.281 -0.7446 -0.3121 -0.2529
  833MPD2     H12250   2.937   3.103  12.218  1.0126 -0.5973 -0.1901
  833MPD2    H112251   3.070   2.697  12.193  0.6852 -0.5203  1.4060
  833MPD2    H212252   2.700   2.773  12.373  1.7677 -1.0344  0.9682
  833MPD2    H312253   2.867   2.627  12.290  1.6643 -0.4575  2.5113
  833MPD2     N12254   3.120   2.966  12.128 -0.4001 -0.6077 -0.4613
  833MPD2    H512255   3.127   3.066  12.118  0.9354 -0.6931 -0.3143
  833MPD2    N112256   2.693   3.039  12.349  0.1977 -0.1669  0.2857
  833MPD2    H712257   2.608   2.994  12.380  1.6203 -2.0901  1.3866
  834MPD2     C12258   3.149   2.631  11.247 -0.6510 -0.0686  0.2241
  834MPD2    C112259   3.047   2.628  11.344  0.1117  0.3657  0.1916
  834MPD2    C212260   3.058   2.703  11.461  0.1996 -0.5016 -1.0292
  834MPD2    C312261   3.163   2.789  11.476 -0.0081  0.7116 -0.8900
  834MPD2    C412262   3.254   2.798  11.373 -0.1881  0.3134 -0.1575
  834MPD2    C512263   3.239   2.726  11.256  0.2448 -0.8170 -0.2076
  834MPD2     H12264   2.996   2.686  11.548 -0.2845  4.1780 -0.4730
  834MPD2    H112265   3.343   2.860  11.382  1.6086 -1.8114 -3.5068
  834MPD2    H212266   3.154   2.570  11.158 -2.8578  1.6736 -1.0910
  834MPD2    H312267   3.307   2.746  11.175 -0.0195 -0.0844 -0.2441
  834MPD2     N12268   3.180   2.863  11.591  0.3885 -0.4394 -0.0984
  834MPD2    H512269   3.132   2.836  11.677  2.8659  0.9886  1.7460
  834MPD2    N112270   2.927   2.552  11.299 -0.0281  0.1622 -0.4778
  834MPD2    H712271   2.944   2.520  11.205 -0.9289  1.6930 -1.1559
  835MPD2     C12272   3.204   0.142  11.361  0.3470 -0.0479  0.4135
  835MPD2    C112273   3.106   0.234  11.395  0.4708 -0.2843  0.4741
  835MPD2    C212274   3.097   0.273  11.524  1.0696 -0.0995  0.0915
  835MPD2    C312275   3.185   0.232  11.624 -0.6774  1.3507 -0.5512
  835MPD2    C412276   3.283   0.138  11.591  0.0294 -0.1008 -0.7833
  835MPD2    C512277   3.285   0.094  11.460  0.3614  0.2936 -0.5579
  835MPD2     H12278   3.014   0.341  11.536  0.3208 -1.4024  2.3251
  835MPD2    H112279   3.360   0.103  11.659  1.2155 -1.4896 -2.8485
  835MPD2    H212280   3.223   0.103  11.262 -0.9153 -2.3232  1.0695
  835MPD2    H312281   3.364   0.023  11.438  0.1693  0.1126 -0.6605
  835MPD2     N12282   3.170   0.276  11.758 -0.0906  0.0574 -0.3078
  835MPD2    H512283   3.223   0.234  11.834  0.1166 -1.1260 -1.0997
  835MPD2    N112284   3.005   0.278  11.303 -0.4541 -0.0850 -0.1477
  835MPD2    H712285   2.947   0.355  11.336  1.1205  1.2088 -0.4045
  836MPD2     C12286   2.640   0.731  11.876 -0.0338 -0.3088  0.1755
  836MPD2    C112287   2.672   0.692  12.002  0.5256  0.1652 -0.5694
  836MPD2    C212288   2.580   0.679  12.100  0.0349 -0.6462 -0.2010
  836MPD2    C312289   2.453   0.722  12.076 -0.0930 -0.5339 -0.1420
  836MPD2    C412290   2.412   0.766  11.948 -0.0842 -0.5384  0.3320
  836MPD2    C512291   2.509   0.764  11.854 -0.5204 -0.0158  0.7160
  836MPD2     H12292   2.609   0.651  12.200  1.3056  1.2995 -0.0137
  836MPD2    H112293   2.312   0.806  11.936 -0.0492 -0.3869  0.5539
  836MPD2    H212294   2.711   0.742  11.794 -1.7260 -0.2087 -1.2819
  836MPD2    H312295   2.489   0.798  11.753  1.8463 -2.5996 -0.6367
  836MPD2     N12296   2.352   0.730  12.173  0.8065  0.2835 -0.1876
  836MPD2    H512297   2.270   0.783  12.146 -1.4921 -2.1032  2.0397
  836MPD2    N112298   2.799   0.641  12.017  0.0435 -0.2142 -0.6492
  836MPD2    H712299   2.856   0.644  11.934  1.9099 -0.5401  0.6313
  837MPD2     C12300   1.196   0.036   9.986 -0.2922 -0.4334 -0.7902
  837MPD2    C112301   1.059   0.057   9.952  0.4326 -0.4619  0.2962
  837MPD2    C212302   0.990   0.135  10.043  0.0965 -0.6050  0.4093
  837MPD2    C312303   1.051   0.194  10.154 -0.2217 -0.1378 -0.1362
  837MPD2    C412304   1.181   0.175  10.180 -0.0033  0.0718 -0.3976
  837MPD2    C512305   1.256   0.092  10.098  0.0982  0.1551 -0.3554
  837MPD2     H12306   0.889   0.160  10.015  0.6032  0.4944 -0.4029
  837MPD2    H112307   1.234   0.228  10.259  1.1248 -2.6136  0.6356
  837MPD2    H212308   1.264   4.714   9.916 -1.7003 -2.0934 -1.0623
  837MPD2    H312309   1.355   0.065  10.130  0.8683 -0.6910 -3.4551
  837MPD2     N12310   0.977   0.279  10.237 -0.1445  0.5189 -0.3484
  837MPD2    H512311   0.876   0.278  10.229 -0.1757  2.0688 -0.0974
  837MPD2    N112312   1.003   0.033   9.825  0.1787  0.2816  0.2861
  837MPD2    H712313   0.907   0.065   9.827  0.1403  0.1482  0.6075
  838MPD2     C12314   4.296   3.653  11.605 -0.2023  0.0746 -0.1040
  838MPD2    C112315   4.299   3.519  11.577 -0.0682 -0.4419  0.7070
  838MPD2    C212316   4.231   3.436  11.662 -0.2148  0.0897 -0.3310
  838MPD2    C312317   4.166   3.496  11.771  0.6520 -0.5172 -0.5665
  838MPD2    C412318   4.166   3.626  11.800 -0.4173 -0.4226 -0.2161
  838MPD2    C512319   4.231   3.707  11.712  0.2830  0.5464 -0.2216
  838MPD2     H12320   4.231   3.329  11.646 -0.0221 -0.4885  3.6436
  838MPD2    H112321   4.122   3.668  11.890 -1.7103  0.3246 -1.1950
  838MPD2    H212322   4.354   3.721  11.542 -0.1115  2.0590  2.1061
  838MPD2    H312323   4.239   3.813  11.733 -1.2643  0.5018  0.6213
  838MPD2     N12324   4.086   3.407  11.842  0.2795 -0.0319 -0.2037
  838MPD2    H512325   4.073   3.313  11.806 -0.6687  1.0008 -2.5124
  838MPD2    N112326   4.359   3.461  11.455  0.8546 -0.4921  0.4211
  838MPD2    H712327   4.347   3.360  11.452  0.0953 -0.3304 -1.7042
  839MPD2     C12328   3.989   2.787  11.446 -0.1974 -0.2156  0.4234
  839MPD2    C112329   3.957   2.811  11.313  0.0162  1.1440  0.3441
  839MPD2    C212330   4.017   2.919  11.246 -0.0711  0.6913 -0.4063
  839MPD2    C312331   4.105   2.996  11.324  0.3271 -0.6768  0.4342
  839MPD2    C412332   4.131   2.975  11.455  0.0479  0.4418  0.3789
  839MPD2    C512333   4.068   2.873  11.520 -0.2098  1.1316 -0.6602
  839MPD2     H12334   3.987   2.958  11.150 -1.8791 -0.7957 -0.4460
  839MPD2    H112335   4.205   3.031  11.511 -0.8031  1.7503  0.2046
  839MPD2    H212336   3.955   2.699  11.498  0.0516 -1.5127 -1.6096
  839MPD2    H312337   4.097   2.865  11.623 -2.4627 -1.7732 -0.2521
  839MPD2     N12338   4.174   3.108  11.266 -0.1637 -0.0704 -0.2754
  839MPD2    H512339   4.228   3.163  11.332 -0.7705 -0.7003  0.7397
  839MPD2    N112340   3.868   2.725  11.244 -0.2009 -0.0504 -0.0575
  839MPD2    H712341   3.861   2.742  11.145  0.8887  1.4809  0.1276
  840MPD2     C12342   4.524   0.229  10.438 -0.3470  0.1861  0.4780
  840MPD2    C112343   4.458   0.265  10.550  0.2413 -0.2706  0.4167
  840MPD2    C212344   4.522   0.362  10.629  0.0425  0.1999 -0.5963
  840MPD2    C312345   4.639   0.424  10.595  0.1118  0.0739 -0.8387
  840MPD2    C412346   4.706   0.371  10.482  0.0865  0.1572  0.0150
  840MPD2    C512347   4.649   0.274  10.404  0.2729  0.5963  0.1246
  840MPD2     H12348   4.473   0.393  10.721 -2.1000 -3.5875 -0.4546
  840MPD2    H112349   0.078   0.408  10.448 -0.4682  1.6050  0.0356
  840MPD2    H212350   4.483   0.148  10.380  2.9928 -1.8570  0.9517
  840MPD2    H312351   4.707   0.236  10.320  0.3832 -0.8020  0.8483
  840MPD2     N12352   4.711   0.523  10.676  0.0392  0.0685 -0.1615
  840MPD2    H512353   0.082   0.542  10.645 -0.0619 -0.3546 -0.7239
  840MPD2    N112354   4.342   0.189  10.577 -0.0594 -0.0273 -1.3468
  840MPD2    H712355   4.324   0.124  10.501  1.7538 -1.8534 -0.2200
  841MPD2     C12356   3.554   0.680  14.933  0.7590 -0.0351  0.1844
  841MPD2    C112357   3.608   0.555  14.905 -0.8646 -0.0317 -0.7666
  841MPD2    C212358   3.704   0.553  14.810 -0.1081 -0.3222  0.7235
  841MPD2    C312359   3.759   0.663  14.751  0.5848 -0.6407 -0.4160
  841MPD2    C412360   3.700   0.784  14.770  0.1966  0.6181 -0.0754
  841MPD2    C512361   3.605   0.795  14.869  0.5561 -0.3636  1.0784
  841MPD2     H12362   3.759   0.463  14.783  1.3384  0.9748 -0.6879
  841MPD2    H112363   3.739   0.874  14.725 -0.0043  1.6098  1.7158
  841MPD2    H212364   3.475   0.702  15.004 -1.2503 -0.4044 -1.8989
  841MPD2    H312365   3.549   0.885  14.893 -1.2771 -1.1703 -0.1155
  841MPD2     N12366   3.874   0.644  14.669 -0.4183  0.1378 -0.1005
  841MPD2    H512367   3.909   0.549  14.673 -0.3539  0.1826  0.3685
  841MPD2    N112368   3.571   0.429  14.963 -0.2631 -0.1255 -0.1450
  841MPD2    H712369   3.625   0.344  14.945 -1.2590 -0.6557 -0.6051
  842MPD2     C12370   4.516   1.713  16.617 -0.2650 -0.5440 -0.4462
  842MPD2    C112371   4.395   1.652  16.598 -0.1304  0.6946  0.1658
  842MPD2    C212372   4.335   1.586  16.702 -0.0522  0.2755  0.0671
  842MPD2    C312373   4.402   1.570  16.821  0.6775  0.6310  0.1064
  842MPD2    C412374   4.516   1.648  16.843  0.3018  0.1106  0.4060
  842MPD2    C512375   4.572   1.717  16.742  0.1066 -0.3952  0.4773
  842MPD2     H12376   4.245   1.532  16.677  1.2668 -1.2366 -1.4690
  842MPD2    H112377   4.572   1.636  16.935 -0.5862 -1.2116  0.7628
  842MPD2    H212378   4.575   1.756  16.537  0.7907 -1.1916 -0.0150
  842MPD2    H312379   4.669   1.764  16.755  0.1902 -0.3717 -0.2387
  842MPD2     N12380   4.366   1.492  16.928  0.4096  0.1536 -0.5972
  842MPD2    H512381   4.409   1.514  17.018 -1.2924  0.7026  0.0972
  842MPD2    N112382   4.339   1.673  16.466 -0.2499 -0.4048 -0.0217
  842MPD2    H712383   4.395   1.725  16.399 -0.2050 -0.0971  0.2585
  843MPD2     C12384   1.912   0.958  17.602  0.1711 -0.2156 -0.0203
  843MPD2    C112385   1.894   0.982   0.042 -0.3538  0.2548 -0.6558
  843MPD2    C212386   1.912   1.118   0.081  0.4354  0.0855 -0.7377
  843MPD2    C312387   1.953   1.213  17.691 -0.5532  0.8018 -0.7776
  843MPD2    C412388   1.974   1.185  17.560  0.2241  0.9879 -0.3446
  843MPD2    C512389   1.949   1.058  17.520 -0.3859  1.1837  0.0827
  843MPD2     H12390   1.906   1.139   0.187 -0.7186  2.3504 -1.2451
  843MPD2    H112391   1.994   1.260  17.484  1.9285  0.8538 -0.0341
  843MPD2    H212392   1.897   0.861  17.556  1.8309  0.2437 -1.5080
  843MPD2    H312393   1.967   1.038  17.415 -2.6509  1.1996 -0.2933
  843MPD2     N12394   1.973   1.346   0.031  1.0249 -0.3327  0.2708
  843MPD2    H512395   2.017   1.409  17.662  1.4013 -0.8311  0.0537
  843MPD2    N112396   1.842   0.882   0.127 -0.0094 -0.0869 -0.0249
  843MPD2    H712397   1.803   0.797   0.088  0.8018 -1.4094  2.0535
  844MPD2     C12398   0.072   0.974  16.308 -0.7720  0.5287  0.3474
  844MPD2    C112399   0.173   0.894  16.264  0.3313  0.2883 -0.0234
  844MPD2    C212400   0.302   0.930  16.295  0.0118 -0.3300  0.2364
  844MPD2    C312401   0.334   1.051  16.350 -0.2753  0.1588  0.1548
  844MPD2    C412402   0.227   1.133  16.384 -0.4546 -0.4065  0.3192
  844MPD2    C512403   0.097   1.090  16.371 -0.4761 -0.4150 -0.2137
  844MPD2     H12404   0.381   0.860  16.272 -0.5663 -0.6833 -0.6935
  844MPD2    H112405   0.234   1.230  16.431 -0.9070  0.8500 -2.2113
  844MPD2    H212406   4.691   0.955  16.284 -0.2725 -2.2621  0.3289
  844MPD2    H312407   0.014   1.149  16.408  0.2425  1.1679 -1.1206
  844MPD2     N12408   0.466   1.086  16.390 -0.1771  0.4632  0.0275
  844MPD2    H512409   0.538   1.017  16.375 -0.0726  0.2315  1.5154
  844MPD2    N112410   0.153   0.774  16.189  0.2868  0.7406  0.5415
  844MPD2    H712411   0.231   0.735  16.137  1.6860  2.4362  1.3835
  845MPD2     C12412   1.183   1.835  16.471 -0.3043  0.8187  0.5123
  845MPD2    C112413   1.081   1.823  16.555  0.2636  0.4597 -0.2353
  845MPD2    C212414   1.006   1.707  16.554  0.6160  0.3042 -0.6466
  845MPD2    C312415   1.043   1.599  16.481 -0.4650  0.0263 -0.4060
  845MPD2    C412416   1.154   1.608  16.395 -0.2602  0.3093 -0.8918
  845MPD2    C512417   1.224   1.726  16.390 -0.3773  0.7299 -0.8636
  845MPD2     H12418   0.914   1.699  16.610  1.0057 -0.0376 -0.0564
  845MPD2    H112419   1.190   1.526  16.333  1.1349  0.0638  0.2504
  845MPD2    H212420   1.250   1.920  16.471  1.0206 -0.2278 -1.5492
  845MPD2    H312421   1.322   1.734  16.343  0.4699 -0.0540  0.7550
  845MPD2     N12422   0.953   1.488  16.484 -0.3794  0.1521  0.3479
  845MPD2    H512423   0.864   1.501  16.530 -0.2550  0.3322  0.5363
  845MPD2    N112424   1.045   1.926  16.641 -0.0930  0.1529 -0.2766
  845MPD2    H712425   1.075   2.018  16.610  1.4527  0.0101  0.8316
  846MPD2     C12426   2.020   1.972  13.280 -0.6454  0.3918  0.7452
  846MPD2    C112427   1.963   2.099  13.298 -0.0233  0.1420 -0.4873
  846MPD2    C212428   1.937   2.142  13.422 -0.7203 -0.0205 -0.7332
  846MPD2    C312429   1.960   2.067  13.535 -0.8321  0.5982  0.3459
  846MPD2    C412430   2.008   1.938  13.520 -0.5175 -0.3610  0.3389
  846MPD2    C512431   2.052   1.894  13.394  0.3232 -0.4552  0.0588
  846MPD2     H12432   1.895   2.241  13.433  0.3592  0.6864 -3.1369
  846MPD2    H112433   2.022   1.868  13.601  0.6943 -1.2974 -0.6778
  846MPD2    H212434   2.063   1.935  13.188 -0.5958 -3.6473  2.3806
  846MPD2    H312435   2.110   1.804  13.378  0.2013 -0.6132  0.4996
  846MPD2     N12436   1.922   2.122  13.659  0.3775  0.2537 -0.1978
  846MPD2    H512437   1.870   2.209  13.658  0.1423  0.1203  0.2955
  846MPD2    N112438   1.954   2.188  13.190  0.1897 -0.1597 -0.3889
  846MPD2    H712439   1.927   2.282  13.217  0.9429  0.3900 -1.5438
  847MPD2     C12440   2.127   2.838  14.017  0.4436 -0.3994  0.5457
  847MPD2    C112441   2.226   2.932  14.037 -0.6933 -0.2475 -0.3821
  847MPD2    C212442   2.326   2.904  14.134 -0.0899  0.4374  0.2058
  847MPD2    C312443   2.330   2.785  14.204 -0.0022  0.5713  0.4317
  847MPD2    C412444   2.233   2.695  14.184  0.3392 -0.6159 -0.7544
  847MPD2    C512445   2.134   2.731  14.091  0.6301 -0.2763  0.4179
  847MPD2     H12446   2.401   2.982  14.148  1.0979 -1.2007  2.8723
  847MPD2    H112447   2.227   2.601  14.237 -0.4722  1.0721  2.1384
  847MPD2    H212448   2.035   2.855  13.964  0.0783  0.6507  1.5108
  847MPD2    H312449   2.055   2.657  14.079  0.9590 -0.5106 -0.2953
  847MPD2     N12450   2.433   2.777  14.298 -0.1225 -0.0058  0.3514
  847MPD2    H512451   2.504   2.850  14.298  0.1830 -0.3017  1.1251
  847MPD2    N112452   2.235   3.054  13.975 -0.6238  0.1843 -0.0305
  847MPD2    H712453   2.317   3.101  14.014 -1.0350  0.0699  0.9786
  848MPD2     C12454   4.573   1.507  16.123  0.1910  0.4635  0.3721
  848MPD2    C112455   4.659   1.547  16.225  0.1793  0.3810  0.1069
  848MPD2    C212456   0.029   1.648  16.192  0.0477  0.0588 -0.1241
  848MPD2    C312457   0.044   1.694  16.060 -0.4270 -0.6133  0.6622
  848MPD2    C412458   4.693   1.642  15.958  0.0978 -1.0168  0.2142
  848MPD2    C512459   4.595   1.550  15.992 -0.1785  0.4466  0.0386
  848MPD2     H12460   0.084   1.701  16.268 -1.0144  0.6828  0.2128
  848MPD2    H112461   4.709   1.669  15.854 -0.1073  0.7131  0.6233
  848MPD2    H212462   4.496   1.431  16.135  1.1239 -0.4277  0.6910
  848MPD2    H312463   4.543   1.518  15.903  1.9835  0.4504 -1.2320
  848MPD2     N12464   0.147   1.787  16.025 -0.3182 -0.2791 -0.4332
  848MPD2    H512465   0.156   1.792  15.924  1.3980 -1.1337 -0.3300
  848MPD2    N112466   4.646   1.504  16.361 -0.3357  0.5677  0.1577
  848MPD2    H712467   4.718   1.537  16.425 -1.4453  0.6543  1.3570
  849MPD2     C12468   3.517   1.188  13.863 -0.2509 -0.4771  0.0891
  849MPD2    C112469   3.622   1.158  13.775  0.9846  0.1203  0.1633
  849MPD2    C212470   3.720   1.066  13.821 -0.0395 -0.0902 -0.2103
  849MPD2    C312471   3.715   1.019  13.947  0.4943 -0.2659 -0.1826
  849MPD2    C412472   3.610   1.038  14.037  0.4749  0.1739 -0.2616
  849MPD2    C512473   3.520   1.126  13.991 -0.6223 -0.2065 -0.2678
  849MPD2     H12474   3.807   1.044  13.760 -0.9574  2.2983 -2.3551
  849MPD2    H112475   3.606   1.005  14.140  2.9604  0.1808 -0.1660
  849MPD2    H212476   3.437   1.257  13.841  0.4726 -0.1920 -1.6172
  849MPD2    H312477   3.450   1.161  14.066  0.4881 -0.3435  0.8263
  849MPD2     N12478   3.836   0.952  13.980 -0.5347 -0.2206 -0.1582
  849MPD2    H512479   3.878   0.918  13.894  1.3902  1.1476  0.2289
  849MPD2    N112480   3.632   1.238  13.661 -0.4137  0.2332  0.1989
  849MPD2    H712481   3.560   1.303  13.629 -0.8648 -0.6284 -0.5402
  850MPD2     C12482   2.112   3.830  14.355  1.4479 -0.7893  0.4205
  850MPD2    C112483   2.085   3.943  14.427 -0.1706 -0.6645 -0.1433
  850MPD2    C212484   2.190   4.016  14.482 -0.2277  0.2150 -0.7381
  850MPD2    C312485   2.318   3.971  14.473  0.5248  0.2612 -0.1928
  850MPD2    C412486   2.339   3.853  14.408  0.5968 -1.1969  0.4603
  850MPD2    C512487   2.237   3.790  14.342  0.6995 -0.0443 -0.1663
  850MPD2     H12488   2.159   4.106  14.534 -0.8625 -1.9630  2.6767
  850MPD2    H112489   2.435   3.804  14.419  1.2677  0.3161  1.4273
  850MPD2    H212490   2.029   3.778  14.308  1.4004  0.0511 -0.4341
  850MPD2    H312491   2.257   3.698  14.289  0.0475  0.7098 -1.7259
  850MPD2     N12492   2.425   4.018  14.554  0.5753  0.4719 -0.3046
  850MPD2    H512493   2.509   3.963  14.547  0.1883 -0.3276  1.3600
  850MPD2    N112494   1.944   3.985  14.428  0.3888  0.2248  0.6664
  850MPD2    H712495   1.881   3.929  14.371  0.9008  0.4514 -0.1156
  851MPD2     C12496   2.476   3.969  15.107 -0.1862 -0.2185 -0.0952
  851MPD2    C112497   2.387   3.918  15.010 -0.7336  0.5925 -0.2485
  851MPD2    C212498   2.419   3.801  14.944  0.0857  0.5370  0.3622
  851MPD2    C312499   2.532   3.735  14.984  0.1777  0.6449 -0.0312
  851MPD2    C412500   2.617   3.782  15.074  1.2793  0.1433 -0.1893
  851MPD2    C512501   2.587   3.904  15.134 -0.3090 -0.4823  0.0177
  851MPD2     H12502   2.358   3.764  14.863  1.4804  0.7426 -0.7734
  851MPD2    H112503   2.702   3.723  15.104  1.4692  1.0099  0.9782
  851MPD2    H212504   2.460   4.070  15.144  1.8960  0.4471 -1.0018
  851MPD2    H312505   2.653   3.950  15.207 -1.1335  1.7126 -0.6017
  851MPD2     N12506   2.547   3.609  14.930 -1.2966  0.1587  0.6170
  851MPD2    H512507   2.463   3.577  14.882 -0.3057 -0.4762 -0.6733
  851MPD2    N112508   2.272   3.995  14.979 -0.1714  0.4720 -0.3196
  851MPD2    H712509   2.267   4.092  15.007  0.1275  0.7948 -1.3834
  852MPD2     C12510   1.609   1.484  10.058  0.1276 -0.8595 -0.0167
  852MPD2    C112511   1.642   1.592  10.135 -0.3199 -0.0313 -0.1041
  852MPD2    C212512   1.616   1.716  10.084 -0.7298 -0.0324 -0.4884
  852MPD2    C312513   1.556   1.722   9.958  0.6558 -0.1030 -0.5873
  852MPD2    C412514   1.519   1.614   9.880  0.3464  0.5605  0.8971
  852MPD2    C512515   1.557   1.487   9.930  0.0362  0.0663  0.3697
  852MPD2     H12516   1.634   1.809  10.138  2.0810 -1.3908  0.8798
  852MPD2    H112517   1.471   1.625   9.783  1.2128 -1.0817  0.2802
  852MPD2    H212518   1.644   1.389  10.098 -3.3418 -1.9245  0.4882
  852MPD2    H312519   1.534   1.396   9.876 -0.9181 -0.1567  1.1478
  852MPD2     N12520   1.545   1.849   9.897  0.4419 -0.6108  0.2193
  852MPD2    H512521   1.577   1.926   9.956 -4.9485  1.8033  0.0349
  852MPD2    N112522   1.720   1.559  10.248  0.3656 -0.1123 -0.1316
  852MPD2    H712523   1.726   1.461  10.273  3.1043  0.1284  0.1507
  853MPD2     C12524   3.302   1.695  12.221 -0.5940 -0.0933  0.1388
  853MPD2    C112525   3.427   1.731  12.186 -0.0732 -0.7498 -0.0332
  853MPD2    C212526   3.486   1.690  12.068 -0.5513  0.6738  0.0122
  853MPD2    C312527   3.414   1.622  11.974 -0.4070  0.1647  0.3053
  853MPD2    C412528   3.279   1.606  12.001 -0.3012  0.4545 -0.4760
  853MPD2    C512529   3.235   1.626  12.132  0.1232 -0.0775  0.7274
  853MPD2     H12530   3.589   1.714  12.047 -0.3783  1.5468  1.9004
  853MPD2    H112531   3.212   1.556  11.932 -0.8145 -0.4615  0.6906
  853MPD2    H212532   3.256   1.711  12.317 -3.3508  2.2374 -1.5798
  853MPD2    H312533   3.138   1.587  12.161 -0.3764 -0.8645 -2.0741
  853MPD2     N12534   3.456   1.584  11.849 -0.7411 -0.7869 -0.1751
  853MPD2    H512535   3.383   1.554  11.786 -1.0011  1.0356 -0.7446
  853MPD2    N112536   3.488   1.820  12.273 -0.0429  0.1958  0.0877
  853MPD2    H712537   3.432   1.842  12.355 -0.7967 -1.3543 -0.0128
  854MPD2     C12538   0.422   1.971  12.491 -0.0249 -0.3334  0.1344
  854MPD2    C112539   0.478   1.888  12.395  0.6098 -0.8316 -0.6784
  854MPD2    C212540   0.537   1.766  12.438 -0.0021  0.2822 -0.4132
  854MPD2    C312541   0.565   1.752  12.576 -0.0304  0.6574 -0.1983
  854MPD2    C412542   0.522   1.844  12.670 -0.5945  0.5313 -0.3192
  854MPD2    C512543   0.441   1.949  12.626  0.3913 -0.1155 -0.3834
  854MPD2     H12544   0.564   1.690  12.366 -1.0027  0.1919 -0.6961
  854MPD2    H112545   0.543   1.840  12.776  1.0123  0.7434 -0.6387
  854MPD2    H212546   0.367   2.058  12.458  2.4982 -0.3300 -4.0305
  854MPD2    H312547   0.407   2.019  12.700 -0.4272 -1.4178  0.4811
  854MPD2     N12548   0.620   1.634  12.632  0.2788  0.1828  0.0607
  854MPD2    H512549   0.648   1.639  12.730  2.4737 -0.7677 -0.5087
  854MPD2    N112550   0.474   1.926  12.253  0.4172 -0.3525 -0.1858
  854MPD2    H712551   0.440   2.020  12.233  0.2129 -0.6156 -1.0527
  855MPD2     C12552   1.190   1.610  13.227 -0.1173  0.6204 -0.0281
  855MPD2    C112553   1.096   1.514  13.253  0.5709 -0.0149  0.2200
  855MPD2    C212554   1.044   1.441  13.153  0.3898  0.4000  0.1937
  855MPD2    C312555   1.071   1.476  13.018  0.3772 -0.5660  0.4108
  855MPD2    C412556   1.167   1.576  12.993 -0.5490 -0.4944  0.7254
  855MPD2    C512557   1.232   1.638  13.098  0.0395 -0.2292  0.0902
  855MPD2     H12558   0.965   1.368  13.172 -0.9379  1.5958 -0.6840
  855MPD2    H112559   1.201   1.600  12.893  0.2430 -2.4199  0.5264
  855MPD2    H212560   1.241   1.664  13.306  1.2542  0.2555 -0.6632
  855MPD2    H312561   1.293   1.727  13.086 -1.9170  0.9160 -1.2271
  855MPD2     N12562   0.994   1.424  12.916 -0.3068 -0.0585 -0.2020
  855MPD2    H512563   0.993   1.460  12.821  0.5939  0.3983 -0.0434
  855MPD2    N112564   1.067   1.471  13.382  1.0200 -0.1202  0.0677
  855MPD2    H712565   1.018   1.383  13.392  0.4233 -0.0088 -1.8276
  856MPD2     C12566   2.806   2.364  13.835 -0.5007  0.0998 -0.5275
  856MPD2    C112567   2.870   2.479  13.855  0.6424 -0.3988 -0.3857
  856MPD2    C212568   2.813   2.591  13.793 -0.4108  0.7444 -0.7931
  856MPD2    C312569   2.690   2.588  13.730  0.6609 -0.1169 -0.5579
  856MPD2    C412570   2.623   2.471  13.726  0.3858 -0.0275 -0.1216
  856MPD2    C512571   2.687   2.361  13.763 -0.6661 -0.2105 -0.2299
  856MPD2     H12572   2.853   2.688  13.822  1.9910 -0.0878 -1.2998
  856MPD2    H112573   2.535   2.471  13.663  0.5216  1.0255 -0.3116
  856MPD2    H212574   2.827   2.265  13.875 -1.9324  0.3464  0.8206
  856MPD2    H312575   2.631   2.271  13.742 -1.9891  1.2486 -2.9540
  856MPD2     N12576   2.623   2.698  13.681 -0.0486 -0.5105 -0.3188
  856MPD2    H512577   2.522   2.688  13.674 -0.2294  0.8873  0.3582
  856MPD2    N112578   2.988   2.494  13.937  0.1117 -0.0005  0.0820
  856MPD2    H712579   3.037   2.582  13.927  2.3224 -1.1157  1.2309
  857MPD2     C12580   4.565   4.683  12.294  0.0028  0.1358 -0.0902
  857MPD2    C112581   4.681   4.680  12.367  0.1052 -0.1535 -0.3466
  857MPD2    C212582   0.035   0.066  12.387  0.4924 -0.9360 -0.2346
  857MPD2    C312583   4.702   0.190  12.352  0.3354  0.2232  1.0942
  857MPD2    C412584   4.575   0.190  12.286  0.2640 -0.5560  0.8047
  857MPD2    C512585   4.507   0.076  12.261 -0.3532 -0.1274 -0.0914
  857MPD2     H12586   0.133   0.061  12.433 -0.3465 -1.8222  1.4282
  857MPD2    H112587   4.524   0.280  12.252 -0.0092 -0.7073  0.8209
  857MPD2    H212588   4.513   4.590  12.271 -2.3691  1.5497 -0.4656
  857MPD2    H312589   4.408   0.086  12.217 -1.2664 -0.8340  1.7905
  857MPD2     N12590   0.048   0.307  12.391  0.3960 -0.6593  0.3382
  857MPD2    H512591   0.133   0.293  12.444  0.3672 -2.1691 -0.0137
  857MPD2    N112592   4.724   4.552  12.405 -0.0405 -0.0475  0.5079
  857MPD2    H712593   4.660   4.474  12.391 -0.3452  0.2110  0.4488
  858MPD2     C12594   0.214   3.622  16.444 -0.6476  0.0785 -0.6040
  858MPD2    C112595   0.333   3.679  16.459  0.3648 -0.1702 -0.1323
  858MPD2    C212596   0.366   3.750  16.570  0.3765 -0.0904 -0.6702
  858MPD2    C312597   0.273   3.772  16.670 -0.2245  0.0506 -0.2079
  858MPD2    C412598   0.146   3.722  16.650 -0.0899  0.8905  0.0017
  858MPD2    C512599   0.121   3.647  16.537  0.0891 -0.0646 -0.3248
  858MPD2     H12600   0.470   3.777  16.582  0.3399 -0.1853 -0.1247
  858MPD2    H112601   0.068   3.727  16.725 -0.3673 -1.5083 -0.1077
  858MPD2    H212602   0.194   3.557  16.360  2.1450  0.6783 -1.7249
  858MPD2    H312603   0.027   3.594  16.526  0.5794 -1.3763  1.8621
  858MPD2     N12604   0.292   3.835  16.796  0.1719  0.4285 -0.3646
  858MPD2    H512605   0.213   3.865  16.852 -0.2892  1.2770 -1.4664
  858MPD2    N112606   0.433   3.643  16.358  0.0842 -0.1121  0.5448
  858MPD2    H712607   0.409   3.561  16.304 -1.3871  2.0291 -2.0341
  859MPD2     C12608   4.025   1.337  15.528 -0.1792 -0.6284 -0.1243
  859MPD2    C112609   3.986   1.274  15.411  0.2743 -0.6969 -0.0857
  859MPD2    C212610   3.970   1.138  15.404  0.9294  0.4086 -0.1813
  859MPD2    C312611   3.995   1.063  15.519  0.5331 -0.0788 -0.5157
  859MPD2    C412612   4.043   1.126  15.631 -0.0827 -0.5862 -0.0778
  859MPD2    C512613   4.056   1.264  15.636 -0.6451  0.2629 -0.5037
  859MPD2     H12614   3.940   1.082  15.315 -0.5253  1.2266 -0.2078
  859MPD2    H112615   4.060   1.076  15.726  2.4119  0.8640  0.2656
  859MPD2    H212616   4.033   1.445  15.533  0.6980 -0.5737 -2.3074
  859MPD2    H312617   4.092   1.308  15.729 -1.6302  0.7721 -0.3683
  859MPD2     N12618   3.998   0.923  15.532 -0.1738  0.7152 -0.7152
  859MPD2    H512619   4.023   0.884  15.623 -0.1685  0.6814 -0.7310
  859MPD2    N112620   3.979   1.358  15.298  0.2294  0.7706 -0.6194
  859MPD2    H712621   3.998   1.457  15.303 -3.8558  1.4077  2.7225
  860MPD2     C12622   1.534   1.355  11.327 -0.2765  0.0488  0.5754
  860MPD2    C112623   1.494   1.385  11.456  0.1932 -0.4284  0.1065
  860MPD2    C212624   1.363   1.369  11.489 -0.1134  1.0839 -0.4002
  860MPD2    C312625   1.263   1.348  11.392 -0.1435 -0.1456  0.9950
  860MPD2    C412626   1.297   1.311  11.264  0.3240  0.5792 -0.3059
  860MPD2    C512627   1.434   1.318  11.234  0.9628 -0.1987  0.1557
  860MPD2     H12628   1.336   1.381  11.593 -1.5101 -0.4706 -0.5703
  860MPD2    H112629   1.230   1.282  11.184  2.6216 -0.5291 -1.8199
  860MPD2    H212630   1.631   1.365  11.281 -0.5081  1.5386  0.4310
  860MPD2    H312631   1.461   1.294  11.132  1.1752 -0.5251  0.2886
  860MPD2     N12632   1.129   1.338  11.447 -0.0274  0.3505  0.3375
  860MPD2    H512633   1.114   1.387  11.535 -1.5339  0.8691 -0.2190
  860MPD2    N112634   1.577   1.423  11.562 -0.2275 -0.7601 -0.2076
  860MPD2    H712635   1.537   1.443  11.652 -0.0338  1.3839 -0.6128
  861MPD2     C12636   0.650   4.225  11.023 -0.7379  0.0154  0.5807
  861MPD2    C112637   0.549   4.287  11.093  0.0587  0.1491  0.9688
  861MPD2    C212638   0.447   4.355  11.030 -0.2215  0.5908  0.0358
  861MPD2    C312639   0.454   4.370  10.895 -1.2363 -0.1423 -0.0171
  861MPD2    C412640   0.560   4.321  10.825 -0.3764  0.3984  0.1157
  861MPD2    C512641   0.659   4.244  10.887  0.3554  0.0811 -0.4669
  861MPD2     H12642   0.364   4.392  11.089 -1.0709 -1.2883  0.0261
  861MPD2    H112643   0.576   4.334  10.718 -2.1551 -1.5087 -0.3740
  861MPD2    H212644   0.728   4.172  11.077  0.2146  1.2776  0.4670
  861MPD2    H312645   0.748   4.210  10.835 -0.5975 -0.4805 -1.7505
  861MPD2     N12646   0.355   4.447  10.826 -0.4091  0.6981  0.1995
  861MPD2    H512647   0.380   4.459  10.728 -0.4618 -0.5523  0.0378
  861MPD2    N112648   0.554   4.274  11.229 -0.3084 -0.3714 -0.2903
  861MPD2    H712649   0.641   4.244  11.273  0.0985 -1.0886 -1.5996
  862MPD2     C12650   0.309   4.708  10.192 -0.4404 -1.3033 -0.4210
  862MPD2    C112651   0.293   4.609  10.286  0.3390  0.6806 -0.1560
  862MPD2    C212652   0.295   4.483  10.251 -0.1242 -0.2236  0.3395
  862MPD2    C312653   0.320   4.447  10.121  0.6388  0.3716  0.0231
  862MPD2    C412654   0.326   4.538  10.024 -0.3405  0.3000 -0.2318
  862MPD2    C512655   0.316   4.667  10.063  0.1227 -0.0066 -0.2437
  862MPD2     H12656   0.260   4.415  10.328 -0.4778 -0.0878  0.2991
  862MPD2    H112657   0.330   4.511   9.919 -0.6417 -0.1424 -0.1306
  862MPD2    H212658   0.297   0.089  10.219 -0.6794 -1.5344  0.3827
  862MPD2    H312659   0.316   0.020   9.987  1.7210 -0.8478 -1.0963
  862MPD2     N12660   0.312   4.312  10.089 -0.0440  0.6020  0.7062
  862MPD2    H512661   0.267   4.257  10.162 -1.3627 -0.1320 -0.6641
  862MPD2    N112662   0.258   4.634  10.418 -0.5065  0.1120 -0.0801
  862MPD2    H712663   0.251   4.544  10.465 -1.7070 -0.6471 -1.7085
  863MPD2     C12664   3.374   2.597  16.620 -0.0343 -0.2094 -0.0947
  863MPD2    C112665   3.490   2.660  16.570 -0.1493 -0.0430 -0.0078
  863MPD2    C212666   3.613   2.636  16.630  0.0491 -0.2870  0.8600
  863MPD2    C312667   3.622   2.547  16.737 -0.0326 -0.4922 -0.2194
  863MPD2    C412668   3.511   2.479  16.776 -0.3718  0.1195  0.1499
  863MPD2    C512669   3.391   2.515  16.732 -0.7072  0.4405  0.1079
  863MPD2     H12670   3.702   2.688  16.595 -0.7097  0.7878  0.5271
  863MPD2    H112671   3.505   2.414  16.863 -1.0782  0.7300  0.5615
  863MPD2    H212672   3.282   2.630  16.574 -0.8203  0.3140  1.8645
  863MPD2    H312673   3.312   2.456  16.777 -1.6472  1.2991 -0.4225
  863MPD2     N12674   3.749   2.523  16.801  0.1571  0.6744  0.3032
  863MPD2    H512675   3.742   2.460  16.881 -1.4207  1.9651  1.1961
  863MPD2    N112676   3.473   2.756  16.468 -0.5720  0.3337 -0.5345
  863MPD2    H712677   3.376   2.783  16.450 -1.1091 -0.5438  1.0416
  864MPD2     C12678   4.082   3.595  17.323 -0.0842  0.2335  0.3979
  864MPD2    C112679   4.150   3.586  17.205  0.4134  0.1521 -0.2706
  864MPD2    C212680   4.205   3.702  17.150 -0.2176  0.5880  0.5542
  864MPD2    C312681   4.164   3.830  17.199  0.7302 -0.0154  0.0721
  864MPD2    C412682   4.083   3.832  17.309 -0.0004  0.4328  0.4662
  864MPD2    C512683   4.057   3.718  17.380 -0.2964 -0.5466 -0.1517
  864MPD2     H12684   4.271   3.693  17.065  0.0373 -1.1712  0.9480
  864MPD2    H112685   4.043   3.928  17.338 -2.1458 -0.3797  0.2409
  864MPD2    H212686   4.038   3.511  17.375 -0.2446 -1.5870 -2.6833
  864MPD2    H312687   4.002   3.732  17.472  1.5395 -1.2746  1.0453
  864MPD2     N12688   4.190   3.960  17.134 -0.0776  0.3300  0.7024
  864MPD2    H512689   4.141   4.042  17.169  1.1145  1.5418 -0.4840
  864MPD2    N112690   4.163   3.459  17.138  0.1896 -0.1761 -0.2755
  864MPD2    H712691   4.116   3.378  17.177 -0.4492 -0.5681 -1.8794
  865MPD2     C12692   3.834   4.060  16.403 -0.4839  0.1807  0.1670
  865MPD2    C112693   3.971   4.065  16.391  0.3284  0.3493 -0.3222
  865MPD2    C212694   4.041   4.140  16.480  0.5508 -0.3305  0.1169
  865MPD2    C312695   3.974   4.206  16.587 -0.4896  0.3606  0.0092
  865MPD2    C412696   3.837   4.199  16.597  0.7200  0.4617 -0.7396
  865MPD2    C512697   3.768   4.129  16.503 -0.2887  0.3810  0.1670
  865MPD2     H12698   4.149   4.146  16.481  0.5952 -1.2567  0.9018
  865MPD2    H112699   3.782   4.238  16.682  0.9995 -0.2521 -0.2346
  865MPD2    H212700   3.773   4.017  16.325  0.5236 -0.2578 -0.3825
  865MPD2    H312701   3.660   4.131  16.517 -0.1707  1.8158  0.9857
  865MPD2     N12702   4.055   4.251  16.691  0.2664  0.1856 -0.1690
  865MPD2    H512703   4.156   4.250  16.686  0.3835  0.4315  1.9754
  865MPD2    N112704   4.043   3.981  16.293  0.1131 -0.3503  0.8733
  865MPD2    H712705   3.984   3.927  16.230 -1.9152  0.9649  1.6339
  866MPD2     C12706   1.031   4.495  11.765  0.8604  0.0437  0.5452
  866MPD2    C112707   1.004   4.413  11.658  0.2478 -0.5794 -0.1435
  866MPD2    C212708   0.909   4.449  11.553 -0.3316  0.2333  0.3527
  866MPD2    C312709   0.842   4.575  11.567  0.2820 -0.3854 -0.0947
  866MPD2    C412710   0.853   4.648  11.681  0.3027 -0.0034  0.2295
  866MPD2    C512711   0.950   4.609  11.777 -0.0955 -0.5031 -0.9441
  866MPD2     H12712   0.889   4.380  11.472  2.3794  0.6765 -0.6913
  866MPD2    H112713   0.805   0.019  11.702  0.3041  0.4268 -1.7444
  866MPD2    H212714   1.103   4.460  11.838 -1.4753 -0.8710  2.4161
  866MPD2    H312715   0.965   4.684  11.853 -0.9492  0.1226 -1.3895
  866MPD2     N12716   0.736   4.615  11.483  0.0808 -0.2968  0.0428
  866MPD2    H512717   0.679   4.691  11.519  1.6532 -0.0035  1.8792
  866MPD2    N112718   1.076   4.285  11.663  0.0247 -0.0996  0.4065
  866MPD2    H712719   1.147   4.285  11.736  1.0621 -1.1323 -0.6081
  867MPD2     C12720   2.834   4.056  16.110  0.3243 -0.8801 -0.4323
  867MPD2    C112721   2.915   4.015  16.209  0.2988 -1.3114  0.0325
  867MPD2    C212722   2.955   4.094  16.315 -0.5015 -0.0526  0.1786
  867MPD2    C312723   2.894   4.222  16.326 -0.5875 -0.0496 -0.3996
  867MPD2    C412724   2.810   4.270  16.224 -0.1687 -0.4244 -0.2373
  867MPD2    C512725   2.795   4.192  16.108  0.1719  0.7704  0.2418
  867MPD2     H12726   3.014   4.046  16.393 -0.9431  0.1124  0.6141
  867MPD2    H112727   2.763   4.367  16.222  1.9931  0.6424  0.5550
  867MPD2    H212728   2.804   3.986  16.033  0.4033 -2.8020  1.2967
  867MPD2    H312729   2.748   4.239  16.023  1.1104  1.1557 -0.0640
  867MPD2     N12730   2.934   4.315  16.432  0.0952 -0.0246  0.3623
  867MPD2    H512731   2.893   4.408  16.429  2.7745  1.2143  1.9872
  867MPD2    N112732   2.951   3.882  16.200 -0.1359 -0.5375 -0.6626
  867MPD2    H712733   2.917   3.827  16.122 -1.0997 -0.9119  0.0181
  868MPD2     C12734   4.616   3.015  12.494 -0.4557 -0.3673  0.0819
  868MPD2    C112735   4.707   2.989  12.587 -0.2796 -0.0717  0.3887
  868MPD2    C212736   4.680   3.009  12.722 -0.0387  0.1230  0.3445
  868MPD2    C312737   4.559   3.063  12.755 -0.5536  0.2372 -0.0210
  868MPD2    C412738   4.468   3.095  12.658  0.0483  0.1018  0.7629
  868MPD2    C512739   4.500   3.071  12.528 -0.0912  0.2789 -0.2000
  868MPD2     H12740   0.030   2.990  12.798 -0.0208 -0.9892  0.0415
  868MPD2    H112741   4.369   3.139  12.668 -0.1259 -0.8884  3.2332
  868MPD2    H212742   4.632   2.992  12.389  1.8840  1.7730 -0.0399
  868MPD2    H312743   4.432   3.095  12.447  0.2221  2.0041  0.0450
  868MPD2     N12744   4.538   3.083  12.890 -0.1416  0.1368  0.2880
  868MPD2    H512745   4.613   3.061  12.955  0.3605  1.8352  0.3082
  868MPD2    N112746   0.106   2.924  12.561 -0.1423 -0.3246 -0.3727
  868MPD2    H712747   0.164   2.904  12.642 -3.3497  1.6292  2.3666
  869MPD2     C12748   1.470   0.613   1.927  0.7229  0.3745 -0.0786
  869MPD2    C112749   1.403   0.523   1.848 -0.2298  0.2104  0.3572
  869MPD2    C212750   1.313   0.566   1.750 -0.5006  0.5265 -0.4678
  869MPD2    C312751   1.292   0.699   1.728  0.0081 -0.4415  0.7712
  869MPD2    C412752   1.349   0.785   1.816  0.1666  0.2370 -0.3350
  869MPD2    C512753   1.438   0.746   1.913  0.2800  0.2141  0.2049
  869MPD2     H12754   1.284   0.496   1.673 -3.9797  2.4122 -0.8686
  869MPD2    H112755   1.327   0.891   1.809 -0.5742  0.0886 -0.1971
  869MPD2    H212756   1.543   0.584   2.002 -0.2934 -0.4338  0.5905
  869MPD2    H312757   1.482   0.820   1.978 -0.8910  2.1557 -1.2344
  869MPD2     N12758   1.215   0.753   1.624 -0.0970  0.2601 -0.4719
  869MPD2    H512759   1.205   0.854   1.619  1.5942  0.5003  0.7344
  869MPD2    N112760   1.416   0.384   1.859 -0.0474  0.1856 -0.0247
  869MPD2    H712761   1.354   0.332   1.796 -1.5583  0.3114  1.3518
  870MPD2     C12762   0.211   0.152   1.601 -0.8609  0.0131  0.3478
  870MPD2    C112763   0.337   0.145   1.538  0.3916 -0.2916 -0.0909
  870MPD2    C212764   0.358   0.220   1.426 -0.2057  0.0458 -0.0147
  870MPD2    C312765   0.266   0.309   1.368  0.0294  0.7007 -0.7794
  870MPD2    C412766   0.143   0.291   1.419  0.0582 -0.2857 -0.8544
  870MPD2    C512767   0.110   0.224   1.535 -0.4766  0.1537  0.2441
  870MPD2     H12768   0.458   0.225   1.384 -0.1164 -2.7003 -0.1294
  870MPD2    H112769   0.061   0.336   1.365 -0.2438  1.1092  0.7575
  870MPD2    H212770   0.187   0.099   1.693 -0.0225  1.6936  1.5452
  870MPD2    H312771   0.010   0.237   1.575 -0.7266  1.2461 -0.7251
  870MPD2     N12772   0.304   0.379   1.256 -0.2805 -0.1465 -0.0624
  870MPD2    H512773   0.401   0.378   1.225  0.2226 -1.0349  1.5110
  870MPD2    N112774   0.443   0.064   1.587 -0.3235  0.2179 -0.5486
  870MPD2    H712775   0.419   0.008   1.669  0.3442 -1.5843 -1.5682
  871MPD2     C12776   1.962   4.248  16.082  0.1617  0.6734  0.0936
  871MPD2    C112777   1.914   4.225  16.211 -0.1118 -0.9566  0.5612
  871MPD2    C212778   1.913   4.102  16.270 -0.3169  0.2332  0.1114
  871MPD2    C312779   1.930   3.992  16.186 -0.0511  0.0680 -0.0801
  871MPD2    C412780   1.963   4.011  16.048 -0.4114 -0.2934  0.3087
  871MPD2    C512781   1.977   4.139  16.000 -0.0891  0.1427  0.0529
  871MPD2     H12782   1.884   4.081  16.372  0.1088 -0.0445  0.1729
  871MPD2    H112783   1.978   3.922  15.988 -1.7459 -1.1300  1.2294
  871MPD2    H212784   1.989   4.346  16.043  1.1263  0.1804 -0.4799
  871MPD2    H312785   2.010   4.145  15.897 -1.8721  1.5501 -0.4270
  871MPD2     N12786   1.931   3.870  16.251 -0.0960  0.5635 -0.2244
  871MPD2    H512787   1.884   3.857  16.340  1.6944  1.5365  0.8930
  871MPD2    N112788   1.874   4.335  16.291  0.2248  0.8586 -0.4063
  871MPD2    H712789   1.861   4.427  16.249 -1.1360  0.4594 -0.8806
  872MPD2     C12790   2.457   2.108  13.428 -0.0876  0.9678 -0.2923
  872MPD2    C112791   2.537   2.013  13.485  1.2042 -0.3935  0.0801
  872MPD2    C212792   2.514   1.955  13.602  1.0308 -0.4185  0.1546
  872MPD2    C312793   2.390   1.987  13.667  0.9916  0.2291 -0.4457
  872MPD2    C412794   2.298   2.075  13.604 -0.1298 -0.7425 -0.0866
  872MPD2    C512795   2.334   2.131  13.483 -0.1492 -0.2158  0.3137
  872MPD2     H12796   2.587   1.889  13.648  0.8278 -1.0542 -0.4424
  872MPD2    H112797   2.200   2.107  13.636  0.8904 -1.0701  3.4052
  872MPD2    H212798   2.473   2.164  13.337 -0.7677  0.5089 -0.6998
  872MPD2    H312799   2.265   2.203  13.442 -0.5744 -0.3824  0.7447
  872MPD2     N12800   2.335   1.921  13.782 -0.2263 -0.5350 -0.4647
  872MPD2    H512801   2.249   1.954  13.824 -1.2317 -1.9688 -1.3851
  872MPD2    N112802   2.658   1.977  13.418  0.2159 -0.3264 -0.3313
  872MPD2    H712803   2.722   1.928  13.480  1.0895  3.7611  1.9698
  873MPD2     C12804   3.935   2.101   0.623 -0.4597 -0.2153  0.4744
  873MPD2    C112805   3.983   2.005   0.714 -0.1842  0.6224  0.3440
  873MPD2    C212806   4.011   1.883   0.664  0.8302  0.6428  0.0118
  873MPD2    C312807   3.986   1.843   0.531 -0.9692 -0.4053  0.1082
  873MPD2    C412808   3.921   1.934   0.447 -0.4240  0.1453 -0.0444
  873MPD2    C512809   3.902   2.062   0.495  0.0220  0.1461 -0.4773
  873MPD2     H12810   4.027   1.806   0.739 -0.8126  3.4446  3.2540
  873MPD2    H112811   3.900   1.915   0.342  0.6329  2.9790 -0.7590
  873MPD2    H212812   3.946   2.205   0.650  1.2594 -0.8577  2.2286
  873MPD2    H312813   3.878   2.134   0.417  0.4347  2.0857  1.1766
  873MPD2     N12814   4.030   1.720   0.480 -0.2561  0.4320 -0.2119
  873MPD2    H512815   3.984   1.699   0.392 -1.8524  1.8618  0.3010
  873MPD2    N112816   4.013   2.053   0.839  0.0685  0.3893  0.0268
  873MPD2    H712817   3.971   2.140   0.872 -0.6320  0.4251 -0.9660
  874MPD2     C12818   4.364   1.995  15.696  0.1254 -0.0596 -0.4747
  874MPD2    C112819   4.415   1.928  15.810 -0.5798  0.3229 -0.2962
  874MPD2    C212820   4.550   1.941  15.841  0.2695 -0.3253 -0.3074
  874MPD2    C312821   4.629   2.027  15.762 -0.0854 -0.8128 -0.4832
  874MPD2    C412822   4.582   2.089  15.655 -0.2585  0.7552 -0.2280
  874MPD2    C512823   4.453   2.069  15.617 -0.1382  0.7759  0.1071
  874MPD2     H12824   4.592   1.899  15.931 -1.3296 -0.2278  0.4908
  874MPD2    H112825   4.650   2.149  15.595 -1.8245  1.3146 -1.4647
  874MPD2    H212826   4.261   1.989  15.663  0.0901  0.3196 -0.4384
  874MPD2    H312827   4.425   2.103  15.518 -0.7685  1.7883  0.6326
  874MPD2     N12828   0.029   2.052  15.816  0.3804  0.9080  0.3577
  874MPD2    H512829   0.062   2.012  15.902  1.7567  5.2961  1.8819
  874MPD2    N112830   4.325   1.864  15.892  0.4858 -0.0028  0.4005
  874MPD2    H712831   4.231   1.855  15.855  0.6335  3.2049 -0.8198
  875MPD2     C12832   0.782   0.363  14.494  0.2038  0.2333  0.3465
  875MPD2    C112833   0.643   0.373  14.511 -0.6168  0.1514 -0.1781
  875MPD2    C212834   0.608   0.434  14.628 -0.3163 -0.9400  0.6652
  875MPD2    C312835   0.709   0.473  14.724 -0.0135 -0.0335  0.7944
  875MPD2    C412836   0.843   0.471  14.685  0.5900  0.4701 -0.5400
  875MPD2    C512837   0.877   0.419  14.572 -0.5533 -0.1043  0.1416
  875MPD2     H12838   0.502   0.436  14.651 -1.1618 -1.7196 -3.1977
  875MPD2    H112839   0.918   0.497  14.758  0.2538 -6.1730  2.1956
  875MPD2    H212840   0.824   0.302  14.415 -3.4986  0.4355 -1.8047
  875MPD2    H312841   0.979   0.393  14.545 -0.0531  3.3785 -1.2183
  875MPD2     N12842   0.683   0.525  14.846 -0.4003  0.0182 -0.1996
  875MPD2    H512843   0.759   0.562  14.902 -0.8407  1.9636 -0.9164
  875MPD2    N112844   0.547   0.326  14.416 -0.4156  0.0729 -0.3572
  875MPD2    H712845   0.451   0.350  14.437 -0.8542 -1.4841 -0.5774
  876MPD2     C12846   4.160   1.508  15.901  0.3749  0.8372 -0.3179
  876MPD2    C112847   4.265   1.460  15.827 -0.3354 -0.0197 -0.9284
  876MPD2    C212848   4.330   1.347  15.866 -0.0020  0.3039 -0.3238
  876MPD2    C312849   4.275   1.266  15.964  0.3390  0.7982 -0.3421
  876MPD2    C412850   4.162   1.313  16.032 -0.2375 -0.0065  0.0652
  876MPD2    C512851   4.106   1.432  16.005 -0.0936 -0.2661  0.4931
  876MPD2     H12852   4.407   1.304  15.803  0.5327 -1.1634  1.3510
  876MPD2    H112853   4.117   1.257  16.113 -0.3264 -0.5085 -0.3338
  876MPD2    H212854   4.096   1.592  15.875 -0.2054  0.8960  1.3181
  876MPD2    H312855   4.022   1.464  16.065 -1.0335 -0.6165 -0.6551
  876MPD2     N12856   4.331   1.148  15.994 -1.1262  0.4711  1.0806
  876MPD2    H512857   4.408   1.117  15.935 -0.5623  2.0403  1.0042
  876MPD2    N112858   4.307   1.549  15.718  0.0668  0.5943  0.1420
  876MPD2    H712859   4.255   1.633  15.696  1.8386  0.7289 -3.4144
  877MPD2     C12860   4.052   1.926  15.166 -0.0303 -0.3887  0.3572
  877MPD2    C112861   4.179   1.896  15.124  0.1769  0.0432 -0.1457
  877MPD2    C212862   4.207   1.876  14.990 -0.1938  0.5873 -0.1698
  877MPD2    C312863   4.107   1.882  14.894 -0.3457 -0.3145 -0.5004
  877MPD2    C412864   3.981   1.897  14.934 -0.9196 -0.3200  0.0409
  877MPD2    C512865   3.953   1.920  15.069  0.5784 -0.2329  0.0015
  877MPD2     H12866   4.310   1.858  14.966 -0.1925  0.6654 -0.2227
  877MPD2    H112867   3.897   1.898  14.866  0.1584  0.1942 -1.2951
  877MPD2    H212868   4.019   1.935  15.268  2.2918 -0.2042  1.0755
  877MPD2    H312869   3.852   1.943  15.102  0.6800  1.7584 -1.0935
  877MPD2     N12870   4.133   1.846  14.758 -0.2990 -0.4094 -0.0870
  877MPD2    H512871   4.049   1.824  14.704  0.1687  0.5048 -1.1886
  877MPD2    N112872   4.276   1.863  15.216 -0.1879  0.1698 -0.2894
  877MPD2    H712873   4.357   1.809  15.188 -1.6680 -0.3808 -3.4757
  878MPD2     C12874   3.321   1.167  12.702  0.1376 -0.3125 -0.5079
  878MPD2    C112875   3.455   1.181  12.690  0.5859  0.8729  0.0599
  878MPD2    C212876   3.530   1.198  12.801 -0.2942  0.0619 -0.6492
  878MPD2    C312877   3.472   1.201  12.930 -0.2509 -0.0463 -0.4734
  878MPD2    C412878   3.333   1.166  12.936  0.0318  0.4625  0.5691
  878MPD2    C512879   3.263   1.167  12.820  0.4547  0.5147  0.4919
  878MPD2     H12880   3.637   1.213  12.801 -0.1761 -0.9017  2.8389
  878MPD2    H112881   3.266   1.165  13.022 -1.7720 -1.5078 -0.8528
  878MPD2    H212882   3.245   1.171  12.624  0.4931 -0.8917 -0.8861
  878MPD2    H312883   3.156   1.173  12.834  0.4366  1.3588 -0.0526
  878MPD2     N12884   3.561   1.225  13.034 -0.1961  0.1352  0.2295
  878MPD2    H512885   3.657   1.229  13.004 -0.3449 -0.7240 -0.3510
  878MPD2    N112886   3.517   1.174  12.557  0.2599 -0.3885 -0.5094
  878MPD2    H712887   3.446   1.163  12.485 -0.8560 -1.3991  0.7326
  879MPD2     C12888   0.332   2.068  16.834 -0.3349  0.4052  0.7609
  879MPD2    C112889   0.231   2.164  16.872 -0.1890  0.9440 -0.0289
  879MPD2    C212890   0.106   2.156  16.814  0.2262 -0.1088  0.5348
  879MPD2    C312891   0.088   2.074  16.706  0.6685  0.0906  0.4709
  879MPD2    C412892   0.181   1.980  16.671 -0.5703 -0.3238  0.3999
  879MPD2    C512893   0.301   1.974  16.738 -0.4213 -0.0249 -0.1144
  879MPD2     H12894   0.023   2.214  16.851 -3.1749 -2.2811 -3.6317
  879MPD2    H112895   0.162   1.909  16.592  1.2399  0.9975 -1.2537
  879MPD2    H212896   0.427   2.055  16.885 -0.1389  1.1750  0.5931
  879MPD2    H312897   0.362   1.887  16.717  0.0222  0.4672 -0.8456
  879MPD2     N12898   4.692   2.066  16.636 -0.3263  0.3668 -0.0475
  879MPD2    H512899   4.689   2.010  16.551 -0.7224 -0.6658  0.6521
  879MPD2    N112900   0.250   2.242  16.984 -0.0347  0.5357  0.7597
  879MPD2    H712901   0.338   2.231  17.034  0.4695 -0.8395 -0.4404
  880MPD2     C12902   1.129   4.180   0.220 -0.0859 -0.0071 -0.1595
  880MPD2    C112903   1.094   4.259   0.333  0.0208 -0.1289  0.1322
  880MPD2    C212904   1.082   4.199   0.457  0.1739  0.8566 -0.3263
  880MPD2    C312905   1.095   4.063   0.469  0.3722  0.2725 -0.6711
  880MPD2    C412906   1.134   3.986   0.358 -0.7137 -0.1342 -0.3433
  880MPD2    C512907   1.157   4.042   0.234  0.0848 -0.2212 -0.2134
  880MPD2     H12908   1.053   4.257   0.544  0.8273  0.0625  0.4156
  880MPD2    H112909   1.142   3.878   0.367 -0.9778 -0.0278  1.2157
  880MPD2    H212910   1.152   4.222   0.123  0.1870  0.3409  0.0549
  880MPD2    H312911   1.187   3.971   0.157 -0.1001  0.6226 -1.0635
  880MPD2     N12912   1.075   4.007   0.599  0.7138  0.3841 -0.2611
  880MPD2    H512913   1.072   4.074   0.675  1.2710  1.9318 -1.5988
  880MPD2    N112914   1.066   4.402   0.310  0.2530 -0.2445 -0.3016
  880MPD2    H712915   1.059   4.440   0.216  0.3100 -0.9014 -0.5761
  881MPD2     C12916   1.233   0.394  17.371 -0.4218 -0.0847 -0.4043
  881MPD2    C112917   1.206   0.260  17.359 -0.2175  0.3970 -0.0535
  881MPD2    C212918   1.144   0.190  17.463 -0.3421  1.0327  0.2498
  881MPD2    C312919   1.113   0.266  17.575  0.6164 -0.4027  0.5305
  881MPD2    C412920   1.140   0.400  17.577  0.8283  0.0448 -0.4407
  881MPD2    C512921   1.195   0.464  17.473  1.0040  0.3893  0.8011
  881MPD2     H12922   1.109   0.088  17.457  1.3306  0.4509  0.4895
  881MPD2    H112923   1.126   0.455  17.670  2.8075  0.6221 -0.4836
  881MPD2    H212924   1.272   0.446  17.284  1.1334  2.4942  1.8419
  881MPD2    H312925   1.216   0.570  17.470 -2.1902  0.9947  0.0504
  881MPD2     N12926   1.056   0.216   0.003  0.2617 -0.1795 -0.5460
  881MPD2    H512927   1.029   0.283   0.073  1.6994 -1.1302  0.9161
  881MPD2    N112928   1.232   0.210  17.223 -0.1847  0.4378 -0.1701
  881MPD2    H712929   1.256   0.284  17.158  0.6216 -0.5185 -0.9543
  882MPD2     C12930   3.927   1.404  14.122 -0.4736 -0.6212  0.7403
  882MPD2    C112931   3.939   1.544  14.136  0.3560 -0.1980 -0.1270
  882MPD2    C212932   3.868   1.636  14.066  0.3463 -0.3789 -0.5536
  882MPD2    C312933   3.773   1.589  13.975  0.1871  0.1394  0.1443
  882MPD2    C412934   3.743   1.451  13.973  0.4811 -0.1365  0.2380
  882MPD2    C512935   3.829   1.360  14.037 -0.2511 -0.1349 -0.4944
  882MPD2     H12936   3.872   1.742  14.086  0.3986 -0.3835 -0.5396
  882MPD2    H112937   3.670   1.402  13.910 -2.0963  2.0941  1.4993
  882MPD2    H212938   3.986   1.328  14.173 -0.0011  0.5759  1.9831
  882MPD2    H312939   3.813   1.252  14.036  1.0674 -0.3250 -1.9616
  882MPD2     N12940   3.699   1.678  13.895 -0.2455 -0.5276 -0.2663
  882MPD2    H512941   3.621   1.640  13.842  0.8296 -1.2618 -1.3390
  882MPD2    N112942   4.035   1.586  14.236 -0.2272 -0.3220  0.0493
  882MPD2    H712943   4.093   1.508  14.264 -2.1019 -1.2428  1.3701
  883MPD2     C12944   1.775   1.716  16.345 -0.2271 -0.4862  0.1186
  883MPD2    C112945   1.832   1.733  16.221 -0.4793  0.0169 -0.3725
  883MPD2    C212946   1.968   1.764  16.213 -0.2580  0.4472 -0.1519
  883MPD2    C312947   2.046   1.787  16.331  0.2273 -0.2099 -0.3178
  883MPD2    C412948   1.984   1.764  16.455 -0.7045  0.5635 -0.6449
  883MPD2    C512949   1.846   1.727  16.463  0.8611 -0.5275 -0.2530
  883MPD2     H12950   2.026   1.778  16.123 -0.6316  0.5975 -0.3700
  883MPD2    H112951   2.034   1.769  16.551  0.3454  0.6686 -1.1943
  883MPD2    H212952   1.671   1.685  16.354 -0.8353  1.2931 -0.8027
  883MPD2    H312953   1.801   1.687  16.553 -0.8590  0.7411 -0.5493
  883MPD2     N12954   2.184   1.811  16.318 -0.1204  0.1872 -0.7814
  883MPD2    H512955   2.221   1.821  16.224  0.4054 -0.6554 -0.6648
  883MPD2    N112956   1.762   1.722  16.096 -0.2891  0.6438  0.2884
  883MPD2    H712957   1.826   1.710  16.018  1.2842  0.7764  1.5628
  884MPD2     C12958   3.467   2.398  14.890  0.1513 -0.7486  0.4317
  884MPD2    C112959   3.455   2.533  14.849 -0.3074 -0.7928 -0.1849
  884MPD2    C212960   3.335   2.594  14.889  0.6431 -0.3961  1.1448
  884MPD2    C312961   3.247   2.517  14.966  0.0788  0.1800 -0.6096
  884MPD2    C412962   3.264   2.391  14.997  0.1698  0.6768  0.4246
  884MPD2    C512963   3.377   2.326  14.966 -0.0895 -0.4493 -0.0333
  884MPD2     H12964   3.325   2.701  14.873  0.1015 -0.3631  1.7303
  884MPD2    H112965   3.207   2.342  15.074 -0.1765  0.6524  0.1542
  884MPD2    H212966   3.543   2.326  14.861  0.8990 -0.2713  1.2099
  884MPD2    H312967   3.411   2.232  15.006 -1.2966 -1.1450 -0.6655
  884MPD2     N12968   3.129   2.585  15.003 -0.0602 -0.3013  0.5862
  884MPD2    H512969   3.133   2.681  14.970 -0.0191 -0.4863  0.0544
  884MPD2    N112970   3.550   2.601  14.774  0.5341  0.8333  0.4255
  884MPD2    H712971   3.531   2.700  14.762 -0.7521  0.3675 -1.3051
  885MPD2     C12972   1.421   2.753  17.271  0.0594 -0.5707  0.3224
  885MPD2    C112973   1.558   2.779  17.287 -0.5258 -0.5053 -0.2062
  885MPD2    C212974   1.622   2.857  17.199  0.1307 -0.3530 -0.5787
  885MPD2    C312975   1.554   2.923  17.096  0.0622 -0.5284 -0.1550
  885MPD2    C412976   1.418   2.902  17.083 -0.4999  0.1937  0.3228
  885MPD2    C512977   1.355   2.816  17.170  0.0852 -0.0674 -0.2155
  885MPD2     H12978   1.729   2.875  17.206 -0.2846  1.8175  0.1901
  885MPD2    H112979   1.359   2.948  17.005 -3.9577 -3.4388  0.8232
  885MPD2    H212980   1.362   2.691  17.337  1.0594 -1.9031 -0.0376
  885MPD2    H312981   1.251   2.790  17.151  0.5894 -0.4760 -2.3856
  885MPD2     N12982   1.619   3.018  17.012 -0.8067 -0.3667  0.4641
  885MPD2    H512983   1.720   3.027  17.015 -0.7272 -0.2123 -2.2888
  885MPD2    N112984   1.618   2.712  17.393  0.5727  0.1743 -0.5368
  885MPD2    H712985   1.566   2.643  17.447 -1.2067 -1.0074 -3.8075
  886MPD2     C12986   2.966   0.938  15.025  0.1195 -0.2576  1.3444
  886MPD2    C112987   3.047   1.001  15.120  0.1821 -0.0767 -0.2223
  886MPD2    C212988   3.052   1.140  15.121  0.5455  0.2862  0.0578
  886MPD2    C312989   2.974   1.217  15.033 -0.2296 -0.3617 -0.2214
  886MPD2    C412990   2.883   1.155  14.957 -0.8541  0.0743  0.5843
  886MPD2    C512991   2.879   1.017  14.954 -0.1887  0.3870  0.5207
  886MPD2     H12992   3.125   1.191  15.182  1.0614  0.4819 -0.7210
  886MPD2    H112993   2.819   1.214  14.893 -1.0080  0.1010  0.7617
  886MPD2    H212994   2.961   0.831  15.008 -0.8380 -0.2354  1.5137
  886MPD2    H312995   2.802   0.965  14.899  1.0892  0.7798 -1.6237
  886MPD2     N12996   2.977   1.356  15.010  0.2191  0.2476  0.4243
  886MPD2    H512997   2.927   1.390  14.929 -1.0853  0.9343  1.5064
  886MPD2    N112998   3.150   0.919  15.173 -0.4832  0.2865  0.1830
  886MPD2    H712999   3.134   0.820  15.157  0.0619  0.2830 -0.3566
  887MPD2     C13000   3.750   1.080  15.787 -1.1420 -0.1001  0.7392
  887MPD2    C113001   3.652   1.127  15.696  0.1367 -0.4055 -0.4849
  887MPD2    C213002   3.628   1.265  15.685  0.6069 -1.0979 -0.4598
  887MPD2    C313003   3.704   1.355  15.762  0.0380  0.0997 -0.0438
  887MPD2    C413004   3.795   1.311  15.856 -0.3272 -0.0243  0.4360
  887MPD2    C513005   3.814   1.173  15.868 -0.5567  0.4736 -0.2281
  887MPD2     H13006   3.557   1.307  15.615 -0.4891  0.1799  1.4259
  887MPD2    H113007   3.850   1.386  15.913  0.4989  0.5049 -1.0584
  887MPD2    H213008   3.779   0.976  15.800  0.0115  0.0650 -0.6123
  887MPD2    H313009   3.894   1.129  15.927  0.9804  1.0422 -1.8694
  887MPD2     N13010   3.673   1.495  15.742  1.0071 -0.0711 -0.6964
  887MPD2    H513011   3.584   1.518  15.699  0.2155 -2.9357 -0.5976
  887MPD2    N113012   3.575   1.040  15.614  0.2376  0.3297  0.2467
  887MPD2    H713013   3.502   1.079  15.555  0.9388 -0.1745 -0.9547
  888MPD2     C13014   0.640   1.551  14.552  0.2306 -0.2804 -0.8669
  888MPD2    C113015   0.710   1.600  14.658  0.2241 -0.2537  0.4768
  888MPD2    C213016   0.758   1.732  14.655  0.2002  0.1198 -0.5543
  888MPD2    C313017   0.742   1.808  14.542 -0.0181 -0.2172  0.2190
  888MPD2    C413018   0.671   1.758  14.429 -0.0461 -0.2486  0.2011
  888MPD2    C513019   0.621   1.630  14.441 -0.2472 -0.0956 -0.5015
  888MPD2     H13020   0.812   1.773  14.740 -1.4663 -0.6395  0.8924
  888MPD2    H113021   0.639   1.826  14.351  1.3192  0.6771  0.4430
  888MPD2    H213022   0.580   1.461  14.546 -0.5146  0.0145  1.8081
  888MPD2    H313023   0.557   1.589  14.364  0.1202 -2.0058  0.2218
  888MPD2     N13024   0.795   1.938  14.545 -0.8703  0.1175  0.1465
  888MPD2    H513025   0.838   1.963  14.633 -1.7408  1.9195  0.0584
  888MPD2    N113026   0.709   1.532  14.782 -0.4797  0.2886 -0.0762
  888MPD2    H713027   0.733   1.584  14.865  1.4347 -0.5380 -0.1332
  889MPD2     C13028   0.011   1.149  12.350 -0.6081 -0.4863 -0.4369
  889MPD2    C113029   0.034   1.095  12.479  0.5690  0.2846  0.4346
  889MPD2    C213030   4.708   1.162  12.586 -0.3927  0.0068  0.4722
  889MPD2    C313031   4.655   1.287  12.577 -0.0864 -0.1130 -0.1639
  889MPD2    C413032   4.637   1.339  12.454  0.1602  0.3040  0.3104
  889MPD2    C513033   4.679   1.276  12.339  0.1597  0.2951 -0.3648
  889MPD2     H13034   0.001   1.133  12.689 -1.0028  1.6205  1.0358
  889MPD2    H113035   4.580   1.430  12.436  2.7621  1.9551  0.5043
  889MPD2    H213036   0.052   1.112  12.257 -1.5005  0.3796 -1.1837
  889MPD2    H313037   4.659   1.302  12.236  0.4706  1.3186 -0.1689
  889MPD2     N13038   4.626   1.366  12.689 -0.0435  0.3103 -0.1545
  889MPD2    H513039   4.641   1.321  12.779 -2.1530  0.1683  0.1361
  889MPD2    N113040   0.092   0.973  12.505 -0.0531 -0.5974 -0.2404
  889MPD2    H713041   0.096   0.944  12.602  2.1289  2.7176  0.6664
  890MPD2     C13042   4.456   2.420  14.308 -0.0463  0.4131 -0.1784
  890MPD2    C113043   4.533   2.469  14.411 -0.3887 -0.3003  0.2099
  890MPD2    C213044   4.545   2.398  14.528  0.3523  0.1666  0.0456
  890MPD2    C313045   4.466   2.282  14.554 -0.2679 -0.1037 -0.5437
  890MPD2    C413046   4.401   2.230  14.445  0.0532  0.2930 -0.4962
  890MPD2    C513047   4.396   2.295  14.322 -0.4527  0.4105  0.0522
  890MPD2     H13048   4.598   2.441  14.612  1.4682  0.2089 -0.6810
  890MPD2    H113049   4.346   2.136  14.454  0.3457  0.1402 -0.3238
  890MPD2    H213050   4.451   2.464  14.209 -0.5321 -1.0968 -0.8139
  890MPD2    H313051   4.342   2.249  14.240  0.2020 -0.8909  0.3486
  890MPD2     N13052   4.461   2.220  14.680  0.3400 -0.2943 -0.3674
  890MPD2    H513053   4.542   2.215  14.740  0.5374  0.5587 -0.5648
  890MPD2    N113054   4.598   2.593  14.390  0.7439 -0.5377 -0.2480
  890MPD2    H713055   4.590   2.635  14.298 -2.6062  1.2580  0.8618
  891MPD2     C13056   2.525   1.190  16.322  0.2636  0.0526 -0.5161
  891MPD2    C113057   2.439   1.143  16.419 -0.0516  0.0234 -0.6193
  891MPD2    C213058   2.480   1.096  16.539 -0.4109  0.1636 -0.1088
  891MPD2    C313059   2.616   1.102  16.565 -0.3782 -0.4544  0.1119
  891MPD2    C413060   2.701   1.162  16.473 -0.5948 -0.4333 -0.3430
  891MPD2    C513061   2.654   1.209  16.360 -0.4078 -0.2080  0.5062
  891MPD2     H13062   2.415   1.057  16.616  2.4856 -1.1877  1.6246
  891MPD2    H113063   2.807   1.179  16.490 -0.8819  1.6717 -0.6331
  891MPD2    H213064   2.488   1.222  16.225 -0.0289  1.3646  0.0269
  891MPD2    H313065   2.719   1.246  16.281  2.3479 -0.2327  2.7718
  891MPD2     N13066   2.661   1.044  16.689 -0.2444 -0.5352 -0.4277
  891MPD2    H513067   2.588   1.006  16.749  1.4945  0.0776  2.0894
  891MPD2    N113068   2.301   1.162  16.397 -0.4418  0.6855  0.5243
  891MPD2    H713069   2.279   1.186  16.301  0.2489 -0.3261  0.1106
  892MPD2     C13070   3.417   2.081  14.600 -0.7128 -0.2250 -0.7010
  892MPD2    C113071   3.300   2.064  14.524 -0.3707  0.1008  0.4385
  892MPD2    C213072   3.305   2.031  14.391  1.0181 -0.7126 -0.0538
  892MPD2    C313073   3.424   2.010  14.331  0.8442 -0.9952 -0.0600
  892MPD2    C413074   3.543   2.040  14.404  0.4653 -0.8138  0.3905
  892MPD2    C513075   3.537   2.070  14.538  0.3533 -0.4451  0.3505
  892MPD2     H13076   3.219   2.023  14.325  0.1533  1.4378  0.8116
  892MPD2    H113077   3.638   2.020  14.356  0.8335  0.4200  0.6121
  892MPD2    H213078   3.411   2.131  14.696  1.1098  0.9147 -1.1687
  892MPD2    H313079   3.628   2.077  14.598  0.2496  0.2756  0.4157
  892MPD2     N13080   3.432   1.988  14.188  0.2672 -0.1316 -0.3835
  892MPD2    H513081   3.524   2.009  14.150 -0.1740 -3.4120 -3.2747
  892MPD2    N113082   3.176   2.102  14.578 -0.2145 -0.3063  0.4435
  892MPD2    H713083   3.099   2.132  14.518  0.1240 -1.0257 -0.3417
  893MPD2     C13084   4.631   0.313   1.888  1.1642  0.5350  0.7709
  893MPD2    C113085   4.675   0.414   1.802  0.1580  0.1349 -0.7011
  893MPD2    C213086   4.578   0.498   1.747  0.0253 -0.7263  0.3102
  893MPD2    C313087   4.441   0.482   1.763  0.1242 -0.3564  0.2115
  893MPD2    C413088   4.402   0.376   1.849 -0.1300 -0.0920  0.2657
  893MPD2    C513089   4.497   0.293   1.902 -0.7587  0.3390 -0.1079
  893MPD2     H13090   4.612   0.580   1.685 -1.2498 -0.7125 -0.3811
  893MPD2    H113091   4.300   0.345   1.868  0.7170 -1.6921  2.2224
  893MPD2    H213092   4.699   0.238   1.927  2.0432  1.0937  0.3337
  893MPD2    H313093   4.468   0.208   1.963  0.7935 -0.0438  0.1139
  893MPD2     N13094   4.352   0.573   1.710 -0.9602  0.4208  0.4234
  893MPD2    H513095   4.255   0.546   1.725 -0.5534 -0.4861  1.4479
  893MPD2    N113096   0.083   0.448   1.778  0.2430  0.4727  0.3230
  893MPD2    H713097   0.100   0.534   1.727  0.9780 -0.4204 -0.9243
  894MPD2     C13098   3.146   3.085   0.511  0.2068  0.1249 -0.1366
  894MPD2    C113099   3.166   3.123   0.648  0.6953 -0.0935 -0.1461
  894MPD2    C213100   3.270   3.204   0.673  0.4275  0.3534  0.4616
  894MPD2    C313101   3.365   3.254   0.577 -0.3239  0.2681 -0.3009
  894MPD2    C413102   3.343   3.211   0.444  0.5321 -0.2786  0.4021
  894MPD2    C513103   3.238   3.129   0.417 -0.0213 -0.6359 -0.2094
  894MPD2     H13104   3.277   3.235   0.777 -1.2202 -0.0790  0.7037
  894MPD2    H113105   3.401   3.246   0.360  0.0907  0.4298  0.3862
  894MPD2    H213106   3.070   3.016   0.476  0.2359 -0.1723  0.3759
  894MPD2    H313107   3.217   3.103   0.314  2.4642 -0.9356 -0.6252
  894MPD2     N13108   3.462   3.341   0.634 -0.5312  0.5241 -0.2089
  894MPD2    H513109   3.447   3.367   0.731  2.2092  2.5738 -0.3326
  894MPD2    N113110   3.078   3.096   0.751 -0.1996 -0.1344 -0.5656
  894MPD2    H713111   3.093   3.148   0.837 -1.5825  1.3750 -1.2510
  895MPD2     C13112   2.187   1.523  13.590 -0.4827  0.5961  0.0163
  895MPD2    C113113   2.087   1.471  13.512 -0.2128  0.0557 -0.7752
  895MPD2    C213114   2.110   1.385  13.408  0.2490  0.0684 -0.7157
  895MPD2    C313115   2.241   1.356  13.375  0.0498  0.6143  0.1002
  895MPD2    C413116   2.348   1.417  13.445  0.3129  0.4186 -0.0139
  895MPD2    C513117   2.315   1.500  13.551 -0.3900 -0.1882  0.3253
  895MPD2     H13118   2.026   1.350  13.348 -2.1312  0.9139  2.1717
  895MPD2    H113119   2.454   1.403  13.430  0.2265 -0.2013 -0.0604
  895MPD2    H213120   2.166   1.593  13.670  0.2145 -0.7574  1.3979
  895MPD2    H313121   2.391   1.546  13.613  0.8770 -0.7302 -0.8239
  895MPD2     N13122   2.254   1.259  13.270  0.1284 -0.1755  0.2872
  895MPD2    H513123   2.168   1.217  13.237  1.4643 -3.1609  0.6796
  895MPD2    N113124   1.949   1.500  13.526  0.2680 -0.1927  0.7533
  895MPD2    H713125   1.885   1.456  13.461 -0.2994 -0.2339  1.3314
  896MPD2     C13126   4.705   3.424   1.668 -0.1778 -0.4294  0.3533
  896MPD2    C113127   4.664   3.462   1.540 -0.2716 -0.3468 -0.4220
  896MPD2    C213128   4.566   3.384   1.478  0.4920 -0.0749  0.3657
  896MPD2    C313129   4.515   3.273   1.537 -0.1876 -0.1957 -0.5369
  896MPD2    C413130   4.561   3.232   1.656 -0.0570 -0.0010 -0.3296
  896MPD2    C513131   4.659   3.309   1.718  0.0274 -0.1738  0.4841
  896MPD2     H13132   4.533   3.416   1.380 -0.9254 -1.1784  0.4816
  896MPD2    H113133   4.530   3.142   1.707 -0.0233  0.5063  0.6045
  896MPD2    H213134   0.058   3.480   1.720  2.3091 -2.9708 -0.5193
  896MPD2    H313135   4.693   3.284   1.818  0.6050  2.8359  1.0345
  896MPD2     N13136   4.395   3.212   1.477 -0.1899 -0.0021  0.3035
  896MPD2    H513137   4.376   3.242   1.382  3.6212  1.5429  0.0498
  896MPD2    N113138   0.009   3.576   1.486  0.0387 -0.0774  0.1342
  896MPD2    H713139   0.056   3.646   1.542 -0.2050 -0.8844  1.3283
  897MPD2     C13140   1.604   0.245  10.265 -0.2873 -0.1566  0.3093
  897MPD2    C113141   1.513   0.347  10.253  0.7720  0.0537 -0.1737
  897MPD2    C213142   1.427   0.380  10.354 -0.3735 -0.2591 -0.1659
  897MPD2    C313143   1.429   0.306  10.465 -0.1753  0.8442  0.5952
  897MPD2    C413144   1.526   0.216  10.488  0.6805 -0.5495 -0.3715
  897MPD2    C513145   1.608   0.182  10.385  0.2771 -0.4905 -0.6246
  897MPD2     H13146   1.370   0.472  10.352  0.5469  0.3215  1.0567
  897MPD2    H113147   1.547   0.159  10.577  0.0058 -0.7405 -0.3341
  897MPD2    H213148   1.674   0.210  10.190 -1.5875 -2.0699 -0.0014
  897MPD2    H313149   1.689   0.117  10.416 -0.1112 -0.9834 -0.6514
  897MPD2     N13150   1.319   0.318  10.547  0.1072  0.3657  0.0491
  897MPD2    H513151   1.238   0.363  10.504 -1.6873 -1.6490  1.3000
  897MPD2    N113152   1.484   0.414  10.131 -0.2911 -0.2264 -0.1180
  897MPD2    H713153   1.417   0.490  10.134 -0.5810 -0.4383 -1.0029
  898MPD2     C13154   2.492   1.565  17.268  0.0683  0.2971  0.3453
  898MPD2    C113155   2.608   1.640  17.287 -0.6430  0.9254  0.5006
  898MPD2    C213156   2.630   1.741  17.194 -0.6326  0.5431 -0.9224
  898MPD2    C313157   2.538   1.779  17.100  0.1328 -0.9499 -0.0643
  898MPD2    C413158   2.416   1.709  17.093 -0.5598 -0.9364 -0.3521
  898MPD2    C513159   2.398   1.598  17.175 -0.4165 -0.3047 -0.5576
  898MPD2     H13160   2.727   1.790  17.201 -0.8491  0.9468 -0.7251
  898MPD2    H113161   2.340   1.735  17.020 -0.7429  1.9276  0.8302
  898MPD2    H213162   2.475   1.474  17.325 -1.2169 -0.2811 -0.9728
  898MPD2    H313163   2.323   1.524  17.146 -0.6090 -0.3741  0.1103
  898MPD2     N13164   2.570   1.890  17.014 -0.1177  0.5387 -0.1625
  898MPD2    H513165   2.655   1.945  17.027 -2.4769  3.8656  0.9409
  898MPD2    N113166   2.707   1.596  17.373 -0.3949 -1.0129 -0.4063
  898MPD2    H713167   2.797   1.643  17.371  0.5442 -2.5174  5.0535
  899MPD2     C13168   3.833   1.978  17.124  0.0762 -0.0543  0.7789
  899MPD2    C113169   3.863   2.099  17.172  0.0503 -0.0136 -0.5758
  899MPD2    C213170   3.798   2.147  17.287  1.4994 -0.4748  0.0213
  899MPD2    C313171   3.697   2.066  17.336 -1.5334 -0.5721  0.5486
  899MPD2    C413172   3.675   1.940  17.290 -0.2670  0.4146 -0.0513
  899MPD2    C513173   3.746   1.896  17.187 -0.9244 -0.1325 -0.1668
  899MPD2     H13174   3.812   2.250  17.318 -0.0167 -0.0643 -0.6617
  899MPD2    H113175   3.600   1.882  17.342 -0.0829 -1.5458 -1.9795
  899MPD2    H213176   3.888   1.942  17.038  1.3017 -0.5060  1.7319
  899MPD2    H313177   3.738   1.797  17.145  0.5904 -0.9448  1.4414
  899MPD2     N13178   3.620   2.105  17.448 -0.2745 -0.6411 -0.0107
  899MPD2    H513179   3.565   2.032  17.493 -1.3736  1.6727  2.4382
  899MPD2    N113180   3.946   2.180  17.090 -0.5468  1.4318  0.2747
  899MPD2    H713181   3.962   2.151  16.994 -0.7106 -1.4498  1.1092
  900MPD2     C13182   3.813   3.858  12.443 -0.1186  0.1801 -0.2823
  900MPD2    C113183   3.746   3.741  12.404  0.8462 -0.1726 -0.3367
  900MPD2    C213184   3.629   3.737  12.341  0.3394 -0.2782 -0.3556
  900MPD2    C313185   3.585   3.862  12.301 -0.0919 -1.1503  0.1579
  900MPD2    C413186   3.642   3.983  12.341  0.3148 -0.0676  0.0736
  900MPD2    C513187   3.753   3.983  12.421  0.4560 -0.3372 -0.3569
  900MPD2     H13188   3.578   3.650  12.303 -1.3057  0.1336  0.8705
  900MPD2    H113189   3.600   4.081  12.324 -1.3973 -0.5951  1.2012
  900MPD2    H213190   3.910   3.858  12.492  0.8217  0.8723 -2.1370
  900MPD2    H313191   3.788   4.084  12.441  0.7054  0.1088 -3.0308
  900MPD2     N13192   3.479   3.883  12.210 -0.1575 -0.8971 -0.3198
  900MPD2    H513193   3.480   3.976  12.171 -0.1863 -0.7062  0.1307
  900MPD2    N113194   3.818   3.624  12.429  0.5642  0.6342 -0.2190
  900MPD2    H713195   3.905   3.637  12.480  0.4213 -1.5620  0.5979
  901MPD2     C13196   4.211   2.673  12.724  1.1447  0.2718 -0.3139
  901MPD2    C113197   4.208   2.678  12.582  0.2368 -0.6060 -0.0130
  901MPD2    C213198   4.178   2.800  12.527  0.3826  0.0622 -0.2431
  901MPD2    C313199   4.151   2.913  12.600  0.5078 -0.3659  0.0963
  901MPD2    C413200   4.152   2.904  12.733  0.3811  0.3419 -0.2174
  901MPD2    C513201   4.182   2.787  12.795 -0.0377  0.0180  0.3589
  901MPD2     H13202   4.183   2.810  12.419 -1.5332  1.9749 -0.1533
  901MPD2    H113203   4.131   2.986  12.802 -2.0808 -1.5009  1.2198
  901MPD2    H213204   4.237   2.589  12.787 -1.0278 -0.1507  0.0156
  901MPD2    H313205   4.176   2.789  12.903  0.9065 -2.3235  0.4652
  901MPD2     N13206   4.116   3.032  12.537  0.8365  0.1716  0.4386
  901MPD2    H513207   4.140   3.035  12.438  0.8102 -2.5884  0.3346
  901MPD2    N113208   4.222   2.556  12.512 -0.7941  0.3398  0.1525
  901MPD2    H713209   4.239   2.471  12.565 -0.9172  0.2218  0.0025
  902MPD2     C13210   2.540   1.453  12.503 -0.7500 -0.4141  0.1242
  902MPD2    C113211   2.536   1.552  12.408 -0.2773 -0.2857 -0.1258
  902MPD2    C213212   2.615   1.536  12.295  0.0334 -0.6119  0.6614
  902MPD2    C313213   2.684   1.422  12.270 -0.2587 -0.0523  0.8024
  902MPD2    C413214   2.665   1.319  12.357  0.3276 -0.9758 -0.6840
  902MPD2    C513215   2.596   1.335  12.476  0.7516  0.2140 -0.4078
  902MPD2     H13216   2.624   1.612  12.218  2.0053 -1.2806  0.2387
  902MPD2    H113217   2.720   1.227  12.339  1.4986 -0.5808  0.9707
  902MPD2    H213218   2.485   1.456  12.596 -1.1079  0.0024 -0.1008
  902MPD2    H313219   2.592   1.262  12.556 -0.4403  1.9886  1.1265
  902MPD2     N13220   2.753   1.392  12.153  0.2677  0.5646  0.0824
  902MPD2    H513221   2.742   1.297  12.117 -3.1279  0.1252  2.2843
  902MPD2    N113222   2.466   1.678  12.419  0.0915  0.1677  0.3283
  902MPD2    H713223   2.461   1.729  12.332  0.6782  1.4448  1.0493
  903MPD2     C13224   2.489   1.869  11.655  0.2506 -0.9853  0.5567
  903MPD2    C113225   2.488   1.750  11.716 -0.0619  0.6679  0.4191
  903MPD2    C213226   2.368   1.693  11.749  0.0711 -0.0234 -0.3934
  903MPD2    C313227   2.243   1.750  11.715  0.2080  0.1012  0.6875
  903MPD2    C413228   2.253   1.869  11.645 -0.1852  0.3705 -0.1673
  903MPD2    C513229   2.377   1.932  11.623 -0.3619 -0.0089 -0.0973
  903MPD2     H13230   2.372   1.596  11.798  0.8498 -0.2421 -0.8931
  903MPD2    H113231   2.158   1.909  11.610 -1.5482 -3.2958 -0.6114
  903MPD2    H213232   2.583   1.921  11.643 -0.1227 -0.2878  0.6190
  903MPD2    H313233   2.385   2.023  11.564 -0.2134 -0.2414 -0.4379
  903MPD2     N13234   2.117   1.685  11.735  0.3190  0.3978 -0.0945
  903MPD2    H513235   2.033   1.738  11.717  1.0749  1.3542 -0.7707
  903MPD2    N113236   2.599   1.671  11.744  0.0717  0.0042  0.3817
  903MPD2    H713237   2.578   1.588  11.798 -0.8357 -1.3660 -2.0925
  904MPD2     C13238   1.961   0.885  13.475 -0.2561  0.5426  0.2349
  904MPD2    C113239   1.997   0.774  13.549 -0.0256 -0.1758  0.1884
  904MPD2    C213240   2.134   0.751  13.585  0.9714 -0.4428 -0.1203
  904MPD2    C313241   2.222   0.852  13.556 -0.6340 -0.6861 -0.3443
  904MPD2    C413242   2.184   0.966  13.482 -0.4003 -0.0153 -0.2011
  904MPD2    C513243   2.057   0.977  13.439 -0.3926 -0.0442  0.3184
  904MPD2     H13244   2.159   0.652  13.621 -2.0345 -0.8087  0.9592
  904MPD2    H113245   2.255   1.047  13.467 -0.2372 -0.2694 -0.7968
  904MPD2    H213246   1.859   0.908  13.447  0.4238  0.4452 -2.3080
  904MPD2    H313247   2.018   1.062  13.385  0.9887 -0.8965 -2.0276
  904MPD2     N13248   2.350   0.825  13.599 -0.2104 -0.0982 -0.3428
  904MPD2    H513249   2.358   0.742  13.656 -2.0848  0.1506  0.2627
  904MPD2    N113250   1.905   0.681  13.599  0.7894 -0.3250  0.0061
  904MPD2    H713251   1.951   0.601  13.641 -0.4993 -0.5812  0.9351
  905MPD2     C13252   1.578   0.767  13.076  0.5386  0.2504 -0.0786
  905MPD2    C113253   1.629   0.869  13.149  0.6784 -0.3821  0.3571
  905MPD2    C213254   1.754   0.916  13.116  0.2013 -0.2515 -0.1660
  905MPD2    C313255   1.825   0.859  13.011  0.0635 -0.3363  0.7729
  905MPD2    C413256   1.771   0.752  12.940 -0.2175 -0.8864  0.3710
  905MPD2    C513257   1.643   0.720  12.967 -0.2443 -0.6157 -0.0635
  905MPD2     H13258   1.792   1.000  13.173  0.2275 -0.5087  0.1954
  905MPD2    H113259   1.824   0.690  12.869 -0.3349 -0.2673 -0.2500
  905MPD2    H213260   1.477   0.734  13.098  0.0248  2.0061  0.2254
  905MPD2    H313261   1.596   0.641  12.910 -1.0903 -1.9927  2.5705
  905MPD2     N13262   1.955   0.884  12.990  0.5793  0.0627  0.2533
  905MPD2    H513263   2.002   0.812  12.937 -0.0826  0.2286 -0.5516
  905MPD2    N113264   1.556   0.902  13.265 -0.1894 -0.1425  0.0836
  905MPD2    H713265   1.472   0.850  13.288  0.1472 -1.0211 -0.7095
  906MPD2     C13266   4.712   1.020  11.383 -0.2057 -0.1453 -0.0525
  906MPD2    C113267   4.652   0.912  11.322 -0.2171 -0.0839  0.1987
  906MPD2    C213268   4.532   0.868  11.368  0.2932 -0.3637 -0.4240
  906MPD2    C313269   4.475   0.918  11.487 -0.3396  0.0557  0.6193
  906MPD2    C413270   4.544   1.007  11.557  0.3867 -0.0943  0.0465
  906MPD2    C513271   4.661   1.058  11.505 -0.3634  0.6100  0.4845
  906MPD2     H13272   4.485   0.791  11.308  0.1473  0.4639 -1.3713
  906MPD2    H113273   4.513   1.053  11.651 -0.0588  0.0795 -0.1824
  906MPD2    H213274   0.080   1.069  11.352  1.1221 -3.1719 -0.9248
  906MPD2    H313275   4.712   1.140  11.556  1.8039  0.3403 -1.2343
  906MPD2     N13276   4.343   0.892  11.526 -0.0641  0.1875 -0.4563
  906MPD2    H513277   4.299   0.933  11.607 -1.3105  1.7025 -1.8806
  906MPD2    N113278   4.688   0.865  11.195  0.3909  0.0438  0.7588
  906MPD2    H713279   4.633   0.789  11.156 -1.1699  1.1579  0.7850
  907MPD2     C13280   3.187   0.160  15.292 -0.4488  0.1859  0.0719
  907MPD2    C113281   3.257   0.040  15.289  0.0039  0.5512 -0.6255
  907MPD2    C213282   3.314   4.717  15.408  0.1874 -0.9710 -0.2615
  907MPD2    C313283   3.308   0.071  15.525 -0.1134  0.1147 -0.3503
  907MPD2    C413284   3.235   0.186  15.523 -0.6917  0.1444 -0.5437
  907MPD2    C513285   3.174   0.232  15.408  0.4216 -0.4159 -0.5280
  907MPD2     H13286   3.380   4.630  15.412 -1.7295 -2.5884 -3.3645
  907MPD2    H113287   3.207   0.237  15.614  1.9523 -0.1346  0.4525
  907MPD2    H213288   3.132   0.203  15.210 -1.3277  0.3136  0.7262
  907MPD2    H313289   3.129   0.330  15.415 -1.1084 -1.0708 -1.2006
  907MPD2     N13290   3.363   0.022  15.645 -0.3143  0.2580  0.4030
  907MPD2    H513291   3.402   4.652  15.646 -1.4563 -0.2226 -0.0937
  907MPD2    N113292   3.276   4.686  15.176 -1.0030 -0.6030 -0.6532
  907MPD2    H713293   3.338   4.605  15.181  0.5396  0.4743 -2.3145
  908MPD2     C13294   1.830   0.230   9.186 -0.8694 -0.0782 -0.1444
  908MPD2    C113295   1.726   0.156   9.226 -0.1136 -0.6505  0.1170
  908MPD2    C213296   1.657   0.190   9.347 -0.1425 -0.7326 -0.7166
  908MPD2    C313297   1.683   0.308   9.410  0.2697 -0.0063  0.3695
  908MPD2    C413298   1.782   0.390   9.356 -0.2860  0.0487  0.6059
  908MPD2    C513299   1.864   0.343   9.256 -0.0463  0.2645 -0.3424
  908MPD2     H13300   1.575   0.129   9.383 -2.5680  1.3676 -2.6078
  908MPD2    H113301   1.817   0.475   9.413  0.5048  0.3268 -0.3077
  908MPD2    H213302   1.891   0.196   9.103 -0.3853 -0.1537  0.2437
  908MPD2    H313303   1.955   0.399   9.238 -0.1574  1.0497  1.4622
  908MPD2     N13304   1.596   0.346   9.512  0.2167 -0.3471  0.1130
  908MPD2    H513305   1.535   0.273   9.550  0.9020 -0.2757  1.3314
  908MPD2    N113306   1.684   0.052   9.140 -0.3609 -0.6798  0.3828
  908MPD2    H713307   1.750   0.018   9.071 -0.5613  0.7161 -0.5063
  909MPD2     C13308   1.601   3.058  11.748  0.3908 -0.3133  0.6939
  909MPD2    C113309   1.550   3.174  11.694  0.0077 -0.2927 -0.3575
  909MPD2    C213310   1.468   3.255  11.765  0.9771  0.1977  0.0168
  909MPD2    C313311   1.445   3.235  11.899  0.4483 -0.0840  0.1954
  909MPD2    C413312   1.504   3.120  11.954  0.0848  0.5401 -0.0538
  909MPD2    C513313   1.578   3.033  11.879 -0.4560  0.2800  0.8581
  909MPD2     H13314   1.435   3.349  11.722  2.2937  0.4698 -0.3926
  909MPD2    H113315   1.482   3.091  12.056 -0.2998 -1.7474 -0.7861
  909MPD2    H213316   1.667   2.997  11.688  0.4171  1.5396 -1.1728
  909MPD2    H313317   1.622   2.944  11.923  0.8139  1.8445  2.7597
  909MPD2     N13318   1.372   3.336  11.963 -0.2886  0.3477  0.5456
  909MPD2    H513319   1.354   3.417  11.904 -0.6921 -1.0927 -1.3202
  909MPD2    N113320   1.580   3.214  11.563  0.1191  0.2866  0.3996
  909MPD2    H713321   1.552   3.308  11.537  0.5313  0.4467  0.5290
  910MPD2     C13322   2.507   0.586  15.618  0.2223 -0.6736  1.1243
  910MPD2    C113323   2.616   0.531  15.556  0.3958  0.6154 -0.6388
  910MPD2    C213324   2.637   0.568  15.423  0.3651 -0.1248 -0.7097
  910MPD2    C313325   2.562   0.662  15.364 -0.1642  0.3593  0.3750
  910MPD2    C413326   2.457   0.714  15.430 -0.1680 -0.4193 -0.0271
  910MPD2    C513327   2.429   0.672  15.556 -0.1983 -0.6502 -0.0365
  910MPD2     H13328   2.713   0.518  15.364 -0.3763  1.1033 -2.7065
  910MPD2    H113329   2.389   0.784  15.382  0.9988  2.1663  2.1436
  910MPD2    H213330   2.473   0.543  15.711 -1.1235 -0.8036  0.5609
  910MPD2    H313331   2.361   0.731  15.615  0.0785 -0.2527 -0.1182
  910MPD2     N13332   2.582   0.716  15.233 -0.0713 -0.2533  0.2540
  910MPD2    H513333   2.516   0.789  15.209  1.0697  0.8263  0.3952
  910MPD2    N113334   2.716   0.438  15.608  0.5369  0.3588  0.2374
  910MPD2    H713335   2.785   0.399  15.544 -2.0464 -1.1691 -1.6255
  911MPD2     C13336   0.543   0.861  15.831 -0.0510 -0.6648  0.5489
  911MPD2    C113337   0.583   0.939  15.937  0.2337 -0.0856 -0.0810
  911MPD2    C213338   0.482   1.011  16.000 -0.4207 -0.1701  0.4393
  911MPD2    C313339   0.352   1.007  15.958  0.3006  0.5211  0.2595
  911MPD2    C413340   0.313   0.919  15.855 -0.2080 -0.7489 -0.0904
  911MPD2    C513341   0.413   0.844  15.797  0.1216 -0.0044 -0.4522
  911MPD2     H13342   0.513   1.070  16.086 -0.4343 -2.6644  2.1677
  911MPD2    H113343   0.208   0.910  15.832 -0.3619  2.2882 -0.6467
  911MPD2    H213344   0.616   0.810  15.769  0.4801  0.7710  0.0070
  911MPD2    H313345   0.381   0.781  15.715  2.0613 -1.4191 -0.1061
  911MPD2     N13346   0.248   1.093  16.012  0.2481  0.4250 -0.3212
  911MPD2    H513347   0.160   1.082  15.964 -0.8439  0.0466  1.8052
  911MPD2    N113348   0.717   0.924  15.981  0.4159 -0.3680 -0.1412
  911MPD2    H713349   0.774   0.851  15.938  0.4756 -1.5738  2.0002
  912MPD2     C13350   0.041   0.939  15.497 -0.1445  0.3841 -0.3383
  912MPD2    C113351   0.002   0.965  15.630 -1.2598  0.0941  0.4162
  912MPD2    C213352   4.711   0.863  15.715  0.1627  0.1693  0.2769
  912MPD2    C313353   0.028   0.741  15.682 -0.0730 -0.3135  0.1722
  912MPD2    C413354   0.074   0.707  15.557 -0.7527 -0.0369  0.2504
  912MPD2    C513355   0.069   0.809  15.462  0.6489 -1.0515  0.2953
  912MPD2     H13356   4.679   0.879  15.817  2.6046  0.8351  0.9439
  912MPD2    H113357   0.110   0.609  15.531  2.0445  1.3598 -1.1207
  912MPD2    H213358   0.044   1.011  15.417  0.9537  0.9810  0.2385
  912MPD2    H313359   0.111   0.798  15.363  0.5242  0.9071  0.0310
  912MPD2     N13360   0.022   0.653  15.792  0.4098 -0.3623 -0.1574
  912MPD2    H513361   4.718   0.700  15.878 -0.3657 -1.7410  0.3368
  912MPD2    N113362   4.709   1.100  15.664 -0.4196  0.0534  0.3035
  912MPD2    H713363   0.033   1.166  15.602 -1.5505  1.1339  0.5823
  913MPD2     C13364   1.045   2.500   9.660  0.4441  0.2710 -0.2756
  913MPD2    C113365   1.130   2.572   9.589 -0.2675 -0.5941 -0.1431
  913MPD2    C213366   1.207   2.666   9.647  0.2315  0.4136  0.7305
  913MPD2    C313367   1.204   2.679   9.784  0.0201  0.1143 -0.1198
  913MPD2    C413368   1.123   2.606   9.861 -0.2535 -0.0495  0.0401
  913MPD2    C513369   1.042   2.520   9.793 -0.0481 -0.0827  0.4821
  913MPD2     H13370   1.274   2.729   9.590 -0.0158  0.9000  0.9763
  913MPD2    H113371   1.101   2.629   9.965  1.2129 -0.7554  0.5079
  913MPD2    H213372   0.980   2.428   9.611 -2.9683  1.9287  1.8357
  913MPD2    H313373   0.970   2.460   9.848 -2.2660  1.8414 -0.3345
  913MPD2     N13374   1.282   2.774   9.854  0.2545  1.1372  0.1817
  913MPD2    H513375   1.273   2.788   9.954  0.5868  0.1123  0.3498
  913MPD2    N113376   1.126   2.548   9.453  0.7526 -0.4914  0.6242
  913MPD2    H713377   1.047   2.493   9.422  1.2163  0.1786 -1.7656
  914MPD2     C13378   3.842   2.674  11.750  0.8457  0.1504  0.2190
  914MPD2    C113379   3.920   2.738  11.841  0.0401  0.0738  0.4251
  914MPD2    C213380   4.006   2.663  11.917 -0.2119 -0.2781  0.3493
  914MPD2    C313381   4.002   2.523  11.911  0.7135 -0.3280 -0.4339
  914MPD2    C413382   3.922   2.461  11.821  0.0868 -0.4458  1.2915
  914MPD2    C513383   3.838   2.537  11.741 -0.0318  0.5868  0.1948
  914MPD2     H13384   4.073   2.703  11.991  1.3527  0.8129 -1.6464
  914MPD2    H113385   3.925   2.353  11.812 -3.1848 -0.5694  1.6123
  914MPD2    H213386   3.779   2.733  11.684  2.5743  1.5788 -0.1424
  914MPD2    H313387   3.771   2.492  11.668  1.9516 -0.7072 -0.8157
  914MPD2     N13388   4.071   2.447  12.011 -1.0126 -0.4297 -1.0359
  914MPD2    H513389   4.125   2.499  12.079 -0.1053 -0.5166 -1.6803
  914MPD2    N113390   3.905   2.880  11.842  0.5676  0.1945  1.0789
  914MPD2    H713391   3.853   2.932  11.772 -1.0933 -2.7311  0.1312
  915MPD2     C13392   2.006   2.611  15.530 -0.6594 -0.2894  0.1650
  915MPD2    C113393   1.893   2.669  15.496 -0.0049  0.8639 -0.1559
  915MPD2    C213394   1.826   2.741  15.582  0.6912  0.3341 -0.2149
  915MPD2    C313395   1.870   2.754  15.712 -0.2805  0.0898  0.0730
  915MPD2    C413396   1.997   2.702  15.747 -0.1113 -0.2447  0.1822
  915MPD2    C513397   2.060   2.634  15.648 -0.7687 -0.0830 -0.1010
  915MPD2     H13398   1.732   2.781  15.545  0.5909  1.4925  1.3125
  915MPD2    H113399   2.056   2.719  15.836  1.5573 -2.8428 -0.4370
  915MPD2    H213400   2.066   2.552  15.461  0.9108  1.1605  0.3078
  915MPD2    H313401   2.160   2.595  15.662  0.3141  1.5874 -3.2775
  915MPD2     N13402   1.787   2.825  15.806  0.7023 -0.6493  0.0482
  915MPD2    H513403   1.710   2.874  15.761  0.3911  0.9310  2.3450
  915MPD2    N113404   1.846   2.647  15.365 -0.3044 -1.0292 -0.0200
  915MPD2    H713405   1.902   2.579  15.313 -0.5516 -1.7341  0.6372
  916MPD2     C13406   4.332   0.822  15.531 -0.9552 -0.4958 -0.2013
  916MPD2    C113407   4.382   0.720  15.614 -0.1958  0.4738  0.4610
  916MPD2    C213408   4.455   0.621  15.556 -0.8913 -0.3123 -0.1499
  916MPD2    C313409   4.480   0.616  15.421 -0.2637 -0.2429 -0.1468
  916MPD2    C413410   4.427   0.715  15.338 -0.4441 -0.2971 -0.0529
  916MPD2    C513411   4.352   0.807  15.398  0.1322 -0.5179  0.4571
  916MPD2     H13412   4.496   0.543  15.619  3.6808  1.4280 -0.9821
  916MPD2    H113413   4.433   0.713  15.230  1.6977 -0.2314  0.0601
  916MPD2    H213414   4.268   0.905  15.559  0.7596  0.3217  1.3073
  916MPD2    H313415   4.309   0.887  15.338 -0.2671  0.1877  1.6879
  916MPD2     N13416   4.559   0.513  15.377  0.3417 -0.1651  0.4880
  916MPD2    H513417   4.587   0.442  15.444 -1.8020 -0.9465  0.5747
  916MPD2    N113418   4.353   0.734  15.749  0.7251 -0.1318  0.1685
  916MPD2    H713419   4.289   0.808  15.775  1.3782 -0.1590  1.8103
  917MPD2     C13420   0.214   3.225  10.529  0.2549 -0.6692  0.2115
  917MPD2    C113421   0.291   3.247  10.641 -0.4585  0.1307 -0.2937
  917MPD2    C213422   0.432   3.251  10.635 -0.3167 -0.3853  0.4224
  917MPD2    C313423   0.489   3.227  10.511 -0.0825  0.3510  0.5802
  917MPD2    C413424   0.413   3.227  10.396 -0.5644  0.3180 -0.5348
  917MPD2    C513425   0.276   3.222  10.406 -0.0926 -0.1893 -0.5741
  917MPD2     H13426   0.490   3.272  10.724  0.2205  0.9923 -0.2484
  917MPD2    H113427   0.463   3.218  10.300  1.0473  1.2837  0.2011
  917MPD2    H213428   0.106   3.219  10.526  0.2206 -1.0991  2.8825
  917MPD2    H313429   0.221   3.205  10.314 -0.7557  0.1804 -0.2408
  917MPD2     N13430   0.629   3.208  10.491 -0.2084  0.4020 -0.3887
  917MPD2    H513431   0.657   3.204  10.394  2.2118 -0.6537  0.3446
  917MPD2    N113432   0.214   3.252  10.758 -0.6824 -0.0212  0.2505
  917MPD2    H713433   0.117   3.227  10.745 -0.6640  1.0488 -2.0295
  918MPD2     C13434   0.571   3.302  11.636  0.4395 -0.5697 -0.4228
  918MPD2    C113435   0.583   3.225  11.529  0.0785 -0.0564 -0.5317
  918MPD2    C213436   0.495   3.238  11.427 -0.1023 -0.2601  0.2539
  918MPD2    C313437   0.380   3.305  11.437 -1.0313 -0.2113  0.4948
  918MPD2    C413438   0.360   3.378  11.550 -0.1966 -0.3702  0.8113
  918MPD2    C513439   0.459   3.381  11.648  0.5652 -0.1346  0.7612
  918MPD2     H13440   0.510   3.178  11.338 -0.9294  1.2631 -0.8971
  918MPD2    H113441   0.262   3.421  11.571 -0.7504 -1.0779 -0.3008
  918MPD2    H213442   0.643   3.301  11.718 -1.5769 -0.9501  1.3487
  918MPD2    H313443   0.449   3.445  11.735  0.8557  0.8431  0.0821
  918MPD2     N13444   0.284   3.301  11.332  0.3023  0.4490 -0.5380
  918MPD2    H513445   0.309   3.247  11.250 -1.0191 -1.1522  0.1036
  918MPD2    N113446   0.683   3.123  11.518  0.0326  0.4967  0.7433
  918MPD2    H713447   0.662   3.064  11.438  0.2768 -0.6568  1.5385
  919MPD2     C13448   0.712   2.329  10.890 -0.9431  0.3453 -0.4728
  919MPD2    C113449   0.722   2.199  10.855  0.9585  0.5905  0.4251
  919MPD2    C213450   0.742   2.166  10.721 -0.0531  0.0958 -0.2152
  919MPD2    C313451   0.750   2.265  10.624 -0.0388  0.3751 -0.5420
  919MPD2    C413452   0.729   2.396  10.663 -0.4261  0.3777  0.5004
  919MPD2    C513453   0.712   2.426  10.791 -0.2143 -0.4222 -0.5732
  919MPD2     H13454   0.740   2.062  10.690 -2.6555 -0.5721  2.2062
  919MPD2    H113455   0.717   2.474  10.589 -1.4824 -1.8093 -1.6282
  919MPD2    H213456   0.703   2.371  10.989  1.9385 -0.1914  0.0124
  919MPD2    H313457   0.696   2.530  10.820 -1.6355 -0.0443 -2.6819
  919MPD2     N13458   0.774   2.234  10.492 -0.2700  0.2230 -0.0814
  919MPD2    H513459   0.755   2.313  10.431 -1.4514  0.2091  0.2552
  919MPD2    N113460   0.687   2.101  10.959 -0.2091 -1.3227  0.1293
  919MPD2    H713461   0.669   2.134  11.054  1.5857 -1.0890  0.4011
  920MPD2     C13462   0.492   2.606   9.707 -0.0817  0.2555  0.4187
  920MPD2    C113463   0.465   2.472   9.688 -0.8489  0.1292  1.0152
  920MPD2    C213464   0.539   2.379   9.752 -0.1676 -0.1563 -0.1423
  920MPD2    C313465   0.624   2.417   9.852 -0.5752  0.8402  0.1289
  920MPD2    C413466   0.662   2.551   9.872 -0.3231 -0.3602 -0.1378
  920MPD2    C513467   0.587   2.643   9.800 -0.2528 -0.0345  0.8025
  920MPD2     H13468   0.506   2.276   9.748 -1.1494  0.0663  2.5420
  920MPD2    H113469   0.741   2.583   9.939 -1.9433 -0.1147  1.6351
  920MPD2    H213470   0.437   2.684   9.656  0.1056 -0.3699 -0.7390
  920MPD2    H313471   0.615   2.748   9.808  0.5507 -0.2050  0.1948
  920MPD2     N13472   0.680   2.309   9.924  0.6822 -0.1387 -0.1160
  920MPD2    H513473   0.652   2.215   9.898  1.0877 -0.2103 -0.2902
  920MPD2    N113474   0.357   2.417   9.614  0.5100 -0.0749 -0.1890
  920MPD2    H713475   0.346   2.317   9.622 -0.7980  0.1594  1.0114
  921MPD2     C13476   1.490   1.101  16.736  0.3294 -0.2929 -0.0454
  921MPD2    C113477   1.547   1.119  16.607 -0.2949 -0.6100 -0.3950
  921MPD2    C213478   1.466   1.072  16.500  0.4646 -0.4851 -0.2264
  921MPD2    C313479   1.329   1.029  16.517  0.8112  0.2337  0.9124
  921MPD2    C413480   1.282   1.016  16.643 -0.7986  0.3855 -0.3648
  921MPD2    C513481   1.362   1.047  16.748 -0.0967  0.0801 -0.3536
  921MPD2     H13482   1.508   1.074  16.400 -0.1320 -0.7852 -0.4788
  921MPD2    H113483   1.191   0.959  16.658 -1.2516  1.4453  0.8672
  921MPD2    H213484   1.528   1.125  16.835  3.2100 -2.4704 -0.6615
  921MPD2    H313485   1.336   1.017  16.848  0.5764  2.5459  0.5643
  921MPD2     N13486   1.256   0.989  16.398  0.2028  0.2748  0.3229
  921MPD2    H513487   1.292   1.012  16.306 -3.4161 -0.6277 -1.3363
  921MPD2    N113488   1.674   1.177  16.589 -0.1426 -0.1033 -0.2107
  921MPD2    H713489   1.721   1.208  16.673  0.7728  2.8322 -1.8096
  922MPD2     C13490   2.051   3.724  17.578  0.4267  0.1439 -0.6266
  922MPD2    C113491   2.049   3.702  17.442 -0.1047 -0.0115  1.1018
  922MPD2    C213492   1.929   3.703  17.371  0.1734 -0.0762  0.4654
  922MPD2    C313493   1.815   3.726  17.441  0.3163  0.3082 -0.4357
  922MPD2    C413494   1.812   3.753  17.584 -0.5410 -0.4444 -0.4146
  922MPD2    C513495   1.934   3.746  17.648  0.2890 -0.4023 -0.4128
  922MPD2     H13496   1.931   3.682  17.265 -1.3846 -1.8871  0.7879
  922MPD2    H113497   1.721   3.773  17.641  0.1261  2.0422 -0.2330
  922MPD2    H213498   2.137   3.721  17.644 -0.7587 -1.0632  0.8949
  922MPD2    H313499   1.924   3.764   0.058  0.6956 -0.9385 -0.2795
  922MPD2     N13500   1.694   3.719  17.361  0.1443 -0.0773  0.3839
  922MPD2    H513501   1.699   3.692  17.264 -0.8318 -0.1394  0.3601
  922MPD2    N113502   2.166   3.689  17.366  1.0030  0.0679  0.3919
  922MPD2    H713503   2.162   3.700  17.265  0.3001  0.8161  0.4964
  923MPD2     C13504   2.817   0.806   9.083 -0.4556 -0.5790  0.3310
  923MPD2    C113505   2.775   0.866   9.200  0.0306  0.1940  0.0921
  923MPD2    C213506   2.877   0.907   9.290  0.5149  0.7786  0.7641
  923MPD2    C313507   3.011   0.900   9.263 -0.8080 -0.2020 -0.5304
  923MPD2    C413508   3.049   0.840   9.142 -0.3002  0.0943 -0.3954
  923MPD2    C513509   2.954   0.794   9.060  0.2621 -0.4442 -0.0815
  923MPD2     H13510   2.846   0.953   9.383 -0.2780  0.8974  0.4373
  923MPD2    H113511   3.152   0.841   9.108 -0.3481  0.1888 -0.5349
  923MPD2    H213512   2.746   0.772   9.009 -0.2514 -0.0162 -0.1266
  923MPD2    H313513   2.992   0.745   8.972  0.0505  0.4439 -0.6678
  923MPD2     N13514   3.116   0.947   9.344  0.0361  0.4651 -0.1621
  923MPD2    H513515   3.209   0.939   9.305 -0.7384 -2.5916 -1.4450
  923MPD2    N113516   2.634   0.883   9.223 -0.2844 -0.0264 -0.4119
  923MPD2    H713517   2.575   0.837   9.154 -1.4509  1.9605 -0.7397
  924MPD2     C13518   3.723   4.075  15.611  0.1291 -0.0835 -0.7346
  924MPD2    C113519   3.680   4.076  15.737 -0.2183 -0.8123 -0.0656
  924MPD2    C213520   3.688   4.200  15.805 -0.8064 -0.5221  0.3656
  924MPD2    C313521   3.729   4.315  15.736 -0.1511  0.1606 -0.1008
  924MPD2    C413522   3.770   4.307  15.605 -0.1113 -0.8299  0.0475
  924MPD2    C513523   3.773   4.184  15.541  0.6259  0.1397  0.2420
  924MPD2     H13524   3.645   4.211  15.905 -0.8501  1.0967  0.1713
  924MPD2    H113525   3.802   4.399  15.556 -1.0696 -0.4142  0.2081
  924MPD2    H213526   3.730   3.978  15.564 -1.1597 -0.1537 -0.7699
  924MPD2    H313527   3.800   4.190  15.436 -1.2712  0.4799 -0.2469
  924MPD2     N13528   3.714   4.438  15.798  0.3928 -0.6144  0.8120
  924MPD2    H513529   3.745   4.512  15.736 -1.4342  0.2793  0.9657
  924MPD2    N113530   3.631   3.955  15.798 -0.0699  0.1511 -0.0532
  924MPD2    H713531   3.609   3.882  15.732  1.6614  0.2947 -0.7996
  925MPD2     C13532   2.573   1.551  14.536 -0.2336 -0.5060 -0.0560
  925MPD2    C113533   2.436   1.541  14.528  0.3458 -0.7741 -0.3293
  925MPD2    C213534   2.371   1.474  14.633 -0.2721 -0.5501  0.6957
  925MPD2    C313535   2.433   1.418  14.739 -0.0820  0.0797  0.2994
  925MPD2    C413536   2.567   1.435  14.747 -0.3213  0.3274  0.0872
  925MPD2    C513537   2.635   1.510  14.650  0.4464 -0.4798 -0.0020
  925MPD2     H13538   2.263   1.463  14.630 -0.4539  1.7483 -0.7556
  925MPD2    H113539   2.627   1.400  14.830  0.1777 -2.3319 -1.3918
  925MPD2    H213540   2.632   1.599  14.458  0.5569  0.5664  1.2040
  925MPD2    H313541   2.741   1.529  14.658  0.4228 -0.5006  0.3838
  925MPD2     N13542   2.372   1.339  14.841  0.4182  0.1571  0.7960
  925MPD2    H513543   2.438   1.313  14.914  0.8038  0.6155  0.6066
  925MPD2    N113544   2.360   1.591  14.413  0.0317  0.2991  0.0364
  925MPD2    H713545   2.267   1.553  14.395 -0.1390  0.2234  1.0439
  926MPD2     C13546   0.791   0.316  13.554  0.0753  0.8731  0.3399
  926MPD2    C113547   0.697   0.405  13.517  0.0939 -0.5825  0.0686
  926MPD2    C213548   0.689   0.446  13.388  0.1921 -0.9915  0.1538
  926MPD2    C313549   0.788   0.413  13.296 -0.1571  0.0913 -1.1537
  926MPD2    C413550   0.893   0.337  13.337 -0.2111 -0.5279 -0.3921
  926MPD2    C513551   0.888   0.291  13.462 -0.2290 -0.3107 -0.3879
  926MPD2     H13552   0.617   0.519  13.353  0.4171 -0.9662 -0.2494
  926MPD2    H113553   0.974   0.298  13.277  0.5098  0.9315 -0.3693
  926MPD2    H213554   0.792   0.260  13.647  1.0306  1.9853  0.9966
  926MPD2    H313555   0.972   0.227  13.487  0.4871  1.2859  1.3103
  926MPD2     N13556   0.798   0.463  13.164 -0.2963  0.1400 -0.6155
  926MPD2    H513557   0.892   0.446  13.129 -1.0853 -4.0444 -0.7273
  926MPD2    N113558   0.599   0.453  13.602 -0.0607 -0.6389 -0.0959
  926MPD2    H713559   0.544   0.533  13.570 -0.5379 -1.2898 -0.8947
  927MPD2     C13560   0.473   2.698   0.019  0.4479  0.2448  0.2735
  927MPD2    C113561   0.483   2.565   0.008  0.2327 -0.0890 -0.0511
  927MPD2    C213562   0.558   2.509  17.600  0.1745  0.2155  0.1489
  927MPD2    C313563   0.615   2.594  17.499  0.3258  0.1128  0.2725
  927MPD2    C413564   0.593   2.735  17.513 -0.1061  0.1258  0.2957
  927MPD2    C513565   0.524   2.781  17.623 -0.1301 -0.1734 -0.0185
  927MPD2     H13566   0.563   2.403  17.583  2.9532  0.4811 -0.6119
  927MPD2    H113567   0.632   2.804  17.439 -3.0527  0.4661 -0.9364
  927MPD2    H213568   0.411   2.748   0.093 -0.9619 -1.4396  0.2209
  927MPD2    H313569   0.502   2.885  17.644  0.7168 -0.5337  2.7100
  927MPD2     N13570   0.699   2.531  17.405 -0.2472 -0.1107 -0.8707
  927MPD2    H513571   0.695   2.431  17.390 -1.5732  0.2350 -2.8740
  927MPD2    N113572   0.427   2.490   0.106 -0.5649  0.9651 -0.2540
  927MPD2    H713573   0.392   2.539   0.189 -0.8138  1.1784 -0.4855
  928MPD2     C13574   3.402   0.759   0.913 -0.4075  0.6146 -0.0561
  928MPD2    C113575   3.421   0.895   0.932  0.0277 -0.1154 -0.2821
  928MPD2    C213576   3.429   0.978   0.823 -0.3818  0.3125  0.1039
  928MPD2    C313577   3.427   0.921   0.694 -0.7933 -0.1791  0.0173
  928MPD2    C413578   3.416   0.786   0.675 -0.3445  0.1126  0.3232
  928MPD2    C513579   3.405   0.705   0.784  0.7086  0.8202 -0.1655
  928MPD2     H13580   3.438   1.085   0.837 -0.4490  0.2928  0.2854
  928MPD2    H113581   3.395   0.744   0.578 -1.2092  1.6983 -0.1645
  928MPD2    H213582   3.388   0.694   0.999 -1.4539  0.5685 -0.2546
  928MPD2    H313583   3.387   0.600   0.766 -1.8620  1.2874 -0.3306
  928MPD2     N13584   3.444   0.993   0.569 -0.1687 -0.2010  0.0699
  928MPD2    H513585   3.434   0.947   0.479 -1.6396  0.3093 -0.0225
  928MPD2    N113586   3.423   0.937   1.074 -0.2060  0.1864  0.2789
  928MPD2    H713587   3.425   0.866   1.146  0.4498  0.5966  0.6668
  929MPD2     C13588   3.760   0.896  10.222 -0.0023  0.6993 -0.6764
  929MPD2    C113589   3.706   0.771  10.252  0.3690  0.2860  0.7290
  929MPD2    C213590   3.575   0.741  10.222 -0.0347  0.5301  0.6833
  929MPD2    C313591   3.494   0.843  10.161 -0.5441 -0.0038  0.2047
  929MPD2    C413592   3.549   0.962  10.127 -0.4425 -0.6305  1.0004
  929MPD2    C513593   3.684   0.985  10.158  0.0703 -0.1848  0.2231
  929MPD2     H13594   3.533   0.649  10.260  1.3556 -0.6239 -0.5561
  929MPD2    H113595   3.483   1.036  10.082 -0.8620 -2.5077 -1.4926
  929MPD2    H213596   3.863   0.929  10.230 -0.5270  1.9166  0.8494
  929MPD2    H313597   3.733   1.079  10.138  0.4518 -1.0053 -2.7643
  929MPD2     N13598   3.352   0.843  10.142  0.5225 -0.0728  0.0107
  929MPD2    H513599   3.317   0.929  10.103 -0.8225 -0.9178 -0.6450
  929MPD2    N113600   3.788   0.684  10.320  0.2797  0.0140 -0.7208
  929MPD2    H713601   3.869   0.732  10.359 -2.8032  1.8958  3.4735
  930MPD2     C13602   0.626   2.969  13.982  0.2711  0.0735  0.0539
  930MPD2    C113603   0.598   3.090  13.929 -0.2335  0.3115  0.6424
  930MPD2    C213604   0.540   3.104  13.810 -0.0139 -0.7356 -0.2637
  930MPD2    C313605   0.521   2.994  13.731 -1.4218 -0.3773 -0.2136
  930MPD2    C413606   0.547   2.871  13.783 -0.9353  0.0459 -0.6360
  930MPD2    C513607   0.606   2.853  13.909 -0.7829 -0.6219  0.5381
  930MPD2     H13608   0.522   3.207  13.779  0.1577 -1.6936 -3.6078
  930MPD2    H113609   0.529   2.784  13.722 -1.2942 -0.0563 -0.3850
  930MPD2    H213610   0.675   2.948  14.077  1.3661  0.0765 -0.5104
  930MPD2    H313611   0.615   2.760  13.963 -0.3915 -0.1887  1.2220
  930MPD2     N13612   0.495   3.013  13.590 -0.0834 -0.2961  0.2159
  930MPD2    H513613   0.500   2.928  13.534 -0.4324  2.2556 -3.7111
  930MPD2    N113614   0.649   3.196  14.003  0.4796  0.9489  0.0355
  930MPD2    H713615   0.716   3.175  14.075  0.6723  0.7406 -0.2038
  931MPD2     C13616   0.524   1.746   0.423  0.1431 -0.1308 -0.2677
  931MPD2    C113617   0.464   1.844   0.496  0.1411 -0.8044 -0.3327
  931MPD2    C213618   0.469   1.846   0.635 -0.2194 -0.0572 -0.5401
  931MPD2    C313619   0.514   1.733   0.704 -0.3675 -0.0237 -0.4339
  931MPD2    C413620   0.571   1.635   0.628  0.2488 -0.2713  0.0183
  931MPD2    C513621   0.576   1.641   0.489  0.5481 -0.1127 -0.0284
  931MPD2     H13622   0.415   1.923   0.690  1.6117  0.6298  0.2801
  931MPD2    H113623   0.590   1.537   0.672  0.6351  1.3037  3.3216
  931MPD2    H213624   0.514   1.741   0.315  0.6598 -0.2416 -0.3125
  931MPD2    H313625   0.609   1.552   0.435 -1.0769  0.6917 -2.3387
  931MPD2     N13626   0.500   1.700   0.838 -0.3908  0.2202 -0.5897
  931MPD2    H513627   0.520   1.604   0.864  1.2050  0.3092 -1.4973
  931MPD2    N113628   0.396   1.938   0.417  0.1826  0.3308  0.0262
  931MPD2    H713629   0.411   1.931   0.317 -0.3360 -1.4870  0.0757
  932MPD2     C13630   2.128   2.269  11.509  0.5019 -0.4166  0.4179
  932MPD2    C113631   2.170   2.229  11.384  0.2301 -0.1609  0.2167
  932MPD2    C213632   2.103   2.126  11.324 -0.4911 -0.0531  0.3624
  932MPD2    C313633   2.005   2.050  11.388 -0.0369  0.1465 -0.1673
  932MPD2    C413634   1.975   2.084  11.518  0.1031 -0.6735  0.2468
  932MPD2    C513635   2.034   2.194  11.576 -0.3798 -1.0726  0.0169
  932MPD2     H13636   2.139   2.101  11.226 -0.4819 -2.4570  0.9814
  932MPD2    H113637   1.916   2.021  11.584 -0.3040 -0.1264  0.4051
  932MPD2    H213638   2.170   2.355  11.559 -0.6720  0.0148  0.6536
  932MPD2    H313639   2.007   2.220  11.678 -0.6619  1.8935 -0.8086
  932MPD2     N13640   1.957   1.932  11.337 -0.2217  0.1700  0.2218
  932MPD2    H513641   1.906   1.880  11.408 -2.3689  0.1949 -1.2861
  932MPD2    N113642   2.278   2.290  11.317 -0.1502  1.0916 -0.5387
  932MPD2    H713643   2.306   2.256  11.225 -0.2188  1.5271 -0.7204
  933MPD2     C13644   3.310   1.473   1.804  0.5705  0.1044 -0.7463
  933MPD2    C113645   3.281   1.486   1.672 -0.1541 -0.3984  0.3249
  933MPD2    C213646   3.199   1.592   1.621 -0.1873 -0.0811  0.2084
  933MPD2    C313647   3.132   1.674   1.709  0.4503 -0.3393  0.4723
  933MPD2    C413648   3.153   1.651   1.844 -0.7576  0.2875  0.4884
  933MPD2    C513649   3.245   1.555   1.889 -0.2665 -0.5321  0.4374
  933MPD2     H13650   3.187   1.615   1.516 -0.3990  0.3691  0.3308
  933MPD2    H113651   3.087   1.701   1.914  0.0192 -0.7557  1.9603
  933MPD2    H213652   3.374   1.393   1.839  0.6396  1.3517  1.9432
  933MPD2    H313653   3.250   1.535   1.996 -0.9231 -1.9199  0.2166
  933MPD2     N13654   3.073   1.792   1.654 -0.1265 -0.2248 -0.4019
  933MPD2    H513655   3.089   1.802   1.554 -0.9664  0.0913 -0.5091
  933MPD2    N113656   3.347   1.390   1.587  0.1152  0.5791  0.4193
  933MPD2    H713657   3.405   1.329   1.642  1.0052 -0.4036 -1.6324
  934MPD2     C13658   3.910   3.079   2.181  0.4342  0.2796  0.4395
  934MPD2    C113659   4.017   3.034   2.101 -0.4621 -0.9868 -0.6528
  934MPD2    C213660   3.984   2.989   1.972  0.2213 -0.0084  0.1523
  934MPD2    C313661   3.851   2.982   1.928  0.1893 -0.3189 -0.0239
  934MPD2    C413662   3.748   3.021   2.010  0.1908 -0.0101  0.1564
  934MPD2    C513663   3.780   3.074   2.132  0.0568  0.2314  0.3772
  934MPD2     H13664   4.066   2.950   1.914 -1.3690 -1.3225 -1.2206
  934MPD2    H113665   3.642   3.031   1.989  0.2475  0.5700  0.1448
  934MPD2    H213666   3.928   3.112   2.283  0.1334  1.8510 -0.0266
  934MPD2    H313667   3.693   3.102   2.189  1.1142  0.4307  1.8872
  934MPD2     N13668   3.813   2.921   1.809 -0.3153 -0.6838  0.1818
  934MPD2    H513669   3.714   2.924   1.789 -0.3663  0.4510  0.6258
  934MPD2    N113670   4.152   3.043   2.147 -0.3163  0.0119  0.4807
  934MPD2    H713671   4.224   3.010   2.084  0.0855 -0.5026  1.2061
  935MPD2     C13672   4.354   2.328   1.168 -0.4243  0.0867  0.1332
  935MPD2    C113673   4.255   2.385   1.092 -0.6105 -0.6704  0.8160
  935MPD2    C213674   4.163   2.471   1.152  0.7891  0.0341  0.0963
  935MPD2    C313675   4.158   2.490   1.290 -0.8910 -0.1354 -0.2372
  935MPD2    C413676   4.253   2.425   1.364  0.3554 -0.5381  0.1542
  935MPD2    C513677   4.348   2.342   1.307 -0.4261 -0.5901  0.0480
  935MPD2     H13678   4.092   2.522   1.088 -0.2294  0.2098  1.3752
  935MPD2    H113679   4.258   2.427   1.473  1.1701  0.6144  0.0962
  935MPD2    H213680   4.432   2.264   1.129 -0.3391  0.7190 -0.7418
  935MPD2    H313681   4.410   2.292   1.380 -2.6790  1.9246  3.6915
  935MPD2     N13682   4.062   2.561   1.369 -0.3102  0.2222 -0.0596
  935MPD2    H513683   4.068   2.567   1.470  2.6919  0.4604 -0.2539
  935MPD2    N113684   4.252   2.375   0.949 -0.2797 -0.6387 -0.4662
  935MPD2    H713685   4.177   2.423   0.900  1.0858  2.2686  0.2416
  936MPD2     C13686   2.980   4.364  12.374 -0.0003  0.6660  0.1289
  936MPD2    C113687   3.025   4.378  12.507 -0.2920 -0.2381 -0.1418
  936MPD2    C213688   3.123   4.462  12.545  0.4509 -0.0550 -0.3627
  936MPD2    C313689   3.176   4.545  12.449  0.6911 -0.4026 -0.2565
  936MPD2    C413690   3.134   4.534  12.322  0.2846 -1.1179 -0.1057
  936MPD2    C513691   3.036   4.447  12.285  0.2491  0.1761 -0.1419
  936MPD2     H13692   3.169   4.471  12.643  0.7634  0.2364 -0.5347
  936MPD2    H113693   3.182   4.599  12.250 -0.5130  1.3845  1.6093
  936MPD2    H213694   2.900   4.297  12.342  1.1795 -1.8756  2.5027
  936MPD2    H313695   3.006   4.452  12.181 -2.6909 -0.8883  0.6535
  936MPD2     N13696   3.282   4.623  12.485 -0.0415 -0.2769 -0.6149
  936MPD2    H513697   3.310   4.601  12.580 -0.4447  1.6975 -0.0479
  936MPD2    N113698   2.969   4.292  12.601 -0.2253 -0.2943 -0.0986
  936MPD2    H713699   2.906   4.223  12.560 -0.0387 -0.0153 -0.8442
  937MPD2     C13700   0.896   1.316  11.076  0.5577 -0.1149 -0.4789
  937MPD2    C113701   0.965   1.438  11.063  0.0277  0.0419 -0.4038
  937MPD2    C213702   1.067   1.445  10.972 -0.2942  0.0114  0.2246
  937MPD2    C313703   1.109   1.335  10.894  0.1861 -0.6036  0.7579
  937MPD2    C413704   1.051   1.209  10.929 -0.2281  0.4853 -0.2133
  937MPD2    C513705   0.952   1.203  11.020 -0.0882  0.2998 -0.2247
  937MPD2     H13706   1.118   1.541  10.972  0.7632 -0.5495 -0.3516
  937MPD2    H113707   1.069   1.114  10.880 -1.2422  0.1960 -0.0317
  937MPD2    H213708   0.809   1.310  11.141  0.9364 -1.3299 -0.0875
  937MPD2    H313709   0.914   1.105  11.046 -0.1528  1.2667  3.3611
  937MPD2     N13710   1.201   1.364  10.795 -0.3427 -0.0949 -0.2307
  937MPD2    H513711   1.211   1.458  10.758  1.3460 -0.9390 -1.9015
  937MPD2    N113712   0.920   1.563  11.109 -0.3420  0.0115 -1.1958
  937MPD2    H713713   0.965   1.647  11.074 -2.2433  1.1608 -0.9293
  938MPD2     C13714   3.065   2.568   0.645  0.3369  0.3455 -0.2907
  938MPD2    C113715   3.158   2.627   0.726 -0.4112  0.4826 -0.4517
  938MPD2    C213716   3.156   2.614   0.863  0.4582 -0.6133 -0.2080
  938MPD2    C313717   3.054   2.530   0.922 -0.5655  0.6248  0.4442
  938MPD2    C413718   2.958   2.477   0.842  0.5826  0.0120  0.2373
  938MPD2    C513719   2.974   2.490   0.708  0.1198 -0.1268 -0.0338
  938MPD2     H13720   3.231   2.664   0.923 -1.5117  2.4004 -0.2624
  938MPD2    H113721   2.881   2.410   0.879  0.9228 -0.7158 -0.3815
  938MPD2    H213722   3.062   2.580   0.537 -1.1326 -0.2307 -0.3195
  938MPD2    H313723   2.905   2.443   0.639 -0.3985  1.6656 -0.7388
  938MPD2     N13724   3.057   2.495   1.058  0.0571 -0.1931  0.5917
  938MPD2    H513725   2.975   2.438   1.079  1.0177 -2.0965 -0.8089
  938MPD2    N113726   3.267   2.712   0.681 -0.5250  0.2737  0.0774
  938MPD2    H713727   3.344   2.738   0.742 -0.3216  1.5021 -0.7164
  939MPD2     C13728   4.480   3.757   1.054 -0.6496 -0.2461  0.0078
  939MPD2    C113729   4.511   3.885   1.045  0.1086  0.6809 -0.2717
  939MPD2    C213730   4.568   3.933   0.924  1.0660 -0.4278  0.3332
  939MPD2    C313731   4.594   3.846   0.819  0.3118 -0.0146  0.2079
  939MPD2    C413732   4.556   3.712   0.837 -1.0012  0.0626 -0.4941
  939MPD2    C513733   4.509   3.674   0.957  0.0678  0.0607  0.7934
  939MPD2     H13734   4.597   4.036   0.907 -1.7868  0.0623 -1.5435
  939MPD2    H113735   4.559   3.636   0.760  3.0262 -1.6175  1.3389
  939MPD2    H213736   4.438   3.715   1.145  1.6307 -0.2279  1.0875
  939MPD2    H313737   4.486   3.569   0.967 -0.0525 -0.0260 -0.4171
  939MPD2     N13738   4.660   3.894   0.706 -0.0022  0.6980  0.2986
  939MPD2    H513739   4.664   3.994   0.694  0.7563  0.6064 -0.1603
  939MPD2    N113740   4.485   3.965   1.162  0.4171 -0.7649 -0.4545
  939MPD2    H713741   4.432   3.923   1.238 -2.6595  4.0799  0.0434
  940MPD2     C13742   3.783   0.172  14.068  0.7127 -0.3832  0.1418
  940MPD2    C113743   3.888   0.099  14.012 -0.2591  0.0144 -0.1631
  940MPD2    C213744   3.908   0.100  13.870  0.3336 -0.7135 -0.2749
  940MPD2    C313745   3.825   0.174  13.791  0.5364 -0.1986  0.9208
  940MPD2    C413746   3.727   0.248  13.850  0.3697 -1.2046 -0.4691
  940MPD2    C513747   3.705   0.251  13.991 -0.5500  0.0988  0.2256
  940MPD2     H13748   3.997   0.052  13.830  0.3601 -2.0868  1.4537
  940MPD2    H113749   3.657   0.313  13.800  0.9384  0.1935  0.5396
  940MPD2    H213750   3.756   0.171  14.173 -1.6287 -0.8136 -0.4744
  940MPD2    H313751   3.625   0.312  14.030 -1.3965 -0.2348 -0.9971
  940MPD2     N13752   3.854   0.203  13.651  0.1492  0.3191 -0.0828
  940MPD2    H513753   3.793   0.275  13.612  2.0745  2.0986  0.1821
  940MPD2    N113754   3.962   0.004  14.085  0.6534  0.3851 -0.0834
  940MPD2    H713755   4.043   4.683  14.043 -0.1155  0.2838 -1.4411
  941MPD2     C13756   2.896   3.730   9.017 -0.7953 -0.6745  0.2062
  941MPD2    C113757   2.923   3.721   9.151 -0.0618 -0.3630  0.5320
  941MPD2    C213758   2.860   3.616   9.212  0.1750  0.1319 -0.6956
  941MPD2    C313759   2.761   3.537   9.150  0.5280 -0.1000 -0.1839
  941MPD2    C413760   2.722   3.568   9.023 -0.2903 -0.5758 -0.6321
  941MPD2    C513761   2.798   3.664   8.955  1.0855  0.3674 -0.0789
  941MPD2     H13762   2.882   3.604   9.317  0.5298  0.4240 -0.7355
  941MPD2    H113763   2.643   3.510   8.977  0.2957  0.6161 -3.1380
  941MPD2    H213764   2.944   3.805   8.955  0.7490 -1.2504  0.6936
  941MPD2    H313765   2.779   3.697   8.853 -2.0238  1.7330  0.9138
  941MPD2     N13766   2.686   3.432   9.214 -0.0559 -0.1524  0.4016
  941MPD2    H513767   2.615   3.379   9.163  0.6094  0.3158 -1.0332
  941MPD2    N113768   3.022   3.786   9.228  0.2564 -0.0975  0.9199
  941MPD2    H713769   3.021   3.768   9.327  0.0500 -0.2335  0.8924
  942MPD2     C13770   2.491   0.494   9.231 -0.1293  0.2268 -0.0010
  942MPD2    C113771   2.495   0.561   9.350 -0.0481  0.4365  0.3927
  942MPD2    C213772   2.623   0.584   9.402  0.8944 -0.1530  0.1073
  942MPD2    C313773   2.732   0.532   9.337  0.0783  0.3235 -0.1010
  942MPD2    C413774   2.721   0.461   9.221  0.0020 -0.0424  0.3446
  942MPD2    C513775   2.602   0.437   9.167 -0.4094  0.4829 -0.4340
  942MPD2     H13776   2.631   0.627   9.501 -0.7903  1.3955 -0.4483
  942MPD2    H113777   2.806   0.431   9.160 -0.2384  1.7752 -0.8810
  942MPD2    H213778   2.394   0.473   9.188 -0.6882  0.5678  1.1039
  942MPD2    H313779   2.607   0.397   9.066 -0.5367 -0.8169  0.0713
  942MPD2     N13780   2.860   0.541   9.387  0.7147  0.0661  0.1033
  942MPD2    H513781   2.942   0.501   9.342 -1.1764 -1.4253 -1.9860
  942MPD2    N113782   2.382   0.630   9.405  0.0385 -0.1195 -1.1077
  942MPD2    H713783   2.394   0.674   9.495  2.7764  1.7245 -2.3740
  943MPD2     C13784   2.682   3.448   9.771 -0.1918  0.0671 -0.0455
  943MPD2    C113785   2.572   3.368   9.799  0.4121 -0.0666 -0.6477
  943MPD2    C213786   2.454   3.375   9.722  0.0915  0.5289 -0.4650
  943MPD2    C313787   2.451   3.454   9.605 -0.6065 -0.7245  0.4546
  943MPD2    C413788   2.556   3.530   9.575 -0.1597 -0.6865  0.0961
  943MPD2    C513789   2.665   3.530   9.662  0.2525  0.0354 -0.0944
  943MPD2     H13790   2.366   3.325   9.761  1.9026 -3.2351 -1.1840
  943MPD2    H113791   2.552   3.591   9.486  2.3369 -1.5557 -0.6079
  943MPD2    H213792   2.776   3.446   9.826  0.0102  0.8472 -0.3642
  943MPD2    H313793   2.744   3.599   9.634 -0.4961  0.7935 -0.3444
  943MPD2     N13794   2.344   3.452   9.509 -0.3186 -0.3268  0.1488
  943MPD2    H513795   2.354   3.510   9.426  1.0583  0.0567  0.5883
  943MPD2    N113796   2.592   3.273   9.910 -0.1464  0.0237  0.1661
  943MPD2    H713797   2.670   3.264   9.974  1.3383  0.8846 -1.5128
  944MPD2     C13798   1.302   2.349   9.910 -0.2523 -0.4411  0.1758
  944MPD2    C113799   1.232   2.233   9.944 -0.4478 -0.3808 -0.8538
  944MPD2    C213800   1.193   2.209  10.075 -0.2915  0.2131  0.0298
  944MPD2    C313801   1.231   2.295  10.176 -0.6827 -0.7962  0.3597
  944MPD2    C413802   1.315   2.398  10.140  0.0214 -0.4697  0.4507
  944MPD2    C513803   1.350   2.421  10.014  0.0332  0.1610  0.0386
  944MPD2     H13804   1.146   2.112  10.091 -0.4286  0.6125  2.0133
  944MPD2    H113805   1.347   2.474  10.210 -3.1856  2.3646 -1.1927
  944MPD2    H213806   1.336   2.369   9.809  0.7781  1.1468  0.8362
  944MPD2    H313807   1.409   2.510   9.997  1.7847 -1.1172 -0.6388
  944MPD2     N13808   1.208   2.257  10.307 -0.8576 -0.4351 -0.1863
  944MPD2    H513809   1.177   2.162  10.323 -1.0828 -0.0206  1.8252
  944MPD2    N113810   1.196   2.159   9.830 -0.3361 -0.2815  0.3246
  944MPD2    H713811   1.217   2.197   9.739 -1.3467  4.4543  2.0201
    1TCq1    O113812   4.110   3.802  15.447  0.2476 -0.3800  0.1492
    1TCq1    C113813   4.076   3.799  15.318  0.1071 -0.4164 -0.9565
    1TCq1    O213814   4.065   3.696  15.257 -0.4094  0.5484  0.4612
    1TCq1    C213815   4.123   3.924  15.258 -0.1670 -0.3851  0.6581
    1TCq1    C313816   4.196   3.915  15.145  0.3362  0.0208  0.0926
    1TCq1    C413817   4.209   4.021  15.071 -0.2498 -0.1547  0.2126
    1TCq1    C513818   4.158   4.141  15.114  0.0927  0.2319  0.2420
    1TCq1    C613819   4.083   4.151  15.228  0.7469  0.4320  0.3228
    1TCq1    C713820   4.058   4.040  15.301  0.2317  0.1114 -0.0909
    1TCq1    C813821   4.055   4.283  15.279  0.2450 -0.5290  0.0084
    1TCq1    O413822   4.046   4.301  15.401 -0.7222  0.1574  0.1933
    1TCq1    C913823   4.281   4.007  14.946 -0.1825  0.0725  0.1772
    1TCq1    O513824   4.327   4.118  14.906 -0.5502 -0.2410 -0.1935
    1TCq1    O613825   4.312   3.893  14.900  0.6049 -0.1130 -0.1568
    1TCq1    H113826   4.118   3.896  15.475 -1.4767  0.4034 -2.0177
    1TCq1    H213827   4.218   3.818  15.104  0.0297 -0.8047  1.9014
    1TCq1    H313828   4.173   4.224  15.046 -2.7568  0.2645 -0.3511
    1TCq1    H413829   3.989   4.039  15.384  1.0986  0.9527  0.6358
    2MPD2     C13830   3.979   0.056  15.189  0.9731 -0.2082 -0.8066
    2MPD2    C113831   4.005   4.715  15.064  0.2797  0.3837 -0.0666
    2MPD2    C213832   4.029   4.582  15.069 -0.2568  0.4151 -0.0389
    2MPD2    C313833   4.037   4.512  15.189 -0.0588  0.0919 -0.2163
    2MPD2    C413834   4.010   4.578  15.308  0.3961 -0.4321 -0.0147
    2MPD2    C513835   3.977   4.708  15.299 -0.0953  0.0320 -0.5946
    2MPD2     H13836   4.042   4.522  14.979  1.4024  0.1289  0.3941
    2MPD2    H113837   4.011   4.534  15.407  0.1013  1.1553  0.6940
    2MPD2    H213838   3.967   0.164  15.191  0.1882 -0.2537 -3.0056
    2MPD2    H313839   3.960   0.041  15.390  0.0666 -1.0611  0.1161
    2MPD2     N13840   4.058   4.372  15.176 -0.1374 -0.3885  0.1615
    2MPD2    H513841   4.061   4.335  15.081  0.1089  1.0879 -0.4102
    2MPD2    N113842   4.022   0.070  14.946  0.2997 -0.3479  0.3646
    2MPD2    H713843   3.999   0.168  14.956 -1.2438 -0.6463 -0.1827
    3TMC2    C113844   4.055   0.119  14.723  0.0057  0.3816  0.1722
    3TMC2    C213845   3.918   0.156  14.717  0.6565  0.2129  0.6114
    3TMC2    C313846   3.870   0.173  14.590 -0.0606 -0.9407 -0.3919
    3TMC2    C413847   4.137   0.114  14.613  0.0931 -0.1258  0.0067
    3TMC2    C513848   4.087   0.147  14.491  0.1039 -0.9152 -0.3980
    3TMC2    C613849   3.953   0.182  14.479  0.0719  0.0368  0.0598
    3TMC2     C13850   4.075   0.022  14.828 -0.5451  0.1456 -0.2647
    3TMC2     O13851   4.134   4.645  14.798  0.3037 -0.0329 -0.2249
    3TMC2     H13852   3.851   0.152  14.802 -0.8891  1.5541 -0.5567
    3TMC2    H113853   4.235   0.068  14.621 -0.6957 -1.8210 -0.0875
    3TMC2    H213854   3.908   0.179  14.380  1.1433 -0.5367 -0.4120
    3TMC2    C713855   4.180   0.160  14.373  0.0795  0.2509  0.5907
    3TMC2    C813856   3.749   0.248  14.574  0.4135  0.9169 -0.4533
    3TMC2    O113857   4.281   0.093  14.394  0.3067  0.1784 -0.0526
    3TMC2    O213858   3.752   0.345  14.493  0.0830  0.4903 -0.0085
    3TMC2    O513859   3.665   0.233  14.673  0.2068  0.0336 -0.6994
    3TMC2    H513860   3.674   0.148  14.723  1.2687  0.4666 -0.1541
    4MPD2     C13861   3.358   0.913  13.371  0.0283 -0.2225  0.1650
    4MPD2    C113862   3.431   0.875  13.261  0.0519  0.0895  0.3041
    4MPD2    C213863   3.570   0.853  13.279 -0.5536 -0.3892 -0.4391
    4MPD2    C313864   3.625   0.858  13.407 -0.4805  0.7699 -0.2126
    4MPD2    C413865   3.546   0.905  13.512  0.8645  0.4090 -0.8700
    4MPD2    C513866   3.414   0.941  13.492 -0.6210 -0.9857 -0.7425
    4MPD2     H13867   3.623   0.800  13.200 -0.6164 -2.8583  1.1642
    4MPD2    H113868   3.581   0.920  13.614 -0.0380  1.0452 -0.6573
    4MPD2    H213869   3.252   0.934  13.359 -0.3682 -0.9450  2.4287
    4MPD2    H313870   3.356   0.970  13.579 -0.9462  0.8878 -1.5837
    4MPD2     N13871   3.747   0.798  13.433 -0.3416 -0.7429  0.2353
    4MPD2    H513872   3.789   0.765  13.347 -1.3405 -0.5477 -0.3329
    4MPD2    N113873   3.352   0.846  13.147  0.0495 -0.7452 -0.1512
    4MPD2    H713874   3.255   0.875  13.142  0.4480  0.7677  1.1430
    5TCq2    C113875   3.799   0.762  13.551 -0.9131 -0.2268  0.2040
    5TCq2    O213876   3.763   0.782  13.667 -0.2769  0.5338 -0.2954
    5TCq2    C213877   3.918   0.669  13.541 -0.4965  0.1758  0.0284
    5TCq2    C313878   4.004   0.667  13.435 -0.2797 -0.2835  0.1341
    5TCq2    C413879   4.113   0.584  13.445  0.3124  0.2121  0.0835
    5TCq2    C513880   4.153   0.523  13.569  0.4090 -0.4703  0.0084
    5TCq2    C613881   4.063   0.525  13.672 -0.8439 -0.0517 -0.1876
    5TCq2    C713882   3.942   0.592  13.652 -0.1081 -0.5690 -1.1904
    5TCq2    C813883   4.086   0.479  13.806 -0.4487 -0.5155  0.3964
    5TCq2    O413884   4.006   0.504  13.891  0.5273  0.1175 -0.1677
    5TCq2    C913885   4.193   0.562  13.328  0.0854 -0.7249  0.0741
    5TCq2    O513886   4.312   0.506  13.349 -0.2316 -0.1013  0.4870
    5TCq2    O613887   4.129   0.542  13.216 -0.0213 -0.2966  0.5164
    5TCq2    H213888   3.984   0.724  13.345  0.0308 -1.4746 -0.6867
    5TCq2    H313889   4.242   0.462  13.578 -0.5611 -1.8597  0.1592
    5TCq2    H413890   3.872   0.587  13.734  1.7989 -1.5582  0.3582
    6MPD1     C13891   2.089   1.672  12.341 -0.3615  0.6125 -0.3711
    6MPD1    C113892   2.156   1.633  12.222 -0.1626 -0.3280 -0.6277
    6MPD1    C213893   2.211   1.508  12.216  0.4810  0.5150  0.4338
    6MPD1    C313894   2.212   1.422  12.325 -1.0582 -0.1176  0.4080
    6MPD1    C413895   2.147   1.461  12.440 -0.0449  0.1112  0.0334
    6MPD1    C513896   2.080   1.582  12.442  0.0032  0.3578 -0.5596
    6MPD1     H13897   2.255   1.470  12.124 -0.7437 -1.0088  0.4708
    6MPD1    H113898   2.147   1.400  12.530  1.0066 -0.2603 -0.2159
    6MPD1    H213899   2.038   1.767  12.348 -1.5089  0.0175 -0.7158
    6MPD1    H313900   2.027   1.614  12.531 -0.6128 -1.5596 -0.2468
    6MPD1     N13901   2.268   1.291  12.323  0.3259 -0.1284 -0.1959
    6MPD1    H513902   2.275   1.241  12.412  1.8245 -0.9147 -0.7529
    6MPD1    N113903   2.137   1.714  12.111 -0.6208 -0.0771  0.3410
    6MPD1    H613904   2.182   1.805  12.119  1.7137 -1.1803 -0.5606
    6MPD1    H713905   2.170   1.674  12.024  1.0743  0.3315  0.8108
    7MPD2     C13906   2.588   1.041  12.861 -0.2041 -0.5471 -0.2518
    7MPD2    C113907   2.622   0.935  12.772  0.2890  0.1660  0.0576
    7MPD2    C213908   2.729   0.858  12.792 -0.1060  0.6926 -0.3047
    7MPD2    C313909   2.818   0.872  12.902 -0.5905  1.4058 -0.0347
    7MPD2    C413910   2.786   0.979  12.985  0.5734 -0.8667 -0.7714
    7MPD2    C513911   2.678   1.061  12.961  0.2895 -0.2300 -0.1632
    7MPD2     H13912   2.734   0.780  12.718  1.2365 -0.5225  1.0575
    7MPD2    H113913   2.833   0.992  13.081 -1.2790 -1.8378  0.2815
    7MPD2    H213914   2.501   1.105  12.853  1.0959  1.5525  2.4300
    7MPD2    H313915   2.664   1.142  13.032  1.0609  0.0924 -0.3768
    7MPD2     N13916   2.934   0.796  12.933  0.1378  0.0791 -0.1253
    7MPD2    H513917   2.995   0.814  13.013  0.4598  0.6087 -0.4906
    7MPD2    N113918   2.555   0.916  12.650 -0.8069  0.1424 -0.1746
    7MPD2    H713919   2.608   0.857  12.587 -0.1292  0.5147  0.0435
    8TMC3    C113920   3.109   0.671  12.860  0.3027 -0.2858  0.0371
    8TMC3    C213921   3.179   0.736  12.961 -0.1499  0.3633  0.1213
    8TMC3    C313922   3.303   0.781  12.926 -0.3290  0.6077 -0.5549
    8TMC3    C413923   3.158   0.647  12.736  0.3383  0.0015 -0.0447
    8TMC3    C513924   3.279   0.697  12.703 -0.6142 -0.1915 -0.0371
    8TMC3    C613925   3.352   0.768  12.798  0.2037 -0.4689 -0.0959
    8TMC3     C13926   2.970   0.691  12.857  0.1969 -0.4758  0.3130
    8TMC3     O13927   2.907   0.628  12.775 -0.5611 -0.3354 -0.2821
    8TMC3     H13928   3.139   0.761  13.059 -1.4160 -0.8677 -0.0880
    8TMC3    H113929   3.094   0.594  12.666 -0.4904  2.3808 -1.0811
    8TMC3    H213930   3.448   0.809  12.769  0.1786 -0.9073 -0.8252
    8TMC3    C713931   3.281   0.773  12.575 -0.2534 -0.6380  0.3196
    8TMC3    C813932   3.405   0.801  13.029  0.8260 -0.7636 -0.1192
    8TMC3    O113933   3.382   0.842  12.557 -0.0614 -0.2297 -0.0001
    8TMC3    O213934   3.522   0.783  13.002  0.2520 -0.1929 -0.6100
    9TMC3    C113935   2.389   1.100  12.259  0.5881 -0.3448 -0.3848
    9TMC3    C213936   2.496   1.065  12.178  0.2105 -0.5210 -0.2082
    9TMC3    C313937   2.592   1.002  12.249  0.3107 -0.4465 -0.2468
    9TMC3    C413938   2.373   1.065  12.390 -0.2696 -0.8735 -0.0017
    9TMC3    C513939   2.474   1.008  12.452  0.1017  0.8158 -0.9453
    9TMC3    C613940   2.585   0.971  12.387 -0.7602 -0.1968  0.6654
    9TMC3     C13941   2.329   1.226  12.217  0.3597 -0.2297 -0.0484
    9TMC3     O13942   2.353   1.274  12.105  0.1568  0.8773 -0.0768
    9TMC3     H13943   2.520   1.111  12.083  2.4303 -0.0789  0.5558
    9TMC3    H113944   2.279   1.077  12.442 -0.7848 -2.9220 -0.4570
    9TMC3    H213945   2.661   0.916  12.440  0.1105 -0.3117 -0.6854
    9TMC3    C713946   2.473   1.009  12.602 -0.2714 -0.0458  0.3065
    9TMC3    C813947   2.722   1.001  12.183  0.0304 -1.0868  0.4208
    9TMC3    O113948   2.383   1.080  12.646  0.1084 -0.4226  0.0371
    9TMC3    O213949   2.747   1.084  12.095 -0.1111 -0.6733  0.2594
   10MPD2     C13950   3.192   0.925  12.335  1.0370 -0.1239 -0.1408
   10MPD2    C113951   3.108   0.852  12.412  0.2916  0.7617 -0.7530
   10MPD2    C213952   2.982   0.830  12.365 -0.2903 -0.0607 -0.2122
   10MPD2    C313953   2.937   0.916  12.267  0.2145 -1.0828  0.5260
   10MPD2    C413954   3.018   0.987  12.189  0.9094 -0.0275 -0.3122
   10MPD2    C513955   3.148   0.986  12.223 -0.2942 -0.0352 -0.3817
   10MPD2     H13956   2.920   0.764  12.425 -1.4290  1.3277  0.1358
   10MPD2    H113957   2.976   1.033  12.100  0.5406 -2.1017 -1.2181
   10MPD2    H213958   3.298   0.929  12.355  0.5212 -0.0441  2.5908
   10MPD2    H313959   3.221   1.045  12.169 -1.4144  2.4765  0.8543
   10MPD2     N13960   2.799   0.910  12.250  0.7822 -0.2939  0.6893
   10MPD2    H513961   2.755   0.834  12.301 -1.2102 -0.7724 -1.7435
   10MPD2    N113962   3.150   0.780  12.523  0.1888 -0.3961 -0.7881
   10MPD2    H713963   3.085   0.712  12.561 -0.8959  1.1458  0.1034
   11MPD2     C13964   4.339   0.157  14.122 -0.4479  0.2971  0.0287
   11MPD2    C113965   4.213   0.215  14.142  0.3547 -0.0354 -0.3734
   11MPD2    C213966   4.167   0.293  14.036  0.1184  0.3787 -0.8644
   11MPD2    C313967   4.240   0.317  13.922 -0.0395  0.4639 -0.3999
   11MPD2    C413968   4.368   0.279  13.917  0.3408  0.7111 -0.1763
   11MPD2    C513969   4.418   0.198  14.019  0.1140  0.7812 -0.4726
   11MPD2     H13970   4.068   0.338  14.039 -0.3791 -0.6158 -2.2162
   11MPD2    H113971   4.436   0.319  13.843  1.1439 -3.2093 -1.5571
   11MPD2    H213972   4.382   0.095  14.199 -2.5719 -2.3927 -0.9738
   11MPD2    H313973   4.519   0.159  14.017  0.3081  1.1609  1.2053
   11MPD2     N13974   4.199   0.402  13.815 -0.0601 -0.4379  0.1951
   11MPD2    H513975   4.252   0.396  13.729 -0.2263  1.5062 -0.0315
   11MPD2    N113976   4.141   0.218  14.262 -0.2405 -0.0589  0.3358
   11MPD2    H713977   4.051   0.266  14.266 -0.3351 -0.1554 -0.5759
    1MPD1     C13978   1.258   2.205  16.842 -0.3277 -0.5169  0.1495
    1MPD1    C113979   1.351   2.273  16.768 -0.2045 -0.2883 -0.0747
    1MPD1    C213980   1.474   2.212  16.765 -0.1533  0.5703 -0.8583
    1MPD1    C313981   1.503   2.077  16.797 -0.4573  0.4579  0.4277
    1MPD1    C413982   1.399   2.003  16.851 -0.3779  0.3492  0.3234
    1MPD1    C513983   1.282   2.071  16.886 -0.4491 -0.0926 -0.5944
    1MPD1     H13984   1.551   2.279  16.726  1.3034 -1.3377 -1.2527
    1MPD1    H113985   1.395   1.897  16.871  1.8777  0.3382  0.6696
    1MPD1    H213986   1.164   2.251  16.868 -0.1400 -0.1526  0.1764
    1MPD1    H313987   1.207   2.012  16.937  0.8744  0.5161  2.0182
    1MPD1     N13988   1.631   2.015  16.787 -0.4203  0.6605  0.9385
    1MPD1    H513989   1.643   1.917  16.807 -1.5739 -0.0026 -1.6070
    1MPD1    N113990   1.335   2.406  16.718  0.5352 -0.8014 -0.5417
    1MPD1    H613991   1.242   2.431  16.685  1.1465  1.0892 -0.8139
    1MPD1    H713992   1.395   2.420  16.637 -1.9728  3.2748 -1.6942
    2MPD1     C13993   2.413   2.614  16.827  0.4300  0.9164  0.6600
    2MPD1    C113994   2.291   2.615  16.768  0.9067 -0.3136 -0.4163
    2MPD1    C213995   2.216   2.503  16.794 -0.1704 -0.0837 -0.1119
    2MPD1    C313996   2.247   2.393  16.874 -0.6600  0.1000  0.4696
    2MPD1    C413997   2.371   2.402  16.940  0.1988  0.1765  0.5728
    2MPD1    C513998   2.454   2.512  16.908 -0.1920 -0.4529  0.6176
    2MPD1     H13999   2.129   2.482  16.734  0.2985 -0.1050 -0.7823
    2MPD1    H114000   2.412   2.327  17.007  0.1145  1.6183  2.2451
    2MPD1    H214001   2.486   2.694  16.823 -0.5103  1.8020  1.1258
    2MPD1    H314002   2.555   2.516  16.947 -0.5909 -1.1628  1.7328
    2MPD1     N14003   2.152   2.284  16.879 -0.7639 -0.4425  0.0075
    2MPD1    H514004   2.079   2.303  16.810 -0.3019  0.6429 -0.1773
    2MPD1    N114005   2.251   2.713  16.674  0.7909  1.1203  0.0943
    2MPD1    H614006   2.150   2.724  16.667  0.6164  0.2058  1.0211
    2MPD1    H714007   2.291   2.802  16.701  1.6394  0.7739 -0.0167
    3TMC3    C114008   2.067   2.066  16.886 -0.1596 -0.4871 -0.3225
    3TMC3    C214009   2.099   1.937  16.890  0.1998  0.1677 -0.6507
    3TMC3    C314010   2.006   1.855  16.837  0.5498  0.1918  0.4284
    3TMC3    C414011   1.950   2.120  16.831  0.0201 -0.5155  0.0058
    3TMC3    C514012   1.862   2.025  16.782  0.1761 -0.9222  0.8608
    3TMC3    C614013   1.887   1.892  16.781 -0.2936  0.1149  0.2449
    3TMC3     C14014   2.162   2.164  16.943 -0.2116  0.1544  0.0891
    3TMC3     O14015   2.255   2.123  17.015  0.5198 -0.5876  0.1330
    3TMC3     H14016   2.186   1.897  16.940  0.3553 -1.4558 -2.1833
    3TMC3    H114017   1.928   2.226  16.840  0.8419 -0.4833  1.6361
    3TMC3    H214018   1.815   1.818  16.748 -0.5503  0.2229  0.5704
    3TMC3    C714019   1.740   2.082  16.727  0.0848  0.0750 -0.1278
    3TMC3    C814020   2.033   1.714  16.842  0.1501 -0.8244 -0.4308
    3TMC3    O114021   1.752   2.188  16.662  0.0914 -0.6858 -0.0235
    3TMC3    O214022   1.936   1.640  16.854  0.4933 -0.1820  0.8665
    4MPD1     C14023   2.339   1.315  16.751  1.2769 -0.2030  0.3321
    4MPD1    C114024   2.406   1.428  16.705 -0.7680 -0.3619 -0.1945
    4MPD1    C214025   2.348   1.551  16.720  0.5399 -0.4351  0.5099
    4MPD1    C314026   2.218   1.560  16.776 -0.4747 -0.3947 -0.3986
    4MPD1    C414027   2.150   1.446  16.814 -0.1033  0.4386 -0.1209
    4MPD1    C514028   2.214   1.326  16.801  0.2466 -0.0543 -0.2052
    4MPD1     H14029   2.401   1.641  16.692  0.7824 -0.8529 -0.3566
    4MPD1    H114030   2.057   1.451  16.871  1.1051  3.5318  1.6184
    4MPD1    H214031   2.374   1.212  16.747  2.1490  0.0334  2.1019
    4MPD1    H314032   2.170   1.236  16.843  0.7282  0.2767  1.0050
    4MPD1     N14033   2.156   1.686  16.791  0.4466  1.0679  0.1383
    4MPD1    H514034   2.214   1.766  16.772 -1.0751  2.5072  1.5165
    4MPD1    N114035   2.540   1.421  16.662 -0.3889  0.2203  0.2261
    4MPD1    H614036   2.581   1.504  16.618 -1.8140  0.7541 -0.0876
    4MPD1    H714037   2.567   1.337  16.611  2.7097  2.3000 -1.5549
    1TCq1    O114038   3.693   1.917  11.276  0.0409 -0.3790  0.5731
    1TCq1    C114039   3.625   2.002  11.191  0.8195 -0.4086 -0.1294
    1TCq1    O214040   3.672   2.095  11.125  0.4132  0.3026  0.0319
    1TCq1    C214041   3.481   1.987  11.223  0.0171  0.1350  0.1749
    1TCq1    C314042   3.446   1.930  11.339 -0.1600  0.1890  0.2538
    1TCq1    C414043   3.311   1.941  11.366  0.3838 -0.4780 -0.0565
    1TCq1    C514044   3.218   1.967  11.267  0.6459 -0.7047  0.1147
    1TCq1    C614045   3.266   2.001  11.142  0.3897  0.3464 -0.3913
    1TCq1    C714046   3.392   2.016  11.121 -0.5334  0.0408  0.2822
    1TCq1    C814047   3.190   1.981  11.023 -0.1499 -0.2420  0.0834
    1TCq1    O414048   3.238   2.017  10.914  0.1801  0.3187 -0.1029
    1TCq1    C914049   3.256   1.879  11.487 -0.2980  0.3936  0.3922
    1TCq1    O514050   3.337   1.844  11.574 -0.4690  0.7502 -0.0065
    1TCq1    O614051   3.133   1.859  11.493 -0.5782  0.2554  0.0855
    1TCq1    H114052   3.635   1.839  11.291 -0.3026 -0.0635  0.9028
    1TCq1    H214053   3.517   1.928  11.420 -0.8923 -0.1466  0.8838
    1TCq1    H314054   3.115   1.940  11.287  1.0587 -2.9336 -0.7633
    1TCq1    H414055   3.430   2.058  11.029 -2.6597 -1.1364 -1.1200
    2MPD1     C14056   2.732   1.887  10.806  0.3903 -0.2773 -0.3057
    2MPD1    C114057   2.712   1.914  10.938 -0.2504  0.0106  0.2640
    2MPD1    C214058   2.827   1.936  11.015  0.3174  0.3080  0.6396
    2MPD1    C314059   2.947   1.954  10.961 -0.3298  0.3705 -0.7050
    2MPD1    C414060   2.963   1.946  10.828 -0.0256 -0.2051  0.4339
    2MPD1    C514061   2.855   1.909  10.755  0.3673  0.0981  0.0307
    2MPD1     H14062   2.822   1.961  11.120 -0.5747  1.4013  0.3292
    2MPD1    H114063   3.055   1.963  10.773 -0.2054 -1.1056 -0.1393
    2MPD1    H214064   2.654   1.852  10.739 -1.3933  1.3028  0.9552
    2MPD1    H314065   2.878   1.897  10.650 -0.3491  2.4830 -0.3870
    2MPD1     N14066   3.055   1.976  11.053 -0.0952 -0.1958 -0.3985
    2MPD1    H514067   3.022   1.970  11.149  3.9409  2.1007  1.1188
    2MPD1    N114068   2.585   1.918  10.995  0.0784  0.1445  0.3142
    2MPD1    H614069   2.521   1.960  10.928  0.6181  0.8041  0.2137
    2MPD1    H714070   2.597   1.979  11.075 -2.4953  0.0940  0.7441
    1TCq1    O114071   1.222   0.389   2.183 -0.2533  0.4871  0.3360
    1TCq1    C114072   1.106   0.383   2.113 -1.2628 -0.0743 -0.4093
    1TCq1    O214073   1.106   0.366   1.993 -0.5142  0.1221 -0.1703
    1TCq1    C214074   0.999   0.346   2.203  0.2303  0.2579 -0.1221
    1TCq1    C314075   1.015   0.244   2.295  0.2000 -0.5386  0.7445
    1TCq1    C414076   0.905   0.185   2.359  0.1248 -0.2241  0.1701
    1TCq1    C514077   0.782   0.240   2.333  0.0524 -0.1474 -0.1435
    1TCq1    C614078   0.767   0.322   2.223  0.6282 -0.1802  0.0057
    1TCq1    C714079   0.874   0.368   2.155 -0.6583 -0.8489  0.5461
    1TCq1    C814080   0.627   0.355   2.192  0.0026  0.0704  0.2559
    1TCq1    O414081   0.534   0.283   2.239  0.2662  0.5092  0.0859
    1TCq1    C914082   0.930   0.146   2.498 -0.0281  0.0289  0.0797
    1TCq1    O514083   0.830   0.162   2.579 -0.2493 -0.4818 -0.0153
    1TCq1    O614084   1.047   0.120   2.535 -0.5191  0.0100 -0.4536
    1TCq1    H114085   1.212   0.426   2.273 -1.7847 -1.2470  0.8913
    1TCq1    H214086   1.111   0.234   2.346  1.1457 -0.2706 -1.0112
    1TCq1    H314087   0.701   0.213   2.399  1.5312 -1.1611  1.2717
    1TCq1    H414088   0.867   0.436   2.072 -0.6965 -0.9838  0.4378
    2MPD1     C14089   0.295   0.715   2.049 -0.0318  0.1736 -0.5068
    2MPD1    C114090   0.424   0.755   2.009 -0.0652 -1.0804  0.4578
    2MPD1    C214091   0.530   0.677   2.039  0.0993 -0.2507  1.1717
    2MPD1    C314092   0.510   0.551   2.099  0.6048 -0.2461 -0.1730
    2MPD1    C414093   0.376   0.506   2.129 -0.4212  0.6366 -0.0515
    2MPD1    C514094   0.274   0.587   2.098 -0.1952 -0.0713  0.7856
    2MPD1     H14095   0.630   0.718   2.031  0.1427 -0.7090 -0.6932
    2MPD1    H114096   0.351   0.410   2.172  2.1370  1.1684  2.6193
    2MPD1    H214097   0.209   0.780   2.032  0.3484  1.0097  0.8147
    2MPD1    H314098   0.175   0.556   2.131  0.0285 -0.8794  0.6908
    2MPD1     N14099   0.632   0.480   2.132 -0.5028  0.2900 -0.6340
    2MPD1    H514100   0.718   0.530   2.116 -1.1377  1.0375 -1.6847
    2MPD1    N114101   0.453   0.887   1.972 -0.2003 -0.0273  0.5299
    2MPD1    H614102   0.381   0.919   1.908 -0.0967 -0.8352  0.0075
    2MPD1    H714103   0.542   0.912   1.930 -1.4831  1.0081 -1.5858
    1MPD1     C14104   3.991   2.650  10.505 -0.1440 -0.7124 -0.0740
    1MPD1    C114105   4.039   2.676  10.376  0.1129  0.0489 -0.4703
    1MPD1    C214106   4.080   2.567  10.300 -0.4443 -0.3956  0.0812
    1MPD1    C314107   4.071   2.442  10.343  0.7617 -0.2586  0.0474
    1MPD1    C414108   4.011   2.423  10.462  0.5013 -0.2196 -0.4390
    1MPD1    C514109   3.975   2.523  10.544 -0.2856 -0.6646  0.0784
    1MPD1     H14110   4.126   2.572  10.202  0.1055  1.4950  0.4394
    1MPD1    H114111   4.003   2.321  10.498 -1.4530 -0.3739 -1.2778
    1MPD1    H214112   3.965   2.732  10.571 -0.8912 -0.0571 -1.1876
    1MPD1    H314113   3.916   2.522  10.635 -0.2389  0.7779  0.1100
    1MPD1     N14114   4.121   2.338  10.263 -0.5993  0.0788 -0.9205
    1MPD1    H514115   4.164   2.368  10.175  0.8923 -3.0040 -1.2570
    1MPD1    N114116   4.086   2.804  10.346  0.1316 -0.4918  0.8924
    1MPD1    H614117   4.037   2.882  10.391 -0.5600  1.1510 -2.7347
    1MPD1    H714118   4.092   2.813  10.245  0.9915  0.5296  1.0242
    2MPD1     C14119   4.557   1.491  12.076  0.1768  0.0623 -0.1763
    2MPD1    C114120   4.453   1.445  12.002  0.1119 -0.1871  0.6517
    2MPD1    C214121   4.482   1.424  11.864  0.3362 -0.2765 -0.8248
    2MPD1    C314122   4.611   1.446  11.808 -0.5465 -1.1267 -0.1902
    2MPD1    C414123   4.705   1.495  11.890 -0.0574  0.3418 -0.1349
    2MPD1    C514124   4.677   1.519  12.023 -1.3768 -0.2892 -0.1555
    2MPD1     H14125   4.400   1.377  11.811 -0.9661  0.2487  0.7461
    2MPD1    H114126   0.080   1.514  11.848  0.0156  2.0396  0.7879
    2MPD1    H214127   4.531   1.520  12.177 -0.1668 -0.1490 -0.2054
    2MPD1    H314128   0.032   1.562  12.084 -3.3628  0.3478  1.9085
    2MPD1     N14129   4.647   1.446  11.671 -0.0634  0.4911 -0.0103
    2MPD1    H514130   0.022   1.463  11.660  0.0144  1.4365  2.1783
    2MPD1    N114131   4.324   1.424  12.057  0.1360  0.6877 -0.0443
    2MPD1    H614132   4.323   1.402  12.157 -0.5953  0.6133 -0.0709
    2MPD1    H714133   4.266   1.362  12.001 -1.1380 -0.0289  2.0882
    3MPD1     C14134   4.406   0.889  10.894  0.4932  0.4408 -0.5816
    3MPD1    C114135   4.378   0.893  11.027 -0.2447 -0.4269 -0.7281
    3MPD1    C214136   4.402   1.009  11.091  0.6126 -0.9249 -1.0495
    3MPD1    C314137   4.460   1.123  11.032  0.1652  0.1130  0.5128
    3MPD1    C414138   4.505   1.105  10.906 -0.0215  0.7891  0.9551
    3MPD1    C514139   4.476   0.988  10.841  0.4105 -0.8091  0.7069
    3MPD1     H14140   4.367   1.016  11.193 -0.4042 -0.4611 -1.4299
    3MPD1    H114141   4.544   1.193  10.856  1.3707 -0.9090 -0.9537
    3MPD1    H214142   4.370   0.813  10.827 -0.6018  0.0217  0.4812
    3MPD1    H314143   4.508   0.988  10.737 -0.2060 -0.3376  0.5175
    3MPD1     N14144   4.490   1.229  11.123  0.2912  0.0675  0.6289
    3MPD1    H514145   4.453   1.224  11.218  1.3248  1.4269  1.1007
    3MPD1    N114146   4.297   0.795  11.073  0.1290 -0.5593 -0.3975
    3MPD1    H614147   4.306   0.706  11.024  0.0022 -0.5541 -0.4297
    3MPD1    H714148   4.294   0.775  11.173 -1.9612 -0.5875 -0.4812
    4MPD2     C14149   4.598   1.689  10.408 -0.2142 -0.3135 -0.3470
    4MPD2    C114150   4.634   1.811  10.355  0.3840  1.0700  0.1693
    4MPD2    C214151   0.036   1.864  10.385  0.2583  0.4535  0.4210
    4MPD2    C314152   0.123   1.803  10.472  0.4260 -0.2370  0.7840
    4MPD2    C414153   0.091   1.679  10.531 -0.2802 -0.3272 -0.4794
    4MPD2    C514154   4.691   1.628  10.494  0.0590 -0.1577 -0.0558
    4MPD2     H14155   0.058   1.959  10.337 -0.0658 -0.1352 -0.9110
    4MPD2    H114156   0.155   1.635  10.607 -0.0537  1.2523  0.2423
    4MPD2    H214157   4.497   1.651  10.393 -0.6765  1.2876 -1.2961
    4MPD2    H314158   4.662   1.543  10.554 -2.2005  1.0547  0.5806
    4MPD2     N14159   0.248   1.866  10.512 -0.3165 -0.6797  0.2061
    4MPD2    H514160   0.297   1.811  10.582 -0.6302  0.0783  1.0341
    4MPD2    N114161   4.551   1.889  10.264  0.6187  0.2694  0.1608
    4MPD2    H714162   4.598   1.977  10.241  1.7392 -0.6697 -1.1985
    5TMC3    C114163   4.375   1.980  10.125 -0.0619  0.6013 -0.8106
    5TMC3    C214164   4.263   2.026  10.191 -0.2936  0.0060  0.0579
    5TMC3    C314165   4.258   2.158  10.223  0.0332 -0.4458  0.1069
    5TMC3    C414166   4.470   2.065  10.083 -0.4362 -0.1752 -0.0826
    5TMC3    C514167   4.469   2.199  10.118 -0.5926 -0.0280 -0.4450
    5TMC3    C614168   4.363   2.243  10.193  0.4789  0.3283 -0.1271
    5TMC3     C14169   4.426   1.863  10.208  0.2481 -0.5677  0.3630
    5TMC3     O14170   4.344   1.777  10.245  0.3930 -0.5380  0.3674
    5TMC3     H14171   4.185   1.958  10.222 -1.8285  1.2819 -0.9765
    5TMC3    H114172   4.553   2.026  10.025  0.0718 -1.6857  1.6598
    5TMC3    H214173   4.369   2.336  10.249  0.7040  0.4651 -0.3771
    5TMC3    C714174   4.591   2.241  10.166 -0.2489  0.1594  0.7455
    5TMC3    C814175   4.151   2.213  10.303  0.0322  0.3670  0.1388
    5TMC3    O114176   4.668   2.149  10.193 -0.0341 -0.3116 -0.2146
    5TMC3    O214177   4.105   2.148  10.395 -0.4433 -0.1780 -0.0203
    6TMC3    C114178   4.611   1.451  11.435 -0.3997  0.5360 -0.4973
    6TMC3    C214179   4.555   1.382  11.332 -0.8131 -0.8714 -0.1369
    6TMC3    C314180   4.607   1.416  11.211 -0.8468 -0.4104  0.1487
    6TMC3    C414181   4.699   1.560  11.431  0.0888 -0.7223  0.0597
    6TMC3    C514182   0.021   1.588  11.304  0.1614 -0.3178  0.7755
    6TMC3    C614183   4.698   1.517  11.197  0.4460  0.3683  0.2604
    6TMC3     C14184   4.558   1.434  11.565  0.1179 -0.0858 -0.0522
    6TMC3     O14185   4.445   1.390  11.571  0.6487  0.1629 -0.2668
    6TMC3     H14186   4.482   1.302  11.346 -0.4008 -0.9665  1.4392
    6TMC3    H114187   0.010   1.624  11.511  2.5255 -0.5904 -1.0891
    6TMC3    H214188   0.022   1.546  11.104 -1.9337  2.7991 -0.2002
    6TMC3    C714189   0.101   1.695  11.278 -0.1757  0.3957 -0.8271
    6TMC3    C814190   4.571   1.340  11.093  0.3917 -0.2068  0.0669
    6TMC3    O114191   0.179   1.678  11.187  0.4730  0.1902  0.2319
    6TMC3    O214192   4.633   1.363  10.992 -0.0962  0.2094 -0.3064
    7MPD2     C14193   0.146   2.572  10.443 -0.0376  0.4439  0.1311
    7MPD2    C114194   0.157   2.436  10.433 -0.5717 -0.4816 -0.7506
    7MPD2    C214195   0.076   2.369  10.346 -0.0352 -0.7336  0.2294
    7MPD2    C314196   4.705   2.442  10.275 -0.4808 -0.0220 -0.0354
    7MPD2    C414197   4.706   2.574  10.270  0.1936  0.5237 -0.2146
    7MPD2    C514198   0.054   2.639  10.367  0.7237  0.0399 -0.2140
    7MPD2     H14199   0.079   2.261  10.343  0.0362 -0.7349  0.3774
    7MPD2    H114200   4.629   2.625  10.212  1.6298  0.8609 -1.8184
    7MPD2    H214201   0.210   2.630  10.509 -0.2404 -0.6837  1.3289
    7MPD2    H314202   0.046   2.747  10.378 -0.9895 -0.0383 -0.6875
    7MPD2     N14203   4.604   2.376  10.186 -0.0540 -0.2240 -0.1718
    7MPD2    H514204   4.533   2.436  10.146 -0.3020 -1.9286 -2.3216
    7MPD2    N114205   0.252   2.349  10.493 -0.1663  0.2763 -0.5387
    7MPD2    H714206   0.264   2.256  10.455 -0.4203 -0.2609  0.6788
    8TMC3    C114207   0.399   2.260  10.640 -0.0007  0.2199 -0.3820
    8TMC3    C214208   0.383   2.222  10.771 -0.1257  0.6086 -0.4706
    8TMC3    C314209   0.376   2.089  10.793  0.1107 -0.3069 -0.5905
    8TMC3    C414210   0.417   2.175  10.537  0.5612  0.1937  0.3609
    8TMC3    C514211   0.393   2.046  10.568  0.3679 -0.7528  0.6195
    8TMC3    C614212   0.376   2.001  10.692 -0.0423  0.2434 -0.5923
    8TMC3     C14213   0.334   2.382  10.603 -0.3876 -0.3057 -0.2008
    8TMC3     O14214   0.304   2.458  10.693 -0.1329 -0.3515  0.1160
    8TMC3     H14215   0.353   2.298  10.842 -0.8313  1.0162 -1.2157
    8TMC3    H114216   0.448   2.209  10.439 -1.0596 -2.7936 -1.2014
    8TMC3    H214217   0.384   1.895  10.714  2.2034  0.7085  0.8016
    8TMC3    C714218   0.295   1.995  10.479 -0.6534  0.6548 -0.9703
    8TMC3    C814219   0.329   2.032  10.919 -0.4649  0.1818 -0.1017
    8TMC3    O114220   0.245   2.083  10.406  0.6232  0.5705  0.8476
    8TMC3    O214221   0.323   1.908  10.923 -0.0082 -0.2490  0.1276
    9MPD2     C14222   0.157   2.204  11.193 -0.7714  0.7006  0.5923
    9MPD2    C114223   0.208   2.094  11.125  0.2005  0.0439  0.4288
    9MPD2    C214224   0.180   1.965  11.167 -0.5893  0.2870 -0.4733
    9MPD2    C314225   0.085   1.944  11.267  0.4133 -0.0744 -0.5753
    9MPD2    C414226   0.030   2.056  11.329 -0.2150  0.0125 -0.3638
    9MPD2    C514227   0.068   2.184  11.299  0.1769  0.2418  0.1264
    9MPD2     H14228   0.230   1.881  11.121 -2.8494  0.1141 -2.5950
    9MPD2    H114229   4.688   2.051  11.415  0.6342  3.0270  0.4325
    9MPD2    H214230   0.181   2.306  11.165  2.3757 -0.4976 -1.0064
    9MPD2    H314231   0.019   2.263  11.355  1.0931  0.9607 -0.0803
    9MPD2     N14232   0.052   1.817  11.318 -0.1336  0.2178 -0.1928
    9MPD2    H514233   4.700   1.814  11.386 -0.3061  0.0662 -0.3915
    9MPD2    N114234   0.286   2.125  11.012 -0.1219  0.3200 -0.2688
    9MPD2    H714235   0.298   2.223  10.986  1.8422 -0.1723 -1.1969
    1MPD1     C14236   0.392   0.550  16.392 -0.2873 -0.5839  0.2040
    1MPD1    C114237   0.296   0.458  16.348 -0.3379  0.1798 -0.0645
    1MPD1    C214238   0.173   0.450  16.420  0.8045  0.2612 -0.4683
    1MPD1    C314239   0.149   0.528  16.525  0.2403  0.4480  0.4029
    1MPD1    C414240   0.244   0.625  16.560  0.0903  0.5582  0.9392
    1MPD1    C514241   0.359   0.634  16.498  0.0425  0.4449  0.3364
    1MPD1     H14242   0.097   0.377  16.395 -0.3180  0.8318  1.2226
    1MPD1    H114243   0.223   0.681  16.651  1.0194  1.2895  0.6912
    1MPD1    H214244   0.489   0.563  16.347  0.5553 -1.8431  1.6656
    1MPD1    H314245   0.436   0.700  16.536  0.4625  0.4117 -0.4516
    1MPD1     N14246   0.040   0.499  16.610  0.0366  0.5590 -0.3571
    1MPD1    H514247   0.028   0.554  16.695  0.7856 -1.4906  1.0738
    1MPD1    N114248   0.330   0.364  16.259  0.2376 -0.4051  1.1215
    1MPD1    H614249   0.252   0.311  16.222 -1.2514  2.1782  0.6107
    1MPD1    H714250   0.375   0.405  16.178 -0.2040 -1.4012  0.3797
    2MPD1     C14251   3.971   4.596  16.686  0.2196 -0.3341 -0.3629
    2MPD1    C114252   4.039   4.640  16.577  0.0346 -0.1624 -0.2432
    2MPD1    C214253   4.146   0.001  16.597 -0.0779 -0.0901  0.1418
    2MPD1    C314254   4.170   0.040  16.725  0.3127  0.2837  0.9155
    2MPD1    C414255   4.114   4.705  16.834  0.4905 -0.4393 -0.7097
    2MPD1    C514256   4.007   4.622  16.813  0.3070 -0.0586 -0.3326
    2MPD1     H14257   4.208   0.035  16.516  0.5077 -1.8906 -0.1617
    2MPD1    H114258   4.145   4.721  16.937 -1.4389  0.3431 -0.2493
    2MPD1    H214259   3.873   4.554  16.666 -0.8994  0.1953  4.1186
    2MPD1    H314260   3.954   4.576  16.895 -1.4148 -0.0518 -1.4576
    2MPD1     N14261   4.284   0.127  16.739  0.0409 -0.5262 -0.3246
    2MPD1    H514262   4.352   0.142  16.666 -0.1915  0.5555 -0.3176
    2MPD1    N114263   4.009   4.591  16.448  0.0335 -0.5698 -0.6159
    2MPD1    H614264   4.018   4.664  16.376 -1.5397  0.7538  0.5116
    2MPD1    H714265   3.910   4.567  16.448  0.0199 -0.5197 -0.1283
    3TCq2    C114266   4.298   0.208  16.846 -0.1983  0.2804 -0.9842
    3TCq2    O214267   4.221   0.212  16.943 -0.2095  0.1263 -0.1294
    3TCq2    C214268   4.418   0.285  16.837  0.6837 -0.1090 -0.2010
    3TCq2    C314269   4.484   0.299  16.957 -0.1459 -0.9509  0.1329
    3TCq2    C414270   4.611   0.357  16.951  0.1874  0.5137 -0.2232
    3TCq2    C514271   4.660   0.400  16.830 -0.2027 -0.0636  0.1588
    3TCq2    C614272   4.589   0.383  16.715  0.3276 -0.3458  0.5161
    3TCq2    C714273   4.460   0.328  16.715 -0.1375 -0.1837  0.0096
    3TCq2    C814274   4.655   0.425  16.591  0.2833  0.2885  0.5585
    3TCq2    O414275   4.609   0.380  16.489  0.0348  0.2296 -0.0134
    3TCq2    C914276   4.687   0.376  17.076 -0.6458  0.4217 -0.2671
    3TCq2    O514277   0.061   0.460  17.078 -0.3626 -0.2471 -0.1523
    3TCq2    O614278   4.651   0.318  17.180 -0.1224  0.1747 -0.3598
    3TCq2    H214279   4.448   0.263  17.053  0.2777 -1.5332  0.0693
    3TCq2    H314280   0.031   0.450  16.843 -0.5594  0.3390  1.2605
    3TCq2    H414281   4.405   0.311  16.624 -0.9184 -1.2336  0.6788
    1TCq1    O114282   2.380   3.944  12.436 -0.5463 -0.6178 -0.4655
    1TCq1    C114283   2.370   3.826  12.497  0.3289 -0.0072 -0.0492
    1TCq1    O214284   2.288   3.740  12.466 -0.3911  0.1589  0.2370
    1TCq1    C214285   2.410   3.869  12.628 -0.9985  0.3690  0.1056
    1TCq1    C314286   2.350   3.801  12.729  0.7506  0.2085  0.4863
    1TCq1    C414287   2.428   3.769  12.838 -0.0179 -0.2665 -0.3725
    1TCq1    C514288   2.564   3.805  12.856  0.4483  0.1763  0.2217
    1TCq1    C614289   2.618   3.871  12.747  0.0729 -0.2618  0.6456
    1TCq1    C714290   2.543   3.902  12.636  0.1452 -0.5942  0.0302
    1TCq1    C814291   2.766   3.883  12.743  0.1055  0.4339  0.4888
    1TCq1    O414292   2.813   3.933  12.637 -0.5338  0.3566 -0.0010
    1TCq1    C914293   2.375   3.673  12.930  0.4781  0.3816 -0.5381
    1TCq1    O514294   2.252   3.648  12.924 -1.1313 -0.1614 -0.2817
    1TCq1    O614295   2.455   3.634  13.024  0.2266 -0.2857 -0.5904
    1TCq1    H114296   2.427   4.012  12.490 -1.1041 -0.9109  0.3821
    1TCq1    H214297   2.251   3.759  12.715  1.7412 -2.3850  1.2614
    1TCq1    H314298   2.617   3.775  12.946  0.6896 -0.4480 -0.1245
    1TCq1    H414299   2.582   3.967  12.559  0.0676 -1.0442 -0.3884
    2MPD2     C14300   3.058   3.919  12.788 -0.0434  0.2256 -0.7520
    2MPD2    C114301   2.970   3.874  12.882  0.8399 -0.4485 -0.5112
    2MPD2    C214302   2.997   3.887  13.019  0.3827  0.1694 -0.1378
    2MPD2    C314303   3.115   3.928  13.060 -0.9246  0.0397  0.2007
    2MPD2    C414304   3.215   3.954  12.968 -0.2365  0.2558  0.4223
    2MPD2    C514305   3.182   3.961  12.835  0.9680 -0.2445 -0.1242
    2MPD2     H14306   2.915   3.864  13.086 -0.9895  0.6852 -1.6696
    2MPD2    H114307   3.315   3.988  12.992  0.8895 -2.9040  0.1756
    2MPD2    H214308   3.028   3.931  12.685 -0.1846  1.1631 -0.6044
    2MPD2    H314309   3.261   3.996  12.770  2.5822 -1.1854  1.3393
    2MPD2     N14310   3.135   3.944  13.200 -0.2723  0.3224  0.3230
    2MPD2    H514311   3.051   3.925  13.253  0.7071 -0.5378  1.5326
    2MPD2    N114312   2.833   3.845  12.855  0.7558  0.7604  0.1359
    2MPD2    H714313   2.782   3.825  12.940 -0.0987  2.5660  0.0493
    3TCq1    O114314   2.935   4.308  13.625  0.4028  0.2988  0.4360
    3TCq1    C114315   2.929   4.214  13.532 -0.8934 -0.0955 -0.2030
    3TCq1    O214316   2.838   4.134  13.523 -0.6660 -0.3496 -0.2643
    3TCq1    C214317   3.061   4.165  13.529 -0.0580 -0.4431 -0.1000
    3TCq1    C314318   3.149   4.178  13.628 -0.6559  0.0537  0.4343
    3TCq1    C414319   3.270   4.114  13.617  0.4432 -0.5647 -0.3868
    3TCq1    C514320   3.304   4.048  13.499 -0.5150  0.1311  0.4654
    3TCq1    C614321   3.210   4.032  13.404  0.0968  0.1877 -0.5515
    3TCq1    C714322   3.092   4.096  13.422 -0.0274  0.3132 -0.3809
    3TCq1    C814323   3.247   3.993  13.266 -0.4575  0.0776  0.0301
    3TCq1    O414324   3.358   4.022  13.219 -0.1609 -0.2627 -0.8840
    3TCq1    C914325   3.367   4.118  13.724 -0.2865  0.1766 -0.0703
    3TCq1    O514326   3.335   4.179  13.830  0.2150  0.0698  0.4183
    3TCq1    O614327   3.479   4.082  13.684  0.3786  0.6197 -0.4433
    3TCq1    H114328   3.019   4.358  13.621 -0.1922  1.5557  3.6331
    3TCq1    H214329   3.126   4.220  13.726  1.1362 -0.9297  1.2643
    3TCq1    H314330   3.402   4.003  13.488 -0.2739  0.9059 -0.4995
    3TCq1    H414331   3.017   4.097  13.343 -0.3457  2.2371 -0.0326
    1MPD2     C14332   2.413   0.447  14.697 -0.1365  0.1032  0.1594
    1MPD2    C114333   2.302   0.375  14.670 -0.7650 -0.6131  0.1887
    1MPD2    C214334   2.317   0.241  14.662  0.4395 -0.5779  0.0652
    1MPD2    C314335   2.438   0.180  14.702  0.5703 -0.6186  0.4422
    1MPD2    C414336   2.541   0.252  14.741 -0.1498  0.2766 -0.2746
    1MPD2    C514337   2.531   0.390  14.732 -0.3391 -0.6551  0.0048
    1MPD2     H14338   2.242   0.175  14.620 -1.2454  2.9619 -2.5399
    1MPD2    H114339   2.639   0.212  14.765 -0.6312 -1.5926 -1.4767
    1MPD2    H214340   2.402   0.555  14.694  1.5311  0.2679 -0.5530
    1MPD2    H314341   2.622   0.445  14.750 -1.0612  1.0081 -1.5521
    1MPD2     N14342   2.433   0.034  14.704  0.0996  0.3978  0.3233
    1MPD2    H514343   2.346   4.713  14.676 -1.2355  1.7145  2.3290
    1MPD2    N114344   2.179   0.444  14.657  0.2329  0.0732  0.2230
    1MPD2    H714345   2.173   0.546  14.654 -2.2080 -0.0483  0.6296
    2TMC3    C114346   1.940   0.459  14.641 -0.1484 -0.1540 -1.2561
    2TMC3    C214347   1.831   0.376  14.668  0.5672  0.3182  0.8156
    2TMC3    C314348   1.728   0.369  14.575 -0.5619 -0.2861  0.6105
    2TMC3    C414349   1.937   0.551  14.539  0.4825  0.6106 -0.6901
    2TMC3    C514350   1.828   0.551  14.455  0.0234 -1.2215 -0.0259
    2TMC3    C614351   1.728   0.455  14.466 -0.6068  0.3638  0.4565
    2TMC3     C14352   2.055   0.379  14.652  0.7982  0.0135  0.3559
    2TMC3     O14353   2.036   0.258  14.665 -0.3823 -0.7159  0.4135
    2TMC3     H14354   1.832   0.296  14.741 -0.4225  1.4507  2.0697
    2TMC3    H114355   2.036   0.586  14.514  0.0718  2.5678  0.4152
    2TMC3    H214356   1.651   0.463  14.391 -0.2614  1.0169  0.1736
    2TMC3    C714357   1.816   0.664  14.368 -0.0400  1.0620 -0.1955
    2TMC3    C814358   1.690   0.234  14.533  1.0215 -0.0524 -0.2684
    2TMC3    O114359   1.707   0.698  14.320  0.0301 -0.0587 -0.2453
    2TMC3    O214360   1.595   0.234  14.455 -0.5390 -0.4417  0.8888
    3TCq1    O114361   2.596   1.114  14.630  0.3354  0.5568  0.3029
    3TCq1    C114362   2.702   1.113  14.548 -0.1555  0.4323  1.2640
    3TCq1    O214363   2.818   1.118  14.583  0.3048 -0.1868  0.4062
    3TCq1    C214364   2.653   1.147  14.420  0.8812  0.1853 -0.0563
    3TCq1    C314365   2.717   1.255  14.365 -0.2998  0.6635  0.6166
    3TCq1    C414366   2.664   1.333  14.268  0.1438 -0.5429 -0.3207
    3TCq1    C514367   2.543   1.307  14.221  0.3553  0.1784  0.5723
    3TCq1    C614368   2.473   1.200  14.283  0.6209 -0.1656  0.6299
    3TCq1    C714369   2.529   1.117  14.383 -0.7581 -0.4870 -0.5906
    3TCq1    C814370   2.329   1.183  14.245  0.2255 -0.5422  0.2058
    3TCq1    O414371   2.277   1.279  14.193  0.2188 -0.1264  0.5125
    3TCq1    C914372   2.739   1.439  14.207 -0.7294 -0.9061 -0.2113
    3TCq1    O514373   2.688   1.500  14.109 -0.7097 -0.7649 -0.4443
    3TCq1    O614374   2.861   1.446  14.235  0.0886  0.1532 -0.0365
    3TCq1    H114375   2.508   1.114  14.586 -0.0932 -1.8998  1.1579
    3TCq1    H214376   2.810   1.288  14.408 -0.2834  1.2660  0.1147
    3TCq1    H314377   2.492   1.370  14.149 -2.3313 -1.4675  1.0474
    3TCq1    H414378   2.477   1.029  14.421  2.0510 -2.1470 -0.5777
    4MPD2     C14379   2.035   1.099  14.190  0.7159  0.7982 -0.2756
    4MPD2    C114380   2.136   1.030  14.265 -0.2444 -0.3253 -0.9521
    4MPD2    C214381   2.093   0.908  14.320  0.3783  0.2299  0.0841
    4MPD2    C314382   1.969   0.851  14.295  0.0016  0.0949  0.0001
    4MPD2    C414383   1.878   0.927  14.227  0.1400 -1.0169  0.3253
    4MPD2    C514384   1.910   1.047  14.172 -0.7364 -0.2650 -0.0534
    4MPD2     H14385   2.155   0.839  14.376 -0.6254 -0.8265 -0.0874
    4MPD2    H114386   1.781   0.889  14.196 -1.4982 -0.2063  4.3487
    4MPD2    H214387   2.062   1.200  14.161  2.6398  0.5293  0.5858
    4MPD2    H314388   1.836   1.110  14.125  0.7897  0.7141 -1.1399
    4MPD2     N14389   1.938   0.734  14.360  0.6215 -0.3561 -0.8991
    4MPD2    H514390   2.020   0.696  14.407 -1.6957 -2.5240  1.3926
    4MPD2    N114391   2.272   1.066  14.280 -0.2624  0.6492  0.1402
    4MPD2    H714392   2.336   1.001  14.323 -0.8458  1.7072  2.5780
    5TMC2    C114393   2.294   4.463  14.603 -0.2997  0.4671  0.2125
    5TMC2    C214394   2.354   4.411  14.491  0.1015 -0.8547 -0.4710
    5TMC2    C314395   2.491   4.424  14.490 -0.1621  0.1876 -0.3911
    5TMC2    C414396   2.364   4.511  14.712  0.1704 -0.0955 -0.5070
    5TMC2    C514397   2.495   4.532  14.698  0.1636  0.0104 -0.2242
    5TMC2    C614398   2.562   4.475  14.589 -0.7151  0.8667  0.0636
    5TMC2     C14399   2.166   4.534  14.594  0.7453  0.0928 -0.7223
    5TMC2     O14400   2.172   4.645  14.647 -0.1380 -0.3316 -0.6121
    5TMC2     H14401   2.297   4.355  14.419  2.1414 -1.1044 -1.9029
    5TMC2    H114402   2.314   4.547  14.802  0.7783 -2.1557  0.6572
    5TMC2    H214403   2.668   4.496  14.582 -0.0979 -1.5915  2.1093
    5TMC2    C714404   2.528   4.672  14.734  0.7248 -0.9455 -0.0672
    5TMC2    C814405   2.564   4.364  14.377 -0.5573 -1.0943  0.4856
    5TMC2    O114406   2.644   4.684  14.779  0.4751 -0.1352 -0.4312
    5TMC2    O214407   2.545   4.249  14.348  0.4517  0.3743 -0.4857
    5TMC2    O514408   2.683   4.415  14.370 -0.0249  0.2389  0.6097
    5TMC2    H514409   2.684   4.509  14.398  1.2776 -0.0801  1.6339
    6MPD2     C14410   1.693   4.668  14.450 -0.2796  0.0609  0.3877
    6MPD2    C114411   1.793   0.011  14.514  0.2270  0.1587  0.1995
    6MPD2    C214412   1.909   4.668  14.550  0.1653  0.4411 -0.1174
    6MPD2    C314413   1.935   4.534  14.522 -0.0902  0.2055  0.3883
    6MPD2    C414414   1.825   4.467  14.464  0.2193 -0.6775 -0.0663
    6MPD2    C514415   1.711   4.532  14.411 -0.1051 -0.5785 -1.1951
    6MPD2     H14416   1.991   0.004  14.589  0.0663 -0.5482  1.6169
    6MPD2    H114417   1.839   4.363  14.438 -3.3896 -1.5351  1.6142
    6MPD2    H214418   1.601   4.715  14.418  0.2440 -0.6783 -2.1806
    6MPD2    H314419   1.633   4.465  14.380  0.2294 -1.0319 -1.0522
    6MPD2     N14420   2.062   4.469  14.534  0.2814  0.1731  0.2542
    6MPD2    H514421   2.071   4.372  14.508  0.4193 -0.2232  1.7943
    6MPD2    N114422   1.799   0.146  14.553  0.1923 -0.2153  0.5622
    6MPD2    H714423   1.880   0.182  14.602 -0.8755  0.5755  1.7362
  945NH4     N114424   1.843   1.777   9.469  0.0776 -0.4411  0.2985
  945NH4     H214425   1.767   1.838   9.431 -0.2382 -0.0826  1.5025
  945NH4     H314426   1.868   1.830   9.554 -3.7121 -0.3971  1.4032
  945NH4     H414427   1.927   1.767   9.408 -1.4619  0.0851 -1.9171
  945NH4     H514428   1.794   1.690   9.498 -1.2168  0.2025  0.0523
  946SOD     NA14429   2.653   3.270  10.673 -0.2623  0.0145  0.5672
  947SOD     NA14430   3.911   2.726  15.929  0.2701  0.2828 -0.3233
  948SOD     NA14431   1.694   0.791  10.779 -0.3819  0.4169  0.2079
  949SOD     NA14432   2.346   1.878   2.065  0.4162  0.4508 -0.8626
  950SOD     NA14433   4.355   0.161  15.596 -0.0153  0.0290  0.4521
  951SOD     NA14434   3.695   0.526   1.660  0.1332  0.2215 -0.2924
  952SOD     NA14435   4.714   1.623   2.347  0.0232  0.0564 -0.2697
  953SOD     NA14436   1.591   4.267  10.771 -0.0737  0.4319  0.0729
  954SOD     NA14437   3.236   4.018  11.530  0.0286 -0.3694 -0.1779
  955SOD     NA14438   0.252   3.630  12.877  0.5439 -0.1866 -0.0796
  956SOD     NA14439   3.073   3.283   2.012  0.2085  0.2905  0.2700
  957SOD     NA14440   2.179   1.374   2.227  0.4773  0.3974  0.4084
  958SOD     NA14441   1.975   1.730  15.561 -0.0005  0.1718 -0.0543
  959SOD     NA14442   4.302   4.174  14.705 -0.4312 -0.1289  0.3432
  960SOD     NA14443   3.562   4.082  13.884  0.3698  0.0440  0.3671
  961SOD     NA14444   2.860   1.627  14.082  0.3299 -0.3367 -0.2100
  962SOD     NA14445   1.111   4.174   9.642 -0.1753  0.1961 -0.4003
  963SOD     NA14446   2.071   0.899   1.279 -0.3631 -0.2464 -0.1380
  964SOD     NA14447   0.281   0.278  12.826  0.3340  0.2188  0.2635
  965SOD     NA14448   3.162   1.709  11.665  0.1395 -0.0961  0.2080
  966SOD     NA14449   1.179   3.573   0.457 -0.4327 -0.0193  0.3368
  967SOD     NA14450   2.703   3.571  10.710 -0.5790 -0.1744  0.3205
  968SOD     NA14451   3.280   4.351  11.675 -0.1752 -0.3771 -0.0609
  969SOD     NA14452   1.880   3.760  13.095 -0.4885 -0.4681 -0.3175
  970SOD     NA14453   3.063   4.069  16.766  0.5948 -0.6719  0.5223
  971SOD     NA14454   3.891   4.008  12.033  0.1419 -0.2735  0.1908
  972SOD     NA14455   2.665   0.181  17.056  0.1679 -0.4828  0.2546
  973SOD     NA14456   2.320   4.255   9.334 -0.0168  0.4042 -0.1011
  974SOD     NA14457   2.097   3.000  11.533  0.1494  0.1643  0.1756
  975SOD     NA14458   4.230   1.544  13.374 -0.0098 -0.0945  0.0657
  976SOD     NA14459   3.576   3.951  13.170 -0.1439  0.5003 -0.4641
  977SOD     NA14460   3.528   0.774   6.475 -0.1231  0.4645  0.0344
  978SOD     NA14461   1.883   3.881   1.780 -0.5595  0.1430  0.1235
  979SOD     NA14462   0.203   2.915   0.563  0.4875  0.0143 -0.0942
  980SOD     NA14463   4.555   0.376  17.377 -0.3473 -0.0697  0.1654
  981SOD     NA14464   2.148   2.852   9.312 -0.0888  0.4087 -0.2975
  982SOD     NA14465   3.890   1.561  11.967 -0.6366  0.4284 -0.1766
  983SOD     NA14466   1.437   3.803   8.859  0.3511 -0.7377  0.7830
  984SOD     NA14467   3.615   0.410  15.857 -0.5701 -0.1031 -0.5864
  985SOD     NA14468   2.194   3.052   9.718 -0.6336  0.3053 -0.2531
  986SOD     NA14469   4.400   4.337  14.944  0.2207  0.5579  0.3035
  987SOD     NA14470   2.824   3.390  10.452  0.2109 -0.5228  0.5840
  988SOD     NA14471   4.642   3.742   8.756  0.3310  0.1452 -0.1698
  989SOD     NA14472   4.413   3.333   1.056  0.1040  0.2423 -0.6528
  990SOD     NA14473   4.181   4.560   1.036  0.3228 -0.0254  0.3949
  991SOD     NA14474   4.516   0.621  12.244  0.4941 -0.3047  0.3025
  992SOD     NA14475   0.812   3.519  16.700  0.1684 -0.0461  0.0920
  993SOD     NA14476   2.592   2.418  12.535 -0.0365  0.3708 -0.1481
  994SOD     NA14477   4.395   4.628  13.459  0.0738 -0.2602 -0.0471
  995SOD     NA14478   1.427   3.451  10.729  0.1382  0.1195 -0.8322
  996SOD     NA14479   2.147   3.396  15.051  0.2258  0.3265  0.1249
  997SOD     NA14480   2.443   1.162  10.331  0.6775  0.6275  0.1541
  998SOD     NA14481   1.474   3.508  12.716 -0.0843  0.1479 -0.0480
  999SOD     NA14482   1.392   2.091   7.857 -0.0368  0.1809  0.6755
 1000SOD     NA14483   4.030   1.357  16.478 -0.2468 -0.2588  0.0127
 1001SOD     NA14484   3.390   4.366  13.939  0.0206 -0.0519 -0.2945
 1002SOD     NA14485   2.534   4.523   1.503  0.6190  0.4464  0.0403
 1003SOD     NA14486   0.572   4.536   4.339  0.3000 -0.2040 -0.1840
 1004SOD     NA14487   2.044   4.019   8.573 -0.4209  0.6948  0.2555
 1005SOD     NA14488   3.698   1.134  15.097  0.6453 -0.3022  0.0313
 1006SOD     NA14489   4.253   3.144   0.886  0.0279  0.5004 -0.0005
 1007SOD     NA14490   3.882   0.843   9.199 -0.1034  0.0783  0.0544
 1008SOD     NA14491   0.132   3.879   2.590  0.3380 -0.3282  0.0034
 1009SOD     NA14492   4.494   0.080  11.010 -0.4799  0.3736  0.1305
 1010SOD     NA14493   2.090   3.013  11.063 -0.3787 -0.5345 -0.3461
 1011SOL     OW14494   0.576   1.280  14.374  0.4624  0.0529 -0.3310
 1011SOL    HW114495   0.671   1.289  14.382  0.5703 -0.4983 -0.9522
 1011SOL    HW214496   0.566   1.265  14.280 -0.0950  1.6035 -0.5269
 1012SOL     OW14497   2.874   0.243  15.229 -0.0482  0.5408 -0.0972
 1012SOL    HW114498   2.788   0.232  15.269  0.5003 -1.0964  0.6574
 1012SOL    HW214499   2.922   0.179  15.282 -1.8162  1.8504  3.1028
 1013SOL     OW14500   3.082   1.078  16.467  0.1463 -0.4653 -0.3195
 1013SOL    HW114501   2.996   1.073  16.510  0.0216  2.3529 -0.2655
 1013SOL    HW214502   3.051   1.088  16.377 -0.8059 -0.0834  0.0457
 1014SOL     OW14503   3.313   1.974  11.782 -0.6276  0.2495  0.7202
 1014SOL    HW114504   3.335   1.925  11.702  0.1204  3.1569 -0.8459
 1014SOL    HW214505   3.399   1.975  11.824 -1.0632  0.3065  1.5989
 1015SOL     OW14506   3.794   0.174   8.878  0.4065 -0.8081  0.2885
 1015SOL    HW114507   3.730   0.114   8.915 -3.4117  3.4305  0.5089
 1015SOL    HW214508   3.864   0.116   8.849  0.3797 -0.8065  0.2213
 1016SOL     OW14509   3.044   1.940  15.195 -0.4909  0.1659  0.2789
 1016SOL    HW114510   2.985   2.007  15.160  0.9973  1.1549 -0.3289
 1016SOL    HW214511   3.080   1.973  15.277  0.3247 -0.5961  0.2199
 1017SOL     OW14512   3.509   3.895   4.781  0.0811  0.6705  0.3972
 1017SOL    HW114513   3.478   3.809   4.753 -1.0223  0.9815  0.6806
 1017SOL    HW214514   3.467   3.960   4.724  0.1722  1.3209  1.0756
 1018SOL     OW14515   1.036   3.287  11.003 -0.3916 -0.1673 -0.1641
 1018SOL    HW114516   1.042   3.208  11.057 -0.1472  0.2887  0.4728
 1018SOL    HW214517   1.087   3.266  10.925 -0.0729  2.6460 -0.6913
 1019SOL     OW14518   4.442   2.202   8.135  0.0272  0.3804 -0.4484
 1019SOL    HW114519   4.436   2.180   8.042 -1.6781  0.9912 -0.4984
 1019SOL    HW214520   4.523   2.252   8.128  0.5865 -0.6351 -1.1455
 1020SOL     OW14521   2.789   0.526   6.607  0.9049 -0.0029  0.2332
 1020SOL    HW114522   2.727   0.509   6.678  0.5461 -1.4318 -0.4250
 1020SOL    HW214523   2.808   0.436   6.579  3.2385  1.7108 -3.6725
 1021SOL     OW14524   1.491   0.784   5.215 -0.2023  0.3884  0.2112
 1021SOL    HW114525   1.520   0.748   5.131  2.3426  1.0311  0.7975
 1021SOL    HW214526   1.398   0.789   5.195  0.1073  1.1547 -1.0610
 1022SOL     OW14527   3.177   2.197   4.557  0.1422 -0.0326  0.9031
 1022SOL    HW114528   3.145   2.163   4.474  1.2299  0.9312  0.0901
 1022SOL    HW214529   3.134   2.283   4.557 -0.1189 -0.1717 -0.0639
 1023SOL     OW14530   3.280   1.745   1.191  0.1942 -0.7862  0.2015
 1023SOL    HW114531   3.301   1.772   1.281 -0.4727 -0.9990  0.4251
 1023SOL    HW214532   3.258   1.830   1.152  0.4218 -1.9573 -2.4458
 1024SOL     OW14533   4.089   0.737  10.863  0.1403  0.6682  0.0625
 1024SOL    HW114534   4.157   0.776  10.919  1.5424 -1.5685 -0.0744
 1024SOL    HW214535   4.052   0.674  10.924  1.5219 -1.2232 -1.0413
 1025SOL     OW14536   0.723   1.055   4.867  0.2287  0.1632 -0.1876
 1025SOL    HW114537   0.660   1.089   4.804 -0.8616 -1.7700 -0.1271
 1025SOL    HW214538   0.794   1.119   4.858  0.6301 -0.9869 -5.3631
 1026SOL     OW14539   4.482   4.073  11.549  0.4554  0.3182  0.4335
 1026SOL    HW114540   4.446   4.107  11.467  0.7101 -0.2893  0.0749
 1026SOL    HW214541   4.541   4.006  11.513 -0.6564 -0.6376  0.3967
 1027SOL     OW14542   4.494   4.203   8.286 -0.2529 -0.0814  0.0579
 1027SOL    HW114543   4.566   4.208   8.222  1.4689  0.7301  2.0698
 1027SOL    HW214544   4.552   4.193   8.361 -1.3824 -0.9780  0.7900
 1028SOL     OW14545   0.891   0.207  11.916 -0.4365  0.9197 -0.1760
 1028SOL    HW114546   0.971   0.160  11.893 -1.0298 -0.3595  0.3579
 1028SOL    HW214547   0.861   0.158  11.993 -0.9089  1.2073 -0.1779
 1029SOL     OW14548   0.281   3.590   2.906  0.0761  0.0445  0.1549
 1029SOL    HW114549   0.294   3.534   2.829 -2.0118  2.0540 -1.6668
 1029SOL    HW214550   0.373   3.602   2.929 -0.5316  2.1262  1.4478
 1030SOL     OW14551   3.458   1.892   8.036 -0.5509 -0.0206 -0.3700
 1030SOL    HW114552   3.540   1.875   8.082 -0.1212  1.1949 -0.6756
 1030SOL    HW214553   3.448   1.825   7.969  2.2249 -0.4155 -0.3757
 1031SOL     OW14554   0.307   0.448   5.762  0.0863 -0.1643 -0.5215
 1031SOL    HW114555   0.399   0.468   5.776  0.6741 -1.4585 -2.5298
 1031SOL    HW214556   0.275   0.534   5.789  0.2966 -0.5816  1.0568
 1032SOL     OW14557   1.113   3.812   2.253  0.2542 -0.3365  0.4229
 1032SOL    HW114558   1.175   3.766   2.197  1.1728 -0.0665  1.2284
 1032SOL    HW214559   1.118   3.903   2.222 -0.0431 -1.0624 -1.7559
 1033SOL     OW14560   4.039   4.264   4.624 -0.0696 -0.0522 -0.1636
 1033SOL    HW114561   4.019   4.198   4.557  0.8132 -0.5630  0.0715
 1033SOL    HW214562   4.020   4.209   4.700  0.6539  1.1751  0.9117
 1034SOL     OW14563   4.432   0.274  11.946  0.3707  0.2629  0.3456
 1034SOL    HW114564   4.432   0.367  11.971 -1.8515  0.6634 -1.2354
 1034SOL    HW214565   4.383   0.276  11.864 -0.0652  1.2648  0.6324
 1035SOL     OW14566   0.170   1.723  15.694  0.5685  0.4520  0.3550
 1035SOL    HW114567   0.118   1.701  15.617  1.3778  0.9965 -0.3505
 1035SOL    HW214568   0.247   1.771  15.663 -0.7086  0.3162 -3.0506
 1036SOL     OW14569   4.243   3.271   6.063 -0.2959 -0.6068 -0.2328
 1036SOL    HW114570   4.277   3.303   6.147 -1.9396  0.6414 -0.0179
 1036SOL    HW214571   4.215   3.358   6.033 -1.0177 -0.5578  0.5886
 1037SOL     OW14572   3.923   4.149   6.565  0.4722  0.1306  0.1027
 1037SOL    HW114573   3.956   4.068   6.604 -1.4326 -2.2289 -3.0739
 1037SOL    HW214574   3.836   4.149   6.605 -0.2548  2.5242 -1.4900
 1038SOL     OW14575   3.798   3.769   2.830 -0.2754 -0.3845 -0.3477
 1038SOL    HW114576   3.762   3.680   2.831 -0.1012 -0.4334  1.5997
 1038SOL    HW214577   3.846   3.768   2.747  2.1560 -1.0762  1.0788
 1039SOL     OW14578   2.141   3.422   4.070 -0.1171 -0.0547 -0.0772
 1039SOL    HW114579   2.189   3.417   3.988  0.7664  1.1768  0.3627
 1039SOL    HW214580   2.210   3.389   4.127 -0.5089  0.8638  0.9380
 1040SOL     OW14581   0.947   4.557   2.974  0.7357  0.3223 -0.4066
 1040SOL    HW114582   0.953   4.652   2.983 -1.4595  0.4620 -0.4957
 1040SOL    HW214583   0.921   4.550   2.882 -0.4012 -0.4636 -0.0214
 1041SOL     OW14584   4.509   2.166   1.965  0.0873  0.2853  0.2755
 1041SOL    HW114585   4.483   2.182   2.055  1.9447 -0.2228  0.8906
 1041SOL    HW214586   4.489   2.073   1.950  1.8132 -0.0629  0.0544
 1042SOL     OW14587   2.265   4.041   2.733 -0.6586  0.1012  0.2460
 1042SOL    HW114588   2.194   4.105   2.729 -0.8671 -0.1398  0.1162
 1042SOL    HW214589   2.228   3.959   2.765 -0.5926  0.6108  1.6389
 1043SOL     OW14590   2.821   0.849   7.126 -0.0079 -0.1196  0.2863
 1043SOL    HW114591   2.842   0.937   7.157  2.2325 -0.2697 -0.7474
 1043SOL    HW214592   2.758   0.870   7.057 -1.1378 -1.1870  0.9936
 1044SOL     OW14593   3.113   2.156  11.717 -0.7315 -0.4869 -0.3573
 1044SOL    HW114594   3.048   2.096  11.681 -0.0870 -2.3548  1.5876
 1044SOL    HW214595   3.178   2.088  11.735 -0.1795  0.2077  0.2920
 1045SOL     OW14596   1.476   0.399  11.268  0.7631 -0.1819  0.3205
 1045SOL    HW114597   1.447   0.369  11.182 -0.7791  1.7241  0.1894
 1045SOL    HW214598   1.399   0.389  11.323  1.0358 -3.7843  0.0465
 1046SOL     OW14599   2.165   2.658  13.441 -0.3621  0.0556 -0.4661
 1046SOL    HW114600   2.103   2.656  13.369  1.5796  0.3011 -2.1392
 1046SOL    HW214601   2.111   2.685  13.515  0.6722 -3.4185  1.5723
 1047SOL     OW14602   3.536   3.849  14.361  0.3682 -0.4835 -0.5478
 1047SOL    HW114603   3.506   3.939  14.365 -0.2010 -0.9017  4.0262
 1047SOL    HW214604   3.564   3.841  14.270 -1.2042  2.2140 -1.2477
 1048SOL     OW14605   1.591   0.164   4.538  0.0908  0.9780 -0.6757
 1048SOL    HW114606   1.607   0.081   4.582  0.6085  2.0924  1.2352
 1048SOL    HW214607   1.533   0.211   4.597  1.3895  0.5631  0.9067
 1049SOL     OW14608   0.481   0.145  15.058  0.4516  0.4542 -0.0727
 1049SOL    HW114609   0.397   0.123  15.018  0.4963 -0.5733  0.4156
 1049SOL    HW214610   0.532   0.161  14.978  0.4236  0.8743 -0.0071
 1050SOL     OW14611   3.214   2.763   4.758  0.4745 -0.5957  0.5484
 1050SOL    HW114612   3.151   2.716   4.812 -0.2422 -1.6173 -1.1516
 1050SOL    HW214613   3.262   2.828   4.809  0.5696  0.0384 -0.3420
 1051SOL     OW14614   1.593   0.085   8.627 -0.4603 -0.2494  0.2316
 1051SOL    HW114615   1.657   0.126   8.569 -0.0710  1.8317  2.1496
 1051SOL    HW214616   1.604   0.123   8.714  0.8824  2.0072 -0.9311
 1052SOL     OW14617   1.379   4.222   6.738  0.3855  0.5038 -0.5460
 1052SOL    HW114618   1.384   4.252   6.829 -0.6120  0.4299 -0.4689
 1052SOL    HW214619   1.325   4.291   6.700 -0.2720  0.0077 -0.5064
 1053SOL     OW14620   4.643   1.364   6.785 -0.1789  0.1015 -0.5686
 1053SOL    HW114621   4.587   1.360   6.862 -0.9388 -1.0132 -1.1873
 1053SOL    HW214622   4.723   1.394   6.829 -0.1560 -0.3843 -0.2804
 1054SOL     OW14623   0.815   2.049   4.974  0.2648  0.2444 -0.2423
 1054SOL    HW114624   0.771   2.129   5.004 -0.4135  0.1080 -0.8731
 1054SOL    HW214625   0.891   2.088   4.932  0.8316  1.1822  1.6473
 1055SOL     OW14626   1.869   1.152  11.830 -0.2116  0.4494  0.3508
 1055SOL    HW114627   1.947   1.112  11.869 -0.6919 -0.5512  0.3025
 1055SOL    HW214628   1.799   1.142  11.895 -2.1623 -0.9324 -1.9132
 1056SOL     OW14629   2.067   0.770   4.390 -0.2227  0.1458  0.2993
 1056SOL    HW114630   2.066   0.803   4.300  1.8717  1.4148  0.7318
 1056SOL    HW214631   2.085   0.679   4.368 -0.0751  0.9005 -2.7131
 1057SOL     OW14632   1.726   0.152  11.417 -0.2398 -0.3643 -0.4233
 1057SOL    HW114633   1.760   0.132  11.504  0.1836 -2.3898 -1.0510
 1057SOL    HW214634   1.689   0.068  11.390 -1.2940  0.3019 -1.0199
 1058SOL     OW14635   3.633   1.976  14.907  0.0645  0.4471  0.0029
 1058SOL    HW114636   3.539   1.996  14.903  0.8676  4.3595  1.2696
 1058SOL    HW214637   3.634   1.880  14.909  0.8024  0.4956  2.3904
 1059SOL     OW14638   1.133   3.246   4.729  0.6535 -0.4112 -0.0092
 1059SOL    HW114639   1.202   3.195   4.685 -0.8505 -2.0464 -0.4689
 1059SOL    HW214640   1.097   3.291   4.653 -1.7135  0.7964  1.8678
 1060SOL     OW14641   0.787   2.039   5.739  0.3088  0.2752  0.5459
 1060SOL    HW114642   0.712   2.072   5.789 -0.1789  0.4476 -0.2974
 1060SOL    HW214643   0.826   1.991   5.811 -0.5456 -0.0185  0.8099
 1061SOL     OW14644   3.973   0.155  15.777 -0.3095 -0.1196  0.0120
 1061SOL    HW114645   4.052   0.122  15.820  0.5960 -1.3766 -2.5875
 1061SOL    HW214646   3.986   0.249  15.787 -2.5307 -0.0638  2.2319
 1062SOL     OW14647   2.470   0.229   4.719  0.0262 -0.3213  0.0019
 1062SOL    HW114648   2.455   0.140   4.687  2.6770 -1.6999  2.4974
 1062SOL    HW214649   2.562   0.221   4.746  0.7006  0.3294 -2.1060
 1063SOL     OW14650   1.688   3.262  13.107 -0.0013  0.5911  0.1816
 1063SOL    HW114651   1.734   3.268  13.023  0.7348 -1.5105  0.4305
 1063SOL    HW214652   1.687   3.353  13.137  0.8253  0.8263 -0.4854
 1064SOL     OW14653   1.817   3.155   8.799  0.5516  0.6719  0.1972
 1064SOL    HW114654   1.907   3.127   8.783 -0.3310 -0.7897 -2.1914
 1064SOL    HW214655   1.789   3.085   8.857 -0.2397  0.7821 -0.0453
 1065SOL     OW14656   3.155   1.991   5.223  0.9607 -0.3379  0.0204
 1065SOL    HW114657   3.233   2.009   5.274  0.5536  0.1556  0.4734
 1065SOL    HW214658   3.192   1.924   5.165 -0.2514 -2.0742  1.2743
 1066SOL     OW14659   3.535   3.719   3.461 -0.1529  0.0598  0.2124
 1066SOL    HW114660   3.602   3.773   3.502 -0.6201 -0.3427  1.5101
 1066SOL    HW214661   3.536   3.645   3.522 -0.2372 -0.2585 -0.1673
 1067SOL     OW14662   4.475   1.325   3.220 -0.6015 -0.5803  0.0216
 1067SOL    HW114663   4.449   1.298   3.132  2.0441  0.6227 -1.1316
 1067SOL    HW214664   4.551   1.381   3.203 -0.7726 -0.0622  0.9534
 1068SOL     OW14665   1.588   0.711   8.558  0.5142 -0.0715  0.0828
 1068SOL    HW114666   1.567   0.749   8.472  0.6853 -0.7291 -0.2491
 1068SOL    HW214667   1.656   0.767   8.596 -0.2568  2.2237 -1.9050
 1069SOL     OW14668   4.179   2.788   2.599 -0.8548 -0.5498  0.6358
 1069SOL    HW114669   4.266   2.791   2.559  0.4591 -0.6573  3.4472
 1069SOL    HW214670   4.146   2.704   2.568  0.5776 -1.0996  0.6206
 1070SOL     OW14671   3.250   3.759   6.945 -0.3378 -0.6224 -0.2072
 1070SOL    HW114672   3.317   3.807   6.896  1.1229  0.8984  3.2799
 1070SOL    HW214673   3.296   3.676   6.936  1.0985  0.3420 -1.8785
 1071SOL     OW14674   1.271   2.331   4.738  0.5415  0.3614  0.5176
 1071SOL    HW114675   1.214   2.396   4.698 -0.3139 -2.1856 -2.3211
 1071SOL    HW214676   1.316   2.296   4.661 -1.9486  1.1097 -1.2533
 1072SOL     OW14677   2.835   4.274   1.176  0.0806 -0.4948  0.1660
 1072SOL    HW114678   2.773   4.220   1.127 -0.2211  0.2805 -0.3042
 1072SOL    HW214679   2.853   4.215   1.249  0.0156 -0.5574  0.1314
 1073SOL     OW14680   1.330   2.267  17.507 -0.6862 -0.0545  0.5029
 1073SOL    HW114681   1.257   2.204  17.512  0.9715 -1.9539  0.6130
 1073SOL    HW214682   1.362   2.245  17.595 -0.1268  2.4408  0.9144
 1074SOL     OW14683   4.440   4.345  12.484 -0.1337  0.1968  0.4854
 1074SOL    HW114684   4.370   4.286  12.457  1.8191 -1.8620 -0.1920
 1074SOL    HW214685   4.398   4.430  12.494  1.9716  1.2109  0.8694
 1075SOL     OW14686   4.017   1.550   5.725  0.2335 -0.4074  0.1460
 1075SOL    HW114687   4.042   1.629   5.773 -0.6328  0.3118 -0.5958
 1075SOL    HW214688   3.944   1.589   5.677  0.0838  0.1536  0.8279
 1076SOL     OW14689   4.154   2.972  14.058  0.4530  0.4820 -0.4896
 1076SOL    HW114690   4.179   2.899  14.115 -2.1407  0.1085  0.1824
 1076SOL    HW214691   4.211   3.041  14.092  1.6626 -1.2045  0.9432
 1077SOL     OW14692   2.362   1.227   4.090  0.4832 -0.3608  0.6640
 1077SOL    HW114693   2.357   1.132   4.091  1.9743 -0.3959  4.1789
 1077SOL    HW214694   2.389   1.246   4.000  0.0149 -2.1591  0.1551
 1078SOL     OW14695   0.750   2.643   9.529 -0.1725  0.4777  0.5012
 1078SOL    HW114696   0.791   2.709   9.585 -1.4831  1.2390  0.5618
 1078SOL    HW214697   0.677   2.625   9.588  1.1155  1.2733  2.3414
 1079SOL     OW14698   1.791   2.379   4.801  0.0345 -0.1287  0.2511
 1079SOL    HW114699   1.881   2.362   4.829  0.4519  0.6720 -0.5858
 1079SOL    HW214700   1.771   2.452   4.860  1.3203 -0.1199  0.6805
 1080SOL     OW14701   2.131   3.103   1.368 -0.0885 -0.4003  0.0888
 1080SOL    HW114702   2.159   3.185   1.327 -0.3400  0.9505  2.6150
 1080SOL    HW214703   2.078   3.069   1.296  0.1107 -0.9147  0.1898
 1081SOL     OW14704   3.783   3.897   4.750 -0.1885  0.1678  0.0524
 1081SOL    HW114705   3.795   3.802   4.748 -1.5266 -0.0235  0.9624
 1081SOL    HW214706   3.688   3.907   4.758 -0.4718 -2.0665 -0.2853
 1082SOL     OW14707   0.050   0.927   3.970 -0.4114  0.1593 -0.5122
 1082SOL    HW114708   0.116   0.954   3.906  1.7797 -0.7202  1.3912
 1082SOL    HW214709   4.720   1.006   3.963 -0.5365  0.0920 -0.2963
 1083SOL     OW14710   1.382   0.460   8.174  0.1220 -0.0377 -0.3006
 1083SOL    HW114711   1.369   0.403   8.098  0.6351 -0.4396 -0.0894
 1083SOL    HW214712   1.296   0.501   8.185  0.1134 -0.6808  2.1292
 1084SOL     OW14713   0.423   3.312   8.919  0.5402 -0.8035  0.1530
 1084SOL    HW114714   0.363   3.275   8.985 -2.2013  1.0922 -1.2657
 1084SOL    HW214715   0.437   3.400   8.954  2.4967 -1.4938  1.0943
 1085SOL     OW14716   0.151   2.408  10.904 -0.3196 -0.9546 -0.2895
 1085SOL    HW114717   0.160   2.461  10.825  0.9755  1.0596  1.1911
 1085SOL    HW214718   0.077   2.351  10.885 -0.9162 -0.0382 -0.7107
 1086SOL     OW14719   3.224   2.331   2.542  0.1759  0.0991 -0.4281
 1086SOL    HW114720   3.156   2.397   2.555 -0.7271 -1.0141  0.4494
 1086SOL    HW214721   3.234   2.326   2.447  1.5317 -0.6338 -0.2457
 1087SOL     OW14722   3.627   1.196   4.962  0.0286  0.3980  0.5470
 1087SOL    HW114723   3.693   1.240   4.909  1.5015 -2.4101  0.0018
 1087SOL    HW214724   3.655   1.105   4.973  0.1594  0.2984 -0.5964
 1088SOL     OW14725   1.835   4.065   7.309 -0.3384 -0.6001 -0.0534
 1088SOL    HW114726   1.897   4.129   7.345 -1.1892 -1.9495  3.8320
 1088SOL    HW214727   1.836   4.091   7.217  0.3004  0.3210  0.2090
 1089SOL     OW14728   1.301   1.790   2.123  0.5109  0.4638  0.4050
 1089SOL    HW114729   1.236   1.791   2.193  0.9812 -1.5478  0.8599
 1089SOL    HW214730   1.289   1.879   2.088 -1.9121 -0.6991 -1.7192
 1090SOL     OW14731   0.700   3.269   0.976  0.3198  0.2196  0.5711
 1090SOL    HW114732   0.761   3.255   0.903  0.7379  1.5813  0.6524
 1090SOL    HW214733   0.622   3.266   0.922  1.3423 -0.4087 -0.8700
 1091SOL     OW14734   3.420   4.368   7.133  1.2256 -0.1202 -0.1885
 1091SOL    HW114735   3.446   4.358   7.041 -0.1604 -1.2445 -0.4482
 1091SOL    HW214736   3.395   4.461   7.139  0.6526 -0.3435  0.7664
 1092SOL     OW14737   1.526   2.290   8.188 -0.6866 -0.2270  0.0514
 1092SOL    HW114738   1.463   2.337   8.242 -1.2419 -0.9328  0.0235
 1092SOL    HW214739   1.530   2.351   8.114  2.0860 -0.9018 -0.3543
 1093SOL     OW14740   1.012   2.872   8.785  0.0601 -0.3590 -0.2618
 1093SOL    HW114741   0.998   2.777   8.780  0.9210 -0.5439  0.7506
 1093SOL    HW214742   1.088   2.870   8.844 -0.6385 -1.8155  0.5938
 1094SOL     OW14743   4.489   3.079   3.928  0.1566 -0.2199 -0.2321
 1094SOL    HW114744   4.517   3.021   3.999  1.7820  2.6702  1.4453
 1094SOL    HW214745   4.395   3.088   3.945  0.4178 -2.3576  2.3636
 1095SOL     OW14746   3.164   1.109   4.727 -0.3966  0.9933  0.4085
 1095SOL    HW114747   3.227   1.091   4.658 -0.0196  2.3417  0.4175
 1095SOL    HW214748   3.218   1.088   4.803  0.4675 -0.0532 -0.5041
 1096SOL     OW14749   3.672   1.677   4.634 -0.0112 -0.1868  0.3554
 1096SOL    HW114750   3.677   1.767   4.664  2.5292  0.2410 -1.3094
 1096SOL    HW214751   3.605   1.677   4.565 -1.6668  1.6353  1.9541
 1097SOL     OW14752   0.984   2.295   6.017  0.1140 -0.8514  0.0612
 1097SOL    HW114753   0.983   2.303   6.113 -0.9381  0.4735 -0.0671
 1097SOL    HW214754   1.076   2.285   5.993 -0.2118 -0.8088 -1.2218
 1098SOL     OW14755   2.137   3.056   9.937 -0.1353  0.0009  0.0596
 1098SOL    HW114756   2.167   2.993  10.003 -2.3997 -1.1115  0.0218
 1098SOL    HW214757   2.142   3.144   9.973  1.3479  0.0773 -0.3065
 1099SOL     OW14758   1.822   3.382   8.009  0.0453 -0.1883  0.2079
 1099SOL    HW114759   1.876   3.381   8.089 -2.0567  2.2655  1.6380
 1099SOL    HW214760   1.882   3.333   7.953  2.2217  0.9770  1.5144
 1100SOL     OW14761   3.075   2.674   1.766  0.3692 -0.2708 -0.4271
 1100SOL    HW114762   3.043   2.648   1.852 -1.1177  0.0485 -0.8834
 1100SOL    HW214763   3.002   2.721   1.727  0.9929  0.1009 -1.1520
 1101SOL     OW14764   3.376   4.454   2.802  0.2569 -0.0451 -0.0768
 1101SOL    HW114765   3.468   4.455   2.829  0.4368 -0.9056 -0.6273
 1101SOL    HW214766   3.365   4.547   2.786 -1.7437 -0.2002  0.3611
 1102SOL     OW14767   0.998   2.269   1.838 -0.0138  0.1800 -0.7133
 1102SOL    HW114768   1.081   2.304   1.806 -0.3717  1.1724 -0.5513
 1102SOL    HW214769   0.995   2.176   1.817  0.7198 -0.3822  1.6229
 1103SOL     OW14770   1.131   1.554  15.162  0.2256  0.5591 -0.0063
 1103SOL    HW114771   1.036   1.559  15.172  0.0623 -1.2543 -0.6917
 1103SOL    HW214772   1.160   1.636  15.201  0.4554  1.1205 -1.3588
 1104SOL     OW14773   0.956   3.212  13.488 -0.1006  0.0471 -0.3456
 1104SOL    HW114774   0.881   3.162  13.519  0.6687 -1.7043 -1.3106
 1104SOL    HW214775   1.017   3.207  13.562 -1.2424  1.1105  0.6467
 1105SOL     OW14776   1.660   2.794   8.487 -0.1425 -0.3419 -0.4921
 1105SOL    HW114777   1.565   2.806   8.493 -0.0284  0.1273  0.3283
 1105SOL    HW214778   1.661   2.701   8.466 -1.0377 -0.1126 -1.5646
 1106SOL     OW14779   1.860   2.145   4.472  0.5062 -0.4796 -0.0529
 1106SOL    HW114780   1.908   2.109   4.397  1.7168 -1.8952  1.4173
 1106SOL    HW214781   1.913   2.123   4.548  2.8411  1.8420 -1.0190
 1107SOL     OW14782   3.666   3.345   4.278  0.1169  0.0325  0.2529
 1107SOL    HW114783   3.673   3.400   4.356  0.2019  1.9628 -1.1134
 1107SOL    HW214784   3.760   3.334   4.260  0.2482  0.1058  0.9049
 1108SOL     OW14785   1.133   2.459   2.591  0.5847 -0.3446 -0.3637
 1108SOL    HW114786   1.072   2.476   2.663  1.9471  0.2006  0.6623
 1108SOL    HW214787   1.192   2.401   2.640 -0.8140 -3.3303 -2.2727
 1109SOL     OW14788   3.102   0.997  13.175 -0.1482  0.1235 -0.1955
 1109SOL    HW114789   3.075   0.932  13.240  0.6656 -0.0379 -0.0167
 1109SOL    HW214790   3.095   1.073  13.234 -1.7589 -1.2213  1.3497
 1110SOL     OW14791   3.460   3.536   2.063 -0.3607 -0.5976 -0.3704
 1110SOL    HW114792   3.431   3.594   1.993 -0.1210 -1.4544 -1.1750
 1110SOL    HW214793   3.426   3.581   2.141 -0.5031 -0.6884 -0.3796
 1111SOL     OW14794   0.798   2.603   1.295  0.1123 -0.2241 -0.0790
 1111SOL    HW114795   0.722   2.546   1.307  1.1232 -0.9727  2.7224
 1111SOL    HW214796   0.854   2.542   1.246 -1.6775 -0.6113 -1.6254
 1112SOL     OW14797   0.144   0.908   2.491 -0.0828 -0.7983  0.1499
 1112SOL    HW114798   0.112   0.924   2.403  1.4449 -1.7810 -0.5790
 1112SOL    HW214799   0.088   0.961   2.548 -1.5643 -2.0985 -0.0941
 1113SOL     OW14800   0.557   1.032   2.668  0.6506 -0.0512 -0.4282
 1113SOL    HW114801   0.553   0.936   2.667 -0.8394  0.0100 -1.4734
 1113SOL    HW214802   0.508   1.061   2.591  0.7332  0.1194 -0.4148
 1114SOL     OW14803   2.825   0.324   1.809  0.4886  0.4338  0.7771
 1114SOL    HW114804   2.789   0.247   1.853 -0.2767  0.4631  0.2122
 1114SOL    HW214805   2.757   0.390   1.820 -0.3000 -0.2286 -0.0339
 1115SOL     OW14806   4.350   1.897  16.922  0.2443 -0.1043 -0.8326
 1115SOL    HW114807   4.438   1.927  16.947 -0.7481  1.9770  0.1590
 1115SOL    HW214808   4.343   1.811  16.964 -1.3378  0.5534  0.2145
 1116SOL     OW14809   1.513   2.692  10.245  0.6865 -0.0962  0.2537
 1116SOL    HW114810   1.561   2.609  10.241 -0.4507 -0.8034  1.5209
 1116SOL    HW214811   1.480   2.667  10.331  3.1096 -1.2117  0.8718
 1117SOL     OW14812   1.275   2.415   3.285  0.1898  0.0917 -0.0372
 1117SOL    HW114813   1.238   2.328   3.301 -1.4688  0.8283  0.1532
 1117SOL    HW214814   1.299   2.436   3.376  2.7658 -1.0952 -0.4613
 1118SOL     OW14815   4.328   1.808  12.703  0.6253 -0.2829 -0.1548
 1118SOL    HW114816   4.349   1.762  12.621 -1.3396  0.7748 -1.2620
 1118SOL    HW214817   4.329   1.898  12.672 -1.8290 -0.2324 -0.1041
 1119SOL     OW14818   4.697   2.267  14.105 -0.4459 -0.7848  0.3117
 1119SOL    HW114819   0.029   2.227  14.038 -2.0449  1.0144 -2.0960
 1119SOL    HW214820   0.027   2.338  14.141  0.2363 -0.1266 -1.9878
 1120SOL     OW14821   1.590   4.675   0.917  0.0637 -0.6938 -0.8894
 1120SOL    HW114822   1.562   4.658   0.827  1.3199  0.9360 -1.5903
 1120SOL    HW214823   1.563   4.593   0.960 -0.8211  0.0019 -0.1215
 1121SOL     OW14824   2.591   1.140   3.653  0.5806 -0.3004 -0.4501
 1121SOL    HW114825   2.505   1.132   3.611 -0.5790  1.5644  1.5695
 1121SOL    HW214826   2.598   1.231   3.682  0.1702 -0.7199  0.9492
 1122SOL     OW14827   3.542   4.305   3.708  0.3709 -0.1325  0.0532
 1122SOL    HW114828   3.567   4.376   3.768  1.2186 -0.2902 -0.1132
 1122SOL    HW214829   3.623   4.257   3.689  0.9044 -0.1431  2.3443
 1123SOL     OW14830   0.243   1.364   7.470 -0.2465  0.5892  0.0028
 1123SOL    HW114831   0.158   1.396   7.500 -1.0319 -0.5146 -1.0380
 1123SOL    HW214832   0.271   1.295   7.530  2.0022  1.6523  0.1731
 1124SOL     OW14833   2.160   0.225   8.663 -0.2506  0.1084  0.1847
 1124SOL    HW114834   2.220   0.195   8.731  2.3602  1.6600 -1.4208
 1124SOL    HW214835   2.129   0.308   8.700  3.0927  1.2317  0.4820
 1125SOL     OW14836   1.862   4.146   5.285 -0.2999 -0.2057  0.1066
 1125SOL    HW114837   1.869   4.159   5.379  0.7419  0.4625 -0.0604
 1125SOL    HW214838   1.773   4.113   5.273  1.1503 -3.7248 -0.9590
 1126SOL     OW14839   0.176   2.666   8.889 -0.0938  0.4791  0.1002
 1126SOL    HW114840   0.151   2.747   8.845 -1.6434  0.5510  1.1442
 1126SOL    HW214841   0.089   2.631   8.907  0.3312 -0.7998 -0.2951
 1127SOL     OW14842   2.174   2.659   8.198  0.5693  0.4177 -0.0595
 1127SOL    HW114843   2.164   2.738   8.251 -1.7894  0.5641 -0.7091
 1127SOL    HW214844   2.179   2.587   8.261 -1.1697  0.0451 -0.3398
 1128SOL     OW14845   3.838   1.560  10.514  0.0917  0.1851  0.3901
 1128SOL    HW114846   3.832   1.474  10.471 -1.5221  0.7621 -0.5246
 1128SOL    HW214847   3.773   1.610  10.465  0.2176  0.1906  0.2246
 1129SOL     OW14848   0.872   3.730   6.323  0.0405 -0.0087  0.2649
 1129SOL    HW114849   0.831   3.658   6.370 -0.1529 -0.6888 -0.9563
 1129SOL    HW214850   0.953   3.744   6.372 -1.2275 -0.4519  2.4898
 1130SOL     OW14851   2.897   2.374   6.692  0.1648 -0.3539 -0.3611
 1130SOL    HW114852   2.956   2.427   6.638  2.8106 -2.4193  0.5293
 1130SOL    HW214853   2.809   2.394   6.659  0.2014 -1.0950 -0.9299
 1131SOL     OW14854   3.830   3.377  12.821  0.4338  0.0402 -0.0905
 1131SOL    HW114855   3.905   3.432  12.799  0.1218 -0.1081 -1.5368
 1131SOL    HW214856   3.774   3.422  12.758  0.2263 -0.5847 -0.3524
 1132SOL     OW14857   2.853   4.281   6.970  0.2202  0.3396  0.7535
 1132SOL    HW114858   2.840   4.189   6.993  0.7332  0.0208 -0.2508
 1132SOL    HW214859   2.796   4.326   7.034 -1.6740 -0.5268 -0.3138
 1133SOL     OW14860   1.326   1.746   7.178 -0.4477 -0.2962 -0.9417
 1133SOL    HW114861   1.366   1.736   7.092 -0.4941  1.8654 -1.2090
 1133SOL    HW214862   1.255   1.684   7.162 -0.4195 -0.5636 -0.0216
 1134SOL     OW14863   0.095   0.858   5.169 -0.5716  0.6415  0.0642
 1134SOL    HW114864   0.129   0.945   5.146 -0.3424  0.7542  0.8514
 1134SOL    HW214865   0.039   0.863   5.246  1.0215 -0.9038  1.2947
 1135SOL     OW14866   4.038   2.770   2.890  1.1065 -0.2407  0.0413
 1135SOL    HW114867   4.064   2.681   2.866 -2.2973 -0.8822 -1.3318
 1135SOL    HW214868   4.017   2.765   2.983  1.8418  0.2852  0.2317
 1136SOL     OW14869   3.308   0.432   7.335  0.0656  0.3761 -0.0714
 1136SOL    HW114870   3.288   0.482   7.256  2.8463  1.4182 -0.1251
 1136SOL    HW214871   3.401   0.409   7.324 -0.2931 -1.3400  0.4004
 1137SOL     OW14872   3.894   3.006   8.035  0.0618  0.2901  0.0491
 1137SOL    HW114873   3.970   3.051   7.999 -0.9371  1.6240 -0.3750
 1137SOL    HW214874   3.874   3.065   8.107  0.8169 -0.9252  1.2610
 1138SOL     OW14875   3.981   3.812  12.075 -0.2344  0.2592 -0.0233
 1138SOL    HW114876   4.044   3.793  12.145 -0.3602 -1.6065 -0.4255
 1138SOL    HW214877   4.004   3.752  12.004 -0.2550 -2.5774  2.3566
 1139SOL     OW14878   1.193   3.635   1.697 -0.4048  0.7174 -0.1446
 1139SOL    HW114879   1.275   3.599   1.730 -1.4733  0.0989  1.8379
 1139SOL    HW214880   1.202   3.730   1.702  0.1006  0.7249 -1.1269
 1140SOL     OW14881   4.457   1.536   4.786 -0.6930  0.2024 -0.4342
 1140SOL    HW114882   4.451   1.518   4.880  0.4155 -4.2256 -1.2083
 1140SOL    HW214883   4.370   1.576   4.786  0.5476  2.9305  1.8574
 1141SOL     OW14884   2.318   3.433  13.128  0.0356 -0.3675  0.2618
 1141SOL    HW114885   2.381   3.490  13.085 -1.0590  0.9888  0.4690
 1141SOL    HW214886   2.242   3.455  13.074 -0.2725 -2.8780 -0.3215
 1142SOL     OW14887   3.588   0.760   1.447  0.3420  0.0150  0.9468
 1142SOL    HW114888   3.538   0.791   1.523  2.9252  2.9690  1.4588
 1142SOL    HW214889   3.675   0.743   1.482  0.8522  1.1140  0.2347
 1143SOL     OW14890   2.097   1.179   0.919  0.1671  0.0227 -0.0792
 1143SOL    HW114891   2.038   1.253   0.933 -0.8529 -0.7351 -0.4086
 1143SOL    HW214892   2.058   1.101   0.956 -0.0482 -0.0800 -0.5232
 1144SOL     OW14893   3.674   2.886  17.381  0.4171 -0.2789 -0.2358
 1144SOL    HW114894   3.711   2.797  17.378 -1.2750 -0.9414 -1.4462
 1144SOL    HW214895   3.627   2.894  17.464  0.7802 -0.7125  0.0134
 1145SOL     OW14896   3.816   4.080   0.649  0.5364 -0.0066  0.0098
 1145SOL    HW114897   3.804   4.073   0.743  0.0392 -1.8156 -0.1793
 1145SOL    HW214898   3.875   4.008   0.626  1.8976  0.7503  1.1935
 1146SOL     OW14899   3.841   1.630   0.249 -0.1182 -0.2206  0.5092
 1146SOL    HW114900   3.753   1.665   0.233  0.3943  1.9661  2.4588
 1146SOL    HW214901   3.893   1.688   0.194  0.8985 -0.9934  0.6592
 1147SOL     OW14902   4.565   2.704  12.715  0.7493  0.1120  0.5037
 1147SOL    HW114903   4.612   2.720  12.797  3.8810 -1.2739 -0.9951
 1147SOL    HW214904   4.500   2.772  12.699  1.0862 -0.2950 -2.5306
 1148SOL     OW14905   1.606   1.771   6.776 -0.1624  0.9058  0.1416
 1148SOL    HW114906   1.662   1.741   6.847 -0.1011  0.5853 -0.0399
 1148SOL    HW214907   1.655   1.735   6.701 -1.3995 -0.4120 -0.0218
 1149SOL     OW14908   0.167   2.754   5.582 -0.4113 -0.3701  0.3265
 1149SOL    HW114909   0.156   2.680   5.641 -0.6818 -0.0513  0.6808
 1149SOL    HW214910   0.169   2.705   5.500 -3.6145 -1.7236  1.0318
 1150SOL     OW14911   2.213   0.409  15.675  0.1901 -0.1168 -0.4787
 1150SOL    HW114912   2.212   0.480  15.739 -0.9449 -0.4080 -0.1710
 1150SOL    HW214913   2.126   0.408  15.635 -0.8669  0.1277  1.8053
 1151SOL     OW14914   0.571   4.434   5.979  0.2147 -0.1341 -0.5962
 1151SOL    HW114915   0.628   4.505   5.951 -0.3247  0.2447 -0.7360
 1151SOL    HW214916   0.545   4.460   6.068  1.7478  0.1650 -0.2311
 1152SOL     OW14917   0.496   4.136   8.381 -0.5331 -0.0243 -0.5268
 1152SOL    HW114918   0.574   4.178   8.418  0.1989  0.2185 -2.3473
 1152SOL    HW214919   0.512   4.047   8.411  3.1878  0.9842  0.4749
 1153SOL     OW14920   0.566   1.578  16.049 -0.2104  0.0152  0.5085
 1153SOL    HW114921   0.651   1.586  16.092  0.2605  2.4829 -0.8888
 1153SOL    HW214922   0.573   1.483  16.043  1.3979  0.3294 -2.3777
 1154SOL     OW14923   4.718   3.663   7.605 -0.3060  0.3597 -0.2113
 1154SOL    HW114924   4.707   3.619   7.689  2.1328 -0.4008 -0.2894
 1154SOL    HW214925   4.644   3.723   7.609 -1.3499 -0.9491  0.1517
 1155SOL     OW14926   1.262   0.672  10.605 -0.5006  0.2255 -0.2597
 1155SOL    HW114927   1.337   0.649  10.551  0.5882  0.1915  1.2377
 1155SOL    HW214928   1.239   0.760  10.574 -3.3914  0.0587  1.3863
 1156SOL     OW14929   3.016   4.162  14.098 -0.2865 -0.4082  0.1460
 1156SOL    HW114930   2.973   4.140  14.181  1.5239 -2.0228  0.6351
 1156SOL    HW214931   2.938   4.182  14.046 -0.5110 -4.1017 -0.9193
 1157SOL     OW14932   3.058   1.074   3.613 -0.2773  0.5010  0.4282
 1157SOL    HW114933   3.141   1.122   3.622 -2.1420  3.7978  0.0223
 1157SOL    HW214934   3.008   1.097   3.692  1.0943  1.3769  1.0544
 1158SOL     OW14935   1.846   4.532   3.619 -0.3246 -0.0831 -0.9589
 1158SOL    HW114936   1.911   4.575   3.674 -0.9239  0.4039 -0.6323
 1158SOL    HW214937   1.846   4.591   3.543  1.5853  1.5072  0.2779
 1159SOL     OW14938   3.194   1.300   5.447 -0.4928  0.0080 -0.7362
 1159SOL    HW114939   3.226   1.251   5.523  0.2713  0.6775 -0.6279
 1159SOL    HW214940   3.182   1.236   5.377 -0.1060 -2.0310  1.0792
 1160SOL     OW14941   2.348   2.831   8.324  0.0795 -0.2886 -0.5453
 1160SOL    HW114942   2.394   2.899   8.275  1.3327 -1.6350 -1.2303
 1160SOL    HW214943   2.416   2.802   8.386  1.0953  0.9118 -1.0913
 1161SOL     OW14944   4.262   4.630   2.797 -0.2953 -0.1338  0.2430
 1161SOL    HW114945   4.183   4.674   2.829 -0.0790  0.4373 -0.0073
 1161SOL    HW214946   4.293   4.689   2.728  0.2101 -1.1867 -0.4304
 1162SOL     OW14947   4.489   0.030   5.722  0.5019 -0.2261  0.1062
 1162SOL    HW114948   4.425   0.101   5.729 -0.6765 -1.3955  1.2344
 1162SOL    HW214949   4.440   4.674   5.701  1.8023 -0.9466 -0.2117
 1163SOL     OW14950   3.969   2.758  16.441 -0.1304 -0.2384 -0.0462
 1163SOL    HW114951   3.878   2.789  16.441 -0.3793 -0.9513  0.9779
 1163SOL    HW214952   3.971   2.713  16.526  1.4173 -1.0816 -0.5398
 1164SOL     OW14953   0.530   3.629   9.334  0.3971 -0.5784  0.5848
 1164SOL    HW114954   0.458   3.686   9.361 -0.1106 -1.7373  1.7306
 1164SOL    HW214955   0.519   3.547   9.383 -0.7237 -1.5255 -1.2382
 1165SOL     OW14956   4.656   1.435   7.186 -0.4417  0.7474 -0.4053
 1165SOL    HW114957   4.722   1.370   7.211 -0.2144  0.8891 -0.6364
 1165SOL    HW214958   4.670   1.490   7.263  0.5614 -0.7904  0.5143
 1166SOL     OW14959   3.349   2.001   4.607 -0.2765 -0.2059  0.8432
 1166SOL    HW114960   3.299   2.069   4.562 -2.0201 -1.7980  0.3909
 1166SOL    HW214961   3.318   1.988   4.697 -0.0774  0.2479  0.9778
 1167SOL     OW14962   0.196   4.494   6.623  0.0412  0.0605  0.2920
 1167SOL    HW114963   0.191   4.400   6.635  2.4499  0.0939  1.5385
 1167SOL    HW214964   0.166   4.511   6.533 -0.5262  1.0721  0.6770
 1168SOL     OW14965   0.091   2.522   3.938  0.5529 -0.1835  0.2315
 1168SOL    HW114966   0.141   2.508   4.019 -1.0656  0.1330  1.2925
 1168SOL    HW214967   0.002   2.528   3.972 -0.4809  1.4452 -2.7971
 1169SOL     OW14968   3.071   0.398   6.392  0.3080 -0.1652 -0.0424
 1169SOL    HW114969   3.015   0.470   6.362  1.1202  0.3014 -0.4226
 1169SOL    HW214970   3.154   0.446   6.396  1.7464 -2.4524 -2.3140
 1170SOL     OW14971   2.848   4.517   7.272  0.0502 -0.3589 -0.0420
 1170SOL    HW114972   2.896   4.473   7.342 -0.6420 -0.4068  0.4041
 1170SOL    HW214973   2.756   4.491   7.281  0.3103 -1.9721 -1.8887
 1171SOL     OW14974   1.252   4.395   4.003  0.0389 -0.3588 -0.0883
 1171SOL    HW114975   1.179   4.347   3.965  0.2708 -0.9363  0.2042
 1171SOL    HW214976   1.216   4.459   4.065 -0.7761 -1.4889  0.5963
 1172SOL     OW14977   1.481   0.034   2.419 -0.3133  0.2142  0.0234
 1172SOL    HW114978   1.423   0.011   2.492 -1.7205 -0.6543 -1.3734
 1172SOL    HW214979   1.426   0.006   2.345  0.6133  1.0137 -0.9706
 1173SOL     OW14980   1.209   2.931   1.500 -0.6461 -0.2794 -0.1246
 1173SOL    HW114981   1.150   2.988   1.451  0.4559  0.5713 -0.4629
 1173SOL    HW214982   1.152   2.904   1.572  0.4607 -0.3396  0.7248
 1174SOL     OW14983   1.121   0.555   8.154  0.0744  0.5220  0.0949
 1174SOL    HW114984   1.145   0.638   8.196  0.5167  0.3552  0.1737
 1174SOL    HW214985   1.030   0.573   8.133  0.3501  0.3722 -1.2330
 1175SOL     OW14986   3.539   1.538   6.663  0.1126 -0.2164  0.0903
 1175SOL    HW114987   3.611   1.476   6.651  0.6175  0.2564  0.6484
 1175SOL    HW214988   3.475   1.497   6.605 -0.5895 -1.8553  2.0171
 1176SOL     OW14989   2.044   2.754   3.631 -0.3204  0.3645  0.2456
 1176SOL    HW114990   2.031   2.711   3.716 -2.8396  0.7682  0.0691
 1176SOL    HW214991   1.986   2.828   3.647 -1.8595 -0.6746 -0.4597
 1177SOL     OW14992   1.443   2.568  10.515  0.1838 -0.4523  0.3140
 1177SOL    HW114993   1.448   2.500  10.582  0.2831  0.8465  1.6191
 1177SOL    HW214994   1.361   2.535  10.479  0.3338 -1.0391  0.5206
 1178SOL     OW14995   3.548   1.282   1.931  0.3294  0.7419 -0.0305
 1178SOL    HW114996   3.539   1.187   1.923 -0.3832  0.5787  2.8363
 1178SOL    HW214997   3.497   1.291   2.011  0.5417  2.4468 -0.0892
 1179SOL     OW14998   0.371   2.632   6.334 -0.3882 -0.3757  0.7321
 1179SOL    HW114999   0.444   2.692   6.350 -0.1829 -1.1516  2.7008
 1179SOL    HW215000   0.298   2.691   6.319  0.2568  0.2704  0.1130
 1180SOL     OW15001   0.611   4.711   5.278  0.4402  0.1188 -0.3989
 1180SOL    HW115002   0.637   0.077   5.255 -0.9739  0.9783  1.3542
 1180SOL    HW215003   0.576   4.687   5.192  0.1578  2.7111 -1.0069
 1181SOL     OW15004   3.453   0.950   5.785 -0.0629  0.2365  0.3961
 1181SOL    HW115005   3.448   0.975   5.693 -1.4970 -2.8526 -0.3502
 1181SOL    HW215006   3.516   0.878   5.780 -1.5040 -1.1656  2.2438
 1182SOL     OW15007   3.578   3.733   3.745  0.3711  0.7494  0.6152
 1182SOL    HW115008   3.592   3.728   3.839 -0.1047 -3.9157  0.4244
 1182SOL    HW215009   3.651   3.783   3.709  1.1435 -0.9990 -0.2548
 1183SOL     OW15010   3.632   0.887   2.977 -0.2936  0.0263  0.0982
 1183SOL    HW115011   3.609   0.828   2.905 -0.5819  2.9906 -2.2853
 1183SOL    HW215012   3.655   0.970   2.935  0.7563 -0.5306 -0.4284
 1184SOL     OW15013   2.996   3.157   6.564  0.0080 -0.2765 -0.7087
 1184SOL    HW115014   2.931   3.176   6.497  0.9575 -1.1674 -1.9002
 1184SOL    HW215015   2.943   3.148   6.643 -0.8832  1.1043 -1.1539
 1185SOL     OW15016   1.068   2.694   0.220  1.1296  0.5064  0.4726
 1185SOL    HW115017   1.062   2.662   0.130  0.4358 -2.0538  1.4348
 1185SOL    HW215018   1.082   2.612   0.266 -1.4347  0.0981  0.5178
 1186SOL     OW15019   1.370   3.741  12.637 -0.2153 -0.6468  0.1128
 1186SOL    HW115020   1.379   3.826  12.593 -1.6332 -1.2357 -1.3160
 1186SOL    HW215021   1.275   3.730  12.637  0.0705 -3.1013  0.4472
 1187SOL     OW15022   3.313   0.467   1.252  0.3167 -0.4980  0.5548
 1187SOL    HW115023   3.362   0.548   1.240 -1.2133  0.7476  2.7606
 1187SOL    HW215024   3.301   0.442   1.160  0.3949 -0.2377  0.4746
 1188SOL     OW15025   3.881   4.580   2.346 -0.6801 -1.3364  0.3346
 1188SOL    HW115026   3.787   4.575   2.334 -0.5408  0.3146 -1.5216
 1188SOL    HW215027   3.904   4.566   2.254  1.7932  1.9157  0.4347
 1189SOL     OW15028   1.513   1.080   7.785  0.0281  0.1898 -0.4114
 1189SOL    HW115029   1.562   1.001   7.806 -0.4979 -0.6800 -2.5061
 1189SOL    HW215030   1.546   1.110   7.701  0.9022 -0.0250 -0.1481
 1190SOL     OW15031   1.582   4.275   7.089  0.0671 -0.4728  1.1473
 1190SOL    HW115032   1.644   4.290   7.160 -0.0296  4.2675  0.2542
 1190SOL    HW215033   1.547   4.187   7.101 -0.7929 -0.0031  2.0214
 1191SOL     OW15034   4.547   1.757   9.207  0.0522  0.7070  0.1263
 1191SOL    HW115035   4.544   1.744   9.112  3.1639  0.7029  0.0525
 1191SOL    HW215036   4.453   1.763   9.227 -0.4614 -1.9771 -1.5229
 1192SOL     OW15037   2.577   1.708   9.712 -0.1877 -0.1414 -0.0212
 1192SOL    HW115038   2.590   1.801   9.732  0.2960  0.3464 -2.5528
 1192SOL    HW215039   2.620   1.683   9.630  1.2694  2.2253  0.0042
 1193SOL     OW15040   4.507   0.339   0.214 -0.6671 -0.4370 -0.1686
 1193SOL    HW115041   4.456   0.259   0.202 -1.3393 -0.0767  0.2586
 1193SOL    HW215042   4.588   0.294   0.193 -0.4335 -0.5663  1.0387
 1194SOL     OW15043   1.913   1.978   9.652 -0.5776  0.0701 -0.7707
 1194SOL    HW115044   1.976   2.049   9.657  1.4803 -1.6935 -1.6697
 1194SOL    HW215045   1.898   1.961   9.745  1.5832 -0.6085 -0.5585
 1195SOL     OW15046   0.547   4.470  14.339  0.0162  0.1204  0.0660
 1195SOL    HW115047   0.486   4.517  14.396 -0.4812  0.2972 -0.6229
 1195SOL    HW215048   0.537   4.509  14.253  3.2730  0.4613 -0.1648
 1196SOL     OW15049   1.979   1.491   6.952  0.1460 -0.9197  0.7629
 1196SOL    HW115050   2.049   1.533   7.003 -1.2776  2.0645  0.2499
 1196SOL    HW215051   2.031   1.413   6.930 -1.1768 -1.8886  1.0716
 1197SOL     OW15052   4.719   1.589   3.691 -0.2233  1.0393 -0.5436
 1197SOL    HW115053   4.686   1.520   3.634  0.8085 -1.0028  1.3366
 1197SOL    HW215054   0.045   1.636   3.624 -0.6533 -0.3484 -1.8273
 1198SOL     OW15055   1.088   0.600   4.080 -0.1732 -0.7950  0.4749
 1198SOL    HW115056   1.144   0.640   4.013  0.3051 -1.7938  0.2781
 1198SOL    HW215057   1.157   0.586   4.144 -0.4762  2.0283  1.4325
 1199SOL     OW15058   3.230   2.055   6.504 -0.4856  1.0707  0.2879
 1199SOL    HW115059   3.135   2.069   6.510 -0.3025  1.4066  2.1413
 1199SOL    HW215060   3.237   1.989   6.434  0.0014  0.4368  0.9443
 1200SOL     OW15061   0.959   1.841   1.526  0.1112 -0.0205 -0.2689
 1200SOL    HW115062   0.985   1.915   1.472 -0.3303  1.4242  1.5047
 1200SOL    HW215063   0.988   1.766   1.474  1.2320  0.4762 -0.3618
 1201SOL     OW15064   2.014   4.525   4.454 -0.5533  0.1080  0.4037
 1201SOL    HW115065   2.055   4.488   4.376 -0.3036 -0.3638  0.7567
 1201SOL    HW215066   2.006   4.445   4.506 -0.5849  0.9816  1.7280
 1202SOL     OW15067   1.271   0.241   2.578  0.3422 -0.0704 -0.0207
 1202SOL    HW115068   1.209   0.313   2.586  0.1266 -0.1133 -1.1894
 1202SOL    HW215069   1.204   0.173   2.569 -0.7279  1.0380 -0.4673
 1203SOL     OW15070   4.227   1.381  13.206 -0.3554 -1.0994  0.0526
 1203SOL    HW115071   4.178   1.311  13.164 -0.3228 -1.2727  0.3025
 1203SOL    HW215072   4.311   1.349  13.173 -0.6028 -1.1777 -0.4993
 1204SOL     OW15073   0.516   3.563  10.795  0.1812  0.6408 -0.2044
 1204SOL    HW115074   0.534   3.607  10.879  0.6516  1.1969 -0.5968
 1204SOL    HW215075   0.555   3.477  10.808  0.0675  0.6124 -0.0439
 1205SOL     OW15076   0.501   0.260   3.745 -0.0757 -0.0183 -0.0811
 1205SOL    HW115077   0.567   0.219   3.689 -0.8802 -0.0997 -0.9649
 1205SOL    HW215078   0.499   0.200   3.820  4.4135 -0.8293 -0.6234
 1206SOL     OW15079   4.258   2.115   6.926 -0.2878 -0.8675  0.2495
 1206SOL    HW115080   4.190   2.095   6.990  1.0495 -1.3364  1.5392
 1206SOL    HW215081   4.326   2.051   6.947 -0.5445 -1.0541  0.5122
 1207SOL     OW15082   4.339   0.627   2.408 -0.1261 -0.2385 -0.4451
 1207SOL    HW115083   4.366   0.709   2.366 -2.2435 -0.8915 -3.0158
 1207SOL    HW215084   4.426   0.588   2.418  0.4774  0.9949 -0.8728
 1208SOL     OW15085   3.611   1.945   5.609  0.0110  0.0593 -0.1182
 1208SOL    HW115086   3.542   1.880   5.596 -1.0536  0.6533  2.5380
 1208SOL    HW215087   3.605   1.992   5.525  0.9637 -0.3122 -0.3896
 1209SOL     OW15088   1.043   1.597   4.004 -0.7624  0.3204 -0.0803
 1209SOL    HW115089   1.051   1.589   4.099  2.1693  1.3464 -0.2465
 1209SOL    HW215090   1.017   1.508   3.981  0.1658 -0.1928  0.8448
 1210SOL     OW15091   4.323   0.087   9.004  0.2518  0.1019  0.2164
 1210SOL    HW115092   4.333   0.093   8.909 -1.1921  0.2276  0.0742
 1210SOL    HW215093   4.313   4.716   9.015 -1.4798  0.3016  0.3769
 1211SOL     OW15094   1.157   3.864   4.576  0.0728  0.1023 -0.1255
 1211SOL    HW115095   1.168   3.897   4.665 -0.4833 -1.1481  0.4092
 1211SOL    HW215096   1.219   3.791   4.576 -0.6142 -0.4879  1.4001
 1212SOL     OW15097   0.322   1.026   3.410  0.1972  0.0796  0.8093
 1212SOL    HW115098   0.321   1.057   3.319  4.0019 -0.0661  0.7524
 1212SOL    HW215099   0.409   0.989   3.423  0.9279  1.2477 -0.7211
 1213SOL     OW15100   1.536   4.512   6.843  0.5293  0.9053  0.1195
 1213SOL    HW115101   1.550   4.482   6.753 -0.5715  1.1665 -0.1290
 1213SOL    HW215102   1.464   4.453   6.865  1.7060  0.2039  2.1593
 1214SOL     OW15103   4.225   2.173  10.650 -0.1504 -0.0316 -0.5064
 1214SOL    HW115104   4.195   2.128  10.571 -2.1077  0.2587  0.0615
 1214SOL    HW215105   4.168   2.152  10.724 -1.3915  0.5792 -1.2769
 1215SOL     OW15106   3.157   3.872   8.195  0.4687  0.2176 -0.1836
 1215SOL    HW115107   3.181   3.876   8.288  2.7311  0.4335 -0.7797
 1215SOL    HW215108   3.192   3.949   8.152 -1.1969  0.3048 -1.3715
 1216SOL     OW15109   1.648   0.537   4.281 -0.0499  0.7254  0.2092
 1216SOL    HW115110   1.652   0.586   4.199  2.2152 -1.3860 -0.9636
 1216SOL    HW215111   1.740   0.554   4.302  0.1461  3.1831 -2.5953
 1217SOL     OW15112   2.422   1.373   1.361  0.2421  0.3031 -0.4742
 1217SOL    HW115113   2.360   1.438   1.394 -1.2550 -0.7129 -1.2738
 1217SOL    HW215114   2.365   1.296   1.365 -0.4523  0.8716  0.5127
 1218SOL     OW15115   2.624   1.645  13.379 -0.1821 -0.1411 -0.3275
 1218SOL    HW115116   2.533   1.673  13.384 -0.1017 -0.4442  3.2274
 1218SOL    HW215117   2.617   1.576  13.313 -1.7373 -0.6783  0.3939
 1219SOL     OW15118   1.301   3.311  16.699  0.3219  0.0554  0.1063
 1219SOL    HW115119   1.340   3.275  16.778 -1.0348 -0.7621  0.4056
 1219SOL    HW215120   1.249   3.236  16.671 -0.5887  0.5329  0.5048
 1220SOL     OW15121   4.033   2.209   1.754 -0.1081 -0.3317 -0.0053
 1220SOL    HW115122   4.000   2.142   1.814  0.2823  0.2648  0.8701
 1220SOL    HW215123   3.975   2.285   1.764 -0.7177 -0.8355  0.2915
 1221SOL     OW15124   4.593   3.881   8.266 -0.1800 -0.1364  0.3029
 1221SOL    HW115125   4.621   3.946   8.331  0.6007 -1.3750  1.1825
 1221SOL    HW215126   4.670   3.874   8.210  0.6658  2.6162  1.0777
 1222SOL     OW15127   1.920   4.267   9.796  0.8608 -0.4410  0.5171
 1222SOL    HW115128   1.972   4.315   9.731  1.4098  0.7050  1.8147
 1222SOL    HW215129   1.952   4.319   9.870  2.6927  0.6402 -1.0247
 1223SOL     OW15130   0.569   4.547   2.724  0.4912  1.1370  0.1322
 1223SOL    HW115131   0.480   4.569   2.749  0.4606  2.1165 -0.8715
 1223SOL    HW215132   0.631   4.618   2.740  0.7619  1.1425 -0.9551
 1224SOL     OW15133   2.894   4.170   4.456 -0.0749  0.2605 -0.0021
 1224SOL    HW115134   2.869   4.098   4.398  0.4208 -1.2711  1.6984
 1224SOL    HW215135   2.963   4.129   4.508  1.8791  0.0903 -2.7206
 1225SOL     OW15136   4.018   0.446   2.741  0.4321 -0.3880 -0.4270
 1225SOL    HW115137   3.945   0.386   2.757  1.2601 -1.1889  0.3222
 1225SOL    HW215138   4.076   0.417   2.810  0.0575 -0.9985 -0.3736
 1226SOL     OW15139   0.562   4.391   7.192 -0.4202  0.1608 -0.0585
 1226SOL    HW115140   0.499   4.462   7.181 -0.3995  0.6499  3.1292
 1226SOL    HW215141   0.575   4.384   7.287 -1.6746 -0.9068  0.0361
 1227SOL     OW15142   2.340   0.677  10.673 -0.4382  0.6824  0.1719
 1227SOL    HW115143   2.245   0.668  10.681 -0.5811  1.0311 -1.1381
 1227SOL    HW215144   2.352   0.596  10.623  0.5236 -0.0818  1.6241
 1228SOL     OW15145   2.244   1.667   6.901  0.5125  0.3267 -0.3311
 1228SOL    HW115146   2.265   1.576   6.922  0.6177  0.4073 -0.0872
 1228SOL    HW215147   2.324   1.699   6.859 -0.0457  1.3022 -0.6565
 1229SOL     OW15148   2.242   0.520   5.870 -0.7180  0.2938 -0.0025
 1229SOL    HW115149   2.318   0.577   5.874 -1.5125  1.2335  2.3007
 1229SOL    HW215150   2.241   0.479   5.957 -1.8825  2.7566  1.1485
 1230SOL     OW15151   0.104   3.720   1.894 -0.6389  0.2578  0.7753
 1230SOL    HW115152   0.191   3.710   1.856  0.6337  4.1864  2.6120
 1230SOL    HW215153   0.055   3.759   1.821 -0.0610 -0.4816 -0.0030
 1231SOL     OW15154   2.721   0.367   7.662  0.3412 -0.0026  0.1138
 1231SOL    HW115155   2.692   0.316   7.737  3.0261 -0.9822  0.4798
 1231SOL    HW215156   2.773   0.304   7.611  2.7490  2.4589 -0.4916
 1232SOL     OW15157   2.165   1.960   7.003 -0.1305 -0.4073  0.0473
 1232SOL    HW115158   2.119   1.947   7.086  0.2482 -0.6933  0.2099
 1232SOL    HW215159   2.179   1.871   6.973 -4.0755 -1.3607  1.1193
 1233SOL     OW15160   4.588   0.853   7.952  0.2668  0.0901  0.0640
 1233SOL    HW115161   4.493   0.863   7.959  0.4907  1.7648  0.6410
 1233SOL    HW215162   4.605   0.813   7.866 -0.9569  2.1297 -1.1093
 1234SOL     OW15163   1.699   0.474   7.891  0.4425 -0.0465 -0.9591
 1234SOL    HW115164   1.780   0.519   7.914  0.8434 -1.6717  0.7394
 1234SOL    HW215165   1.628   0.538   7.880 -0.1289 -0.3497  1.0071
 1235SOL     OW15166   0.744   3.672   4.600  0.0973 -0.3474  0.1754
 1235SOL    HW115167   0.815   3.613   4.623  0.6932 -0.2953 -1.5475
 1235SOL    HW215168   0.791   3.744   4.557 -1.1216 -0.2069 -0.9488
 1236SOL     OW15169   2.555   0.714  17.415  0.1070  0.2956  0.2077
 1236SOL    HW115170   2.547   0.685  17.505 -1.4071 -2.7122 -0.9007
 1236SOL    HW215171   2.562   0.809  17.422  0.3301  0.5849 -3.7739
 1237SOL     OW15172   2.880   4.238   8.321 -0.1431  0.1474 -0.1406
 1237SOL    HW115173   2.820   4.241   8.246 -2.0362 -3.0672  1.2373
 1237SOL    HW215174   2.813   4.246   8.389 -1.3797  2.2697 -1.6073
 1238SOL     OW15175   3.343   2.405  12.856 -0.0734  0.2326 -0.3750
 1238SOL    HW115176   3.314   2.493  12.836 -0.9369  0.0059 -0.0925
 1238SOL    HW215177   3.333   2.397  12.951  0.8956 -0.1393 -0.2995
 1239SOL     OW15178   1.763   4.294   5.934  0.5922  0.1928 -0.0271
 1239SOL    HW115179   1.776   4.298   5.839  0.9457 -1.4911 -0.0540
 1239SOL    HW215180   1.719   4.378   5.947 -0.8649 -0.5421 -0.2036
 1240SOL     OW15181   4.528   3.047   6.705  0.7148  0.0392 -0.0746
 1240SOL    HW115182   4.564   3.135   6.716  0.5710  0.2061 -0.8961
 1240SOL    HW215183   4.540   3.008   6.791 -1.5596 -1.7639 -0.5677
 1241SOL     OW15184   4.465   0.664  14.927 -0.3721 -0.6756  0.5591
 1241SOL    HW115185   4.508   0.609  14.862  2.0828  1.0365  0.7157
 1241SOL    HW215186   4.491   0.624  15.010 -0.0656  0.4592  1.0097
 1242SOL     OW15187   0.486   3.565   9.056 -0.2700 -0.3119 -0.6211
 1242SOL    HW115188   0.449   3.570   9.144 -2.0793 -1.1531 -1.3273
 1242SOL    HW215189   0.476   3.653   9.019 -0.9852 -0.7248 -1.4110
 1243SOL     OW15190   1.352   1.349   9.187 -0.9493 -0.0201 -0.0101
 1243SOL    HW115191   1.281   1.337   9.123  0.3811  0.2207 -1.5324
 1243SOL    HW215192   1.392   1.263   9.186 -2.7322 -0.8389 -0.9280
 1244SOL     OW15193   2.025   3.436   6.617 -0.1015 -0.0615 -0.4472
 1244SOL    HW115194   2.071   3.433   6.701  0.0830 -2.9963 -0.6501
 1244SOL    HW215195   2.092   3.405   6.556  0.5789 -2.0143  1.3009
 1245SOL     OW15196   2.229   2.064   6.076 -0.7666  0.4269 -0.1024
 1245SOL    HW115197   2.155   2.062   6.015 -0.6820  1.8559 -0.2639
 1245SOL    HW215198   2.297   2.077   6.010 -0.5220  0.5021  0.1676
 1246SOL     OW15199   0.177   0.110   6.737 -0.6825  0.4590 -0.1718
 1246SOL    HW115200   0.255   0.117   6.791  0.6526  0.4289 -2.1016
 1246SOL    HW215201   0.149   0.018   6.737  1.2357 -0.1164  2.2564
 1247SOL     OW15202   3.705   4.610  14.502 -0.8072  0.1604 -0.0318
 1247SOL    HW115203   3.611   4.606  14.518 -0.2761 -0.8450  2.9067
 1247SOL    HW215204   3.722   4.645  14.415 -0.1915 -0.5198 -0.1880
 1248SOL     OW15205   1.575   3.476  13.900  0.0924  0.6297  0.3194
 1248SOL    HW115206   1.544   3.566  13.888  1.1384  1.1554  1.4385
 1248SOL    HW215207   1.644   3.474  13.967  0.8319  0.7795 -0.4415
 1249SOL     OW15208   4.420   4.300  16.286  0.5139  0.0791  0.3585
 1249SOL    HW115209   4.391   4.212  16.311  1.8835 -0.1808  0.9982
 1249SOL    HW215210   4.509   4.285  16.318  0.4899 -1.5193 -0.3013
 1250SOL     OW15211   0.018   0.885   3.627  0.1554  0.2252  0.5205
 1250SOL    HW115212   0.029   0.943   3.551  1.5051 -0.3327  0.2822
 1250SOL    HW215213   4.651   0.857   3.617  0.2955  0.2295 -0.7778
 1251SOL     OW15214   3.049   4.511   0.628  0.2638  0.0401  0.5845
 1251SOL    HW115215   3.107   4.465   0.567 -0.9710 -0.9604  0.1516
 1251SOL    HW215216   2.981   4.540   0.567  0.9912  3.0514  1.2447
 1252SOL     OW15217   2.799   4.609   9.780 -0.0540 -0.5169 -0.0996
 1252SOL    HW115218   2.779   4.602   9.873 -2.1719 -0.3655 -0.5426
 1252SOL    HW215219   2.730   4.659   9.735 -0.8438 -1.1289  0.4401
 1253SOL     OW15220   1.224   4.289   7.215 -0.3773 -0.2527 -0.0293
 1253SOL    HW115221   1.259   4.214   7.263 -1.6204 -0.2687  0.8513
 1253SOL    HW215222   1.128   4.285   7.211 -0.4053  2.4223 -2.3873
 1254SOL     OW15223   0.019   0.385   0.847  0.1092  0.5228  0.4697
 1254SOL    HW115224   4.705   0.322   0.786  1.2376  1.0679 -0.7814
 1254SOL    HW215225   0.093   0.423   0.800  0.8507 -0.9046  0.4798
 1255SOL     OW15226   3.858   1.765  11.563  0.0523 -0.1908  0.0729
 1255SOL    HW115227   3.923   1.795  11.627 -0.5221  1.1136  0.0480
 1255SOL    HW215228   3.774   1.803  11.587  0.2074  0.9460 -1.1644
 1256SOL     OW15229   4.694   3.969   2.924  0.4677 -0.5052 -0.5231
 1256SOL    HW115230   0.036   3.933   2.864  0.0202 -0.8845 -0.7818
 1256SOL    HW215231   4.625   3.904   2.910 -0.3075 -0.0571  1.2034
 1257SOL     OW15232   0.070   0.237   7.456  0.0003  0.3488  0.4300
 1257SOL    HW115233   0.053   0.328   7.481  2.4657  0.8775  0.1597
 1257SOL    HW215234   0.025   0.248   7.373  1.2060 -0.5752 -0.3440
 1258SOL     OW15235   2.366   3.445   6.042 -0.0435 -0.1096 -0.1042
 1258SOL    HW115236   2.370   3.355   6.075  2.8125  0.0302 -0.0265
 1258SOL    HW215237   2.448   3.481   6.077  0.1781 -0.1561 -0.5665
 1259SOL     OW15238   4.652   1.790   8.657 -0.2843 -0.0508 -0.1407
 1259SOL    HW115239   4.600   1.757   8.584  0.9901  1.2328 -1.6227
 1259SOL    HW215240   4.644   1.884   8.639 -2.7108 -0.2600 -0.0783
 1260SOL     OW15241   3.357   1.249   9.372 -0.6422  0.2015 -0.2372
 1260SOL    HW115242   3.445   1.249   9.409 -1.3277  1.8829  1.3744
 1260SOL    HW215243   3.366   1.166   9.325  1.9580 -0.5213  1.5458
 1261SOL     OW15244   3.521   2.539   7.181 -0.1968 -0.4015 -0.2537
 1261SOL    HW115245   3.523   2.625   7.223  2.7540 -0.4898 -0.2158
 1261SOL    HW215246   3.435   2.532   7.139 -1.0634 -1.2040  1.6466
 1262SOL     OW15247   3.897   3.448   3.395 -0.0566 -0.1736  0.5271
 1262SOL    HW115248   3.968   3.465   3.458 -0.5646  2.0124  0.5229
 1262SOL    HW215249   3.893   3.535   3.356 -1.3344 -0.6230 -0.3277
 1263SOL     OW15250   2.413   4.003   4.503 -0.4371  0.5774 -0.0902
 1263SOL    HW115251   2.446   4.013   4.413 -0.3851 -0.9925 -0.2338
 1263SOL    HW215252   2.347   4.073   4.501  0.0837  1.1412  2.7322
 1264SOL     OW15253   1.915   3.437   3.687  0.2603 -0.3909  0.1358
 1264SOL    HW115254   1.854   3.383   3.636  0.5224 -0.0060 -0.5842
 1264SOL    HW215255   1.910   3.400   3.776  0.9257  0.4799  0.5270
 1265SOL     OW15256   2.042   1.400   9.983 -0.1434 -0.2675 -0.0793
 1265SOL    HW115257   2.135   1.408   9.964 -0.1759 -1.6845 -0.8003
 1265SOL    HW215258   2.023   1.313   9.948 -2.3514 -0.6371  1.9757
 1266SOL     OW15259   0.310   3.675   7.876  0.2741 -0.0691 -0.8311
 1266SOL    HW115260   0.269   3.762   7.872  0.4682 -0.0317 -2.0259
 1266SOL    HW215261   0.387   3.687   7.821  0.7081 -2.1340 -0.6859
 1267SOL     OW15262   0.534   4.642   8.100  0.0086 -0.0468  0.1607
 1267SOL    HW115263   0.559   4.568   8.044  0.2740  0.3414 -0.2329
 1267SOL    HW215264   0.579   4.620   8.181 -1.1959 -3.2985 -0.0421
 1268SOL     OW15265   2.677   3.406   3.642  0.3202  0.2690  0.0896
 1268SOL    HW115266   2.765   3.428   3.675  0.2111  0.0357  0.5343
 1268SOL    HW215267   2.703   3.355   3.566  1.0920 -4.2970  3.4436
 1269SOL     OW15268   1.599   4.318   9.552 -0.3531 -0.5353  0.4998
 1269SOL    HW115269   1.569   4.390   9.607  0.1921 -1.9364  2.6140
 1269SOL    HW215270   1.618   4.250   9.616 -0.5395 -1.1310 -0.0729
 1270SOL     OW15271   0.548   4.034  14.501  0.8120  1.1393 -0.0600
 1270SOL    HW115272   0.496   4.094  14.554 -0.8096 -0.6431  0.3430
 1270SOL    HW215273   0.474   3.997  14.452 -1.3078  1.8908  2.6001
 1271SOL     OW15274   0.584   3.555  16.714  0.2822 -0.0578  0.4134
 1271SOL    HW115275   0.516   3.487  16.722  0.0894 -0.0889 -1.5167
 1271SOL    HW215276   0.536   3.635  16.732  0.9362  0.4807 -0.2758
 1272SOL     OW15277   0.657   2.731   6.341 -0.2334 -0.0268 -0.0314
 1272SOL    HW115278   0.723   2.758   6.405  1.7636 -1.0594 -1.6465
 1272SOL    HW215279   0.646   2.644   6.380 -1.2273 -0.2303 -0.7824
 1273SOL     OW15280   3.807   3.247   5.787  1.1577 -0.0621  0.5634
 1273SOL    HW115281   3.827   3.184   5.857 -1.3758  0.2138  1.5249
 1273SOL    HW215282   3.864   3.318   5.817 -0.2378  2.4294 -2.7353
 1274SOL     OW15283   1.872   1.933  15.519  0.7951 -0.1121  0.1159
 1274SOL    HW115284   1.846   1.989  15.446 -0.7965 -0.5703  0.3251
 1274SOL    HW215285   1.826   1.976  15.590  3.4153  1.1083  1.0728
 1275SOL     OW15286   2.694   0.834   6.220  0.1526  0.0442  0.1177
 1275SOL    HW115287   2.646   0.752   6.237 -1.1874  0.7317 -0.3599
 1275SOL    HW215288   2.650   0.860   6.139  0.6045 -2.0146 -0.7990
 1276SOL     OW15289   4.531   0.086   4.600 -0.3371 -0.3127 -0.0292
 1276SOL    HW115290   4.495   0.042   4.523  1.0409  1.5008 -1.7114
 1276SOL    HW215291   4.454   0.099   4.655 -2.4380 -2.2871 -2.4740
 1277SOL     OW15292   0.926   1.864   5.161  0.5067  0.5701  0.0385
 1277SOL    HW115293   0.919   1.897   5.072  0.4389 -1.3507 -0.6780
 1277SOL    HW215294   0.986   1.929   5.197  1.8611 -0.8780  0.4371
 1278SOL     OW15295   3.952   0.912   2.321  0.2346 -0.2347  0.1685
 1278SOL    HW115296   3.992   0.892   2.236  1.9226  3.3996  0.0985
 1278SOL    HW215297   3.998   0.995   2.337  0.6757 -0.5251  0.4189
 1279SOL     OW15298   3.300   3.147   6.236 -0.1891 -0.0562  0.2794
 1279SOL    HW115299   3.231   3.124   6.173  2.0056 -0.6922 -1.8824
 1279SOL    HW215300   3.383   3.160   6.191 -1.1046 -0.0754 -1.4175
 1280SOL     OW15301   1.716   4.451   2.324  0.0342 -0.3215  0.3062
 1280SOL    HW115302   1.682   4.458   2.234  1.3786  3.4697  0.0679
 1280SOL    HW215303   1.745   4.542   2.328  0.5549 -0.4568 -0.3500
 1281SOL     OW15304   3.747   2.206   7.283  0.5505 -0.1286  0.1923
 1281SOL    HW115305   3.748   2.270   7.211  0.1842  1.3171  1.4747
 1281SOL    HW215306   3.661   2.167   7.265 -0.5676  2.7122 -0.7110
 1282SOL     OW15307   0.283   1.696  10.206  0.5902  0.0358  0.0441
 1282SOL    HW115308   0.264   1.618  10.152  0.0439  0.0098  0.2726
 1282SOL    HW215309   0.278   1.658  10.294 -1.4884  0.9394  0.3079
 1283SOL     OW15310   3.620   0.962   7.994 -0.7341 -0.2555  0.3103
 1283SOL    HW115311   3.691   0.933   8.051 -1.2172 -0.0730  1.0027
 1283SOL    HW215312   3.548   0.985   8.053  0.3867 -1.5438  2.2084
 1284SOL     OW15313   2.928   2.115  12.436  0.1362  0.1499  0.4873
 1284SOL    HW115314   2.847   2.106  12.385  0.4594  2.6741 -0.4738
 1284SOL    HW215315   2.899   2.131  12.526  0.5491  0.7890  0.5026
 1285SOL     OW15316   2.626   0.602  17.195  0.3431  0.2338 -0.3774
 1285SOL    HW115317   2.702   0.567  17.241 -2.2952 -0.6906  3.3196
 1285SOL    HW215318   2.582   0.649  17.266  1.6177  2.0054 -0.7853
 1286SOL     OW15319   0.865   4.722   8.658  0.8540  0.6649 -0.5941
 1286SOL    HW115320   0.786   0.040   8.693  0.2469  0.4529 -1.7031
 1286SOL    HW215321   0.912   0.074   8.625  2.5128 -1.0565 -2.1411
 1287SOL     OW15322   4.133   1.769  11.657 -0.1101  0.4662  0.1576
 1287SOL    HW115323   4.155   1.858  11.682 -1.0070  1.0223 -1.0437
 1287SOL    HW215324   4.185   1.757  11.578  1.0928 -1.4091  1.2259
 1288SOL     OW15325   4.532   4.473   6.019 -0.5022 -0.0536  0.7012
 1288SOL    HW115326   4.516   4.489   5.926  0.3550  2.8216  1.0426
 1288SOL    HW215327   4.486   4.391   6.039  0.9975 -1.0808 -0.0339
 1289SOL     OW15328   4.070   1.816   6.697 -0.6909  0.0596 -0.5022
 1289SOL    HW115329   4.001   1.767   6.652 -0.8584 -2.3356  2.3558
 1289SOL    HW215330   4.034   1.905   6.699  2.8340  1.5528 -2.2875
 1290SOL     OW15331   1.981   3.930  15.707  0.2716  0.0951 -0.7554
 1290SOL    HW115332   1.970   3.878  15.628  3.0419  0.5744 -1.4773
 1290SOL    HW215333   1.996   4.016  15.666 -0.9837 -0.1068 -1.6355
 1291SOL     OW15334   0.399   2.443  14.818  0.2113  0.3914 -0.6272
 1291SOL    HW115335   0.309   2.412  14.832 -0.4473  1.2748 -2.9421
 1291SOL    HW215336   0.401   2.516  14.879 -1.4606  1.0838 -1.3937
 1292SOL     OW15337   1.787   4.140  17.020  0.4842  0.1598  0.5746
 1292SOL    HW115338   1.696   4.131  17.049 -0.0056 -0.1275 -1.0512
 1292SOL    HW215339   1.775   4.148  16.925  2.0608  2.0521  0.5303
 1293SOL     OW15340   0.201   1.498   0.195  0.9971  0.0085 -0.0478
 1293SOL    HW115341   0.226   1.568   0.134 -1.5317  1.9734  1.1472
 1293SOL    HW215342   0.111   1.494   0.162  0.3486  0.3558  1.6814
 1294SOL     OW15343   0.581   3.776   7.228 -0.0327 -0.7033 -0.3501
 1294SOL    HW115344   0.548   3.748   7.142 -2.6600  1.9237 -0.2247
 1294SOL    HW215345   0.674   3.753   7.231 -0.4517 -1.7667  3.4575
 1295SOL     OW15346   4.535   0.038   6.125  1.1960 -0.6303 -0.2109
 1295SOL    HW115347   4.487   0.043   6.208  1.6144  0.0589 -0.0172
 1295SOL    HW215348   4.496   4.683   6.085 -0.8886  1.1638 -1.7128
 1296SOL     OW15349   0.284   4.630  16.037  0.0558  0.1212 -0.1864
 1296SOL    HW115350   0.263   4.629  15.944 -2.6129 -0.4465  0.4204
 1296SOL    HW215351   0.227   4.565  16.078 -1.8316  2.5077  1.0146
 1297SOL     OW15352   1.717   1.541   9.567  0.4329  0.0884 -0.3161
 1297SOL    HW115353   1.635   1.500   9.594 -0.9764  2.5814 -0.7896
 1297SOL    HW215354   1.765   1.555   9.648  0.1210  0.5870 -0.2145
 1298SOL     OW15355   1.258   0.937  11.730  0.4344  0.0764  0.3410
 1298SOL    HW115356   1.239   0.926  11.824 -0.6343 -0.5421  0.0448
 1298SOL    HW215357   1.329   0.874  11.725  0.2827 -0.1361  0.8789
 1299SOL     OW15358   2.186   1.752   2.841  0.2750  0.0192 -0.6800
 1299SOL    HW115359   2.209   1.805   2.917  1.6793  0.4225 -1.3784
 1299SOL    HW215360   2.187   1.661   2.871  2.6414  0.1233 -0.3963
 1300SOL     OW15361   3.545   0.631   8.608 -0.6214 -0.0018 -0.3778
 1300SOL    HW115362   3.454   0.601   8.598  0.2251 -2.9747  0.9207
 1300SOL    HW215363   3.598   0.551   8.607 -0.8269 -0.1413 -0.1513
 1301SOL     OW15364   1.349   2.109   2.333  0.5416 -0.5410 -0.1606
 1301SOL    HW115365   1.275   2.131   2.389 -0.5164 -1.5850 -1.1690
 1301SOL    HW215366   1.358   2.194   2.290  0.8808  0.1422  1.2547
 1302SOL     OW15367   2.626   1.795   4.114  0.6730  0.1668 -0.0638
 1302SOL    HW115368   2.608   1.713   4.161 -0.1757 -0.0337 -0.7411
 1302SOL    HW215369   2.613   1.858   4.185  0.4908 -0.0729  0.1181
 1303SOL     OW15370   2.797   0.548   5.664 -0.0767 -0.2346  0.1865
 1303SOL    HW115371   2.877   0.601   5.659 -0.9335  1.1226  0.9484
 1303SOL    HW215372   2.729   0.615   5.659 -0.8490 -1.0689 -0.5197
 1304SOL     OW15373   1.623   0.403   6.393  0.4558 -0.4530 -0.6079
 1304SOL    HW115374   1.640   0.367   6.480 -0.7826 -0.2203 -0.2667
 1304SOL    HW215375   1.595   0.325   6.344 -0.9648 -0.5695  0.3669
 1305SOL     OW15376   3.627   0.611   8.997 -0.2081  0.2576 -0.0363
 1305SOL    HW115377   3.653   0.629   8.907 -1.0466  1.3003 -0.0651
 1305SOL    HW215378   3.545   0.660   8.990 -0.4149 -0.1971 -0.7628
 1306SOL     OW15379   4.492   2.047   2.977  0.0176  0.2283  1.0377
 1306SOL    HW115380   4.442   2.129   2.977  0.3395  0.4263  1.3464
 1306SOL    HW215381   4.582   2.080   2.973  0.6358 -1.7093 -1.2060
 1307SOL     OW15382   0.018   2.702  15.756 -0.7092  0.6513  0.4421
 1307SOL    HW115383   0.057   2.668  15.676  0.3142  2.7481  0.0495
 1307SOL    HW215384   0.099   2.738  15.791 -0.2366 -0.0125  0.0167
 1308SOL     OW15385   0.494   4.516  13.628  0.5315  0.6313  0.1609
 1308SOL    HW115386   0.489   4.427  13.594 -0.2527  0.8958 -0.4174
 1308SOL    HW215387   0.496   4.500  13.722  0.9065 -0.6973 -0.0727
 1309SOL     OW15388   2.384   3.316   2.465 -0.1052 -0.2945 -0.5780
 1309SOL    HW115389   2.432   3.248   2.419  0.9427 -1.0316  1.6296
 1309SOL    HW215390   2.460   3.367   2.491 -0.7438  0.8781 -0.9722
 1310SOL     OW15391   4.450   4.377   1.903  0.0234  0.4190 -0.3355
 1310SOL    HW115392   4.450   4.296   1.852  1.2854  0.4769 -0.4181
 1310SOL    HW215393   4.516   4.418   1.847  0.4878  3.1460  2.2393
 1311SOL     OW15394   3.425   2.250   8.048  0.0668 -0.2608  0.3457
 1311SOL    HW115395   3.442   2.337   8.083 -2.0450  0.4016 -0.3212
 1311SOL    HW215396   3.497   2.254   7.985  0.4674 -1.8180  0.7025
 1312SOL     OW15397   2.381   0.115   0.718 -0.0869  0.3980  0.2958
 1312SOL    HW115398   2.306   0.164   0.683  1.1779  3.0258  1.2581
 1312SOL    HW215399   2.343   0.028   0.730  1.1809 -0.0672  0.8456
 1313SOL     OW15400   3.423   3.885  17.037  0.0429  0.3345  0.0305
 1313SOL    HW115401   3.391   3.915  16.952  0.4385  1.4317  0.2656
 1313SOL    HW215402   3.364   3.811  17.041 -0.0979  0.5443  1.8638
 1314SOL     OW15403   0.661   1.524   6.271 -0.0827  0.3384 -0.1644
 1314SOL    HW115404   0.711   1.442   6.275  0.7687  0.8222 -0.9245
 1314SOL    HW215405   0.611   1.508   6.351 -0.3771 -1.2624 -0.6685
 1315SOL     OW15406   1.200   2.278   0.697 -0.9367 -0.2233 -0.2763
 1315SOL    HW115407   1.111   2.308   0.677 -0.9935 -1.5661 -2.0849
 1315SOL    HW215408   1.219   2.325   0.778  2.5802 -1.0630 -0.6010
 1316SOL     OW15409   1.188   2.994  11.894  0.0233  0.6579 -0.0255
 1316SOL    HW115410   1.198   3.053  11.969  1.8141  1.8106 -1.1805
 1316SOL    HW215411   1.263   2.935  11.903 -0.1264  0.8283  2.5761
 1317SOL     OW15412   3.516   3.090   3.729 -0.2192 -0.0587 -0.3066
 1317SOL    HW115413   3.492   3.078   3.637 -0.8766 -0.6975 -0.0487
 1317SOL    HW215414   3.609   3.112   3.722  0.2102 -2.3869 -1.7807
 1318SOL     OW15415   4.222   0.464   0.161 -0.0006 -0.3671 -0.4555
 1318SOL    HW115416   4.154   0.423   0.108 -1.2630 -3.1479  3.3114
 1318SOL    HW215417   4.291   0.397   0.165 -0.2107 -0.4859  1.1094
 1319SOL     OW15418   1.899   0.247  10.714 -0.5882 -0.3745  0.5463
 1319SOL    HW115419   1.940   0.219  10.796  1.3811  3.7000  0.9504
 1319SOL    HW215420   1.808   0.233  10.741 -0.0066 -3.5360  0.7841
 1320SOL     OW15421   0.513   1.097  14.634 -0.0968 -0.0278 -0.0457
 1320SOL    HW115422   0.426   1.120  14.603  1.0582  0.0904 -3.1639
 1320SOL    HW215423   0.550   1.184  14.653 -0.0830  0.0313 -0.3506
 1321SOL     OW15424   2.710   4.144   4.790  0.1741  0.0131 -0.0776
 1321SOL    HW115425   2.748   4.214   4.737  1.0717 -2.4547 -2.6914
 1321SOL    HW215426   2.753   4.154   4.875  2.8697 -1.7014 -1.2351
 1322SOL     OW15427   2.978   2.716   7.974 -0.1434  0.8728 -0.1093
 1322SOL    HW115428   3.049   2.712   8.038  0.1485  2.6601 -0.3245
 1322SOL    HW215429   2.999   2.644   7.916  1.4540 -1.3335  3.1950
 1323SOL     OW15430   4.021   0.955  16.102  0.3624  0.2576  0.1961
 1323SOL    HW115431   3.934   0.983  16.131 -0.1698 -1.3725  0.1605
 1323SOL    HW215432   4.080   0.997  16.165  3.7873 -2.4996 -1.1924
 1324SOL     OW15433   1.638   3.601   0.372 -0.5481  0.1984  0.3652
 1324SOL    HW115434   1.667   3.518   0.409  0.0120 -0.4775 -1.5668
 1324SOL    HW215435   1.635   3.582   0.278  3.1724 -1.2138  0.5026
 1325SOL     OW15436   4.076   2.745   6.328 -0.1501  0.1246  0.1281
 1325SOL    HW115437   4.085   2.703   6.414  0.8863  0.1362  0.0196
 1325SOL    HW215438   3.980   2.744   6.329 -0.1593 -0.4421 -0.8190
 1326SOL     OW15439   0.783   1.278   5.245 -0.4622  0.4205  0.0946
 1326SOL    HW115440   0.748   1.193   5.218  0.3037 -0.4045  1.7318
 1326SOL    HW215441   0.749   1.330   5.172 -1.6606 -0.1604  0.2457
 1327SOL     OW15442   2.722   1.271   3.429  0.2251 -0.1143  0.9265
 1327SOL    HW115443   2.687   1.227   3.506  1.7429 -0.6703  1.2945
 1327SOL    HW215444   2.720   1.364   3.453 -1.0655 -0.2753  1.4824
 1328SOL     OW15445   2.871   0.658   3.529  0.0239 -0.2340  0.5024
 1328SOL    HW115446   2.901   0.588   3.471  2.2611 -0.2455  1.6643
 1328SOL    HW215447   2.840   0.728   3.472  1.0650 -1.2032 -1.2690
 1329SOL     OW15448   1.756   3.729   4.225 -0.2743 -0.3028  0.0754
 1329SOL    HW115449   1.732   3.650   4.272 -3.0826  0.8948  0.6373
 1329SOL    HW215450   1.852   3.725   4.230 -0.1638 -1.6511 -2.8858
 1330SOL     OW15451   4.559   0.548   7.189  0.2478  0.0840 -0.7362
 1330SOL    HW115452   4.533   0.550   7.281  1.9700  1.5716 -0.2948
 1330SOL    HW215453   4.479   0.579   7.147 -0.1162 -1.5807 -1.2828
 1331SOL     OW15454   3.876   3.749  10.634  0.3426 -0.2630 -0.0596
 1331SOL    HW115455   3.960   3.705  10.641  1.0910  0.6194 -3.1781
 1331SOL    HW215456   3.876   3.795  10.718  0.6692 -0.5589  0.0992
 1332SOL     OW15457   0.221   2.241   2.544  0.2884  0.2127 -0.0677
 1332SOL    HW115458   0.186   2.228   2.456  0.1086 -0.4966  0.1034
 1332SOL    HW215459   0.297   2.299   2.540  0.8673 -0.5787 -0.6814
 1333SOL     OW15460   3.625   3.803  13.337  0.3295 -0.3302 -0.4751
 1333SOL    HW115461   3.621   3.819  13.431 -1.2631  0.8819 -0.7351
 1333SOL    HW215462   3.641   3.709  13.332 -0.6318 -0.5225 -0.0266
 1334SOL     OW15463   3.591   2.598  15.153 -0.1629 -0.1682 -0.3813
 1334SOL    HW115464   3.628   2.684  15.132  0.5489 -0.7152 -1.3501
 1334SOL    HW215465   3.635   2.543  15.088 -1.7024 -1.9392  0.0901
 1335SOL     OW15466   2.968   1.041  10.625 -0.2700 -0.0183 -0.2794
 1335SOL    HW115467   3.055   1.000  10.617 -0.1934  0.3116 -1.1071
 1335SOL    HW215468   2.908   0.968  10.640  0.6573 -0.7131  0.0417
 1336SOL     OW15469   2.857   3.173   1.474 -0.2191 -0.3001 -0.0613
 1336SOL    HW115470   2.801   3.226   1.418 -0.2042  0.2729  0.4692
 1336SOL    HW215471   2.920   3.244   1.485 -0.0354 -0.2649 -1.2948
 1337SOL     OW15472   0.149   0.784   8.487 -0.3513 -0.5039 -0.4841
 1337SOL    HW115473   0.053   0.784   8.484 -0.4203 -4.1758  1.2262
 1337SOL    HW215474   0.173   0.822   8.571  1.2836  0.2066 -1.2737
 1338SOL     OW15475   3.326   4.175   4.914  1.0444  0.4918 -0.1381
 1338SOL    HW115476   3.282   4.102   4.959 -1.0480  2.1233  0.4627
 1338SOL    HW215477   3.287   4.172   4.827  1.2902  3.4634 -0.3410
 1339SOL     OW15478   3.538   3.787   4.020  0.1090  0.1690 -0.7383
 1339SOL    HW115479   3.504   3.739   4.095  1.3094 -1.0638 -0.9871
 1339SOL    HW215480   3.575   3.868   4.056  1.3083 -0.6947 -0.0333
 1340SOL     OW15481   1.071   1.168   2.943  0.2765 -0.3452 -0.5878
 1340SOL    HW115482   1.077   1.218   2.862 -1.6925 -0.8068 -1.0267
 1340SOL    HW215483   1.144   1.108   2.929  0.7316 -0.0078  0.4094
 1341SOL     OW15484   0.251   0.923   5.458 -0.0533 -0.5517 -0.1039
 1341SOL    HW115485   0.174   0.969   5.424 -2.0331 -2.5941  1.6507
 1341SOL    HW215486   0.321   0.965   5.408 -0.4169  0.2996  0.1101
 1342SOL     OW15487   2.085   1.581   6.531  0.5857  0.5328  0.1065
 1342SOL    HW115488   2.055   1.630   6.607  0.9755 -0.2496  0.7570
 1342SOL    HW215489   2.034   1.619   6.459 -1.4920 -1.8630  0.3340
 1343SOL     OW15490   0.139   1.968   8.160 -0.0878 -0.2483  0.2702
 1343SOL    HW115491   0.111   1.978   8.069 -0.9903 -0.0503  0.5765
 1343SOL    HW215492   0.066   2.009   8.206 -0.2954 -2.1432  1.5988
 1344SOL     OW15493   2.743   2.990   2.843 -0.2522  0.7161 -0.3828
 1344SOL    HW115494   2.823   3.041   2.852  0.1025 -0.0750  0.9679
 1344SOL    HW215495   2.740   2.959   2.753  1.9400 -1.6237  0.3650
 1345SOL     OW15496   4.584   0.835   1.151  0.9923 -0.2186 -0.8199
 1345SOL    HW115497   4.571   0.742   1.170  1.7188  0.2435  1.8645
 1345SOL    HW215498   4.578   0.866   1.241 -1.3118  2.5000 -1.8757
 1346SOL     OW15499   2.690   1.762   1.900  0.1324  0.6844 -0.1105
 1346SOL    HW115500   2.670   1.713   1.821  0.6780  1.6626 -0.8552
 1346SOL    HW215501   2.782   1.781   1.882  0.7086 -0.2921  1.8493
 1347SOL     OW15502   4.409   4.002   0.375  0.2757  0.7297  0.5413
 1347SOL    HW115503   4.335   4.055   0.405 -0.0488 -1.6454  3.9063
 1347SOL    HW215504   4.457   4.075   0.335 -0.8057  0.2429 -1.6775
 1348SOL     OW15505   3.414   4.240   2.624 -0.7118  0.2561 -0.0374
 1348SOL    HW115506   3.484   4.302   2.645 -0.2826  0.0605 -0.9171
 1348SOL    HW215507   3.465   4.162   2.603 -0.6941  0.0236  0.8460
 1349SOL     OW15508   1.207   2.339   4.345 -0.6062 -0.0355 -0.2405
 1349SOL    HW115509   1.149   2.263   4.348 -1.8409  0.9177 -0.1265
 1349SOL    HW215510   1.148   2.395   4.295  1.6016 -0.1214 -2.9024
 1350SOL     OW15511   3.256   4.514   5.448 -0.6770  0.2589  0.5638
 1350SOL    HW115512   3.334   4.569   5.436  0.4064 -1.6381 -1.0824
 1350SOL    HW215513   3.217   4.550   5.528  1.0266  1.3270  0.9160
 1351SOL     OW15514   0.131   3.299   7.855 -0.2905  0.0057 -0.1065
 1351SOL    HW115515   0.132   3.247   7.935 -0.1810 -0.6335 -0.5262
 1351SOL    HW215516   0.222   3.329   7.864 -0.7728  1.0590  1.2679
 1352SOL     OW15517   1.608   1.351   2.531  0.1438  0.0717  0.4233
 1352SOL    HW115518   1.693   1.319   2.562 -0.2529  0.3168  1.7685
 1352SOL    HW215519   1.624   1.441   2.504 -3.3232  0.2678 -1.0417
 1353SOL     OW15520   4.102   1.587  12.065  0.0504 -0.1893  0.3779
 1353SOL    HW115521   4.086   1.554  12.154  1.4154  0.8071  0.9979
 1353SOL    HW215522   4.193   1.562  12.052 -0.7248 -1.3449 -2.9265
 1354SOL     OW15523   2.371   0.722  15.951 -0.4221  0.2779 -0.2146
 1354SOL    HW115524   2.388   0.810  15.983  0.6605  0.2066 -0.6210
 1354SOL    HW215525   2.462   0.696  15.945 -0.7860 -1.0582  0.0037
 1355SOL     OW15526   4.686   4.713   1.787  0.3568 -0.5954 -0.1907
 1355SOL    HW115527   4.700   0.066   1.842 -1.2258 -0.1763 -0.3576
 1355SOL    HW215528   4.603   0.020   1.751  0.1020 -1.4147 -0.2969
 1356SOL     OW15529   2.557   1.314   2.871 -0.1779  1.0542 -0.0696
 1356SOL    HW115530   2.557   1.246   2.938  2.9872  1.5576  0.4441
 1356SOL    HW215531   2.598   1.389   2.913  1.0017  1.1920 -1.4669
 1357SOL     OW15532   2.440   0.938   4.071  0.0549 -0.9338 -0.2165
 1357SOL    HW115533   2.522   0.930   4.022  0.5840 -0.6069  0.6103
 1357SOL    HW215534   2.470   0.893   4.150  4.4525  2.7518  0.2131
 1358SOL     OW15535   4.591   2.732   7.952 -0.6260 -0.4917 -0.2046
 1358SOL    HW115536   4.670   2.768   7.992  0.7859 -3.4135 -0.4244
 1358SOL    HW215537   4.529   2.728   8.025  1.2718 -0.7042  1.4054
 1359SOL     OW15538   4.647   2.051  12.787  0.3873  0.1524  0.1712
 1359SOL    HW115539   4.642   1.984  12.719  0.3776 -1.9744  2.2665
 1359SOL    HW215540   4.709   2.012  12.848 -1.1385 -1.2512  0.8204
 1360SOL     OW15541   4.150   1.861   8.323  0.2945 -0.0856 -0.5721
 1360SOL    HW115542   4.159   1.770   8.351  0.5953 -0.1780 -0.9683
 1360SOL    HW215543   4.086   1.868   8.252 -1.6330  1.6154  1.2873
 1361SOL     OW15544   2.506   4.630  13.693 -0.2441 -1.4155  0.3591
 1361SOL    HW115545   2.486   4.643  13.785 -0.0692  1.4538 -0.0200
 1361SOL    HW215546   2.584   4.576  13.697  0.5081 -0.3040  0.5267
 1362SOL     OW15547   2.797   2.941   5.128  0.3919  0.1499 -0.0331
 1362SOL    HW115548   2.759   3.029   5.121  0.6143  0.2833  0.4225
 1362SOL    HW215549   2.884   2.947   5.089 -0.7603  0.4254 -2.5627
 1363SOL     OW15550   3.722   2.550  15.922 -0.9055 -0.2784 -0.2342
 1363SOL    HW115551   3.668   2.527  15.998 -1.1118 -1.7768 -0.8453
 1363SOL    HW215552   3.671   2.507  15.854 -2.7754  1.3646  0.1298
 1364SOL     OW15553   3.181   0.984   2.762  0.0029  0.1492  0.2970
 1364SOL    HW115554   3.248   0.918   2.748 -0.0301  0.0254  0.7186
 1364SOL    HW215555   3.196   1.049   2.694 -2.3224 -1.4638 -1.7630
 1365SOL     OW15556   1.420   1.670  11.084 -0.3154  0.1011 -0.5431
 1365SOL    HW115557   1.483   1.619  11.032  1.0869 -0.1644  1.4099
 1365SOL    HW215558   1.414   1.625  11.168  1.3872 -0.6319 -0.8110
 1366SOL     OW15559   0.207   1.055   1.823 -0.3924 -0.0214  0.0938
 1366SOL    HW115560   0.150   1.071   1.898 -1.7067 -0.9935 -0.6862
 1366SOL    HW215561   0.202   1.137   1.774  0.9206 -0.9934 -1.6815
 1367SOL     OW15562   4.713   3.816  13.656  0.4962 -0.1052  0.0804
 1367SOL    HW115563   0.021   3.901  13.687  2.3361 -0.5182 -0.6405
 1367SOL    HW215564   0.023   3.754  13.721 -0.5098  1.4153  2.0364
 1368SOL     OW15565   1.121   3.699   7.622 -0.4989  0.2989  0.3134
 1368SOL    HW115566   1.191   3.649   7.664  0.2559  0.3170 -0.9371
 1368SOL    HW215567   1.115   3.655   7.538  1.6457 -1.3387  1.0118
 1369SOL     OW15568   4.252   4.671  13.875 -0.1434  0.3587  0.3777
 1369SOL    HW115569   4.294   4.656  13.790  1.0223 -0.1673  1.0532
 1369SOL    HW215570   4.256   0.042  13.885  0.4217  0.2377  1.2201
 1370SOL     OW15571   4.684   3.475   6.888  0.0512 -0.4448  0.5897
 1370SOL    HW115572   4.688   3.438   6.800  1.4914  1.9760 -0.3645
 1370SOL    HW215573   4.703   3.566   6.866 -1.9601 -0.1077  0.2323
 1371SOL     OW15574   0.399   1.401  11.346  0.3061 -0.1054 -0.7406
 1371SOL    HW115575   0.376   1.309  11.332  1.0946 -0.1820 -1.5472
 1371SOL    HW215576   0.405   1.444  11.261 -0.4033  2.1173  0.3425
 1372SOL     OW15577   0.070   2.492  12.691 -0.0682  0.0013  0.4086
 1372SOL    HW115578   0.136   2.539  12.742 -1.5228  2.6660 -0.1553
 1372SOL    HW215579   0.124   2.415  12.674 -0.4869 -1.1958  4.6646
 1373SOL     OW15580   2.785   3.014   0.250 -1.0560  0.0708 -0.1940
 1373SOL    HW115581   2.775   2.969   0.167 -2.3772 -1.7030  0.9315
 1373SOL    HW215582   2.852   2.954   0.283  0.7479  1.4796 -1.2814
 1374SOL     OW15583   0.018   4.254   6.663  0.1837 -1.0483 -0.5268
 1374SOL    HW115584   0.092   4.241   6.723 -0.7424  2.3778  1.3170
 1374SOL    HW215585   0.041   4.183   6.603  1.6738  1.1464 -2.5509
 1375SOL     OW15586   0.275   1.277   2.462  0.6242  0.3446 -0.5143
 1375SOL    HW115587   0.210   1.216   2.497  1.6693  1.1598  2.8947
 1375SOL    HW215588   0.309   1.328   2.536  2.2447 -0.0156 -1.0161
 1376SOL     OW15589   3.507   3.291   8.105 -0.4379  0.2355 -0.6496
 1376SOL    HW115590   3.600   3.294   8.129  0.1575 -2.2801 -2.5703
 1376SOL    HW215591   3.467   3.335   8.179 -1.2599 -0.4592 -0.6883
 1377SOL     OW15592   2.803   4.066  12.421 -0.1779  0.1672  0.4956
 1377SOL    HW115593   2.884   4.033  12.381  0.2996  1.0805  0.7280
 1377SOL    HW215594   2.800   4.009  12.498 -1.3363  0.0753  0.3800
 1378SOL     OW15595   2.235   4.593  10.122  0.0769  0.5468  0.1328
 1378SOL    HW115596   2.303   4.526  10.124  0.6807  0.9944 -4.3555
 1378SOL    HW215597   2.282   4.673  10.095 -0.7495  0.2368 -2.2836
 1379SOL     OW15598   1.415   3.123  10.527 -0.2055 -0.6006 -0.6202
 1379SOL    HW115599   1.455   3.207  10.549  1.2614 -1.5612  0.3922
 1379SOL    HW215600   1.353   3.117  10.600  1.9089  0.5471  1.2734
 1380SOL     OW15601   0.869   3.913  14.859  0.2991  0.4858 -0.5196
 1380SOL    HW115602   0.857   3.953  14.773  0.0359 -0.7949 -1.0795
 1380SOL    HW215603   0.827   3.828  14.844  1.5600 -0.4098  1.0798
 1381SOL     OW15604   4.342   1.844  17.610  0.4159 -0.2729 -0.0149
 1381SOL    HW115605   4.352   1.841   0.009 -2.7220 -1.3974  0.3016
 1381SOL    HW215606   4.256   1.886  17.599 -0.1894 -1.2578  0.9236
 1382SOL     OW15607   2.687   3.888   6.150  0.2440  0.1576  0.9629
 1382SOL    HW115608   2.596   3.864   6.168 -0.1712  2.2804  1.7567
 1382SOL    HW215609   2.690   3.984   6.152 -0.7253  0.2274 -1.0747
 1383SOL     OW15610   3.746   1.197   4.535 -0.6697  0.3707 -0.1790
 1383SOL    HW115611   3.789   1.209   4.450  0.7016 -0.8719  0.3362
 1383SOL    HW215612   3.775   1.271   4.588 -1.9149 -0.2044  1.2934
 1384SOL     OW15613   0.340   0.150   8.121 -0.1670  0.1533  0.3385
 1384SOL    HW115614   0.371   0.131   8.210  0.6842 -2.9132 -0.6092
 1384SOL    HW215615   0.421   0.120   8.079  0.0901  0.8669  0.3255
 1385SOL     OW15616   3.690   3.142   3.174  1.3212 -0.3329  0.2593
 1385SOL    HW115617   3.651   3.060   3.204 -1.2610  0.1036 -1.9683
 1385SOL    HW215618   3.757   3.112   3.112  2.0375  1.9986 -0.0729
 1386SOL     OW15619   0.328   4.531   5.847 -0.3948 -0.4710  0.8414
 1386SOL    HW115620   0.288   4.444   5.856 -0.1440 -0.7414 -0.7067
 1386SOL    HW215621   0.396   4.512   5.911  0.5900 -0.6878 -0.2741
 1387SOL     OW15622   1.794   0.789   1.917 -0.5945 -0.1441  0.4140
 1387SOL    HW115623   1.802   0.728   1.990 -0.5237  0.0499  0.5679
 1387SOL    HW215624   1.776   0.733   1.841  2.1874  1.0874 -1.1870
 1388SOL     OW15625   1.415   3.865  14.067  0.5913 -0.5474  0.6023
 1388SOL    HW115626   1.423   3.961  14.064 -3.8629 -0.1815 -1.4970
 1388SOL    HW215627   1.464   3.842  13.988  0.6854 -0.8372  0.7482
 1389SOL     OW15628   4.665   0.158  13.784 -0.0499 -0.3730  0.4010
 1389SOL    HW115629   4.715   0.202  13.853 -0.8953  1.1390  0.0478
 1389SOL    HW215630   4.688   0.070  13.814 -0.5209 -0.5567  0.2101
 1390SOL     OW15631   2.593   0.642   3.456 -0.2856  0.4009 -0.1513
 1390SOL    HW115632   2.510   0.683   3.481 -0.2485  0.7203 -0.5478
 1390SOL    HW215633   2.653   0.716   3.470 -0.7552  0.8265 -0.3925
 1391SOL     OW15634   0.639   2.976  16.400  0.3403 -0.3039  0.0751
 1391SOL    HW115635   0.569   2.994  16.463 -0.1492 -2.6213  0.1697
 1391SOL    HW215636   0.598   2.943  16.320  0.3009 -1.3240  0.5204
 1392SOL     OW15637   0.549   3.580   6.244 -0.6950 -0.2063 -0.5647
 1392SOL    HW115638   0.623   3.522   6.262  0.4341  1.9173  1.6807
 1392SOL    HW215639   0.504   3.542   6.169 -0.5901 -0.7611 -0.3495
 1393SOL     OW15640   3.002   1.451   5.560 -0.4269 -0.3204 -0.3400
 1393SOL    HW115641   2.988   1.510   5.486  1.4505  0.2981 -0.1993
 1393SOL    HW215642   3.050   1.385   5.510  0.4599  0.1575 -0.1178
 1394SOL     OW15643   0.996   3.631   0.321  0.1672  0.0359 -0.4821
 1394SOL    HW115644   0.947   3.583   0.254  0.3339  3.6094 -3.1486
 1394SOL    HW215645   0.922   3.681   0.355  2.7556  1.9413  2.3126
 1395SOL     OW15646   3.597   0.215   8.284 -0.1963 -0.2375  0.3216
 1395SOL    HW115647   3.595   0.120   8.269 -0.9157  0.1233 -1.8313
 1395SOL    HW215648   3.617   0.240   8.194 -0.0895 -0.1065  0.3826
 1396SOL     OW15649   1.223   2.366   6.646  0.4427  0.2122 -0.7291
 1396SOL    HW115650   1.295   2.321   6.690  0.1121  0.0157 -0.3886
 1396SOL    HW215651   1.245   2.330   6.560 -1.1600 -0.7119 -0.7626
 1397SOL     OW15652   0.045   1.895  17.479  0.4481  0.3168 -0.3122
 1397SOL    HW115653   0.034   1.964  17.545  1.0367 -0.2187  0.3474
 1397SOL    HW215654   4.680   1.902  17.445  0.0530 -2.6466  0.1334
 1398SOL     OW15655   4.607   1.717   6.312  0.3362  0.0555  0.7695
 1398SOL    HW115656   4.522   1.680   6.290 -0.3583  0.1905  3.2507
 1398SOL    HW215657   4.650   1.632   6.318  3.3132  1.7274  2.9793
 1399SOL     OW15658   2.180   2.860   7.523 -0.2566 -0.2814 -0.3169
 1399SOL    HW115659   2.271   2.890   7.523  0.0608 -1.2489  0.6606
 1399SOL    HW215660   2.175   2.816   7.438  1.1084 -0.4286 -0.3223
 1400SOL     OW15661   2.205   0.668   5.428  0.0824  0.3544  0.1377
 1400SOL    HW115662   2.200   0.700   5.338 -1.2366  0.5734  0.2829
 1400SOL    HW215663   2.129   0.711   5.466 -0.1704  0.6346 -0.6831
 1401SOL     OW15664   2.896   1.391   3.177 -0.0628 -0.1701 -0.3774
 1401SOL    HW115665   2.949   1.407   3.256 -0.0764 -1.8325 -0.0204
 1401SOL    HW215666   2.939   1.447   3.113 -1.7855 -2.9829 -3.9548
 1402SOL     OW15667   1.611   1.568   5.585  0.7825 -0.0922 -0.2948
 1402SOL    HW115668   1.620   1.477   5.614 -0.5525  0.2325  1.1350
 1402SOL    HW215669   1.685   1.612   5.627 -0.6327  1.3734  0.6788
 1403SOL     OW15670   4.634   4.502   0.924 -0.0160 -0.2317  0.0124
 1403SOL    HW115671   4.714   4.452   0.936 -0.8192 -0.8838  2.5022
 1403SOL    HW215672   4.662   4.583   0.881 -2.0217  0.3635 -0.2059
 1404SOL     OW15673   2.557   3.668   5.956 -0.3292 -0.3126 -0.2790
 1404SOL    HW115674   2.560   3.661   6.051  1.7771 -2.2856 -0.4778
 1404SOL    HW215675   2.498   3.744   5.953 -0.2085 -0.2162 -0.2281
 1405SOL     OW15676   3.434   3.445  12.576 -0.3799  0.0976 -0.1170
 1405SOL    HW115677   3.390   3.459  12.492 -0.6297 -0.2727 -0.0489
 1405SOL    HW215678   3.369   3.459  12.645  0.0586 -0.2874  0.3742
 1406SOL     OW15679   1.491   0.852  10.899  0.1155  0.3615 -0.4041
 1406SOL    HW115680   1.492   0.858  10.994 -2.0359  0.6652 -0.4077
 1406SOL    HW215681   1.457   0.936  10.867 -0.3042  0.8401  1.3061
 1407SOL     OW15682   3.636   1.714  15.475 -0.6383  0.0087  0.1319
 1407SOL    HW115683   3.599   1.743  15.391  0.5290  0.1953 -0.3228
 1407SOL    HW215684   3.555   1.725  15.525 -1.4534  0.3430 -1.2499
 1408SOL     OW15685   4.280   0.695   6.260  0.7609  0.2069  0.7574
 1408SOL    HW115686   4.365   0.663   6.291  1.3192 -0.4053 -1.4044
 1408SOL    HW215687   4.278   0.666   6.169  0.3440  0.1255  0.7953
 1409SOL     OW15688   1.385   2.645   3.843  0.1601 -0.8787 -0.0139
 1409SOL    HW115689   1.303   2.598   3.861 -0.5422 -0.0632 -1.1265
 1409SOL    HW215690   1.437   2.575   3.804  2.2570 -0.2226  1.6289
 1410SOL     OW15691   2.800   3.456   0.907 -0.4351 -0.4468 -0.3180
 1410SOL    HW115692   2.851   3.434   0.829  1.1902  1.8676  0.1079
 1410SOL    HW215693   2.852   3.524   0.950  1.3270 -2.6265  1.0512
 1411SOL     OW15694   4.030   2.664   0.813 -0.2886  0.3320  0.3592
 1411SOL    HW115695   3.942   2.685   0.843 -1.2349  0.5849 -2.6507
 1411SOL    HW215696   4.038   2.720   0.736 -1.9046 -0.7064 -0.5674
 1412SOL     OW15697   1.072   4.010   9.817  0.0587  0.6569  0.0481
 1412SOL    HW115698   0.995   3.953   9.825  0.7290 -0.1198  0.9075
 1412SOL    HW215699   1.113   4.001   9.903  1.1344  1.0600 -0.4283
 1413SOL     OW15700   3.688   2.723   9.771  0.3889 -0.2383  0.3601
 1413SOL    HW115701   3.672   2.704   9.679  0.0061  0.1126  0.3504
 1413SOL    HW215702   3.746   2.798   9.762 -0.4018  0.2924 -0.3314
 1414SOL     OW15703   1.754   0.375   8.377  0.1869 -0.2255 -0.0694
 1414SOL    HW115704   1.683   0.336   8.325 -1.9080  1.7436  1.2886
 1414SOL    HW215705   1.743   0.465   8.348 -0.3617  0.1358  1.2422
 1415SOL     OW15706   1.239   0.670   8.820 -0.2669 -0.0837 -0.0895
 1415SOL    HW115707   1.323   0.711   8.841 -0.8138  1.1458 -0.2679
 1415SOL    HW215708   1.233   0.584   8.861  0.1630 -0.9179 -1.7663
 1416SOL     OW15709   4.567   0.795  16.524  0.4060  0.2203  0.5611
 1416SOL    HW115710   4.475   0.794  16.500  0.6655 -3.9043 -0.2392
 1416SOL    HW215711   4.613   0.784  16.441 -0.2387  0.7534  0.1365
 1417SOL     OW15712   0.735   2.190   2.846  0.2056  0.0069 -0.0469
 1417SOL    HW115713   0.721   2.273   2.891  0.4380  0.6274 -1.1406
 1417SOL    HW215714   0.826   2.165   2.866 -0.1838  0.0539  1.8119
 1418SOL     OW15715   0.357   1.788   5.536  0.2539 -0.0298 -0.5221
 1418SOL    HW115716   0.449   1.780   5.561 -0.1716 -1.2639  0.6064
 1418SOL    HW215717   0.368   1.835   5.453  0.2462 -1.3526 -1.2603
 1419SOL     OW15718   4.354   1.727  13.727  0.7159 -0.5990  0.1155
 1419SOL    HW115719   4.303   1.732  13.647 -1.5037 -1.8194  1.4334
 1419SOL    HW215720   4.298   1.672  13.783  0.1525 -0.3147 -0.1675
 1420SOL     OW15721   1.648   3.508   7.314 -0.1647  0.2472  0.0202
 1420SOL    HW115722   1.669   3.417   7.293 -0.1784  0.3102 -0.2706
 1420SOL    HW215723   1.735   3.537   7.340  0.3081 -0.6282 -0.5914
 1421SOL     OW15724   4.368   1.109   3.800  0.3916 -0.1290  0.0318
 1421SOL    HW115725   4.333   1.195   3.777 -0.6520 -0.0989  1.7275
 1421SOL    HW215726   4.345   1.060   3.722  2.6260  0.8545 -1.2450
 1422SOL     OW15727   2.897   2.039   2.248 -0.1835  0.1774 -0.5135
 1422SOL    HW115728   2.918   2.057   2.340  0.1675 -1.4577 -0.2620
 1422SOL    HW215729   2.985   2.011   2.222  1.2194  1.8684  2.3907
 1423SOL     OW15730   2.615   0.110   9.465 -0.5092  0.5940  0.1555
 1423SOL    HW115731   2.659   0.186   9.504  2.4997  0.1412 -2.3824
 1423SOL    HW215732   2.571   0.075   9.543  0.6474  0.6531  0.8466
 1424SOL     OW15733   0.168   4.528   8.776  0.3280 -0.5786  0.4005
 1424SOL    HW115734   0.212   4.578   8.707  0.5987 -0.6552  0.5150
 1424SOL    HW215735   0.140   4.592   8.841 -0.9163 -1.5528  0.8027
 1425SOL     OW15736   0.723   0.821  13.837 -0.2283  0.0418  0.0180
 1425SOL    HW115737   0.774   0.899  13.814 -2.5617  0.5337 -3.5075
 1425SOL    HW215738   0.778   0.784  13.906 -0.9797  0.2764  0.7507
 1426SOL     OW15739   4.613   3.357  15.649 -0.1437 -0.0454  0.0068
 1426SOL    HW115740   4.639   3.283  15.703 -1.0105 -0.1060  0.3408
 1426SOL    HW215741   4.641   3.326  15.564 -0.8451 -0.6556 -0.0021
 1427SOL     OW15742   4.207   4.241   0.442 -0.1846 -0.3711 -0.7353
 1427SOL    HW115743   4.170   4.226   0.529  0.4567  0.9469 -0.2271
 1427SOL    HW215744   4.134   4.289   0.403 -1.3038 -1.8071 -0.3946
 1428SOL     OW15745   1.961   0.005   5.805  0.0768  0.3873  0.1548
 1428SOL    HW115746   1.995   0.025   5.718  1.6972  0.7868  0.8834
 1428SOL    HW215747   1.872   0.039   5.799  0.0135  0.5544  2.1377
 1429SOL     OW15748   3.394   1.336  17.293  0.4311  0.1387  0.0733
 1429SOL    HW115749   3.389   1.323  17.387 -1.0812  0.4660  0.0490
 1429SOL    HW215750   3.308   1.300  17.270  0.6608 -0.8754  0.8018
 1430SOL     OW15751   3.394   1.620   8.977 -0.7161  0.2831 -0.3882
 1430SOL    HW115752   3.472   1.675   8.967  0.0932 -0.4153  1.9466
 1430SOL    HW215753   3.327   1.681   8.946 -1.3601  0.2819  0.9949
 1431SOL     OW15754   0.574   3.991   2.386 -0.6409  0.2562  0.3946
 1431SOL    HW115755   0.658   4.012   2.345 -1.6497  0.4302 -1.5860
 1431SOL    HW215756   0.568   3.895   2.378  1.1180  0.3577 -1.9612
 1432SOL     OW15757   3.983   2.414  13.230  0.6662  0.1431  0.3721
 1432SOL    HW115758   4.019   2.502  13.230  0.2229  0.3296  0.9484
 1432SOL    HW215759   3.996   2.397  13.324 -2.0245 -3.0923  0.1779
 1433SOL     OW15760   1.105   4.681   7.583 -0.1778  0.4802 -1.3591
 1433SOL    HW115761   1.017   4.716   7.597  0.4461  1.7329 -0.4783
 1433SOL    HW215762   1.088   4.588   7.596 -0.6945  0.6381 -0.8803
 1434SOL     OW15763   3.008   1.590  10.601  0.2559 -0.1694  0.2547
 1434SOL    HW115764   3.092   1.596  10.647  1.9251 -0.7541 -2.7180
 1434SOL    HW215765   2.980   1.500  10.621 -0.0200  0.0807  1.0104
 1435SOL     OW15766   2.035   0.649  14.022  0.3966  0.0955  0.9288
 1435SOL    HW115767   1.972   0.606  14.081 -1.4219  1.0226 -0.3464
 1435SOL    HW215768   2.111   0.665  14.078  1.7285 -0.8383 -0.6082
 1436SOL     OW15769   3.529   4.528   7.842  0.4594 -0.3980 -0.3052
 1436SOL    HW115770   3.517   4.457   7.780  1.5782 -0.8248 -0.0382
 1436SOL    HW215771   3.605   4.496   7.890 -1.1218 -1.6554  1.3502
 1437SOL     OW15772   2.778   0.738   4.275 -0.1807  0.7627 -0.0680
 1437SOL    HW115773   2.868   0.712   4.254 -0.2712  0.9668 -0.6844
 1437SOL    HW215774   2.771   0.708   4.366  0.8841 -1.5044 -0.7182
 1438SOL     OW15775   3.581   1.351   7.975  0.0954  0.6917  0.6802
 1438SOL    HW115776   3.522   1.277   7.959  1.3610  0.5223 -3.1673
 1438SOL    HW215777   3.540   1.384   8.056 -2.3048 -3.1812  1.0334
 1439SOL     OW15778   2.678   2.332   3.333 -0.5125  0.1623  0.0392
 1439SOL    HW115779   2.626   2.362   3.258 -0.8207 -0.4777  0.0009
 1439SOL    HW215780   2.646   2.401   3.392 -3.1481 -2.0462  1.1839
 1440SOL     OW15781   1.945   1.758   4.141 -0.2891  0.0708  0.0265
 1440SOL    HW115782   1.870   1.702   4.159 -0.3991  0.1116 -0.3078
 1440SOL    HW215783   2.009   1.713   4.197  1.3868  1.2114 -0.9521
 1441SOL     OW15784   2.048   1.254   4.072 -0.3152  0.1975 -0.1385
 1441SOL    HW115785   2.067   1.195   4.145 -0.1109  1.6984  1.0262
 1441SOL    HW215786   2.018   1.335   4.114  0.3488  0.6091 -0.4651
 1442SOL     OW15787   0.082   4.200   6.036  0.7626  0.3452 -0.0556
 1442SOL    HW115788   0.076   4.290   6.067  1.4037  1.2404 -2.4838
 1442SOL    HW215789   0.051   4.195   5.946  3.6263 -2.8622 -0.8766
 1443SOL     OW15790   4.425   0.053   7.939  0.5831 -0.2514  0.2618
 1443SOL    HW115791   4.469   0.117   7.995 -0.7264 -0.3329  1.3468
 1443SOL    HW215792   4.399   4.706   7.997 -2.3305 -0.3588 -1.2019
 1444SOL     OW15793   2.760   0.425   7.001  0.0542 -0.2347 -0.0029
 1444SOL    HW115794   2.791   0.398   6.915 -1.2352  0.7125 -0.7627
 1444SOL    HW215795   2.816   0.501   7.020  0.3956 -0.3994 -0.3422
 1445SOL     OW15796   0.857   3.590  10.752  0.2863 -0.7343  0.2258
 1445SOL    HW115797   0.854   3.614  10.845 -0.8129 -0.5310  0.1297
 1445SOL    HW215798   0.942   3.630  10.733 -0.1645  0.5979  1.0088
 1446SOL     OW15799   1.234   0.668  17.137  0.2108  0.1709 -0.4018
 1446SOL    HW115800   1.185   0.737  17.094  1.0031  1.4798  0.8071
 1446SOL    HW215801   1.251   0.710  17.221  1.9449  0.2450 -0.7744
 1447SOL     OW15802   0.440   1.666   5.022  0.0479 -0.0324 -0.1350
 1447SOL    HW115803   0.511   1.724   4.995  0.9107 -1.6859 -1.4193
 1447SOL    HW215804   0.428   1.697   5.111  1.3159 -0.0975  0.0576
 1448SOL     OW15805   1.759   0.737   7.610 -0.6721 -1.5475  0.0569
 1448SOL    HW115806   1.678   0.685   7.607 -1.1436 -0.6924 -2.0844
 1448SOL    HW215807   1.798   0.690   7.536 -0.9700 -1.7232  0.0112
 1449SOL     OW15808   2.236   3.996   8.902 -0.1374  0.0863  0.2887
 1449SOL    HW115809   2.181   3.932   8.947  1.5438 -1.9763 -0.5566
 1449SOL    HW215810   2.201   4.081   8.927  0.3071  0.0425  1.0661
 1450SOL     OW15811   3.645   4.635  13.854  0.4307  0.1270 -0.4493
 1450SOL    HW115812   3.663   4.714  13.904 -1.2062  2.1390 -3.0039
 1450SOL    HW215813   3.568   4.608  13.903  1.4390 -1.8761  0.0462
 1451SOL     OW15814   1.147   1.135   3.966  0.1548  0.3965  0.3729
 1451SOL    HW115815   1.165   1.134   4.060  1.0040  1.6787  0.2161
 1451SOL    HW215816   1.079   1.068   3.960 -2.2483  2.9357 -0.5883
 1452SOL     OW15817   0.871   1.328  10.005 -0.4712 -0.3618 -0.1788
 1452SOL    HW115818   0.849   1.366   9.920  1.3168 -0.0017 -0.4805
 1452SOL    HW215819   0.933   1.389  10.046 -1.1265  0.0107  0.2628
 1453SOL     OW15820   2.260   0.580   7.078 -0.3604 -0.4989  0.1958
 1453SOL    HW115821   2.253   0.588   7.173 -1.1380  0.2618  0.0799
 1453SOL    HW215822   2.329   0.516   7.062  1.0609  0.7154  1.4747
 1454SOL     OW15823   0.323   2.879   2.634 -0.1648  0.4184  0.0015
 1454SOL    HW115824   0.323   2.965   2.592 -0.8052  0.6826  0.5639
 1454SOL    HW215825   0.405   2.886   2.684 -0.5924 -1.4673  0.9395
 1455SOL     OW15826   0.357   3.652   8.759 -0.2532 -0.1059  1.3104
 1455SOL    HW115827   0.280   3.653   8.702 -0.3894 -1.8091  1.4694
 1455SOL    HW215828   0.340   3.583   8.823  0.5181 -0.4401  1.1574
 1456SOL     OW15829   0.952   1.873   7.236  0.4674 -0.1801 -0.0191
 1456SOL    HW115830   0.882   1.927   7.274 -0.6883 -1.7060  0.0095
 1456SOL    HW215831   0.970   1.815   7.310  0.9760  0.2848  0.2233
 1457SOL     OW15832   4.350   2.204  17.218 -0.6307 -0.0594 -0.2677
 1457SOL    HW115833   4.382   2.240  17.135  2.2064 -3.7422 -0.7875
 1457SOL    HW215834   4.263   2.241  17.229 -2.1315 -2.9534 -2.4446
 1458SOL     OW15835   3.874   2.513  14.990 -0.4126 -0.4398 -0.0968
 1458SOL    HW115836   3.818   2.473  14.923 -0.8203 -1.6141  0.9434
 1458SOL    HW215837   3.943   2.447  14.982 -2.5977 -2.7686  0.2811
 1459SOL     OW15838   2.625   0.063  16.050 -0.3307 -0.0529  0.2355
 1459SOL    HW115839   2.696   0.005  16.021  0.1224 -0.0264  1.2792
 1459SOL    HW215840   2.579   0.005  16.111 -0.7377 -1.3194 -1.2520
 1460SOL     OW15841   1.274   1.246   5.964 -0.2388 -0.2084 -0.2997
 1460SOL    HW115842   1.201   1.218   5.908 -0.5816 -0.8236  0.4383
 1460SOL    HW215843   1.290   1.163   6.010 -3.3918 -0.5342  0.2392
 1461SOL     OW15844   0.871   3.381   5.008  0.2143  0.0579  0.1791
 1461SOL    HW115845   0.960   3.414   5.002  0.9481 -1.8637  0.2663
 1461SOL    HW215846   0.874   3.332   4.926  1.2221  1.9983 -0.9288
 1462SOL     OW15847   1.910   3.881   5.521 -0.1254  0.0972 -0.0406
 1462SOL    HW115848   1.962   3.829   5.460 -0.7521 -0.0049 -0.4781
 1462SOL    HW215849   1.840   3.820   5.542  0.5026  0.3297  2.7162
 1463SOL     OW15850   2.833   0.334  17.067  0.6124 -0.1249 -0.3262
 1463SOL    HW115851   2.895   0.368  17.001 -1.0490  1.3732 -1.1167
 1463SOL    HW215852   2.852   0.397  17.137 -2.2962 -0.2227  0.5159
 1464SOL     OW15853   0.580   2.893   5.762 -0.0856 -0.2343 -0.2137
 1464SOL    HW115854   0.494   2.894   5.719 -0.2898 -0.6226  0.1899
 1464SOL    HW215855   0.586   2.970   5.819 -0.8362  0.2263 -0.7543
 1465SOL     OW15856   4.108   0.191   9.342 -0.5157  0.3559 -0.1859
 1465SOL    HW115857   4.132   0.099   9.326  1.0097  0.1864  3.0035
 1465SOL    HW215858   4.146   0.226   9.262 -1.8710 -1.7949 -1.7795
 1466SOL     OW15859   3.289   4.187   8.593 -0.3364  0.0409 -0.1342
 1466SOL    HW115860   3.216   4.227   8.546 -0.3236 -0.3462 -0.4913
 1466SOL    HW215861   3.249   4.132   8.661  1.7042 -0.7602  0.4060
 1467SOL     OW15862   0.934   0.864   5.213  0.5771  0.3939  0.2317
 1467SOL    HW115863   0.928   0.850   5.307  2.0987  0.7012  0.3801
 1467SOL    HW215864   0.953   0.958   5.210 -1.0516  0.6513 -1.5711
 1468SOL     OW15865   1.999   2.549   7.715 -0.3709  0.1453  0.5741
 1468SOL    HW115866   2.028   2.629   7.759 -0.9518  2.9582 -4.1460
 1468SOL    HW215867   2.049   2.497   7.778 -0.5703  0.1260  0.7137
 1469SOL     OW15868   2.836   0.484   5.918  0.0426  0.0799  0.3208
 1469SOL    HW115869   2.821   0.471   5.825  0.9508 -0.4712  0.2546
 1469SOL    HW215870   2.902   0.553   5.919  1.4796 -1.3102  0.5378
 1470SOL     OW15871   1.161   0.854  13.021 -0.4928 -0.0521  0.0608
 1470SOL    HW115872   1.160   0.786  12.954  0.0293  0.3369 -0.3410
 1470SOL    HW215873   1.173   0.790  13.091 -3.1270  0.9808  1.4379
 1471SOL     OW15874   0.336   2.643   0.316 -0.2125  0.1516  0.1206
 1471SOL    HW115875   0.362   2.725   0.358  0.1550  1.3639 -2.4193
 1471SOL    HW215876   0.248   2.641   0.355  0.2004 -0.7519  0.9971
 1472SOL     OW15877   1.666   1.621   3.454 -0.1156 -0.1384  0.1354
 1472SOL    HW115878   1.755   1.587   3.448 -0.9096 -2.3103  0.4085
 1472SOL    HW215879   1.613   1.550   3.417  0.2914 -0.1241 -0.4797
 1473SOL     OW15880   0.296   0.473   0.195 -0.4306 -0.0051 -0.2912
 1473SOL    HW115881   0.253   0.547   0.151 -1.3066 -1.8715 -2.5541
 1473SOL    HW215882   0.369   0.467   0.133  0.6886  1.4808  0.8638
 1474SOL     OW15883   2.897   0.439   8.753  0.0675 -0.2197 -0.2058
 1474SOL    HW115884   2.948   0.378   8.806 -3.9111 -3.3590 -0.0644
 1474SOL    HW215885   2.949   0.518   8.768 -0.9199  0.5439 -0.8024
 1475SOL     OW15886   3.770   3.317   7.915 -0.0223  0.0894 -0.3337
 1475SOL    HW115887   3.821   3.344   7.992 -0.0436  1.2824 -0.7371
 1475SOL    HW215888   3.768   3.400   7.867  0.2271 -1.7057 -3.4250
 1476SOL     OW15889   3.907   2.498  12.902  0.1700  0.2849 -0.4934
 1476SOL    HW115890   3.914   2.418  12.955  2.8806  1.1064  0.3664
 1476SOL    HW215891   3.814   2.508  12.923  0.1005 -0.4071 -0.4604
 1477SOL     OW15892   0.454   2.073  16.433 -0.2185  0.2545 -0.2802
 1477SOL    HW115893   0.512   2.097  16.505  1.2816 -0.6085 -1.2042
 1477SOL    HW215894   0.373   2.057  16.481  0.7186  2.0416  1.8777
 1478SOL     OW15895   3.441   2.014   8.738  0.3632 -0.2107 -0.2049
 1478SOL    HW115896   3.473   2.027   8.649  1.1791 -0.9580 -0.0190
 1478SOL    HW215897   3.378   2.085   8.750 -0.1183 -0.4020 -1.5961
 1479SOL     OW15898   2.922   1.533  14.476 -0.3352  0.2214  0.1909
 1479SOL    HW115899   2.895   1.499  14.391  0.7657  0.0885 -0.0993
 1479SOL    HW215900   2.933   1.628  14.467 -0.1097  0.2790  1.0069
 1480SOL     OW15901   1.809   3.257   4.536 -0.3078  0.5896 -0.4017
 1480SOL    HW115902   1.837   3.230   4.448 -1.7046  1.1285 -1.0096
 1480SOL    HW215903   1.844   3.179   4.580 -2.2197  0.0844  0.2235
 1481SOL     OW15904   2.067   1.384   3.419  0.1168 -0.0924  0.2317
 1481SOL    HW115905   1.977   1.374   3.450  0.6011  0.0696  1.6865
 1481SOL    HW215906   2.075   1.304   3.367 -1.1317 -1.5697  2.2888
 1482SOL     OW15907   2.630   0.885   8.837  0.6675  0.4049 -0.1116
 1482SOL    HW115908   2.561   0.940   8.801 -1.3184 -2.3436 -0.4855
 1482SOL    HW215909   2.714   0.927   8.819  0.3769  1.4560  1.0498
 1483SOL     OW15910   2.903   1.029   5.624  0.0822  0.3135  0.3821
 1483SOL    HW115911   2.943   1.115   5.632 -1.1766  0.9746 -0.2967
 1483SOL    HW215912   2.836   1.029   5.693 -0.0150 -0.6597  0.2791
 1484SOL     OW15913   4.316   0.325  15.783 -0.0487 -0.2415  0.0118
 1484SOL    HW115914   4.370   0.404  15.796  1.1718 -0.6970 -2.3121
 1484SOL    HW215915   4.232   0.365  15.759  0.9877  0.4716 -2.4634
 1485SOL     OW15916   3.746   2.455   3.509  0.8184  0.1227  0.2421
 1485SOL    HW115917   3.656   2.469   3.539  0.1868 -0.5951 -1.3256
 1485SOL    HW215918   3.785   2.434   3.594 -3.3543  1.6172  2.4805
 1486SOL     OW15919   0.163   2.767   6.681 -0.0095 -0.0077 -0.4956
 1486SOL    HW115920   0.254   2.759   6.651 -0.4004  1.2495 -2.0223
 1486SOL    HW215921   0.136   2.686   6.723  1.3787 -1.0337 -1.6037
 1487SOL     OW15922   1.102   4.337   2.031 -0.6762  0.3983 -0.0593
 1487SOL    HW115923   1.123   4.412   2.085 -0.2140  0.1499  0.1066
 1487SOL    HW215924   1.052   4.370   1.956  2.3165 -0.0923 -2.2722
 1488SOL     OW15925   3.621   2.331   5.550  0.2748 -0.4016 -0.4137
 1488SOL    HW115926   3.688   2.349   5.484  0.7523 -0.9345 -0.0734
 1488SOL    HW215927   3.664   2.293   5.627 -1.1988  0.4123  0.8227
 1489SOL     OW15928   0.937   0.822   8.390 -0.1355 -0.1940 -0.3762
 1489SOL    HW115929   1.022   0.791   8.423  0.1554 -1.7479 -2.5819
 1489SOL    HW215930   0.960   0.851   8.301  0.2932  2.7072  0.6978
 1490SOL     OW15931   1.782   4.513   5.277 -0.2876 -0.0588 -0.6046
 1490SOL    HW115932   1.844   4.585   5.293  1.0549 -0.8243 -2.3772
 1490SOL    HW215933   1.834   4.454   5.222  3.2110  0.8625  1.6588
 1491SOL     OW15934   2.350   2.121   3.568  0.1713 -0.4599 -0.6419
 1491SOL    HW115935   2.349   2.207   3.526  0.4131 -0.2171 -0.1446
 1491SOL    HW215936   2.263   2.088   3.545 -0.0249  1.4605 -2.7039
 1492SOL     OW15937   2.309   2.039   0.505  0.3133 -0.7456 -0.4529
 1492SOL    HW115938   2.288   1.946   0.511  0.1710 -0.5708  1.9026
 1492SOL    HW215939   2.337   2.038   0.413  1.3266  1.1781 -0.1538
 1493SOL     OW15940   3.611   0.886  16.324 -0.1852  0.0259 -0.1296
 1493SOL    HW115941   3.640   0.801  16.291  0.0484  0.5830 -1.3388
 1493SOL    HW215942   3.540   0.858  16.383  1.3327 -1.2688  1.0959
 1494SOL     OW15943   2.719   3.551   6.551  0.0183  0.1498  0.2605
 1494SOL    HW115944   2.672   3.631   6.527 -0.6139 -0.4906 -0.6286
 1494SOL    HW215945   2.810   3.581   6.552 -0.1962  0.8805 -1.4130
 1495SOL     OW15946   4.323   0.541  10.917 -0.6954 -0.0421  0.3689
 1495SOL    HW115947   4.304   0.465  10.862  2.9732 -0.3668 -0.4552
 1495SOL    HW215948   4.414   0.553  10.888 -0.4944 -0.1499  0.9548
 1496SOL     OW15949   2.420   3.554   2.148  0.6012 -0.4971  0.7875
 1496SOL    HW115950   2.484   3.545   2.077  0.0605 -0.2507  0.2732
 1496SOL    HW215951   2.478   3.579   2.221  0.2578 -2.4489  1.7482
 1497SOL     OW15952   2.603   2.209   1.179 -0.4709 -0.4255  0.1673
 1497SOL    HW115953   2.532   2.161   1.137  1.1500 -0.2965 -2.6988
 1497SOL    HW215954   2.592   2.290   1.128 -0.7880  0.3089  1.3925
 1498SOL     OW15955   2.505   3.399   6.443  0.2947 -0.3660 -0.0829
 1498SOL    HW115956   2.586   3.449   6.451 -1.1568  1.8166  0.8434
 1498SOL    HW215957   2.537   3.314   6.413 -1.8396 -1.6403  1.2952
 1499SOL     OW15958   4.621   0.767   4.447  0.1074 -0.0194  0.1434
 1499SOL    HW115959   4.670   0.724   4.517  0.0450  1.1468  0.8938
 1499SOL    HW215960   4.683   0.831   4.414 -1.2000  1.3783  0.3964
 1500SOL     OW15961   2.773   1.600   7.278  0.1903 -0.6531  0.0935
 1500SOL    HW115962   2.797   1.543   7.204  3.5662  2.9256 -1.6022
 1500SOL    HW215963   2.690   1.564   7.307 -2.2804  2.4836 -3.0490
 1501SOL     OW15964   1.221   2.117   3.242  0.1213  0.2889  0.0081
 1501SOL    HW115965   1.271   2.041   3.271  1.0885  0.4156 -1.3641
 1501SOL    HW215966   1.236   2.106   3.148 -1.8561 -3.5545  0.1333
 1502SOL     OW15967   4.682   4.364   3.344 -1.2097  0.5553 -0.4650
 1502SOL    HW115968   4.624   4.343   3.271 -0.4155  0.0102 -0.9288
 1502SOL    HW215969   4.613   4.396   3.402 -0.8505 -0.8525  0.7370
 1503SOL     OW15970   3.019   0.720   4.181 -0.1524  0.1436 -0.2198
 1503SOL    HW115971   3.086   0.663   4.216 -0.1527  0.6275  0.5775
 1503SOL    HW215972   3.031   0.699   4.089  0.8462  0.2224 -0.1088
 1504SOL     OW15973   2.539   3.804  10.376 -0.4080  0.8167 -0.3960
 1504SOL    HW115974   2.610   3.765  10.325 -2.6069 -2.2814 -1.0848
 1504SOL    HW215975   2.490   3.866  10.323 -1.4705 -0.2229 -0.6477
 1505SOL     OW15976   3.460   3.677   4.288  0.3018  0.3737 -0.0178
 1505SOL    HW115977   3.543   3.699   4.331 -0.5217 -0.4259  2.0226
 1505SOL    HW215978   3.410   3.758   4.295  0.4669  0.7157 -3.0623
 1506SOL     OW15979   1.986   0.324   7.663  0.2529 -0.4770  0.8325
 1506SOL    HW115980   1.899   0.299   7.696  0.0940 -1.7870 -0.5941
 1506SOL    HW215981   1.982   0.419   7.663 -0.2144 -0.5017  0.0915
 1507SOL     OW15982   1.467   2.121   8.766 -0.0020 -0.0310 -0.3286
 1507SOL    HW115983   1.437   2.030   8.766 -1.0318  0.3104  0.1705
 1507SOL    HW215984   1.561   2.110   8.776  0.1198  1.1964 -0.1236
 1508SOL     OW15985   4.264   2.804   9.990  0.6632 -0.2448  0.1349
 1508SOL    HW115986   4.226   2.892   9.989 -0.2836 -0.6591 -0.1723
 1508SOL    HW215987   4.351   2.822  10.027  0.8892 -0.5804 -0.2395
 1509SOL     OW15988   2.764   4.517   8.223 -0.1938  0.2701  0.8093
 1509SOL    HW115989   2.705   4.498   8.296  0.1301  0.6675  1.1730
 1509SOL    HW215990   2.734   4.446   8.166  0.9888 -0.3164  0.9147
 1510SOL     OW15991   4.297   0.848   2.595  0.5011  0.7253 -0.6822
 1510SOL    HW115992   4.267   0.772   2.644  0.5591  0.3245 -1.2665
 1510SOL    HW215993   4.247   0.924   2.624  0.6246 -0.7455  3.3336
 1511SOL     OW15994   2.105   0.374  16.676  0.2527 -0.0035  0.1220
 1511SOL    HW115995   2.077   0.453  16.723 -1.3063 -0.8761  0.6548
 1511SOL    HW215996   2.171   0.416  16.620  1.2029 -0.1547  1.1429
 1512SOL     OW15997   4.350   3.216   5.033 -0.1984 -0.4023  0.3722
 1512SOL    HW115998   4.382   3.148   4.973 -1.1477 -2.5196  2.2645
 1512SOL    HW215999   4.301   3.159   5.092 -1.0549  1.1154  1.1183
 1513SOL     OW16000   0.049   1.378   9.833  0.1376  0.1708 -0.3168
 1513SOL    HW116001   0.065   1.437   9.907 -2.5172 -0.5692  0.8591
 1513SOL    HW216002   0.045   1.297   9.884  0.0095  0.0666 -0.4913
 1514SOL     OW16003   1.913   4.301   6.303  0.1926  0.1611  0.5464
 1514SOL    HW116004   1.998   4.342   6.321 -0.1522  1.7722 -1.4844
 1514SOL    HW216005   1.855   4.368   6.340  1.1000  0.6214  1.1179
 1515SOL     OW16006   4.663   2.560   8.972  0.0773  0.0388  0.1382
 1515SOL    HW116007   4.630   2.574   9.060  1.9198 -1.6417  1.0823
 1515SOL    HW216008   4.617   2.482   8.941 -1.4600  0.3998  1.5231
 1516SOL     OW16009   0.714   0.127  17.678  0.0542  0.3280 -0.2788
 1516SOL    HW116010   0.750   0.216  17.673 -1.2794  0.8819  0.0520
 1516SOL    HW216011   0.678   0.111  17.590  0.0066 -1.5482  0.0784
 1517SOL     OW16012   1.683   0.918   9.703 -0.3247  0.2107  0.1267
 1517SOL    HW116013   1.676   1.005   9.741 -0.2163 -0.4043  1.5409
 1517SOL    HW216014   1.642   0.929   9.617 -2.2688  1.3413  1.2209
 1518SOL     OW16015   4.688   4.520  14.190 -0.3745  0.0924 -0.0741
 1518SOL    HW116016   4.605   4.481  14.162  0.4864 -1.6263 -0.2029
 1518SOL    HW216017   0.021   4.446  14.209  0.2973  0.5050 -0.4616
 1519SOL     OW16018   1.208   0.306   5.219  0.3285 -0.1035 -0.5062
 1519SOL    HW116019   1.168   0.366   5.156  1.3338  1.9158  0.7489
 1519SOL    HW216020   1.214   0.229   5.164  1.8714 -0.0918 -0.3603
 1520SOL     OW16021   1.030   3.760   4.806 -0.2418 -0.0206 -0.8012
 1520SOL    HW116022   0.962   3.819   4.838 -0.4648  0.0311 -1.3741
 1520SOL    HW216023   0.980   3.692   4.761 -0.7666  0.5854 -1.1244
 1521SOL     OW16024   3.435   2.885  14.738  0.1258 -0.1056  0.1876
 1521SOL    HW116025   3.405   2.919  14.654 -3.1063 -2.2657  0.4258
 1521SOL    HW216026   3.368   2.912  14.802  0.9350 -0.4319  1.1817
 1522SOL     OW16027   4.608   2.798   3.134 -0.0563  0.1571  0.0322
 1522SOL    HW116028   4.525   2.830   3.169 -0.9166 -2.2208  0.1627
 1522SOL    HW216029   4.575   2.749   3.058 -4.1254  0.3616  1.6634
 1523SOL     OW16030   1.611   0.576   8.239 -0.2235 -0.3821  0.3595
 1523SOL    HW116031   1.594   0.648   8.179  0.3558 -0.9352 -0.4672
 1523SOL    HW216032   1.526   0.532   8.231 -0.0902 -0.6211  0.2381
 1524SOL     OW16033   0.666   0.114   5.601 -0.1303  0.6885  0.0662
 1524SOL    HW116034   0.709   0.179   5.546  3.5088 -0.5984  1.3393
 1524SOL    HW216035   0.698   0.149   5.684  1.5070  0.5618 -0.5019
 1525SOL     OW16036   0.381   4.535   3.396  0.2328 -0.2226 -0.6076
 1525SOL    HW116037   0.455   4.553   3.338  0.9654 -2.8869 -0.4874
 1525SOL    HW216038   0.301   4.561   3.351 -0.4170 -0.6014  0.3411
 1526SOL     OW16039   2.883   3.704   1.165  0.7547  0.0242 -0.0137
 1526SOL    HW116040   2.792   3.734   1.172  0.2175 -1.3307 -1.1534
 1526SOL    HW216041   2.895   3.732   1.074  0.7342  0.8926  0.2519
 1527SOL     OW16042   2.850   4.215  17.257 -0.8207 -0.2455  0.1974
 1527SOL    HW116043   2.888   4.128  17.273 -2.5881 -1.0953 -0.2738
 1527SOL    HW216044   2.926   4.260  17.293 -0.8717  0.3386 -0.4245
 1528SOL     OW16045   1.322   0.952  17.597  0.6404 -0.2289  0.4349
 1528SOL    HW116046   1.392   0.932  17.658 -1.6978 -2.8530  2.2585
 1528SOL    HW216047   1.315   1.047  17.586 -0.9738 -0.3675  0.1673
 1529SOL     OW16048   3.537   1.410   9.162  0.3449 -0.3680  0.3736
 1529SOL    HW116049   3.547   1.461   9.242 -0.5858  0.2538  0.1021
 1529SOL    HW216050   3.510   1.471   9.094 -1.0580 -1.2152  0.1514
 1530SOL     OW16051   4.510   1.253   8.037  0.2025 -0.4654 -0.0297
 1530SOL    HW116052   4.539   1.246   8.128 -2.4968  2.7983  1.1116
 1530SOL    HW216053   4.589   1.216   7.998 -0.2562 -0.0338 -1.3548
 1531SOL     OW16054   0.039   4.363   1.199 -0.5152 -0.0030  0.3126
 1531SOL    HW116055   0.090   4.401   1.128 -0.0295  1.6973  1.5886
 1531SOL    HW216056   4.715   4.288   1.163 -2.3887  1.5769 -0.5092
 1532SOL     OW16057   1.069   0.148   5.554 -0.1751  0.2837  0.4614
 1532SOL    HW116058   0.999   0.191   5.505 -0.3003 -1.0019 -0.4633
 1532SOL    HW216059   1.103   0.088   5.488 -1.1382 -0.0987  0.3232
 1533SOL     OW16060   1.528   2.263   7.812  0.2329  0.0110 -0.4480
 1533SOL    HW116061   1.525   2.289   7.720  3.1622  0.9796 -0.2583
 1533SOL    HW216062   1.607   2.309   7.840  0.7645 -1.4500  0.4003
 1534SOL     OW16063   0.194   1.215   5.559  0.4291 -0.4203 -0.1998
 1534SOL    HW116064   0.189   1.119   5.565  2.3535 -0.5674 -0.6666
 1534SOL    HW216065   0.108   1.247   5.534  0.9560  0.6603 -0.6039
 1535SOL     OW16066   0.998   1.026   4.713  0.3694 -0.1095  0.2175
 1535SOL    HW116067   0.954   0.951   4.753  0.4765 -1.1660 -1.6389
 1535SOL    HW216068   0.963   1.024   4.624  1.7708  1.2481 -0.3507
 1536SOL     OW16069   0.244   4.664   4.731  0.5686  0.2673  0.3360
 1536SOL    HW116070   0.162   4.709   4.751  0.8602  0.7038  0.5594
 1536SOL    HW216071   0.215   4.590   4.678  1.2873 -0.0497  0.3882
 1537SOL     OW16072   0.051   0.931   0.478 -0.2150 -0.6193  0.5455
 1537SOL    HW116073   4.688   0.928   0.439 -0.4577 -0.8342  1.1032
 1537SOL    HW216074   0.089   0.883   0.404  0.2295 -0.0261  0.3861
 1538SOL     OW16075   0.999   2.145   2.845 -0.5565  0.3861  0.1807
 1538SOL    HW116076   1.089   2.165   2.868 -0.5216 -0.2071  0.5744
 1538SOL    HW216077   0.975   2.222   2.794  0.9218  0.8783  0.2366
 1539SOL     OW16078   1.584   1.157   8.525  0.1724  0.2425  0.1944
 1539SOL    HW116079   1.529   1.108   8.585  0.2029  0.1251  0.1270
 1539SOL    HW216080   1.538   1.241   8.514  0.9896  0.5094 -1.2937
 1540SOL     OW16081   2.752   3.143   0.548 -0.1264  0.4355 -0.4879
 1540SOL    HW116082   2.742   3.051   0.525  0.3770  0.1244  0.5562
 1540SOL    HW216083   2.759   3.180   0.460 -1.4470  0.7961 -0.4426
 1541SOL     OW16084   4.393   0.686   8.178 -0.8694 -0.5847 -0.3028
 1541SOL    HW116085   4.372   0.754   8.114 -0.4388 -1.7959 -1.7125
 1541SOL    HW216086   4.377   0.741   8.255 -1.1065 -1.0803  0.0064
 1542SOL     OW16087   0.687   2.241   4.237  0.1038  0.1667 -0.0588
 1542SOL    HW116088   0.649   2.317   4.192  1.4738  0.5014 -0.6541
 1542SOL    HW216089   0.611   2.184   4.223 -0.3031  0.2399  1.8986
 1543SOL     OW16090   2.483   2.603   1.964 -0.4898  0.0716 -0.2244
 1543SOL    HW116091   2.510   2.662   2.034  0.8133 -0.9024  0.0894
 1543SOL    HW216092   2.559   2.614   1.906  0.8169 -0.5339  1.3656
 1544SOL     OW16093   1.972   4.693   4.761 -0.1418  0.2524 -0.4701
 1544SOL    HW116094   1.969   0.062   4.785 -0.8316 -0.4195  1.9583
 1544SOL    HW216095   2.035   4.696   4.689  0.3150  0.0180 -0.0728
 1545SOL     OW16096   0.442   0.359  17.646  0.0649  0.1377  0.6151
 1545SOL    HW116097   0.534   0.347  17.672  0.7245  1.1159 -1.2590
 1545SOL    HW216098   0.407   0.271  17.657 -1.0387  0.7110  1.7007
 1546SOL     OW16099   2.255   1.021   6.405  0.3807  0.2727 -0.1668
 1546SOL    HW116100   2.216   1.063   6.482 -1.3973  2.9223 -2.5385
 1546SOL    HW216101   2.251   0.928   6.427  2.3838 -0.1214 -1.4520
 1547SOL     OW16102   2.526   1.699   5.549 -0.1152 -0.0235 -0.4461
 1547SOL    HW116103   2.443   1.744   5.534  0.2782  0.9402  0.2353
 1547SOL    HW216104   2.508   1.615   5.507 -2.1846 -0.4332  1.2738
 1548SOL     OW16105   1.937   2.318  15.802 -0.5284  0.5107 -0.0243
 1548SOL    HW116106   1.980   2.258  15.863 -1.0261 -1.3934 -1.5474
 1548SOL    HW216107   1.908   2.381  15.868 -0.1839  1.6139 -0.9265
 1549SOL     OW16108   0.293   3.087   8.297 -0.1455 -0.1334 -0.7517
 1549SOL    HW116109   0.332   3.167   8.262 -3.4912  1.6787 -0.2977
 1549SOL    HW216110   0.367   3.026   8.289  0.0878 -0.0116  0.5106
 1550SOL     OW16111   4.683   3.753  14.028  0.2554 -0.2673 -0.3167
 1550SOL    HW116112   4.680   3.667  14.070 -3.1655 -0.0496 -0.1082
 1550SOL    HW216113   0.028   3.737  13.964 -0.3183 -0.9492 -0.7597
 1551SOL     OW16114   2.731   2.029   3.239  0.1856  0.2921  0.2359
 1551SOL    HW116115   2.696   2.091   3.303  1.9817 -1.1820  2.6103
 1551SOL    HW216116   2.653   1.989   3.200  0.5546 -1.1909  1.0360
 1552SOL     OW16117   0.061   2.881   8.768  0.1646  0.1385 -0.1057
 1552SOL    HW116118   4.711   2.911   8.822  1.0511  1.8751  0.1419
 1552SOL    HW216119   0.058   2.949   8.701 -1.6315  1.7380  1.5715
 1553SOL     OW16120   0.739   0.155   0.833  0.7663  0.0855 -0.2758
 1553SOL    HW116121   0.821   0.202   0.848  1.7465 -1.4684 -0.7007
 1553SOL    HW216122   0.717   0.176   0.743  0.7984  1.2506 -0.0138
 1554SOL     OW16123   4.578   3.199   4.729  0.0271 -0.3064 -0.1086
 1554SOL    HW116124   4.544   3.289   4.733 -1.7799 -0.9468 -1.1903
 1554SOL    HW216125   4.496   3.157   4.703 -0.1117 -1.5116  2.3219
 1555SOL     OW16126   2.621   3.915   4.674 -0.1803  0.3010  0.0630
 1555SOL    HW116127   2.573   3.943   4.596  0.9194  0.3790 -0.5833
 1555SOL    HW216128   2.646   4.000   4.711 -0.2108 -0.4308  1.7606
 1556SOL     OW16129   0.263   3.051  17.130  0.4918 -0.1430 -0.3795
 1556SOL    HW116130   0.231   2.961  17.123 -0.0758  0.2242 -2.5108
 1556SOL    HW216131   0.183   3.105  17.128  0.8348  0.2809 -2.5962
 1557SOL     OW16132   0.372   2.079   1.954  0.4798  0.6725  0.1288
 1557SOL    HW116133   0.420   2.161   1.960  0.5259  0.7744 -1.6258
 1557SOL    HW216134   0.281   2.107   1.944  0.6570  0.4580 -2.2753
 1558SOL     OW16135   0.543   3.154   1.712 -0.2631  0.0035  0.0176
 1558SOL    HW116136   0.592   3.079   1.680  1.8133  1.2413  0.2886
 1558SOL    HW216137   0.565   3.221   1.648  2.8581 -2.4172 -1.4486
 1559SOL     OW16138   2.947   1.438   5.097  0.1886  0.2166  0.1314
 1559SOL    HW116139   2.991   1.481   5.171  0.4765  4.4331 -2.5386
 1559SOL    HW216140   2.934   1.350   5.132  0.9181  0.4769  1.0850
 1560SOL     OW16141   3.480   3.859   5.043  0.7686 -0.0029 -0.2243
 1560SOL    HW116142   3.485   3.868   4.948  1.0346  1.2778 -0.0904
 1560SOL    HW216143   3.447   3.770   5.043 -1.7943  0.9575 -2.3980
 1561SOL     OW16144   2.117   3.927  10.429  0.0421 -0.2470 -0.1842
 1561SOL    HW116145   2.067   3.998  10.468 -0.7376 -1.5069  1.1408
 1561SOL    HW216146   2.120   3.853  10.489 -1.1345  0.1741  0.3861
 1562SOL     OW16147   0.538   1.617   2.722  0.2425  0.3678  0.1681
 1562SOL    HW116148   0.587   1.697   2.702 -0.9932  0.6425 -1.7653
 1562SOL    HW216149   0.547   1.605   2.817 -1.6716 -3.0881 -0.0811
 1563SOL     OW16150   4.067   1.404  11.417 -0.3845 -0.0641  0.8137
 1563SOL    HW116151   4.045   1.490  11.382 -1.7066  0.2418  2.4357
 1563SOL    HW216152   4.129   1.389  11.345 -2.1586  3.2008 -1.4193
 1564SOL     OW16153   4.599   0.008  13.513 -0.5271 -0.0458  0.6163
 1564SOL    HW116154   4.632   0.061  13.586  4.4675 -0.8856 -1.0094
 1564SOL    HW216155   4.657   0.029  13.440 -1.0607 -1.7495 -0.2861
 1565SOL     OW16156   1.046   2.730   3.642  0.3058 -0.1197 -0.2105
 1565SOL    HW116157   0.982   2.777   3.694  2.0975  4.6941 -2.4049
 1565SOL    HW216158   1.015   2.740   3.552  1.1308 -0.6201 -0.5544
 1566SOL     OW16159   1.352   0.068   7.042 -0.1726  0.1908 -0.3452
 1566SOL    HW116160   1.397   0.034   7.119  1.1518 -1.2594 -1.7443
 1566SOL    HW216161   1.411   0.056   6.967 -2.0306  2.5576 -2.1932
 1567SOL     OW16162   3.342   3.299   7.332  0.3701  0.1648  0.5529
 1567SOL    HW116163   3.309   3.251   7.407  0.6910 -1.8453 -0.5733
 1567SOL    HW216164   3.363   3.228   7.270  0.4738  1.6044 -1.0694
 1568SOL     OW16165   0.788   4.056  14.612  0.1980  0.2401 -0.7531
 1568SOL    HW116166   0.850   4.112  14.564  1.1835 -0.0841  0.1338
 1568SOL    HW216167   0.713   4.044  14.554  0.7392 -1.5407 -1.0940
 1569SOL     OW16168   1.278   0.583  15.827  0.0789 -0.2972  0.3298
 1569SOL    HW116169   1.255   0.672  15.800  0.3867  0.0212  1.1211
 1569SOL    HW216170   1.208   0.571  15.892 -0.1012  1.7589  0.5268
 1570SOL     OW16171   1.850   2.992   2.902  0.6736 -0.2785  0.2426
 1570SOL    HW116172   1.945   3.004   2.894  0.5537 -0.0911 -0.9297
 1570SOL    HW216173   1.815   3.001   2.813 -0.9847  0.9964  1.0321
 1571SOL     OW16174   1.501   2.003   3.842 -0.3065  0.1581  0.0729
 1571SOL    HW116175   1.508   2.004   3.938 -1.4158  2.4792  0.1258
 1571SOL    HW216176   1.432   2.068   3.833  2.1313  2.9833  1.5447
 1572SOL     OW16177   1.426   2.188   6.708  0.4312 -0.3977  0.3935
 1572SOL    HW116178   1.390   2.115   6.758 -0.5401  0.2081  0.5795
 1572SOL    HW216179   1.458   2.140   6.631 -0.7372 -0.3134 -0.1456
 1573SOL     OW16180   2.716   1.221   2.598 -0.0073  0.3950 -0.3103
 1573SOL    HW116181   2.683   1.302   2.558 -2.1790  0.7704  2.2712
 1573SOL    HW216182   2.711   1.242   2.691  0.3913 -1.0016  0.0095
 1574SOL     OW16183   3.056   2.995   6.858 -0.7056 -0.0655  0.3706
 1574SOL    HW116184   2.985   3.009   6.796  0.1015 -1.4169 -0.8526
 1574SOL    HW216185   3.014   2.990   6.944  1.6289  2.0196  1.6217
 1575SOL     OW16186   2.004   2.602   1.388  0.0747 -0.3141 -0.1255
 1575SOL    HW116187   1.949   2.545   1.441  2.1058  0.5020  2.8761
 1575SOL    HW216188   1.953   2.683   1.382  1.1998  0.1303 -3.5812
 1576SOL     OW16189   0.321   1.497  10.408 -0.4639  0.2645  0.2298
 1576SOL    HW116190   0.379   1.421  10.397 -3.0553 -1.9434  1.6952
 1576SOL    HW216191   0.233   1.460  10.409 -0.8750  1.1690 -2.3232
 1577SOL     OW16192   0.517   4.447   7.892  0.4837  0.0485 -0.1299
 1577SOL    HW116193   0.489   4.500   7.817 -0.7667  1.0860  1.0750
 1577SOL    HW216194   0.611   4.436   7.874  0.2942 -0.8512 -0.5808
 1578SOL     OW16195   4.170   4.554   1.521  0.1836  0.1994  0.3381
 1578SOL    HW116196   4.156   4.506   1.603  0.3501 -0.8458 -0.2489
 1578SOL    HW216197   4.264   4.538   1.514  0.4507  1.3404  1.3156
 1579SOL     OW16198   3.147   4.192   1.269  0.5559  0.7076 -0.2047
 1579SOL    HW116199   3.142   4.181   1.174  0.2103  1.5065 -0.2817
 1579SOL    HW216200   3.075   4.134   1.294  0.4078  1.1097  0.2985
 1580SOL     OW16201   2.228   2.687  10.943 -0.0373 -0.3683  0.1791
 1580SOL    HW116202   2.220   2.607  10.995 -0.6750 -0.8562 -0.6729
 1580SOL    HW216203   2.218   2.750  11.014 -2.5167  1.0021 -1.3814
 1581SOL     OW16204   4.526   2.380   4.625  0.2732 -0.1977 -0.4006
 1581SOL    HW116205   4.539   2.325   4.702  1.2246  2.8134  1.6184
 1581SOL    HW216206   4.430   2.378   4.618  0.2077  0.9515 -0.0101
 1582SOL     OW16207   1.109   2.628   6.498 -0.5337  0.0182  0.1921
 1582SOL    HW116208   1.176   2.599   6.437 -1.7324 -0.3427 -0.9435
 1582SOL    HW216209   1.045   2.667   6.439  1.2523  3.0879  0.3221
 1583SOL     OW16210   1.010   3.337  11.449  0.5329 -0.4074 -0.3009
 1583SOL    HW116211   1.049   3.366  11.531 -1.1165 -1.0896  0.7231
 1583SOL    HW216212   1.069   3.265  11.425 -1.9884 -2.3927 -0.5493
 1584SOL     OW16213   3.242   0.826   0.102 -0.0605  0.2640  0.0927
 1584SOL    HW116214   3.256   0.794   0.191  0.0301  2.2392  0.7806
 1584SOL    HW216215   3.330   0.860   0.089  1.0720 -1.4609  3.3555
 1585SOL     OW16216   3.807   3.723   6.022 -0.4744  0.0378 -0.2033
 1585SOL    HW116217   3.804   3.810   5.982  0.9613 -0.3920 -1.2848
 1585SOL    HW216218   3.837   3.741   6.111  0.3356  2.4739 -0.9756
 1586SOL     OW16219   4.626   0.825  12.175 -0.1714 -0.0383 -0.1914
 1586SOL    HW116220   4.611   0.869  12.092 -0.1226  0.0857 -0.1335
 1586SOL    HW216221   4.672   0.880  12.238 -0.1876 -0.1222 -0.1057
 1587SOL     OW16222   1.865   3.695   8.843  0.1768 -0.7980 -0.1792
 1587SOL    HW116223   1.903   3.655   8.921  1.3284  1.6395  0.5225
 1587SOL    HW216224   1.896   3.631   8.779  0.9865 -0.4544 -0.1348
 1588SOL     OW16225   0.286   4.681   3.083  0.2417 -0.4044  0.4253
 1588SOL    HW116226   0.335   4.722   3.155 -0.3064  0.5203  0.2689
 1588SOL    HW216227   0.331   4.715   3.005  0.5207 -0.2492  0.6519
 1589SOL     OW16228   0.545   2.924   8.365  0.3109  0.1071 -0.4311
 1589SOL    HW116229   0.628   2.924   8.412 -1.0970  0.5245  2.0529
 1589SOL    HW216230   0.507   2.838   8.383  0.2227 -0.1378 -1.7886
 1590SOL     OW16231   1.936   4.348   5.124 -0.2681 -0.2438 -0.3748
 1590SOL    HW116232   1.920   4.266   5.171 -2.5263  0.9823  0.9722
 1590SOL    HW216233   1.947   4.318   5.034  0.3785 -1.2424  0.0371
 1591SOL     OW16234   1.473   3.526   2.784 -0.1293 -0.4294 -0.0428
 1591SOL    HW116235   1.545   3.528   2.722  0.3163 -0.6675  0.4616
 1591SOL    HW216236   1.457   3.432   2.795  0.0748 -0.5633 -0.9083
 1592SOL     OW16237   3.284   4.125   0.812  0.3660 -0.4629 -0.3086
 1592SOL    HW116238   3.358   4.181   0.788 -0.3274  0.1271 -1.0556
 1592SOL    HW216239   3.327   4.052   0.857 -0.0238 -0.8969 -0.6342
 1593SOL     OW16240   4.356   1.796  12.279  0.2970 -0.0295 -0.1711
 1593SOL    HW116241   4.262   1.816  12.269  0.3946 -0.2976 -1.5760
 1593SOL    HW216242   4.340   1.713  12.323  2.7339  0.3538  1.3984
 1594SOL     OW16243   1.315   4.556   3.430  0.3543  0.6049 -0.2301
 1594SOL    HW116244   1.373   4.514   3.494 -1.6310 -1.7904  0.0137
 1594SOL    HW216245   1.376   4.610   3.380  0.9277 -0.0075 -0.1964
 1595SOL     OW16246   3.611   1.385  14.573  0.2663  0.2992 -0.1037
 1595SOL    HW116247   3.663   1.362  14.496  0.9776  1.6761 -0.0416
 1595SOL    HW216248   3.664   1.464  14.580  1.8311 -0.8145  0.4070
 1596SOL     OW16249   1.533   4.259  14.471 -0.4194 -0.2155  0.6840
 1596SOL    HW116250   1.612   4.206  14.482 -0.2846  0.1003  1.2847
 1596SOL    HW216251   1.531   4.293  14.561  1.3564 -1.5751  1.2400
 1597SOL     OW16252   2.137   0.625   3.041  0.1656  0.1990  0.1939
 1597SOL    HW116253   2.151   0.531   3.049 -0.0860  0.0905 -0.7029
 1597SOL    HW216254   2.223   0.660   3.019 -0.2672  1.6202  0.7413
 1598SOL     OW16255   1.719   0.493  12.526 -0.5638  0.0705  0.4441
 1598SOL    HW116256   1.749   0.414  12.481 -0.7387  0.6615 -0.7017
 1598SOL    HW216257   1.771   0.488  12.606  2.0300  1.2417 -1.1697
 1599SOL     OW16258   3.026   3.827  14.554  0.4371 -0.2555  0.7557
 1599SOL    HW116259   3.113   3.862  14.538  0.6606 -0.7727  0.8684
 1599SOL    HW216260   2.970   3.905  14.543 -0.1222 -1.0134 -1.7574
 1600SOL     OW16261   2.219   1.983   9.715  0.3855  0.4804 -0.6854
 1600SOL    HW116262   2.245   2.068   9.752  0.6980 -0.5797  1.5832
 1600SOL    HW216263   2.174   2.003   9.633  1.8313 -0.8157 -1.7949
 1601SOL     OW16264   1.380   4.447   0.239 -0.6929 -0.2897 -0.3486
 1601SOL    HW116265   1.379   4.460   0.144 -1.2743  1.6362 -0.0695
 1601SOL    HW216266   1.361   4.538   0.262 -1.4248 -0.4648 -0.2719
 1602SOL     OW16267   2.533   0.145   5.734  0.4551 -0.0644 -0.0605
 1602SOL    HW116268   2.556   0.207   5.666  0.3648 -0.6986 -0.6717
 1602SOL    HW216269   2.543   0.192   5.817  1.8912 -0.1872 -0.1694
 1603SOL     OW16270   1.612   0.461   5.649 -0.9996 -0.4241 -0.3858
 1603SOL    HW116271   1.626   0.553   5.627  3.0016 -1.9915 -4.4811
 1603SOL    HW216272   1.555   0.420   5.584 -0.3331 -1.0232 -0.6016
 1604SOL     OW16273   4.128   0.772   8.879 -0.3060 -0.4461 -0.0768
 1604SOL    HW116274   4.166   0.789   8.965  0.2210 -2.2504  0.0561
 1604SOL    HW216275   4.156   0.856   8.843  0.6892 -1.3152 -1.3717
 1605SOL     OW16276   3.015   3.207   3.563  0.1789 -0.2677 -0.0767
 1605SOL    HW116277   3.013   3.290   3.611 -1.2153  0.0568 -0.6870
 1605SOL    HW216278   3.101   3.208   3.521 -0.0467 -2.8480 -0.6067
 1606SOL     OW16279   1.294   3.561   8.519 -0.2587 -0.0586 -0.0887
 1606SOL    HW116280   1.229   3.603   8.464 -0.8160  0.6973  1.1687
 1606SOL    HW216281   1.363   3.537   8.457 -1.2536  1.4806 -1.7456
 1607SOL     OW16282   3.440   4.341   5.106  0.1027 -0.0096  0.2424
 1607SOL    HW116283   3.396   4.306   5.028 -2.2167  0.1480  1.4895
 1607SOL    HW216284   3.473   4.257   5.138  0.1660  0.1502  0.5889
 1608SOL     OW16285   1.463   2.309   4.221  0.0932 -0.2573 -0.0491
 1608SOL    HW116286   1.514   2.291   4.299 -0.5431 -0.6186  0.2775
 1608SOL    HW216287   1.377   2.327   4.259  0.1101 -0.8703  0.2719
 1609SOL     OW16288   1.646   4.432   3.780 -0.3102 -0.0109 -0.4758
 1609SOL    HW116289   1.647   4.486   3.859 -3.3258 -1.0352  0.2465
 1609SOL    HW216290   1.729   4.462   3.742 -0.2008 -1.2335 -1.2150
 1610SOL     OW16291   3.702   0.944   4.271 -0.1407 -0.1650  0.2192
 1610SOL    HW116292   3.788   0.910   4.295  0.8450 -0.3811 -3.6128
 1610SOL    HW216293   3.645   0.913   4.341  0.6093 -0.0616  0.8656
 1611SOL     OW16294   3.600   2.844   8.499  0.3311 -0.3040  0.4420
 1611SOL    HW116295   3.684   2.890   8.498 -2.1054  4.0738 -0.0099
 1611SOL    HW216296   3.560   2.890   8.425  0.3065  0.8281  1.1667
 1612SOL     OW16297   3.378   3.416   4.220 -0.6952  0.2493  0.1527
 1612SOL    HW116298   3.470   3.403   4.246 -1.0390  1.3869  1.9064
 1612SOL    HW216299   3.366   3.509   4.242  2.7990  1.4612 -2.9899
 1613SOL     OW16300   0.883   2.609   0.759 -0.0702 -0.5936  0.3185
 1613SOL    HW116301   0.857   2.563   0.839  0.6787  0.4044  1.1422
 1613SOL    HW216302   0.977   2.594   0.756  0.1642  0.3555  2.7677
 1614SOL     OW16303   3.594   0.545   3.198 -0.5772  0.3641 -0.4213
 1614SOL    HW116304   3.531   0.554   3.269  0.9095 -3.1929  1.3267
 1614SOL    HW216305   3.650   0.622   3.209 -1.2376  0.8719 -0.6539
 1615SOL     OW16306   4.000   4.651   0.335  0.6606  0.4826 -0.1106
 1615SOL    HW116307   4.070   4.715   0.317 -1.5652  3.2739  1.2545
 1615SOL    HW216308   3.922   4.695   0.301  0.8535 -0.2562 -1.5177
 1616SOL     OW16309   4.163   1.302   9.255 -0.0960  0.2644 -0.6041
 1616SOL    HW116310   4.206   1.280   9.337  2.0987 -0.0689 -1.8549
 1616SOL    HW216311   4.179   1.396   9.249 -2.0051  0.6570  0.3260
 1617SOL     OW16312   2.394   2.522  13.402 -0.1639  0.8054 -0.3297
 1617SOL    HW116313   2.438   2.586  13.347  3.0763 -2.4135 -1.4655
 1617SOL    HW216314   2.313   2.568  13.425  0.3049  1.6946 -0.4704
 1618SOL     OW16315   1.594   0.007   5.977 -0.3106 -0.4885  0.2171
 1618SOL    HW116316   1.633   4.662   6.030 -1.3331 -0.9603  0.3566
 1618SOL    HW216317   1.567   4.681   5.899 -0.7070 -0.5297  0.3803
 1619SOL     OW16318   1.288   0.502   7.037 -0.5305  0.3955  0.3299
 1619SOL    HW116319   1.240   0.426   7.004  1.2757 -0.5982 -0.0162
 1619SOL    HW216320   1.246   0.525   7.120 -0.8742  3.0872 -0.5922
 1620SOL     OW16321   3.821   3.589   4.121  0.7451 -0.0635 -0.1866
 1620SOL    HW116322   3.745   3.569   4.177  0.2357  1.3030 -0.3904
 1620SOL    HW216323   3.876   3.520   4.156 -0.5439  0.4718  2.8742
 1621SOL     OW16324   1.182   0.210   0.398 -0.0926 -0.2173 -0.2017
 1621SOL    HW116325   1.194   0.230   0.491 -2.4152  1.0774 -0.1777
 1621SOL    HW216326   1.264   0.242   0.360 -0.1557 -3.7279 -3.2201
 1622SOL     OW16327   2.596   1.601  11.415  0.2098 -0.1579 -0.5304
 1622SOL    HW116328   2.528   1.658  11.379 -2.2743 -3.6961 -1.3644
 1622SOL    HW216329   2.660   1.598  11.344  0.4030  1.2486 -0.4257
 1623SOL     OW16330   3.203   0.176   6.621 -0.2207  0.1656 -0.7936
 1623SOL    HW116331   3.114   0.143   6.607  0.4689 -0.6238 -3.4870
 1623SOL    HW216332   3.250   0.093   6.613  3.4225  1.9544  2.4121
 1624SOL     OW16333   1.777   4.176  11.530  0.5995 -0.0789  0.6956
 1624SOL    HW116334   1.837   4.104  11.550  1.6866 -0.1804 -2.9725
 1624SOL    HW216335   1.837   4.245  11.560  0.4985  0.2357  0.1766
 1625SOL     OW16336   0.405   2.889   0.410 -0.6381  0.2363  0.2166
 1625SOL    HW116337   0.491   2.918   0.441 -0.7938  0.2651  0.6241
 1625SOL    HW216338   0.397   2.924   0.321 -2.5662 -0.5820  0.0635
 1626SOL     OW16339   1.933   1.307   3.002 -0.3074  0.5003  0.1714
 1626SOL    HW116340   1.936   1.303   2.906  1.8457 -3.7448  0.4270
 1626SOL    HW216341   2.026   1.305   3.024  0.1129 -0.7584 -1.7749
 1627SOL     OW16342   0.296   4.037  15.346 -0.3245  0.2490  0.0832
 1627SOL    HW116343   0.387   4.038  15.317 -0.0020 -1.0083  1.0257
 1627SOL    HW216344   0.260   3.991  15.271  2.9294  0.1698 -1.4374
 1628SOL     OW16345   0.571   1.176   6.413 -0.1436  0.0469 -0.2814
 1628SOL    HW116346   0.581   1.183   6.508  3.1591  3.1359 -0.8594
 1628SOL    HW216347   0.624   1.248   6.379 -1.1350 -0.5908 -3.1798
 1629SOL     OW16348   2.624   2.129   7.721  0.2102 -0.5455  0.6879
 1629SOL    HW116349   2.563   2.059   7.695 -0.7293  0.4580  0.1937
 1629SOL    HW216350   2.585   2.146   7.807 -0.4614  0.4421  0.1813
 1630SOL     OW16351   1.247   2.593   2.936  0.1506  0.4576 -0.6517
 1630SOL    HW116352   1.154   2.611   2.926 -0.0963 -0.8697 -0.6798
 1630SOL    HW216353   1.260   2.530   2.865 -0.6670 -0.0568 -0.3325
 1631SOL     OW16354   0.247   0.867  12.054  0.1581 -0.3736  0.2098
 1631SOL    HW116355   0.219   0.895  12.142 -0.6077  0.1228 -0.1874
 1631SOL    HW216356   0.267   0.774  12.063  0.4498 -0.3006  0.3230
 1632SOL     OW16357   3.022   2.550   8.614 -0.1967  0.5725  0.0757
 1632SOL    HW116358   2.935   2.572   8.580  0.4480  1.9055 -0.6932
 1632SOL    HW216359   3.075   2.561   8.534 -1.1371 -3.1523 -1.0634
 1633SOL     OW16360   3.360   0.819   2.597 -0.1483  0.4405  0.2523
 1633SOL    HW116361   3.315   0.839   2.514  1.3357 -1.9176 -1.1175
 1633SOL    HW216362   3.291   0.760   2.628 -1.1931  0.4247 -2.0982
 1634SOL     OW16363   2.800   3.955   5.409 -0.3773  0.6849 -0.3486
 1634SOL    HW116364   2.895   3.952   5.395 -0.2320  1.7490  0.3730
 1634SOL    HW216365   2.778   4.043   5.438 -0.2656  0.2144  1.2182
 1635SOL     OW16366   3.903   4.388   8.648 -0.1663 -0.4660 -0.4132
 1635SOL    HW116367   3.875   4.298   8.665 -0.1143 -0.3200  0.4602
 1635SOL    HW216368   3.823   4.403   8.599  0.6315  1.1880 -1.1983
 1636SOL     OW16369   4.506   1.048   8.309  0.0798  0.1712  0.0786
 1636SOL    HW116370   4.578   1.077   8.254  0.5431 -0.6837  0.2251
 1636SOL    HW216371   4.516   1.095   8.392 -0.2196  1.2456 -0.4990
 1637SOL     OW16372   4.142   3.767  12.324  0.1169  0.0512 -0.2065
 1637SOL    HW116373   4.148   3.861  12.342 -0.4033 -0.0791  0.6287
 1637SOL    HW216374   4.100   3.733  12.403 -3.7636  0.9476 -1.9131
 1638SOL     OW16375   2.254   4.661  11.153  0.3134  0.4922 -0.1924
 1638SOL    HW116376   2.244   0.018  11.103  1.6513 -1.2120 -3.1844
 1638SOL    HW216377   2.218   4.590  11.099  0.9626  0.3316 -0.4127
 1639SOL     OW16378   0.293   0.997   7.409 -0.0215  0.3547  0.5241
 1639SOL    HW116379   0.339   1.009   7.492 -0.6709  0.6809  0.8421
 1639SOL    HW216380   0.207   0.967   7.437 -0.3381 -1.6790 -2.6464
 1640SOL     OW16381   2.703   2.871   7.047 -0.5661  0.0290 -0.1975
 1640SOL    HW116382   2.790   2.905   7.063 -0.0544 -0.6804 -1.4725
 1640SOL    HW216383   2.723   2.779   7.028  0.7598 -0.2474  2.5195
 1641SOL     OW16384   3.389   1.764   2.485 -0.4609 -0.1109 -0.1358
 1641SOL    HW116385   3.460   1.792   2.542 -1.8968  3.0133  0.1662
 1641SOL    HW216386   3.374   1.849   2.443 -0.8558  1.6260  3.4907
 1642SOL     OW16387   0.924   0.498  14.244 -0.3258 -0.5057 -0.0731
 1642SOL    HW116388   0.883   0.473  14.328 -1.8540 -0.2776 -0.7540
 1642SOL    HW216389   0.898   0.431  14.182  0.9848 -2.1365  1.1364
 1643SOL     OW16390   4.447   4.004   9.498  0.1954 -0.7284 -0.1223
 1643SOL    HW116391   4.380   3.938   9.514 -1.7849  1.2438 -0.2318
 1643SOL    HW216392   4.504   3.992   9.575  1.4509  2.9750 -0.4905
 1644SOL     OW16393   4.695   4.402   4.766  0.1734  0.2942  0.5220
 1644SOL    HW116394   0.016   4.379   4.684 -0.7868 -1.7849  0.5995
 1644SOL    HW216395   4.702   4.497   4.760  0.9861  0.1160 -1.3907
 1645SOL     OW16396   0.595   2.165  13.786 -0.6930  0.1005  0.0015
 1645SOL    HW116397   0.535   2.115  13.730 -3.2471  2.3304  0.7687
 1645SOL    HW216398   0.637   2.089  13.826 -0.4659  0.9762  1.4317
 1646SOL     OW16399   1.332   3.382  13.190 -0.4647  0.1403  0.3504
 1646SOL    HW116400   1.386   3.366  13.267  0.6154 -0.6652 -0.5714
 1646SOL    HW216401   1.246   3.370  13.230 -1.1062 -2.4177 -1.8295
 1647SOL     OW16402   3.450   2.237   9.463  0.1863  0.3066 -0.0743
 1647SOL    HW116403   3.406   2.210   9.543  0.0056  1.6377  0.2669
 1647SOL    HW216404   3.376   2.253   9.405 -0.6164 -0.6680  0.6836
 1648SOL     OW16405   1.597   3.828   1.286 -0.0360  0.0771 -0.3496
 1648SOL    HW116406   1.585   3.915   1.323 -0.4621 -0.0242 -0.2597
 1648SOL    HW216407   1.683   3.840   1.245  0.3833  0.0031  0.5161
 1649SOL     OW16408   2.270   1.307   6.285 -0.2265  0.0095  0.1177
 1649SOL    HW116409   2.301   1.337   6.371  1.9786  1.0006 -1.0327
 1649SOL    HW216410   2.282   1.213   6.293 -0.8521 -0.0020  1.0299
 1650SOL     OW16411   3.496   0.878  15.944  0.5894 -0.4820  0.5516
 1650SOL    HW116412   3.489   0.821  16.020 -0.1121  0.7557  1.4150
 1650SOL    HW216413   3.588   0.868  15.918 -0.0350  0.2133 -1.9877
 1651SOL     OW16414   2.912   3.827  14.035  0.1243 -0.3580 -0.5358
 1651SOL    HW116415   2.924   3.735  14.058  2.4523  0.4464  1.4288
 1651SOL    HW216416   2.817   3.827  14.048  0.1167  1.9982 -0.5718
 1652SOL     OW16417   2.820   0.834   5.889  0.6692  0.2097  0.4256
 1652SOL    HW116418   2.792   0.916   5.929 -1.5524  0.0377 -0.7705
 1652SOL    HW216419   2.769   0.835   5.808 -0.6567 -1.1036  1.2490
 1653SOL     OW16420   0.956   1.775   9.306 -0.2971 -0.5700 -0.1213
 1653SOL    HW116421   1.028   1.737   9.357  0.0628 -1.1517 -1.0555
 1653SOL    HW216422   0.964   1.729   9.223  1.0026 -1.7880  0.6681
 1654SOL     OW16423   4.183   3.269   3.170  0.6411  0.1071  0.5051
 1654SOL    HW116424   4.271   3.246   3.137 -0.8978 -3.7364 -0.8830
 1654SOL    HW216425   4.201   3.318   3.250 -1.1212  0.3314  0.7525
 1655SOL     OW16426   2.327   0.374  11.980 -0.1211  0.1687 -0.0293
 1655SOL    HW116427   2.361   0.320  11.908  1.5667 -0.0474  0.9457
 1655SOL    HW216428   2.368   0.331  12.054 -0.1181 -1.1869 -0.8065
 1656SOL     OW16429   3.358   1.254   2.850 -0.4257 -0.3643  0.6175
 1656SOL    HW116430   3.368   1.202   2.771 -1.4574  0.4099 -0.0184
 1656SOL    HW216431   3.343   1.187   2.916 -0.2578 -1.0477 -0.0487
 1657SOL     OW16432   0.622   3.028   6.166  0.0951  0.0161 -0.0866
 1657SOL    HW116433   0.690   3.054   6.229 -0.5523  0.2225  0.5319
 1657SOL    HW216434   0.560   2.991   6.228 -0.1930  0.8466  0.1229
 1658SOL     OW16435   0.428   4.276   8.942  0.4002  0.7534 -0.1953
 1658SOL    HW116436   0.377   4.274   9.023  2.5480 -1.2183  1.1046
 1658SOL    HW216437   0.470   4.362   8.934  0.8413  0.5600  0.0469
 1659SOL     OW16438   0.025   1.186   4.161 -0.2392  0.3929 -0.2482
 1659SOL    HW116439   4.673   1.162   4.108  0.0897 -1.2334 -0.0016
 1659SOL    HW216440   4.712   1.263   4.204 -0.1960  1.1678 -1.6351
 1660SOL     OW16441   2.668   1.473   5.218  0.1214 -0.7208 -0.0381
 1660SOL    HW116442   2.680   1.413   5.145  1.2721  0.3767 -0.7547
 1660SOL    HW216443   2.667   1.561   5.180 -1.3013 -2.2310 -3.4467
 1661SOL     OW16444   1.484   3.861   2.379 -0.3465 -0.0038 -0.0357
 1661SOL    HW116445   1.452   3.938   2.330  2.1771  1.0174 -0.0603
 1661SOL    HW216446   1.447   3.875   2.466  2.2986  2.5557  0.6853
 1662SOL     OW16447   2.691   3.418   8.053  0.1991  0.1393 -0.5015
 1662SOL    HW116448   2.768   3.383   8.009 -0.4440 -0.5441 -1.0799
 1662SOL    HW216449   2.663   3.481   7.987 -1.6772 -1.1296 -0.9023
 1663SOL     OW16450   3.826   4.482  11.640  0.4028  0.0283  0.0485
 1663SOL    HW116451   3.892   4.422  11.606 -1.0412 -0.6759 -1.4897
 1663SOL    HW216452   3.775   4.431  11.703  1.0297  1.2333  1.5370
 1664SOL     OW16453   1.454   2.152   1.645  0.5269  0.1193 -0.4254
 1664SOL    HW116454   1.417   2.077   1.691 -0.7151 -0.2534 -2.0380
 1664SOL    HW216455   1.425   2.135   1.555  0.2912 -0.3765 -0.2534
 1665SOL     OW16456   4.244   0.389  10.244 -0.1436 -0.3113 -0.2233
 1665SOL    HW116457   4.230   0.305  10.287 -0.4342 -0.3488 -0.3923
 1665SOL    HW216458   4.253   0.448  10.319 -1.1188  1.0764 -1.2062
 1666SOL     OW16459   1.759   2.531   7.538 -0.5138  0.4599 -0.2233
 1666SOL    HW116460   1.776   2.625   7.526  0.4874  0.3173  0.0972
 1666SOL    HW216461   1.844   2.486   7.538 -1.4051 -1.2281 -2.9043
 1667SOL     OW16462   0.959   4.279   5.103  0.3668 -0.2851  0.2296
 1667SOL    HW116463   1.002   4.282   5.188 -2.1728 -0.0369  1.4705
 1667SOL    HW216464   0.888   4.342   5.112  0.9018  0.3220  0.2708
 1668SOL     OW16465   1.140   4.448   3.766  0.2675 -0.1688  0.5577
 1668SOL    HW116466   1.176   4.364   3.793  1.6691 -0.0413 -0.9473
 1668SOL    HW216467   1.127   4.493   3.849 -0.5984 -3.1745  2.0668
 1669SOL     OW16468   1.212   3.503   6.510 -0.4566  0.2013 -0.1882
 1669SOL    HW116469   1.185   3.478   6.421  0.0643  1.0461 -0.5850
 1669SOL    HW216470   1.203   3.422   6.560 -2.5180 -0.3627 -1.4403
 1670SOL     OW16471   1.133   1.762   1.741 -0.5224 -0.0574 -0.1261
 1670SOL    HW116472   1.079   1.757   1.662 -0.0811 -2.4464 -0.2906
 1670SOL    HW216473   1.184   1.681   1.739  0.7576  0.7872 -1.2523
 1671SOL     OW16474   0.357   2.626  15.852 -0.5333  0.2220 -0.0949
 1671SOL    HW116475   0.371   2.550  15.795  1.5987  0.7969 -0.3283
 1671SOL    HW216476   0.403   2.602  15.932 -0.0759 -0.3944 -0.5375
 1672SOL     OW16477   2.255   4.080   3.057  0.3429 -0.1352 -0.5972
 1672SOL    HW116478   2.240   4.166   3.096  2.7635 -0.2936  0.6839
 1672SOL    HW216479   2.164   4.050   3.051  0.7494 -1.6217  0.9210
 1673SOL     OW16480   2.881   2.090   8.193  0.5691  0.6159 -0.3682
 1673SOL    HW116481   2.970   2.113   8.222  0.3632  0.9480  0.0044
 1673SOL    HW216482   2.886   2.138   8.110  3.2060 -2.5575 -2.0288
 1674SOL     OW16483   2.106   3.270   0.569 -0.4536 -0.4434 -0.4362
 1674SOL    HW116484   2.099   3.207   0.640  0.9801 -0.2540 -0.1322
 1674SOL    HW216485   2.052   3.232   0.500  0.6851 -1.9612 -0.4758
 1675SOL     OW16486   0.239   0.428  14.708  0.0786 -0.4878  0.0316
 1675SOL    HW116487   0.182   0.373  14.763  1.5379 -0.3529  1.6877
 1675SOL    HW216488   0.317   0.433  14.763  1.2389  1.0098 -1.7668
 1676SOL     OW16489   3.564   1.436   2.638  0.0613  0.3880  0.0909
 1676SOL    HW116490   3.511   1.438   2.559 -1.5341 -0.9447  1.1457
 1676SOL    HW216491   3.517   1.386   2.704  0.2367  1.0889  0.7507
 1677SOL     OW16492   2.636   4.671   0.227  0.3924 -1.3175 -0.6562
 1677SOL    HW116493   2.593   4.685   0.312 -0.1434  0.0968 -1.1519
 1677SOL    HW216494   2.629   0.037   0.195  0.9412 -0.5782  1.2562
 1678SOL     OW16495   2.618   4.676   7.686  0.2987 -0.1832  0.2774
 1678SOL    HW116496   2.527   4.685   7.714 -0.1526 -0.0545 -1.2544
 1678SOL    HW216497   2.608   4.672   7.591  2.9332 -2.3863  0.1016
 1679SOL     OW16498   1.668   4.338   9.865 -0.1692 -0.0760  0.1760
 1679SOL    HW116499   1.673   4.296   9.951  1.0328 -1.0790 -0.3772
 1679SOL    HW216500   1.755   4.311   9.837  0.2679  2.8688 -1.2201
 1680SOL     OW16501   0.212   1.137  11.713 -0.3042 -0.1896 -0.0119
 1680SOL    HW116502   0.180   1.057  11.755  0.8736 -1.5227 -1.6557
 1680SOL    HW216503   0.251   1.083  11.644 -0.2473 -1.1261  0.7516
 1681SOL     OW16504   0.660   3.239   5.114 -0.2120 -0.5517  0.4376
 1681SOL    HW116505   0.728   3.296   5.077 -0.2190  1.6766  3.8569
 1681SOL    HW216506   0.594   3.255   5.047  0.1324  0.2910  0.2962
 1682SOL     OW16507   1.796   1.523   8.448  0.1288 -0.4991 -0.1552
 1682SOL    HW116508   1.778   1.562   8.363  0.7968  0.6117  0.1989
 1682SOL    HW216509   1.860   1.587   8.482 -0.7727 -0.1796  0.9288
 1683SOL     OW16510   3.117   0.486   4.892  0.6851  0.1156 -0.0998
 1683SOL    HW116511   3.210   0.506   4.890  0.5814  0.5802 -0.1575
 1683SOL    HW216512   3.090   0.513   4.980 -1.1268  2.0742 -1.2431
 1684SOL     OW16513   2.379   2.869   3.409  0.4273 -0.0375  0.3143
 1684SOL    HW116514   2.435   2.902   3.339 -1.2540 -1.0672 -1.5402
 1684SOL    HW216515   2.446   2.833   3.467 -0.7190 -2.2311  0.3004
 1685SOL     OW16516   1.644   0.705   5.444 -0.2628 -0.8675  0.0873
 1685SOL    HW116517   1.570   0.725   5.387 -0.1019 -0.3515  0.0549
 1685SOL    HW216518   1.609   0.729   5.530 -1.0931 -0.2306 -0.4317
 1686SOL     OW16519   2.905   4.638  13.800 -0.0205  0.0092 -0.0408
 1686SOL    HW116520   2.963   4.707  13.833  0.1917 -0.3394  0.3108
 1686SOL    HW216521   2.824   4.689  13.795  0.4852  0.8742  0.5053
 1687SOL     OW16522   0.461   4.544   4.568  0.2482  0.3074  0.5164
 1687SOL    HW116523   0.413   4.593   4.635 -0.3943  1.3707 -0.7323
 1687SOL    HW216524   0.435   4.454   4.589  1.3387 -0.0827  0.2237
 1688SOL     OW16525   3.658   2.614   6.851  0.4220  0.9549  1.2044
 1688SOL    HW116526   3.626   2.545   6.792 -1.3630  0.3300  2.9007
 1688SOL    HW216527   3.600   2.610   6.927 -1.3661  0.5571 -0.1990
 1689SOL     OW16528   4.720   3.194   1.265  0.2482 -0.9675  0.3519
 1689SOL    HW116529   4.626   3.204   1.250  0.4607 -0.4995 -0.6481
 1689SOL    HW216530   0.023   3.150   1.185  1.1325 -0.7440  0.5242
 1690SOL     OW16531   2.597   4.538  17.509  0.0164  0.3307  0.5642
 1690SOL    HW116532   2.561   4.621  17.478  0.6653  0.8444  1.1910
 1690SOL    HW216533   2.589   4.481  17.433  0.5259 -0.6488  1.2481
 1691SOL     OW16534   0.016   0.500  17.409 -0.2187  0.1216 -0.6179
 1691SOL    HW116535   0.104   0.515  17.444 -0.1608  1.4447 -1.3301
 1691SOL    HW216536   0.016   0.564  17.338  1.3777  0.7283 -0.0827
 1692SOL     OW16537   2.533   3.844   8.840 -0.3608 -0.4463 -0.2080
 1692SOL    HW116538   2.608   3.902   8.826  0.6144 -2.2227 -2.2525
 1692SOL    HW216539   2.456   3.899   8.857 -0.3278  0.1010 -1.8495
 1693SOL     OW16540   3.321   0.261   5.657  0.8010  0.1669 -0.1322
 1693SOL    HW116541   3.276   0.260   5.742  1.6776 -1.1891  0.3183
 1693SOL    HW216542   3.400   0.313   5.671 -0.3072  1.4369  1.3573
 1694SOL     OW16543   4.438   3.002  17.663  0.0113  0.6172  0.0572
 1694SOL    HW116544   4.437   3.017  17.568  0.4090  0.7378  0.0727
 1694SOL    HW216545   4.414   2.909  17.661 -0.3237  0.7559 -3.3744
 1695SOL     OW16546   4.510   2.644   4.211 -0.0758 -0.1193  0.2562
 1695SOL    HW116547   4.559   2.562   4.217  1.3841  0.7724  0.6275
 1695SOL    HW216548   4.430   2.627   4.160 -0.2998  0.0534  0.5522
 1696SOL     OW16549   2.720   4.133   1.770 -0.1425 -0.3375 -0.0903
 1696SOL    HW116550   2.735   4.152   1.677  3.6707  0.4819  0.6765
 1696SOL    HW216551   2.696   4.222   1.797  0.6086 -0.3159  0.5137
 1697SOL     OW16552   4.701   3.641   7.176 -0.4976  0.6272 -0.2204
 1697SOL    HW116553   0.041   3.666   7.243 -0.5305  0.6882 -0.2125
 1697SOL    HW216554   0.049   3.617   7.116 -0.7848  2.0848 -1.1392
 1698SOL     OW16555   0.446   1.394   4.018 -0.4040  0.3211 -0.4131
 1698SOL    HW116556   0.356   1.381   4.047 -0.3883 -1.1979 -1.0526
 1698SOL    HW216557   0.424   1.466   3.959 -0.5074  0.3459 -0.3444
 1699SOL     OW16558   4.500   3.237   5.892 -0.0658 -0.3868 -0.2101
 1699SOL    HW116559   4.482   3.176   5.963  2.1311 -4.0220 -2.7681
 1699SOL    HW216560   4.409   3.256   5.870  1.3475  3.3018 -2.9052
 1700SOL     OW16561   1.594   4.107   5.249 -0.3676 -0.3572 -0.4724
 1700SOL    HW116562   1.540   4.049   5.195  0.1317 -0.4299 -0.8883
 1700SOL    HW216563   1.544   4.113   5.331  0.2780  2.6768 -0.3108
 1701SOL     OW16564   1.314   1.495  15.620  0.3885  0.1289 -0.2146
 1701SOL    HW116565   1.226   1.532  15.624  0.2209 -0.1784 -1.0807
 1701SOL    HW216566   1.296   1.422  15.562 -2.1224  0.6581 -0.1227
 1702SOL     OW16567   4.087   2.102   9.860  0.2508 -0.5381 -0.3583
 1702SOL    HW116568   4.121   2.013   9.874 -0.3319 -0.7998 -0.6107
 1702SOL    HW216569   3.994   2.081   9.870 -0.1276  0.3381 -2.0733
 1703SOL     OW16570   2.518   4.341  17.302  0.1067  0.4433  0.0478
 1703SOL    HW116571   2.550   4.259  17.338  0.2348  0.2889 -0.4292
 1703SOL    HW216572   2.423   4.327  17.294  0.2104  0.8875 -1.9273
 1704SOL     OW16573   3.724   4.181  17.588  0.2866  0.3370  0.7008
 1704SOL    HW116574   3.680   4.226  17.660 -0.5996  1.5036 -0.5666
 1704SOL    HW216575   3.777   4.253  17.553 -1.8479  1.8543  0.5464
 1705SOL     OW16576   2.161   2.413   6.942 -0.2783  0.1076  0.0331
 1705SOL    HW116577   2.075   2.454   6.941 -0.3856 -0.0840  0.7998
 1705SOL    HW216578   2.204   2.472   6.880 -0.1874 -0.3437 -0.3310
 1706SOL     OW16579   1.875   1.023   1.783 -0.6296 -0.2385 -0.0543
 1706SOL    HW116580   1.812   0.954   1.805 -0.7207  0.2287  1.1735
 1706SOL    HW216581   1.957   1.003   1.827 -0.0471  0.2735 -0.9103
 1707SOL     OW16582   1.345   0.069   7.954  0.7559  0.4413 -0.7776
 1707SOL    HW116583   1.404   0.046   8.026 -0.8912 -0.5405  0.2449
 1707SOL    HW216584   1.373   0.160   7.951  0.3194  0.5891 -0.1189
 1708SOL     OW16585   2.195   3.346   2.112 -0.0151  0.3581 -0.6014
 1708SOL    HW116586   2.205   3.293   2.033  0.4638  0.1796 -0.4184
 1708SOL    HW216587   2.276   3.334   2.162 -1.2406  0.3379  1.4190
 1709SOL     OW16588   4.374   3.622  14.955  0.1255 -0.1157  0.3300
 1709SOL    HW116589   4.298   3.568  14.975 -2.3652  2.8402 -1.2300
 1709SOL    HW216590   4.335   3.700  14.916  0.1811 -0.7128 -0.9403
 1710SOL     OW16591   2.132   1.002   7.495 -0.1511  0.2154  0.5174
 1710SOL    HW116592   2.132   0.986   7.589 -2.4724 -0.7301  0.3667
 1710SOL    HW216593   2.037   1.001   7.483  0.2386  0.3002 -2.5843
 1711SOL     OW16594   1.032   1.736   8.098  0.3778 -1.0814 -0.0452
 1711SOL    HW116595   1.090   1.663   8.118  0.9439 -0.1967  1.5421
 1711SOL    HW216596   0.974   1.689   8.039 -1.8165  1.3303  0.1725
 1712SOL     OW16597   2.372   2.503   5.485 -0.7789  0.1148  0.2864
 1712SOL    HW116598   2.387   2.597   5.480  1.0174 -0.2617 -1.6533
 1712SOL    HW216599   2.303   2.493   5.420  1.6699  0.1632 -2.3140
 1713SOL     OW16600   1.784   1.825   0.702  0.2272 -0.2293 -0.3000
 1713SOL    HW116601   1.721   1.846   0.634 -1.2886 -0.4229  1.0427
 1713SOL    HW216602   1.871   1.831   0.662 -0.8862  0.8059 -2.5484
 1714SOL     OW16603   1.608   0.034   3.674  0.2642  0.2347 -0.2444
 1714SOL    HW116604   1.637   0.019   3.764  2.2140  0.6826 -0.7955
 1714SOL    HW216605   1.529   4.706   3.662  0.7945 -0.0609 -2.3765
 1715SOL     OW16606   2.463   1.925   5.238  0.4784  0.3965 -0.0865
 1715SOL    HW116607   2.412   2.003   5.217  0.4261 -0.0039 -1.4358
 1715SOL    HW216608   2.410   1.896   5.312  0.5529  0.4537 -0.0104
 1716SOL     OW16609   2.189   3.205  14.238  0.0139  0.0315  0.3918
 1716SOL    HW116610   2.194   3.192  14.332  2.1269  0.8001  0.3849
 1716SOL    HW216611   2.112   3.157  14.207  1.4428 -1.3842 -0.9759
 1717SOL     OW16612   0.582   4.498   8.382 -0.0564  0.3897 -0.6900
 1717SOL    HW116613   0.529   4.433   8.336  0.2844 -0.9938  0.8496
 1717SOL    HW216614   0.539   4.513   8.465  0.5073 -1.1201 -0.1185
 1718SOL     OW16615   3.818   0.100   9.217  0.1524 -0.7222  0.2487
 1718SOL    HW116616   3.868   0.053   9.149 -1.4917  0.4274 -1.7632
 1718SOL    HW216617   3.888   0.131   9.274  1.0058 -1.0085 -0.6371
 1719SOL     OW16618   3.376   0.518   1.967  0.6121  0.2285 -0.1194
 1719SOL    HW116619   3.407   0.428   1.981  0.5065  0.0164 -1.3069
 1719SOL    HW216620   3.290   0.510   2.008  2.2518 -3.4322  2.6689
 1720SOL     OW16621   0.429   0.326   6.483 -0.0603 -0.3993  0.7838
 1720SOL    HW116622   0.340   0.347   6.510 -0.1978 -1.1340  0.8874
 1720SOL    HW216623   0.415   0.249   6.428  0.6878 -1.0338  1.4794
 1721SOL     OW16624   2.876   2.920   3.996  0.4743 -0.2020 -0.1378
 1721SOL    HW116625   2.889   3.015   3.998 -0.7847 -0.0477  0.9346
 1721SOL    HW216626   2.874   2.909   4.091  0.3787 -1.9774 -0.3557
 1722SOL     OW16627   3.931   4.001   5.753 -0.1573  0.2825  0.3152
 1722SOL    HW116628   3.853   3.984   5.806  0.7182  1.0746  1.8482
 1722SOL    HW216629   3.988   4.006   5.829 -1.4515 -0.7057  1.3631
 1723SOL     OW16630   4.719   1.787   2.499 -0.3995  0.0491  0.6157
 1723SOL    HW116631   4.693   1.832   2.579 -2.6522  0.7884 -0.5191
 1723SOL    HW216632   0.041   1.858   2.455  0.8716 -1.5969 -0.7281
 1724SOL     OW16633   3.659   3.926   5.374 -0.1767 -0.4326 -0.2475
 1724SOL    HW116634   3.734   3.866   5.380  1.0100  1.0500 -0.2085
 1724SOL    HW216635   3.590   3.860   5.369  0.6410 -1.6601  4.4995
 1725SOL     OW16636   0.644   0.026   7.800 -0.0946  0.8083 -0.1162
 1725SOL    HW116637   0.635   0.061   7.889 -1.9826  1.5167 -0.5906
 1725SOL    HW216638   0.552   0.008   7.780  0.1577 -0.8573  0.1484
 1726SOL     OW16639   2.022   3.707   0.643 -0.5947  0.4417 -0.6715
 1726SOL    HW116640   2.092   3.708   0.578  1.2087  1.8746  1.3258
 1726SOL    HW216641   2.065   3.645   0.700 -2.8511 -1.0838 -0.6456
 1727SOL     OW16642   2.808   3.235   8.224 -0.3628  0.0657 -0.2835
 1727SOL    HW116643   2.748   3.299   8.187 -0.7340 -0.2021 -0.1492
 1727SOL    HW216644   2.825   3.265   8.313  0.9940  1.7019 -1.0852
 1728SOL     OW16645   0.652   3.171   1.234 -0.1208 -0.4887 -0.1604
 1728SOL    HW116646   0.624   3.085   1.203  1.2984 -0.3926 -1.6886
 1728SOL    HW216647   0.691   3.200   1.151 -1.9189  0.2716 -0.7454
 1729SOL     OW16648   4.653   2.959  10.560  0.1800 -0.5879 -0.1550
 1729SOL    HW116649   0.024   2.952  10.552  0.4446 -0.0911  2.3037
 1729SOL    HW216650   4.614   2.881  10.521 -0.8347  0.6248 -1.5594
 1730SOL     OW16651   1.439   2.908   2.056 -0.0747 -0.1582  0.0746
 1730SOL    HW116652   1.353   2.898   2.098  0.0770  0.8753  0.6166
 1730SOL    HW216653   1.431   2.979   1.992  0.1525 -0.9618 -0.8431
 1731SOL     OW16654   2.951   0.801  11.820 -0.1046  0.2895 -0.2068
 1731SOL    HW116655   2.911   0.887  11.828 -1.5264 -0.3794 -0.1576
 1731SOL    HW216656   2.983   0.804  11.730  0.0196 -0.7131 -0.1977
 1732SOL     OW16657   3.173   1.676  15.372  0.2481  0.0680  0.6837
 1732SOL    HW116658   3.134   1.760  15.349  0.4347  0.0223  0.2148
 1732SOL    HW216659   3.095   1.621  15.374 -0.1492  0.5916 -0.6118
 1733SOL     OW16660   3.144   1.509  15.967 -0.0232  0.9113  0.0874
 1733SOL    HW116661   3.191   1.592  15.961  0.2150  0.7677 -0.0649
 1733SOL    HW216662   3.185   1.458  15.896  0.0651  0.1919  0.6552
 1734SOL     OW16663   0.321   0.609  12.113 -0.7176  0.1213 -0.4013
 1734SOL    HW116664   0.341   0.525  12.155  1.9321  0.7180 -0.4153
 1734SOL    HW216665   0.411   0.610  12.079 -0.6879 -2.7634 -0.3941
 1735SOL     OW16666   2.298   0.283   3.776 -0.2368 -0.4624 -0.0906
 1735SOL    HW116667   2.211   0.297   3.815  0.6806  1.5267  1.2110
 1735SOL    HW216668   2.350   0.267   3.855  0.7463  0.3613 -0.5860
 1736SOL     OW16669   1.357   4.142   3.229  0.0703 -0.1537  1.1346
 1736SOL    HW116670   1.274   4.104   3.201  1.3384 -2.6212  0.7023
 1736SOL    HW216671   1.406   4.062   3.248 -0.6106 -0.8818 -0.2292
 1737SOL     OW16672   3.776   3.141   0.087 -0.4145 -0.5104 -0.0494
 1737SOL    HW116673   3.745   3.068   0.140  1.5457 -0.7389  0.7941
 1737SOL    HW216674   3.871   3.126   0.092 -0.4838 -0.8609  0.2235
 1738SOL     OW16675   4.501   0.298   2.302 -0.3339 -0.2664  0.2606
 1738SOL    HW116676   4.455   0.368   2.255 -0.2310 -1.1672 -1.1744
 1738SOL    HW216677   4.575   0.351   2.332  2.1647 -3.9221  0.5162
 1739SOL     OW16678   0.252   4.274   5.734 -0.1445 -0.2999 -0.6224
 1739SOL    HW116679   0.158   4.264   5.745 -0.3741  1.1128 -1.3604
 1739SOL    HW216680   0.263   4.271   5.639 -0.8604  0.6409 -0.7330
 1740SOL     OW16681   4.606   3.563   9.345  0.1461  0.5429 -0.1675
 1740SOL    HW116682   4.588   3.494   9.408  1.1195 -1.2590 -1.8737
 1740SOL    HW216683   4.685   3.599   9.386  1.1324 -0.7829 -0.9254
 1741SOL     OW16684   2.997   2.129   2.514 -0.6299  0.1516  0.3366
 1741SOL    HW116685   3.072   2.186   2.525 -0.4904  0.0578 -0.1233
 1741SOL    HW216686   2.948   2.142   2.595 -3.6030 -0.6070 -1.3225
 1742SOL     OW16687   3.470   1.457  13.655  0.7112 -0.0203 -0.6063
 1742SOL    HW116688   3.409   1.514  13.609 -0.0092 -0.5489 -0.3036
 1742SOL    HW216689   3.422   1.469  13.737 -0.0297  3.5012 -1.6037
 1743SOL     OW16690   0.089   3.758  12.763 -0.4522  0.1003 -0.0780
 1743SOL    HW116691   0.086   3.839  12.712 -0.5361  0.6617  0.8202
 1743SOL    HW216692   0.054   3.694  12.701 -0.1253 -0.5121  0.3721
 1744SOL     OW16693   1.605   1.691  16.837  0.0161  0.8107 -0.5366
 1744SOL    HW116694   1.537   1.652  16.781 -1.7076  0.7784  1.5712
 1744SOL    HW216695   1.552   1.678  16.916  2.0791  0.8314  0.8317
 1745SOL     OW16696   3.187   0.795  13.952  0.5202  0.0646 -0.2858
 1745SOL    HW116697   3.176   0.883  13.987  0.3220  0.3525 -1.0597
 1745SOL    HW216698   3.119   0.811  13.887  0.4600 -1.7943 -0.6760
 1746SOL     OW16699   4.263   3.019  11.809 -0.3682 -0.2070  0.2179
 1746SOL    HW116700   4.184   2.992  11.857 -0.6909 -1.9970 -1.3239
 1746SOL    HW216701   4.310   2.936  11.800  0.1667 -0.1396  2.4451
 1747SOL     OW16702   3.210   0.333  14.897 -0.1689  0.2614 -0.0020
 1747SOL    HW116703   3.130   0.351  14.849  0.6695 -0.1575 -1.5466
 1747SOL    HW216704   3.184   0.259  14.953  1.9048  1.5080  2.6098
 1748SOL     OW16705   1.846   4.679   1.063 -0.4478  0.2783  0.0012
 1748SOL    HW116706   1.905   0.008   1.009  1.0340 -2.1841 -0.7820
 1748SOL    HW216707   1.779   4.672   0.994  2.4771 -0.1637 -2.7808
 1749SOL     OW16708   1.670   3.956   9.470  0.4600  0.1882  1.1840
 1749SOL    HW116709   1.659   3.969   9.564 -2.6280 -1.4871  1.0603
 1749SOL    HW216710   1.730   4.030   9.459  1.1288 -0.6556 -1.0019
 1750SOL     OW16711   3.173   3.843  10.112 -0.3120  0.0789 -0.5177
 1750SOL    HW116712   3.115   3.897  10.058 -2.2145 -1.6686 -0.2405
 1750SOL    HW216713   3.254   3.842  10.061  0.5650 -1.2973  0.8908
 1751SOL     OW16714   3.804   3.213   2.469 -0.8592  0.4357  0.2407
 1751SOL    HW116715   3.828   3.146   2.533  0.7358  0.2024 -0.5907
 1751SOL    HW216716   3.809   3.297   2.513 -1.8050  0.8523 -0.4557
 1752SOL     OW16717   4.400   2.550  10.088  0.8670  0.2447  0.4105
 1752SOL    HW116718   4.426   2.624  10.033  3.0429  0.6534  1.9554
 1752SOL    HW216719   4.322   2.513  10.048  1.0616  2.7537 -2.2494
 1753SOL     OW16720   4.052   4.315   2.668 -0.0149  0.1936 -0.7587
 1753SOL    HW116721   4.019   4.391   2.620  1.1010  1.4619  0.4822
 1753SOL    HW216722   4.139   4.320   2.629 -1.4816  1.1223 -3.8922
 1754SOL     OW16723   0.462   3.608  14.357 -0.7451  0.0091 -0.5053
 1754SOL    HW116724   0.389   3.658  14.321  0.1523 -0.3587 -2.8327
 1754SOL    HW216725   0.528   3.650  14.302  1.6301 -0.6138  1.8839
 1755SOL     OW16726   2.172   2.856   2.135  0.6129 -0.4712  0.2018
 1755SOL    HW116727   2.095   2.869   2.080  0.0341  1.2101  1.4306
 1755SOL    HW216728   2.236   2.848   2.064 -0.2519 -0.6834 -0.5486
 1756SOL     OW16729   3.777   4.673   8.065 -0.6474  0.2905  0.2400
 1756SOL    HW116730   3.851   0.002   8.038 -1.4650  1.1467 -0.3029
 1756SOL    HW216731   3.723   4.698   7.990  0.0921  0.8417 -0.0997
 1757SOL     OW16732   3.682   3.393   5.077  0.1074 -0.1572 -0.2827
 1757SOL    HW116733   3.607   3.371   5.022  0.8635  0.2546 -1.4844
 1757SOL    HW216734   3.676   3.353   5.164 -1.1154 -1.1932 -0.8382
 1758SOL     OW16735   2.159   4.030   0.602 -0.2187  0.4393  0.0465
 1758SOL    HW116736   2.125   4.023   0.513 -1.9878 -0.2292  0.7642
 1758SOL    HW216737   2.119   3.950   0.635  2.0177 -0.5947  0.2479
 1759SOL     OW16738   4.236   3.272   5.696  0.4419 -0.0372  0.2581
 1759SOL    HW116739   4.292   3.256   5.620 -0.0386  0.4432 -0.1971
 1759SOL    HW216740   4.159   3.220   5.673  0.6655  0.5003 -1.7654
 1760SOL     OW16741   3.411   2.948   3.156  0.4335 -0.5009 -0.3234
 1760SOL    HW116742   3.427   2.895   3.078  1.8675 -0.7935  0.1620
 1760SOL    HW216743   3.357   3.014   3.114  0.5865 -1.5664 -2.2123
 1761SOL     OW16744   4.465   1.553  13.432 -0.2140 -0.2333  0.2135
 1761SOL    HW116745   4.486   1.500  13.509  1.0331 -1.5185 -1.0008
 1761SOL    HW216746   4.489   1.643  13.452  1.0198  0.3468 -3.7959
 1762SOL     OW16747   0.059   0.726   0.663  0.4889 -0.4197  0.1170
 1762SOL    HW116748   0.138   0.692   0.621  0.7510  2.2074 -1.4950
 1762SOL    HW216749   0.034   0.795   0.602  1.8513 -2.8713 -3.2474
 1763SOL     OW16750   2.406   4.562   9.860  0.2215 -0.3509  0.0510
 1763SOL    HW116751   2.475   4.550   9.925 -2.1499  1.2336  2.8593
 1763SOL    HW216752   2.425   4.483   9.811 -1.4686 -0.4075 -0.4938
 1764SOL     OW16753   0.992   4.370   6.974 -0.4394 -0.0710 -0.1967
 1764SOL    HW116754   0.972   4.321   7.053 -0.2237 -0.3572 -0.3230
 1764SOL    HW216755   1.086   4.385   6.984 -0.8669  2.2116  0.4648
 1765SOL     OW16756   0.590   0.762   2.668 -0.4167 -0.7840  0.4793
 1765SOL    HW116757   0.618   0.688   2.614 -2.4045 -1.7228  0.7428
 1765SOL    HW216758   0.676   0.788   2.703  0.1310 -1.7765 -0.1345
 1766SOL     OW16759   0.127   4.401   5.214  0.3477  0.5193  0.8266
 1766SOL    HW116760   0.057   4.409   5.149 -1.2135 -3.7062  2.0027
 1766SOL    HW216761   0.201   4.427   5.159 -1.0665  1.0578 -0.8319
 1767SOL     OW16762   4.249   0.685   0.306 -0.3030 -0.5815  0.0672
 1767SOL    HW116763   4.232   0.609   0.250  0.8014 -1.5268  0.9876
 1767SOL    HW216764   4.343   0.685   0.324  0.0734  0.2487 -1.9981
 1768SOL     OW16765   1.412   3.230  10.846 -0.0124 -0.5800  0.2512
 1768SOL    HW116766   1.318   3.220  10.861 -0.4584 -0.3965 -2.4250
 1768SOL    HW216767   1.445   3.167  10.909 -1.6837 -0.7397  0.9618
 1769SOL     OW16768   1.768   1.408   1.746  0.0318 -0.3079  0.0061
 1769SOL    HW116769   1.807   1.484   1.703  0.3703 -0.1700  0.5623
 1769SOL    HW216770   1.674   1.425   1.746 -0.0163 -0.5928  2.0409
 1770SOL     OW16771   3.962   0.254   8.595 -0.1398  0.5688  0.3455
 1770SOL    HW116772   3.880   0.204   8.598 -0.6212  1.4696  1.9197
 1770SOL    HW216773   3.997   0.234   8.508  1.6206 -2.0938  1.6212
 1771SOL     OW16774   2.594   2.236   3.784 -0.0260  0.2016  0.1722
 1771SOL    HW116775   2.688   2.244   3.769  0.1418 -0.6925  0.7568
 1771SOL    HW216776   2.562   2.294   3.715  2.2580 -1.3371 -2.2261
 1772SOL     OW16777   2.413   4.360  10.160 -0.6322 -0.0902  0.1312
 1772SOL    HW116778   2.339   4.310  10.125 -1.8156  2.3325 -0.7847
 1772SOL    HW216779   2.487   4.299  10.167  0.8954  1.8909  1.3386
 1773SOL     OW16780   4.611   4.319   9.213 -0.2857  0.2670  0.2433
 1773SOL    HW116781   4.530   4.286   9.174  0.9109 -2.3382 -0.0499
 1773SOL    HW216782   4.590   4.305   9.305 -0.1833 -0.9005  0.0878
 1774SOL     OW16783   1.502   0.679  11.153 -0.7834 -0.0548  0.0754
 1774SOL    HW116784   1.487   0.585  11.151  0.6819 -0.2806 -0.2203
 1774SOL    HW216785   1.496   0.695  11.247 -1.0427  0.8424 -0.0948
 1775SOL     OW16786   3.494   3.569  14.392  0.0019 -0.0717 -0.0380
 1775SOL    HW116787   3.511   3.663  14.390 -2.6638  0.4202  0.4605
 1775SOL    HW216788   3.404   3.562  14.422  0.8883  0.8032  2.7533
 1776SOL     OW16789   2.083   2.119   2.938 -0.3980  0.2256 -0.0492
 1776SOL    HW116790   2.174   2.137   2.961 -0.5240  1.8517 -0.8491
 1776SOL    HW216791   2.056   2.076   3.019  0.8319  0.6506  0.5763
 1777SOL     OW16792   0.058   4.711   8.971  0.2737  0.6619  0.1681
 1777SOL    HW116793   4.716   4.643   8.985  1.0841 -0.4530 -1.3825
 1777SOL    HW216794   0.064   0.037   9.052 -2.2939  1.7083 -0.2648
 1778SOL     OW16795   4.502   3.511   6.437 -0.2257  0.1152 -0.1574
 1778SOL    HW116796   4.515   3.585   6.378 -2.2509 -0.0506 -0.8293
 1778SOL    HW216797   4.445   3.554   6.500  0.8677 -0.1495  0.9984
 1779SOL     OW16798   1.190   4.158  11.111  0.0588  0.5251 -0.3951
 1779SOL    HW116799   1.205   4.233  11.168 -0.2026 -1.0650  1.7550
 1779SOL    HW216800   1.261   4.104  11.145  1.4278  2.5506 -0.0901
 1780SOL     OW16801   0.659   1.247   0.242  0.0250  0.0827  0.3313
 1780SOL    HW116802   0.658   1.165   0.292 -1.1349  0.4170  0.8796
 1780SOL    HW216803   0.568   1.272   0.258  0.0638  0.6527 -0.3293
 1781SOL     OW16804   2.425   3.023   7.696 -0.0898 -0.0572  0.0067
 1781SOL    HW116805   2.516   2.994   7.694  0.0017  0.2508 -0.5295
 1781SOL    HW216806   2.416   3.052   7.605 -1.7894  2.1019  0.8500
 1782SOL     OW16807   1.547   0.667  11.940  0.3353  0.2657  0.0578
 1782SOL    HW116808   1.641   0.654  11.957  0.2921  1.4659  1.2462
 1782SOL    HW216809   1.516   0.650  12.029 -0.8047  2.1668  0.0205
 1783SOL     OW16810   2.524   3.612   2.793 -0.0820 -0.1769 -0.3072
 1783SOL    HW116811   2.473   3.600   2.713 -1.7588  0.6202  0.6316
 1783SOL    HW216812   2.489   3.695   2.826  1.6172  0.8509 -1.0877
 1784SOL     OW16813   1.176   2.500   0.425 -0.2416  0.5080  0.1072
 1784SOL    HW116814   1.185   2.524   0.517 -1.8663 -0.0218  0.3997
 1784SOL    HW216815   1.269   2.484   0.409 -0.0859  0.2534  1.2198
 1785SOL     OW16816   1.824   2.184   1.829  0.0667 -0.4012  0.1770
 1785SOL    HW116817   1.762   2.113   1.817  1.0828 -1.1732 -0.5086
 1785SOL    HW216818   1.872   2.157   1.908 -1.8571 -1.0455  1.1149
 1786SOL     OW16819   0.520   2.487   4.196 -0.4025  0.7128  0.0661
 1786SOL    HW116820   0.591   2.496   4.132  1.1926 -1.7899  1.5208
 1786SOL    HW216821   0.552   2.537   4.270  1.2961  1.3868 -1.1195
 1787SOL     OW16822   4.633   3.792   3.221 -0.0368 -0.1548  0.3905
 1787SOL    HW116823   4.709   3.794   3.163 -0.6196  2.3563 -0.2797
 1787SOL    HW216824   4.650   3.703   3.254 -0.2863 -0.1852  0.4333
 1788SOL     OW16825   1.647   0.700   3.976 -0.3992 -0.1771  0.0910
 1788SOL    HW116826   1.635   0.717   3.883 -1.2210 -2.1914 -0.1617
 1788SOL    HW216827   1.661   0.791   4.001  1.5681 -1.0034  1.9288
 1789SOL     OW16828   4.425   0.371   8.732  0.0562  0.1914 -0.1885
 1789SOL    HW116829   4.435   0.336   8.821  1.1183 -0.1870 -0.4584
 1789SOL    HW216830   4.330   0.379   8.731  0.0675  0.4984  1.5369
 1790SOL     OW16831   2.674   1.994   6.598 -0.3405 -0.3466  0.0427
 1790SOL    HW116832   2.683   2.030   6.686 -0.4171  1.0011 -0.4951
 1790SOL    HW216833   2.696   2.074   6.550  0.2246 -0.3672  0.2667
 1791SOL     OW16834   3.789   2.475   6.188  0.3048 -0.3941 -0.1989
 1791SOL    HW116835   3.745   2.459   6.272 -3.5066 -0.6999 -2.2557
 1791SOL    HW216836   3.737   2.428   6.123  0.7305 -1.1509  0.0071
 1792SOL     OW16837   3.886   3.584  14.957 -0.2386  0.2124 -0.2781
 1792SOL    HW116838   3.842   3.596  14.873  0.3458  2.0119 -0.3232
 1792SOL    HW216839   3.961   3.641  14.938  1.7842 -2.9117 -1.6660
 1793SOL     OW16840   4.264   1.326   8.898 -0.1515 -0.1133 -0.7577
 1793SOL    HW116841   4.295   1.318   8.989  1.8190 -0.3307 -1.4432
 1793SOL    HW216842   4.287   1.419   8.888 -1.1864  0.3737  1.3811
 1794SOL     OW16843   2.712   3.706   3.920 -0.3163  0.1810  0.0309
 1794SOL    HW116844   2.693   3.797   3.899  1.8197  0.3304 -1.2199
 1794SOL    HW216845   2.624   3.667   3.917 -0.0209 -0.3471 -1.7321
 1795SOL     OW16846   3.998   2.519   7.768  0.0545 -0.3082 -0.0716
 1795SOL    HW116847   4.015   2.604   7.728  1.4513 -0.6099 -0.1289
 1795SOL    HW216848   3.974   2.549   7.856  0.8813 -0.0836  0.0777
 1796SOL     OW16849   1.349   3.403   4.067  0.4474  0.1180  0.0792
 1796SOL    HW116850   1.362   3.497   4.061  0.4247  0.1399  0.3586
 1796SOL    HW216851   1.291   3.376   3.996 -0.5473  1.8147  0.2671
 1797SOL     OW16852   1.074   3.778   5.782  0.5439  0.0408  0.4808
 1797SOL    HW116853   1.056   3.690   5.814 -0.1138 -0.0555 -0.1484
 1797SOL    HW216854   1.122   3.758   5.702 -2.7032  1.5133 -1.8159
 1798SOL     OW16855   3.363   4.192   6.574 -0.1312  0.3822 -0.2320
 1798SOL    HW116856   3.285   4.150   6.538 -0.1196 -0.0800  0.2747
 1798SOL    HW216857   3.396   4.245   6.502  2.6368 -1.7923 -0.6015
 1799SOL     OW16858   0.729   2.696   2.592 -0.1771 -0.2390 -0.9486
 1799SOL    HW116859   0.734   2.785   2.627  0.6700 -0.7415  0.2019
 1799SOL    HW216860   0.800   2.688   2.528  0.6472  0.5290 -0.1401
 1800SOL     OW16861   0.563   4.572  15.921 -0.6168  0.1445 -0.3151
 1800SOL    HW116862   0.468   4.580  15.911 -0.5557  0.3984 -0.6886
 1800SOL    HW216863   0.571   4.541  16.011  0.8762  0.6628 -0.2641
 1801SOL     OW16864   2.440   0.782  14.383  0.3380 -0.1868 -0.4441
 1801SOL    HW116865   2.503   0.756  14.450 -0.1580 -2.2894 -0.7968
 1801SOL    HW216866   2.504   0.785  14.312 -0.6147 -0.0754 -1.2967
 1802SOL     OW16867   3.339   3.454   0.992  0.7650 -0.0277  0.5052
 1802SOL    HW116868   3.314   3.507   1.067 -0.7821  0.4544 -0.3479
 1802SOL    HW216869   3.393   3.383   1.027 -1.6507 -2.8998 -1.5611
 1803SOL     OW16870   4.274   0.611   4.983  0.0275 -0.4449 -0.3458
 1803SOL    HW116871   4.259   0.536   5.041  1.2236  1.2368  2.1560
 1803SOL    HW216872   4.332   0.669   5.033  0.4190 -1.2228  0.0994
 1804SOL     OW16873   1.059   3.471  16.767  0.0801  0.5227  0.5475
 1804SOL    HW116874   1.144   3.427  16.759 -0.5003 -0.7080  1.1935
 1804SOL    HW216875   1.031   3.437  16.851  0.3166 -0.1855  0.3415
 1805SOL     OW16876   4.055   3.419   6.635  0.7686  0.4995 -0.1646
 1805SOL    HW116877   4.086   3.416   6.725  1.6216  1.9641 -0.3988
 1805SOL    HW216878   4.039   3.329   6.608 -0.0335  0.6889 -0.3130
 1806SOL     OW16879   0.180   1.690   2.680  0.6703 -0.6536 -0.1622
 1806SOL    HW116880   0.123   1.686   2.604  0.6742 -0.3945 -0.1775
 1806SOL    HW216881   0.217   1.778   2.676  2.7398 -1.6061 -2.3433
 1807SOL     OW16882   1.894   2.920  11.207  0.1128 -0.3030  0.0432
 1807SOL    HW116883   1.864   3.008  11.230  0.1307  0.2133 -1.9290
 1807SOL    HW216884   1.971   2.911  11.263 -0.1486  0.0945  0.4677
 1808SOL     OW16885   1.225   0.840  10.277  0.1742 -0.6374 -0.2984
 1808SOL    HW116886   1.218   0.909  10.344 -0.1908  1.5815 -2.6149
 1808SOL    HW216887   1.184   0.880  10.200 -0.1792  0.8494  0.6555
 1809SOL     OW16888   1.801   1.011   5.132  0.3798 -0.0003  0.1541
 1809SOL    HW116889   1.799   0.917   5.150 -1.3702 -0.4238 -2.1815
 1809SOL    HW216890   1.775   1.052   5.214  0.8797 -0.1740  0.3993
 1810SOL     OW16891   2.994   4.218   7.939  0.5700 -1.2959  0.5542
 1810SOL    HW116892   2.976   4.305   7.976 -1.0533 -1.0970 -0.6985
 1810SOL    HW216893   3.069   4.193   7.993  0.4651  1.4803  2.0049
 1811SOL     OW16894   1.284   2.260   2.725  0.0055 -0.0525  0.1850
 1811SOL    HW116895   1.379   2.272   2.720 -0.2753  1.3330 -1.9782
 1811SOL    HW216896   1.278   2.286   2.817  1.4446 -0.5814  0.4292
 1812SOL     OW16897   2.588   1.284   4.868 -0.0837 -0.0418 -0.5662
 1812SOL    HW116898   2.527   1.333   4.922  1.0958  1.2141 -0.3942
 1812SOL    HW216899   2.632   1.360   4.831 -0.4956  1.6887  2.4972
 1813SOL     OW16900   1.761   3.904   2.390  0.1607  0.3441 -0.2181
 1813SOL    HW116901   1.667   3.886   2.378 -0.3421  2.2921  0.7226
 1813SOL    HW216902   1.798   3.828   2.346  0.1603 -1.6468  3.2755
 1814SOL     OW16903   0.585   2.555   7.069  0.0725 -0.5955 -0.4568
 1814SOL    HW116904   0.608   2.540   6.977 -0.5009  1.1342 -0.8660
 1814SOL    HW216905   0.505   2.604   7.052 -0.6158 -1.1181  1.2358
 1815SOL     OW16906   3.889   3.167   2.931 -0.1151 -0.0889 -0.0085
 1815SOL    HW116907   3.855   3.093   2.882  0.8377  0.5883 -1.6810
 1815SOL    HW216908   3.951   3.214   2.875  2.3170  0.0127  2.7211
 1816SOL     OW16909   1.876   3.302   2.512 -0.0481 -0.2153 -0.2991
 1816SOL    HW116910   1.896   3.339   2.426  1.0483 -0.0240  0.0340
 1816SOL    HW216911   1.957   3.323   2.559  0.5687 -0.1162 -1.4133
 1817SOL     OW16912   2.853   4.177  14.316  0.3000  0.1094 -0.4064
 1817SOL    HW116913   2.805   4.255  14.346 -1.1506 -1.2348  0.7588
 1817SOL    HW216914   2.882   4.134  14.396 -1.0029 -0.9095 -0.4784
 1818SOL     OW16915   2.753   2.794   3.217  0.0961  0.0825 -0.0108
 1818SOL    HW116916   2.796   2.878   3.235  0.3292 -0.0613  0.0958
 1818SOL    HW216917   2.805   2.727   3.261 -1.8625 -1.3779  0.0404
 1819SOL     OW16918   0.627   4.213   6.660 -0.7887  0.4274 -0.5292
 1819SOL    HW116919   0.707   4.247   6.700 -0.3631 -1.1995  0.0096
 1819SOL    HW216920   0.673   4.144   6.612 -1.1465  1.0512 -1.7511
 1820SOL     OW16921   0.287   1.957   4.385  0.0851  0.1424 -0.0622
 1820SOL    HW116922   0.192   1.948   4.395 -0.0008 -0.4331 -1.4223
 1820SOL    HW216923   0.315   1.956   4.476 -0.4912  1.1880  0.1241
 1821SOL     OW16924   3.006   2.352  11.110 -0.3596  0.2079  0.2822
 1821SOL    HW116925   2.982   2.283  11.173 -1.5212 -1.4030 -1.9303
 1821SOL    HW216926   3.096   2.329  11.088 -0.7593 -1.0708 -0.0130
 1822SOL     OW16927   2.760   0.254   8.580  0.2016  0.4560 -0.1343
 1822SOL    HW116928   2.774   0.160   8.583  2.6453  0.9015  2.2024
 1822SOL    HW216929   2.829   0.294   8.633 -0.6729  1.4065  0.3071
 1823SOL     OW16930   0.879   3.922   5.672  0.2539 -0.3811 -0.3516
 1823SOL    HW116931   0.828   3.848   5.706 -0.5760  0.8522  1.1162
 1823SOL    HW216932   0.954   3.916   5.732  1.1664 -0.4837 -1.5129
 1824SOL     OW16933   4.074   2.648   9.900 -0.3107  0.1987 -0.4365
 1824SOL    HW116934   4.021   2.692   9.967 -1.1765  0.4670 -1.2877
 1824SOL    HW216935   4.160   2.684   9.918 -0.1300 -0.8523  0.7506
 1825SOL     OW16936   3.728   2.408  13.474  0.1453  0.3654 -0.9184
 1825SOL    HW116937   3.815   2.371  13.483  0.4893  1.3137 -0.3271
 1825SOL    HW216938   3.690   2.362  13.399 -1.1078 -0.5337  0.2517
 1826SOL     OW16939   3.891   0.639   2.007  0.0385  0.6889 -0.5681
 1826SOL    HW116940   3.980   0.634   2.041 -0.1109  1.8703  0.0055
 1826SOL    HW216941   3.915   0.654   1.915  1.3448 -0.0373 -0.3396
 1827SOL     OW16942   2.475   4.672   6.042  0.4883  0.6907  0.2135
 1827SOL    HW116943   2.381   4.658   6.053  0.1835  1.3433 -1.4791
 1827SOL    HW216944   2.490   0.038   6.071 -3.0059  0.5292  2.4264
 1828SOL     OW16945   1.589   3.327  12.768  0.2803 -0.0344 -0.4619
 1828SOL    HW116946   1.589   3.238  12.734  0.4241  0.1396 -0.9284
 1828SOL    HW216947   1.660   3.312  12.830 -0.8825  2.1718  1.4155
 1829SOL     OW16948   0.178   0.824  17.472  0.9206 -0.6732  0.2710
 1829SOL    HW116949   0.188   0.729  17.478 -0.2290 -0.6500  2.6638
 1829SOL    HW216950   0.083   0.821  17.478  0.9140 -0.5705  0.2216
 1830SOL     OW16951   0.378   0.434   6.940  0.3682  0.0553 -0.0293
 1830SOL    HW116952   0.450   0.371   6.940 -0.4100 -0.8392 -0.4782
 1830SOL    HW216953   0.429   0.515   6.941 -0.6892  0.7226 -1.1689
 1831SOL     OW16954   1.275   1.120   8.225  0.4787 -0.1843  0.4553
 1831SOL    HW116955   1.210   1.138   8.293 -0.0659  0.0991 -0.1386
 1831SOL    HW216956   1.233   1.070   8.155  0.0835  0.8256 -0.0211
 1832SOL     OW16957   2.239   4.370   4.989 -0.2069  0.6551  0.5919
 1832SOL    HW116958   2.332   4.360   4.970 -0.3666 -0.1971  0.2254
 1832SOL    HW216959   2.222   4.456   5.027 -0.6707  0.8083  0.0300
 1833SOL     OW16960   0.753   4.207  10.451  0.1244  0.0646 -0.7394
 1833SOL    HW116961   0.843   4.237  10.439  0.6061 -1.1455 -0.1832
 1833SOL    HW216962   0.773   4.122  10.492  1.2807  1.1267  0.8967
 1834SOL     OW16963   3.179   2.476   8.871  0.1168  0.0189 -0.6654
 1834SOL    HW116964   3.267   2.512   8.866 -0.5528  1.5054 -1.8622
 1834SOL    HW216965   3.140   2.541   8.812 -0.0303  0.4653 -0.0686
 1835SOL     OW16966   3.229   1.417   0.115  0.3602  0.3463  0.2675
 1835SOL    HW116967   3.214   1.393   0.206  0.1958 -0.6504 -0.0246
 1835SOL    HW216968   3.198   1.507   0.107  1.2659  0.7446  1.2882
 1836SOL     OW16969   3.283   3.971   3.335  0.2021  0.0084 -0.7375
 1836SOL    HW116970   3.283   3.916   3.257  1.3880  1.3187 -1.6486
 1836SOL    HW216971   3.332   4.050   3.313 -0.6836  0.3901 -1.3325
 1837SOL     OW16972   0.472   4.534   0.267 -0.0007  0.0960 -0.1009
 1837SOL    HW116973   0.555   4.493   0.243 -0.7925 -0.2350 -2.2002
 1837SOL    HW216974   0.503   4.624   0.257  1.1714 -0.0470  2.2673
 1838SOL     OW16975   1.490   1.060   0.284  0.0692 -0.2293 -0.0874
 1838SOL    HW116976   1.399   1.088   0.276  0.6529  1.7404  0.2039
 1838SOL    HW216977   1.526   1.142   0.318  0.5701 -1.2280  1.8086
 1839SOL     OW16978   3.962   0.218  16.979 -0.7802 -0.2280 -0.1732
 1839SOL    HW116979   4.053   0.190  16.964 -0.8629 -0.2692 -0.5975
 1839SOL    HW216980   3.917   0.141  17.015 -0.2349  0.1854  1.3758
 1840SOL     OW16981   0.968   3.059   1.425 -0.6833 -0.6277 -0.5563
 1840SOL    HW116982   0.892   3.110   1.454  2.6577  2.8025  2.1189
 1840SOL    HW216983   0.989   3.078   1.334 -2.2738 -0.1670 -0.8373
 1841SOL     OW16984   0.055   3.919  11.083 -0.1313  0.3396  0.0101
 1841SOL    HW116985   0.133   3.886  11.037  0.3896 -0.2875  1.3423
 1841SOL    HW216986   0.109   3.980  11.133 -0.6932  0.8945 -0.0702
 1842SOL     OW16987   0.928   4.356   3.567 -0.5210 -0.2822  0.1764
 1842SOL    HW116988   0.969   4.369   3.481 -0.4181  1.3319  0.4666
 1842SOL    HW216989   0.999   4.373   3.629 -0.1278  0.2520 -0.4099
 1843SOL     OW16990   0.412   2.417   6.171  0.2884 -0.5543  0.1680
 1843SOL    HW116991   0.378   2.503   6.196  0.5301 -0.9540  1.8500
 1843SOL    HW216992   0.448   2.438   6.085  1.1422 -2.5006  0.0509
 1844SOL     OW16993   1.894   2.390   6.048  0.5063 -0.5986  0.6773
 1844SOL    HW116994   1.974   2.442   6.042  0.6800 -0.8681  0.6817
 1844SOL    HW216995   1.898   2.359   5.958 -0.7717  1.2195 -0.0009
 1845SOL     OW16996   0.476   3.287   4.927  0.0452 -0.3594 -0.1937
 1845SOL    HW116997   0.427   3.273   4.846 -0.4292  0.8151 -0.1003
 1845SOL    HW216998   0.475   3.381   4.943  0.1248  0.1459 -3.0669
 1846SOL     OW16999   0.016   0.609   5.644  0.8965  0.6317 -0.1052
 1846SOL    HW117000   0.053   0.664   5.712  2.1647 -1.2885  0.7715
 1846SOL    HW217001   0.018   0.528   5.695  1.7615 -0.4957 -1.9043
 1847SOL     OW17002   1.204   0.856   9.438  0.9520  0.5593 -0.7697
 1847SOL    HW117003   1.157   0.934   9.410 -0.4510 -0.6877 -1.9089
 1847SOL    HW217004   1.211   0.865   9.533 -3.1153  1.5467 -0.5512
 1848SOL     OW17005   1.228   1.612   5.803 -0.8337 -0.3635 -0.2249
 1848SOL    HW117006   1.272   1.527   5.801 -0.9462 -0.4145 -0.5780
 1848SOL    HW217007   1.169   1.598   5.878 -2.1893  0.5809 -1.1097
 1849SOL     OW17008   3.043   0.578  14.011  0.1477  0.0950  0.1576
 1849SOL    HW117009   2.953   0.591  13.980  0.2583  2.3197  0.7474
 1849SOL    HW217010   3.079   0.667  14.012 -0.4372  0.3153  1.5667
 1850SOL     OW17011   0.930   3.514   4.694 -0.5194 -0.3395  0.1003
 1850SOL    HW117012   0.987   3.490   4.622 -0.0210  0.9482  0.0649
 1850SOL    HW217013   0.944   3.443   4.757  0.3371  2.2687  2.8620
 1851SOL     OW17014   0.297   0.124   8.688 -0.4062 -0.5534  0.0037
 1851SOL    HW117015   0.234   0.144   8.619 -1.0195 -0.0892  0.7092
 1851SOL    HW217016   0.254   0.166   8.762 -0.1458 -0.8738  0.3349
 1852SOL     OW17017   3.269   3.641   0.820  0.1575  0.0708  0.1250
 1852SOL    HW117018   3.273   3.566   0.880 -0.0910  1.3156  1.6812
 1852SOL    HW217019   3.239   3.603   0.737 -0.6710  2.8091 -0.8285
 1853SOL     OW17020   0.858   1.184   9.706 -0.1753 -0.0183 -0.7014
 1853SOL    HW117021   0.905   1.264   9.683  0.1580  0.1156  0.4567
 1853SOL    HW217022   0.877   1.127   9.631 -1.1757  0.4745 -1.3345
 1854SOL     OW17023   4.675   2.126   6.536 -0.6943 -0.2791  0.5000
 1854SOL    HW117024   0.017   2.087   6.593 -0.2917  0.1142  0.3085
 1854SOL    HW217025   4.615   2.052   6.540  0.0787 -0.9242  0.1656
 1855SOL     OW17026   3.044   2.353   7.237 -0.0700  0.1486  0.7400
 1855SOL    HW117027   3.018   2.389   7.152  1.7577  0.2079  0.1997
 1855SOL    HW217028   3.140   2.359   7.241 -0.0647  0.4980 -0.0373
 1856SOL     OW17029   4.680   1.534   4.644  0.2983  0.4155 -0.4214
 1856SOL    HW117030   4.624   1.500   4.574  0.4137  1.6993 -1.1386
 1856SOL    HW217031   4.608   1.578   4.689  1.0361 -0.7200  1.8619
 1857SOL     OW17032   3.932   2.094   5.465 -0.4702  0.6445  0.4884
 1857SOL    HW117033   3.992   2.152   5.417  1.1957 -1.5571 -0.1186
 1857SOL    HW217034   3.896   2.155   5.528 -1.9640 -0.3377  0.5741
 1858SOL     OW17035   1.356   3.063  15.730  0.0728 -0.2083  0.1031
 1858SOL    HW117036   1.295   3.100  15.794  1.0282  0.2748  0.7319
 1858SOL    HW217037   1.429   3.125  15.733 -0.9584  1.0052  0.3587
 1859SOL     OW17038   2.673   0.669  12.486 -0.1027 -0.2216  0.0790
 1859SOL    HW117039   2.668   0.601  12.553 -2.4870  0.6965  0.8381
 1859SOL    HW217040   2.608   0.640  12.422  0.8385 -2.1500  0.0147
 1860SOL     OW17041   1.890   0.804  11.421 -0.2496  0.7786  0.1489
 1860SOL    HW117042   1.897   0.853  11.339  1.1050  0.5199  0.1092
 1860SOL    HW217043   1.849   0.720  11.402  0.0662  0.3783  1.2662
 1861SOL     OW17044   3.376   0.307  13.308  0.5684  0.2415 -0.0765
 1861SOL    HW117045   3.411   0.396  13.305  1.4070 -0.0866 -0.1362
 1861SOL    HW217046   3.290   0.320  13.268  0.6527  1.3239  0.0813
 1862SOL     OW17047   2.978   2.491   9.387  0.2684  0.1038 -0.0283
 1862SOL    HW117048   2.955   2.467   9.297  3.9941 -0.6132 -0.7623
 1862SOL    HW217049   2.944   2.410   9.426 -0.1390  0.4670  0.3787
 1863SOL     OW17050   2.571   3.139  14.065  0.6864 -0.4559 -0.1917
 1863SOL    HW117051   2.648   3.083  14.062  0.5906 -0.5168 -1.4753
 1863SOL    HW217052   2.551   3.152  14.158  1.5104  1.2196 -0.2615
 1864SOL     OW17053   2.948   3.799   7.394  0.2665  0.3520  0.3678
 1864SOL    HW117054   2.881   3.831   7.333 -1.4517 -0.3275  1.9027
 1864SOL    HW217055   2.957   3.874   7.454 -1.9874  2.5500 -1.9979
 1865SOL     OW17056   0.909   3.557  11.279 -0.0604 -0.1362 -0.5199
 1865SOL    HW117057   0.857   3.491  11.233 -0.1603 -0.5535  0.1908
 1865SOL    HW217058   0.955   3.507  11.347 -2.4698  0.7314  1.7303
 1866SOL     OW17059   1.103   0.930   4.365 -0.4531 -0.1587  0.1504
 1866SOL    HW117060   1.126   1.021   4.388 -0.9865  0.1330 -0.4662
 1866SOL    HW217061   1.014   0.927   4.400 -0.4344  0.6073  0.2630
 1867SOL     OW17062   0.455   2.304   8.609  0.0432 -0.4916 -0.0288
 1867SOL    HW117063   0.397   2.231   8.632  1.3162 -1.7053 -0.7360
 1867SOL    HW217064   0.519   2.302   8.680 -1.3947 -0.3119  1.2807
 1868SOL     OW17065   0.696   0.787   7.494 -0.5835  0.2135 -0.5298
 1868SOL    HW117066   0.608   0.769   7.460 -0.5804 -1.5723  0.4258
 1868SOL    HW217067   0.725   0.849   7.427 -0.8660 -0.5487 -1.3546
 1869SOL     OW17068   1.358   4.667  11.760 -0.1067 -0.0194 -0.2584
 1869SOL    HW117069   1.297   4.685  11.831 -1.8021  1.9993 -2.2555
 1869SOL    HW217070   1.367   0.034  11.732 -2.8552  0.5883  0.8169
 1870SOL     OW17071   4.050   4.534  15.798  0.7815  0.2903 -0.1731
 1870SOL    HW117072   4.052   4.549  15.893 -0.1769  1.0282 -0.2767
 1870SOL    HW217073   3.959   4.513  15.782  0.4139  1.7235  0.0379
 1871SOL     OW17074   2.307   1.559   2.272 -0.0085 -0.4438  0.2453
 1871SOL    HW117075   2.398   1.588   2.257 -0.3786 -0.3409 -1.7839
 1871SOL    HW217076   2.276   1.621   2.338  1.1962 -0.7576  1.1057
 1872SOL     OW17077   0.210   2.421   5.801  0.2739  0.1977  0.0365
 1872SOL    HW117078   0.245   2.350   5.856  2.1588  0.2105 -1.1511
 1872SOL    HW217079   0.196   2.491   5.865 -0.3939  0.4974 -0.4439
 1873SOL     OW17080   0.425   4.584  16.644  0.0478 -0.0326 -0.2239
 1873SOL    HW117081   0.466   4.670  16.632  0.1680 -0.5545 -3.5045
 1873SOL    HW217082   0.387   4.594  16.732  0.4367 -2.8825  0.2613
 1874SOL     OW17083   0.832   3.835   4.011 -0.0593 -0.4636  0.6938
 1874SOL    HW117084   0.856   3.835   3.918 -0.1352  0.4712  0.6681
 1874SOL    HW217085   0.798   3.925   4.015  1.0439 -0.0166  0.0604
 1875SOL     OW17086   2.458   2.696  15.764 -0.0406 -0.3193  0.2458
 1875SOL    HW117087   2.485   2.663  15.678 -0.7333  0.7230 -0.3820
 1875SOL    HW217088   2.417   2.626  15.814  0.5631 -0.8563 -0.0134
 1876SOL     OW17089   3.125   2.739   5.609  0.1785 -0.2809  0.0703
 1876SOL    HW117090   3.138   2.779   5.523 -0.2487  1.9142  1.0185
 1876SOL    HW217091   3.177   2.660   5.599 -3.2890 -2.8085  2.0183
 1877SOL     OW17092   4.656   1.740   0.117  0.8657  0.4101  0.2140
 1877SOL    HW117093   4.610   1.689   0.049  2.3083 -0.9216  0.2252
 1877SOL    HW217094   4.584   1.785   0.161 -1.0119 -1.3120 -1.0757
 1878SOL     OW17095   2.591   2.047   3.486  0.4032 -0.2223  0.2012
 1878SOL    HW117096   2.528   2.086   3.546 -0.2060 -0.5784 -0.2104
 1878SOL    HW217097   2.524   2.003   3.433 -0.1514  0.5467  0.2714
 1879SOL     OW17098   3.448   4.271   1.039 -0.3589 -0.6059  0.8693
 1879SOL    HW117099   3.524   4.248   0.986  0.2135 -0.0867  1.4575
 1879SOL    HW217100   3.479   4.246   1.126  4.1056 -1.1705 -0.9013
 1880SOL     OW17101   1.561   1.970   7.938  0.4674  0.2999 -0.4003
 1880SOL    HW117102   1.648   2.011   7.936  0.7963 -0.2765  2.1350
 1880SOL    HW217103   1.579   1.880   7.908  0.1921 -0.3205  1.2624
 1881SOL     OW17104   4.499   0.568  17.265  0.2223  0.1302 -0.7567
 1881SOL    HW117105   4.456   0.566  17.179 -1.6746  0.0451  0.1815
 1881SOL    HW217106   4.441   0.632  17.306  1.0050  0.3857 -0.0624
 1882SOL     OW17107   0.181   0.462   2.676  0.1800 -0.3586  0.9072
 1882SOL    HW117108   0.207   0.548   2.644 -0.5642  0.0035  1.2769
 1882SOL    HW217109   0.227   0.407   2.613 -0.7241 -1.3853  1.1547
 1883SOL     OW17110   0.127   1.961   8.508  0.5272  0.0278 -0.0751
 1883SOL    HW117111   0.102   1.959   8.415  2.0409 -0.5971 -0.4719
 1883SOL    HW217112   0.053   2.008   8.547 -0.1199  0.8526 -2.2983
 1884SOL     OW17113   4.274   2.374   2.076  0.2758  0.2062  0.4432
 1884SOL    HW117114   4.197   2.317   2.068  1.8752 -1.8461 -0.3702
 1884SOL    HW217115   4.311   2.347   2.160  1.9647  1.6456  0.1586
 1885SOL     OW17116   4.592   3.659   5.077  0.0318 -0.2513  0.0578
 1885SOL    HW117117   4.652   3.645   5.150  1.4095  1.8274 -0.6598
 1885SOL    HW217118   4.521   3.698   5.127  1.6207 -0.0169  2.1221
 1886SOL     OW17119   0.285   2.259   7.409 -0.0769  0.3536 -0.4031
 1886SOL    HW117120   0.294   2.263   7.314 -0.9809 -2.3728 -0.5955
 1886SOL    HW217121   0.221   2.189   7.420  0.3646 -0.3612 -2.5346
 1887SOL     OW17122   2.828   2.780   4.838  0.3320  0.6728  0.0806
 1887SOL    HW117123   2.903   2.744   4.885  1.1337  0.5800 -1.2867
 1887SOL    HW217124   2.753   2.725   4.861 -1.2013  3.0335  0.7835
 1888SOL     OW17125   4.388   3.156   3.396 -0.1004  0.5433  0.9017
 1888SOL    HW117126   4.345   3.242   3.391  0.0732  0.5180 -1.3746
 1888SOL    HW217127   4.432   3.165   3.480  1.8300  0.3193 -0.0772
 1889SOL     OW17128   4.438   2.798   8.170  0.0674 -0.0190 -0.5973
 1889SOL    HW117129   4.509   2.797   8.234 -0.2614  2.1299 -0.1844
 1889SOL    HW217130   4.360   2.762   8.213  0.7300 -1.2689 -0.4558
 1890SOL     OW17131   4.223   4.443   4.511 -0.0203 -0.1998  0.3240
 1890SOL    HW117132   4.200   4.534   4.527 -2.3015 -0.6913 -0.2773
 1890SOL    HW217133   4.159   4.396   4.565 -1.5279  0.7967 -0.6175
 1891SOL     OW17134   0.221   1.646   4.864  0.1137 -0.3244 -0.2296
 1891SOL    HW117135   0.217   1.567   4.810  3.1966  0.6962 -1.9621
 1891SOL    HW217136   0.300   1.635   4.918  0.2133  2.8840  0.3008
 1892SOL     OW17137   3.512   0.249   0.640 -0.2727 -0.2314  0.5605
 1892SOL    HW117138   3.581   0.311   0.665 -0.7140 -0.3096  1.9870
 1892SOL    HW217139   3.497   0.210   0.726  1.0574 -0.0285  0.8894
 1893SOL     OW17140   2.728   2.569   1.818 -0.5288 -0.2308  0.2053
 1893SOL    HW117141   2.777   2.541   1.895 -1.7065 -2.1791  0.2451
 1893SOL    HW217142   2.743   2.493   1.763  2.8420  0.5400  0.0821
 1894SOL     OW17143   0.806   0.660  15.919  0.5287  0.1482 -0.1175
 1894SOL    HW117144   0.894   0.628  15.900  0.3504 -0.3265 -0.1496
 1894SOL    HW217145   0.748   0.589  15.891 -0.4485  0.1856  1.8130
 1895SOL     OW17146   0.316   2.057   1.643  0.4110  0.1827 -0.4409
 1895SOL    HW117147   0.316   2.050   1.738 -1.7546  0.2939 -0.4335
 1895SOL    HW217148   0.351   2.146   1.632  1.8576 -0.1447  1.6209
 1896SOL     OW17149   1.694   1.791  10.822  0.3174  0.5652  0.3835
 1896SOL    HW117150   1.615   1.747  10.792  0.7916 -0.3086  0.4208
 1896SOL    HW217151   1.739   1.711  10.850 -1.4231 -0.2135  0.8915
 1897SOL     OW17152   1.486   1.661  12.493 -0.3267 -0.0889 -0.2950
 1897SOL    HW117153   1.556   1.685  12.432  2.5118  1.4528  3.5467
 1897SOL    HW217154   1.504   1.569  12.512  0.2831 -0.4645 -2.6555
 1898SOL     OW17155   1.257   1.190   4.226 -0.4359  0.0908  1.0078
 1898SOL    HW117156   1.337   1.229   4.190  0.0648 -0.1466  1.8675
 1898SOL    HW217157   1.297   1.111   4.263 -3.2104 -1.8500 -0.0563
 1899SOL     OW17158   4.087   0.439   4.418  0.0886 -0.7034 -0.1849
 1899SOL    HW117159   4.098   0.351   4.454 -0.0422 -0.7032 -0.1433
 1899SOL    HW217160   3.992   0.444   4.408  0.2363 -0.0773 -1.2563
 1900SOL     OW17161   3.973   2.149   7.419  0.6285  0.0006  0.6214
 1900SOL    HW117162   3.886   2.153   7.380 -0.0882 -2.1325  1.9993
 1900SOL    HW217163   4.021   2.217   7.373  1.1867 -0.5719  0.3590
 1901SOL     OW17164   1.460   3.724   5.028 -0.0698 -0.7401 -0.3526
 1901SOL    HW117165   1.532   3.776   4.992 -0.0196  0.4319  1.4336
 1901SOL    HW217166   1.416   3.700   4.947 -0.7892  1.3507 -0.5829
 1902SOL     OW17167   3.840   4.256   7.289  0.1513 -0.1332 -0.2463
 1902SOL    HW117168   3.754   4.221   7.263  0.0489  0.6590 -0.9959
 1902SOL    HW217169   3.895   4.185   7.318 -0.6778 -1.3552 -1.6489
 1903SOL     OW17170   0.921   2.366   8.631  0.3216  0.3112 -0.2268
 1903SOL    HW117171   0.851   2.323   8.681  1.1841  0.4966  1.1426
 1903SOL    HW217172   0.925   2.446   8.684  2.2470 -0.2154  0.4254
 1904SOL     OW17173   1.566   4.179   4.460 -0.1920  0.7211  0.1214
 1904SOL    HW117174   1.606   4.143   4.380  0.7414 -0.8504  1.3031
 1904SOL    HW217175   1.561   4.273   4.446 -0.5293  0.6463 -0.2672
 1905SOL     OW17176   4.510   1.621   6.738 -0.1143 -0.0491 -0.7344
 1905SOL    HW117177   4.537   1.649   6.825 -0.3220 -1.3361 -0.2606
 1905SOL    HW217178   4.531   1.527   6.742  2.0455  0.4626 -0.1865
 1906SOL     OW17179   3.618   0.584  13.770 -0.1495  0.4369 -0.1487
 1906SOL    HW117180   3.553   0.595  13.840  1.5068  2.1804  1.0982
 1906SOL    HW217181   3.649   0.667  13.735 -0.4737 -0.3760 -2.3643
 1907SOL     OW17182   2.518   2.505   6.960  0.2438  0.2211 -0.4397
 1907SOL    HW117183   2.495   2.502   6.867  1.8224 -1.5831 -0.7883
 1907SOL    HW217184   2.601   2.552   6.954  0.8620 -0.7694  0.3741
 1908SOL     OW17185   0.123   3.998   2.353  0.3005 -0.1807  0.1722
 1908SOL    HW117186   0.161   3.939   2.287 -4.4756 -1.1705 -1.6951
 1908SOL    HW217187   0.081   4.058   2.292  1.0656  1.0861  0.8830
 1909SOL     OW17188   4.689   4.021   7.601 -0.5363  0.6075  0.7577
 1909SOL    HW117189   4.623   3.954   7.620  0.4844 -0.4112  0.7379
 1909SOL    HW217190   4.694   4.014   7.506  1.2655  0.2470  0.8846
 1910SOL     OW17191   1.685   3.503   9.089  0.3136  0.1610  0.2692
 1910SOL    HW117192   1.774   3.536   9.098  0.4666  0.2709 -1.8191
 1910SOL    HW217193   1.682   3.469   9.179 -1.1298  1.4050  0.6905
 1911SOL     OW17194   0.824   2.914   4.401 -0.1767  0.2906  0.1788
 1911SOL    HW117195   0.794   2.895   4.490  0.0435 -2.5839 -0.3534
 1911SOL    HW217196   0.917   2.918   4.425  0.6772  0.1582 -3.0378
 1912SOL     OW17197   1.972   0.941  11.200 -0.0188 -0.3923 -0.5154
 1912SOL    HW117198   2.068   0.941  11.196 -0.0228 -3.1676 -0.5486
 1912SOL    HW217199   1.951   0.910  11.112 -2.4116  0.8449 -0.3819
 1913SOL     OW17200   0.428   2.822  13.188 -0.5359 -0.2200 -0.3126
 1913SOL    HW117201   0.345   2.863  13.214 -0.5977 -0.7412  0.3102
 1913SOL    HW217202   0.453   2.784  13.272 -3.4108 -1.2556  0.0855
 1914SOL     OW17203   2.305   0.671   3.888  0.8039  0.3585 -0.3057
 1914SOL    HW117204   2.368   0.690   3.819 -2.5440  0.6007 -3.3257
 1914SOL    HW217205   2.284   0.581   3.863  2.9285 -0.8075  2.1254
 1915SOL     OW17206   4.045   4.207   0.653 -0.2229 -0.9012  0.2684
 1915SOL    HW117207   4.084   4.213   0.740  1.0868 -1.3550 -0.2862
 1915SOL    HW217208   3.954   4.185   0.675 -0.0740 -0.9670  0.8361
 1916SOL     OW17209   0.733   0.040  14.509 -0.1819 -0.5321  0.2075
 1916SOL    HW117210   0.727   0.113  14.447  1.6347  0.4661  1.2163
 1916SOL    HW217211   0.639   0.023  14.506 -0.0376 -1.3568  0.5559
 1917SOL     OW17212   0.448   4.018  10.472  0.0866 -0.2844 -0.3774
 1917SOL    HW117213   0.439   3.929  10.504  0.2519  0.4406  1.6726
 1917SOL    HW217214   0.541   4.018  10.447  0.5838  0.4783  1.4666
 1918SOL     OW17215   2.008   1.167  15.616 -0.3880 -0.4105  0.6039
 1918SOL    HW117216   2.014   1.254  15.577  2.9621 -1.2315 -0.6961
 1918SOL    HW217217   2.001   1.100  15.547  0.2277 -0.8555  0.9814
 1919SOL     OW17218   4.276   4.125   2.527  0.0394 -0.5122  0.1009
 1919SOL    HW117219   4.333   4.167   2.591 -3.8416  0.9899  2.6099
 1919SOL    HW217220   4.331   4.124   2.449  0.0543  0.6241  0.0993
 1920SOL     OW17221   4.714   2.154   2.677 -0.6262  0.1715 -0.5174
 1920SOL    HW117222   0.069   2.185   2.631  0.3499  0.1473  1.1302
 1920SOL    HW217223   0.007   2.191   2.764  1.0169 -1.6350 -0.0733
 1921SOL     OW17224   2.694   2.419   2.750  0.0347  0.4829  0.4436
 1921SOL    HW117225   2.604   2.387   2.752  0.2129 -0.3337 -3.2724
 1921SOL    HW217226   2.687   2.508   2.783  1.1150  1.3721 -1.6808
 1922SOL     OW17227   1.921   2.016  12.611  0.6539 -0.0023 -0.3146
 1922SOL    HW117228   1.967   1.976  12.537  3.0698 -1.1970  1.8503
 1922SOL    HW217229   1.837   1.969  12.610  0.6061  0.0675  0.2079
 1923SOL     OW17230   4.135   4.433   3.859 -0.6509 -1.2985  0.1968
 1923SOL    HW117231   4.174   4.449   3.945  2.9903  1.3885 -1.9375
 1923SOL    HW217232   4.223   4.426   3.821 -0.3415 -1.4111  0.9309
 1924SOL     OW17233   3.596   4.007   5.620 -0.1485 -0.5946  0.9388
 1924SOL    HW117234   3.617   3.973   5.533  0.3143  0.3834  0.6776
 1924SOL    HW217235   3.533   4.079   5.616  0.4509 -0.0442  1.6100
 1925SOL     OW17236   3.103   2.328  13.333 -0.0791 -0.8225  0.2906
 1925SOL    HW117237   3.138   2.375  13.409 -0.6759  1.7387 -1.0206
 1925SOL    HW217238   3.017   2.300  13.364  0.0392 -1.1940  0.2863
 1926SOL     OW17239   0.471   1.564   3.610 -0.1682  0.1543  0.3512
 1926SOL    HW117240   0.483   1.473   3.639  2.1674  0.0920 -0.7910
 1926SOL    HW217241   0.450   1.617   3.687  1.3109 -0.1011  0.9425
 1927SOL     OW17242   3.374   3.476   5.571 -0.1638  0.3769  0.1835
 1927SOL    HW117243   3.460   3.435   5.583  0.1217  1.0792  0.5582
 1927SOL    HW217244   3.402   3.568   5.572 -1.0890  0.6450  1.7102
 1928SOL     OW17245   1.018   1.793   3.615  0.1057  0.2597 -0.5212
 1928SOL    HW117246   0.951   1.725   3.606  0.8168 -0.4388 -0.5357
 1928SOL    HW217247   1.041   1.781   3.707  2.5910  1.1602 -1.0178
 1929SOL     OW17248   2.101   0.832   3.588  0.5322 -0.2449 -0.5649
 1929SOL    HW117249   2.026   0.864   3.537  0.1764  0.2134  0.2290
 1929SOL    HW217250   2.120   0.919   3.622  0.1735 -0.5696  0.4758
 1930SOL     OW17251   4.272   1.038   8.832 -0.0957  0.3999  0.3869
 1930SOL    HW117252   4.354   1.086   8.839  0.5557 -0.8507  1.3034
 1930SOL    HW217253   4.214   1.104   8.872 -3.2731 -1.8384 -0.5210
 1931SOL     OW17254   3.384   2.044   5.367 -0.5024  0.0464  0.7799
 1931SOL    HW117255   3.478   2.030   5.356 -0.8697 -2.1764  0.4000
 1931SOL    HW217256   3.378   2.140   5.368  1.8867  0.2303 -2.2568
 1932SOL     OW17257   0.610   0.278   3.220 -0.1132  0.5583  0.3417
 1932SOL    HW117258   0.585   0.340   3.151 -1.0390  0.2671  0.4072
 1932SOL    HW217259   0.633   0.346   3.283 -1.5745  1.6827 -0.3182
 1933SOL     OW17260   1.993   1.026  12.621 -0.0563 -0.3644  0.2244
 1933SOL    HW117261   2.045   1.075  12.684 -0.8746  1.0728 -0.2187
 1933SOL    HW217262   1.906   1.033  12.662 -0.6257  0.3176 -1.0820
 1934SOL     OW17263   3.753   1.367  16.900  0.2825 -0.4336 -0.3811
 1934SOL    HW117264   3.661   1.378  16.879 -0.4699  0.3065  3.1921
 1934SOL    HW217265   3.756   1.272  16.910  2.1476 -0.6578 -3.2408
 1935SOL     OW17266   3.174   1.723   4.873  0.3903 -0.4652 -0.1362
 1935SOL    HW117267   3.160   1.712   4.967  1.8741 -0.8682  0.0467
 1935SOL    HW217268   3.234   1.798   4.873  1.8739 -1.6440  0.5009
 1936SOL     OW17269   3.234   1.072   3.022  0.3999 -0.1644 -0.4074
 1936SOL    HW117270   3.264   0.996   3.072  1.5472  1.2406  1.0711
 1936SOL    HW217271   3.191   1.032   2.947  2.7953  1.4515 -2.6743
 1937SOL     OW17272   3.157   2.417   6.364 -0.5060 -0.1829  0.0385
 1937SOL    HW117273   3.068   2.382   6.370 -1.0534  1.0169 -0.8886
 1937SOL    HW217274   3.178   2.383   6.278  3.3858 -4.5645  2.7295
 1938SOL     OW17275   1.340   4.286   0.948 -0.5430  0.7485  0.0755
 1938SOL    HW117276   1.333   4.381   0.954 -0.4423  0.9215 -2.4537
 1938SOL    HW217277   1.418   4.286   0.892 -0.0517  2.5721  0.7655
 1939SOL     OW17278   3.270   2.209   1.015 -0.5766  0.4114 -0.0691
 1939SOL    HW117279   3.273   2.116   0.993 -1.1661  0.3381  0.1523
 1939SOL    HW217280   3.232   2.253   0.939 -2.4044  1.6177  1.5409
 1940SOL     OW17281   2.371   4.148   9.822  0.5235  0.6448 -0.1359
 1940SOL    HW117282   2.379   4.089   9.747 -2.2539 -0.1068  0.1323
 1940SOL    HW217283   2.459   4.176   9.846  1.1409 -0.5129 -1.0684
 1941SOL     OW17284   0.430   4.283   4.178  0.5680 -0.3301  0.7942
 1941SOL    HW117285   0.458   4.367   4.141  0.3403  0.0485  1.4857
 1941SOL    HW217286   0.504   4.243   4.224  1.1520 -1.9392 -1.5255
 1942SOL     OW17287   1.875   4.161   8.534  0.2984  0.0739 -0.3544
 1942SOL    HW117288   1.840   4.233   8.588  1.3497  0.3239 -0.0097
 1942SOL    HW217289   1.810   4.153   8.464 -1.0322 -0.0851  0.8956
 1943SOL     OW17290   3.621   4.557   6.511  0.1137  0.6304  0.0830
 1943SOL    HW117291   3.669   4.519   6.585 -0.0531 -1.9991 -1.1522
 1943SOL    HW217292   3.676   4.633   6.491 -0.2833  0.7675 -0.4878
 1944SOL     OW17293   3.481   0.493   2.956 -0.5989 -0.9879 -0.3156
 1944SOL    HW117294   3.392   0.527   2.965  0.0953  0.6760  0.3509
 1944SOL    HW217295   3.513   0.507   3.045  0.7437  1.1656 -1.1248
 1945SOL     OW17296   4.048   3.046   9.069 -0.1757  0.2090 -0.5343
 1945SOL    HW117297   4.131   3.010   9.037 -0.1780  1.7020 -2.1960
 1945SOL    HW217298   4.026   3.109   9.002 -0.3934 -0.9251 -1.5248
 1946SOL     OW17299   4.310   1.743   7.012 -0.3531 -0.5409  0.4881
 1946SOL    HW117300   4.389   1.697   6.983  1.5903  0.2894  4.4944
 1946SOL    HW217301   4.353   1.820   7.050  1.4468 -1.5246  0.4678
 1947SOL     OW17302   1.071   1.544   6.547 -0.1479  0.0326  0.2264
 1947SOL    HW117303   1.065   1.639   6.537 -1.1292  0.0241  0.6750
 1947SOL    HW217304   0.983   1.531   6.583  0.7294 -2.3224  1.5288
 1948SOL     OW17305   0.269   0.942   6.958  0.1600 -1.2695 -0.0519
 1948SOL    HW117306   0.214   0.953   6.880  0.9834  0.0439 -0.4516
 1948SOL    HW217307   0.204   0.902   7.016 -0.4412  1.0270  0.8663
 1949SOL     OW17308   4.612   0.561   2.704  0.0874  0.0790 -0.0503
 1949SOL    HW117309   4.616   0.594   2.614 -1.4535  0.8462  0.1633
 1949SOL    HW217310   4.699   0.523   2.717 -0.0782  0.2166  1.5022
 1950SOL     OW17311   0.053   0.561   2.989  0.5784 -0.2396 -0.1362
 1950SOL    HW117312   0.075   0.507   3.065 -1.8389 -0.4611  0.4295
 1950SOL    HW217313   4.695   0.596   3.024  1.7050  0.4162  1.8359
 1951SOL     OW17314   0.697   2.982   2.255 -0.3331  0.1908 -0.7391
 1951SOL    HW117315   0.609   3.010   2.229 -0.1673  1.9572  0.6337
 1951SOL    HW217316   0.680   2.899   2.300  1.4413  0.7385  0.9279
 1952SOL     OW17317   2.602   1.427   7.037 -0.0982 -0.7088 -0.0908
 1952SOL    HW117318   2.530   1.484   7.062 -1.5624 -2.3565 -0.5593
 1952SOL    HW217319   2.582   1.336   7.059 -1.3385 -0.0543  1.4872
 1953SOL     OW17320   4.616   3.883   9.256 -0.5554  0.0966 -0.0528
 1953SOL    HW117321   4.611   3.790   9.278  1.8579 -0.3110 -1.2525
 1953SOL    HW217322   4.547   3.926   9.307 -1.2360  0.8186 -1.5678
 1954SOL     OW17323   0.194   2.831   6.249 -0.0220  0.0528  0.3247
 1954SOL    HW117324   0.164   2.867   6.165  1.0750  2.1196  0.8332
 1954SOL    HW217325   0.117   2.857   6.300 -0.2011  2.0123 -0.9506
 1955SOL     OW17326   2.712   1.945   9.822 -0.0778  0.1363 -0.0836
 1955SOL    HW117327   2.731   1.867   9.874 -0.7689  1.0045  1.4748
 1955SOL    HW217328   2.712   2.017   9.884  0.4385 -0.2177  0.3256
 1956SOL     OW17329   3.847   3.437  13.090  0.6321  0.1013  0.1264
 1956SOL    HW117330   3.942   3.429  13.080  0.5118 -1.1202 -0.0835
 1956SOL    HW217331   3.819   3.417  13.000  1.4886  0.8491 -0.2972
 1957SOL     OW17332   1.758   2.755   2.312 -0.1811  0.1162  0.3009
 1957SOL    HW117333   1.749   2.697   2.388 -3.6314 -0.0568 -0.2678
 1957SOL    HW217334   1.793   2.696   2.245 -0.3954  1.1506 -0.7072
 1958SOL     OW17335   3.011   2.140   4.349  0.2144 -0.2782 -0.0707
 1958SOL    HW117336   3.008   2.167   4.257 -2.3721 -0.1938  0.0322
 1958SOL    HW217337   2.993   2.047   4.337 -0.8549 -0.1246  0.3102
 1959SOL     OW17338   4.330   4.446   5.273  0.0528 -0.1307  0.6065
 1959SOL    HW117339   4.238   4.419   5.265 -0.1660  0.6302  0.5360
 1959SOL    HW217340   4.369   4.360   5.255 -1.0408 -0.0601 -2.2239
 1960SOL     OW17341   0.982   3.857   8.029  0.0264  0.1842  0.0087
 1960SOL    HW117342   1.036   3.924   8.071  2.2566 -1.5766 -0.0062
 1960SOL    HW217343   0.979   3.882   7.936  0.4348  0.0197 -0.0490
 1961SOL     OW17344   2.626   4.176  16.508  0.7277  0.2231  0.2575
 1961SOL    HW117345   2.648   4.116  16.436 -2.6914 -0.3198 -0.3286
 1961SOL    HW217346   2.607   4.256  16.460  2.0695  0.8456  0.7841
 1962SOL     OW17347   3.270   3.188   3.423  0.8283  0.3026  0.1733
 1962SOL    HW117348   3.352   3.140   3.413  0.1111 -0.8577 -0.1589
 1962SOL    HW217349   3.305   3.276   3.440  0.5406 -0.0267  2.4735
 1963SOL     OW17350   3.931   4.515   5.759 -0.6447  0.7210 -0.3201
 1963SOL    HW117351   3.903   4.424   5.748  1.4865 -0.1090  1.2428
 1963SOL    HW217352   3.846   4.558   5.747 -0.7199  0.3635 -1.0639
 1964SOL     OW17353   1.397   4.138   5.445 -0.3098 -0.1592  0.0052
 1964SOL    HW117354   1.351   4.127   5.528  1.3723  0.3170  1.0049
 1964SOL    HW217355   1.345   4.083   5.386 -0.8156 -0.1167  0.4134
 1965SOL     OW17356   3.609   2.999  12.488 -0.6259 -0.2122  0.6129
 1965SOL    HW117357   3.687   2.964  12.530 -0.0123 -0.2163 -0.5204
 1965SOL    HW217358   3.618   3.083  12.533  2.1779  0.2870 -0.8225
 1966SOL     OW17359   4.374   2.023   7.647  0.4925  0.1701  0.1746
 1966SOL    HW117360   4.382   1.934   7.682 -4.1422 -1.1802 -2.1655
 1966SOL    HW217361   4.298   2.007   7.590  0.3575 -2.2546  1.0474
 1967SOL     OW17362   0.845   0.958   4.484 -0.3376  0.3100 -0.3334
 1967SOL    HW117363   0.765   0.930   4.528  1.0628  0.2195  2.1579
 1967SOL    HW217364   0.817   1.034   4.434 -0.7079 -0.0375 -0.6548
 1968SOL     OW17365   0.440   4.659   8.558  0.5295 -0.4013  0.0156
 1968SOL    HW117366   0.493   4.709   8.496 -0.5123  0.0385 -0.5205
 1968SOL    HW217367   0.390   4.722   8.610 -0.6960 -1.7462  0.4580
 1969SOL     OW17368   4.534   0.531  11.148  0.5091 -0.0143  0.2645
 1969SOL    HW117369   4.445   0.557  11.122  0.1308 -0.6945  0.8861
 1969SOL    HW217370   4.561   0.513  11.058  0.8916 -0.4804  0.4726
 1970SOL     OW17371   1.866   4.201   8.239 -0.0467  0.2497  0.1661
 1970SOL    HW117372   1.951   4.166   8.267 -0.8756 -1.1550  0.8548
 1970SOL    HW217373   1.862   4.290   8.275  2.5234  0.3250  0.2574
 1971SOL     OW17374   3.073   3.880  15.410  0.0406 -0.3063  0.0901
 1971SOL    HW117375   3.024   3.866  15.492  0.5870  2.9912  1.0010
 1971SOL    HW217376   3.148   3.932  15.440 -0.5895  0.2185  0.7435
 1972SOL     OW17377   3.608   4.695  16.416  0.0072  0.2279  0.1010
 1972SOL    HW117378   3.658   0.024  16.479 -0.8267  2.6953 -1.3257
 1972SOL    HW217379   3.674   4.629  16.394  0.1051  0.1346  0.6697
 1973SOL     OW17380   1.989   0.016   6.786 -0.0650 -0.4635 -0.2939
 1973SOL    HW117381   1.933   4.717   6.860  1.0021 -0.3144  0.5579
 1973SOL    HW217382   1.968   4.670   6.724 -0.3180 -2.1005  1.6651
 1974SOL     OW17383   4.111   0.177   1.196  1.2121 -0.1466  0.1376
 1974SOL    HW117384   4.032   0.210   1.153  0.5697 -0.7566  0.8611
 1974SOL    HW217385   4.175   0.211   1.134  0.7879  0.5586  0.0849
 1975SOL     OW17386   1.619   2.571   7.942  0.3770 -0.6332  0.1303
 1975SOL    HW117387   1.529   2.551   7.969  0.2500  1.8477  1.5578
 1975SOL    HW217388   1.603   2.600   7.853 -2.3476  0.3899  0.9583
 1976SOL     OW17389   4.178   1.005   4.573 -0.7039 -0.4997  0.1349
 1976SOL    HW117390   4.222   0.944   4.632  0.6371  0.2272 -0.1046
 1976SOL    HW217391   4.210   0.966   4.492  0.0569 -0.4314  0.4028
 1977SOL     OW17392   1.532   1.048   8.112  0.2154  1.0754  0.2745
 1977SOL    HW117393   1.450   1.094   8.128 -0.9355 -1.7659  2.5446
 1977SOL    HW217394   1.581   1.124   8.080  0.1614  0.9984  0.0077
 1978SOL     OW17395   1.756   0.532   1.289 -0.8789 -0.9469 -0.0340
 1978SOL    HW117396   1.703   0.479   1.230  1.2269 -1.4046 -1.4920
 1978SOL    HW217397   1.838   0.483   1.285 -1.0143 -1.1038 -0.9484
 1979SOL     OW17398   2.354   2.597  16.142 -0.5661 -0.1821  0.2936
 1979SOL    HW117399   2.276   2.651  16.130 -0.4085  0.1772  0.9002
 1979SOL    HW217400   2.354   2.587  16.237 -0.4514 -0.5978  0.2525
 1980SOL     OW17401   1.996   4.471   3.107  0.2732 -0.7529  0.7220
 1980SOL    HW117402   1.920   4.431   3.065 -1.6060  1.6989  1.7699
 1980SOL    HW217403   2.031   4.525   3.035  0.8144 -3.4498 -1.0326
 1981SOL     OW17404   3.611   2.026   2.781  0.4222 -0.2441 -0.1823
 1981SOL    HW117405   3.653   2.096   2.731 -0.2441  0.7897  0.7149
 1981SOL    HW217406   3.652   2.031   2.867 -0.6712  1.5595  0.2394
 1982SOL     OW17407   4.132   0.698   4.474  0.8660  0.2039  0.2167
 1982SOL    HW117408   4.126   0.671   4.566  1.4966 -0.6023  0.0224
 1982SOL    HW217409   4.129   0.613   4.430 -0.1413 -0.4319  1.4867
 1983SOL     OW17410   0.698   0.580   2.451 -0.2091 -0.3259  0.0315
 1983SOL    HW117411   0.627   0.575   2.388 -1.4705 -0.2643  1.4497
 1983SOL    HW217412   0.685   0.500   2.503 -0.8511 -0.9259 -1.0670
 1984SOL     OW17413   0.193   0.659   3.694  0.3814 -0.3510 -0.4913
 1984SOL    HW117414   0.114   0.605   3.701 -0.4300  0.8237 -0.6371
 1984SOL    HW217415   0.156   0.733   3.647 -0.7009  0.4684  1.6564
 1985SOL     OW17416   1.371   2.832   2.861 -0.0360 -0.0666  0.4806
 1985SOL    HW117417   1.425   2.860   2.934  0.0561 -1.3652  0.9208
 1985SOL    HW217418   1.318   2.768   2.909  1.3915 -1.9270 -0.4210
 1986SOL     OW17419   2.085   1.047   6.110  0.0358 -0.1460  0.5677
 1986SOL    HW117420   2.083   0.954   6.129 -1.6671 -0.2604 -0.1391
 1986SOL    HW217421   2.173   1.070   6.140 -0.2746  0.1664  1.2280
 1987SOL     OW17422   3.170   2.148   8.010 -0.1570  0.3479  0.1416
 1987SOL    HW117423   3.165   2.192   7.926  1.7717  0.2093 -0.0435
 1987SOL    HW217424   3.261   2.172   8.027 -0.5219  3.2713 -2.0374
 1988SOL     OW17425   3.888   0.698  16.093 -0.5841 -0.2397  0.2605
 1988SOL    HW117426   3.945   0.773  16.109  2.2261 -2.1703 -0.6569
 1988SOL    HW217427   3.908   0.660  16.008  0.1633 -2.1847  1.3082
 1989SOL     OW17428   0.766   1.197   7.962 -0.4743  0.3305  0.5416
 1989SOL    HW117429   0.681   1.157   7.978 -0.1049 -0.6674  0.0299
 1989SOL    HW217430   0.756   1.281   8.007  1.1845 -1.0577  3.5087
 1990SOL     OW17431   0.248   3.126  14.028 -0.0682  0.5325 -0.2344
 1990SOL    HW117432   0.271   3.163  14.113  1.7643  0.1997 -0.5814
 1990SOL    HW217433   0.333   3.116  13.985  0.8428  1.1708  1.4214
 1991SOL     OW17434   1.853   2.553   4.204 -0.3234  0.4172  0.7875
 1991SOL    HW117435   1.936   2.530   4.163 -1.3144 -0.4158 -0.7513
 1991SOL    HW217436   1.872   2.531   4.295 -1.8661 -0.9364  0.7719
 1992SOL     OW17437   0.790   1.809   8.329 -0.4982  0.2234 -0.5804
 1992SOL    HW117438   0.811   1.807   8.236  0.2762 -1.5068 -0.3705
 1992SOL    HW217439   0.840   1.738   8.369 -1.2942 -1.4831 -2.6372
 1993SOL     OW17440   3.099   1.600  16.974  0.1412 -0.1911  0.2819
 1993SOL    HW117441   3.180   1.635  16.937  0.4265 -0.9942  0.1481
 1993SOL    HW217442   3.123   1.580  17.065  0.0637 -0.6198  0.2068
 1994SOL     OW17443   4.189   4.604   7.640 -0.1271 -0.4265 -0.6489
 1994SOL    HW117444   4.223   4.592   7.551  0.4808 -2.8091 -0.0986
 1994SOL    HW217445   4.241   4.531   7.674  0.4899 -0.0086 -0.7066
 1995SOL     OW17446   2.599   4.187  10.133 -0.2905 -0.3769  0.4117
 1995SOL    HW117447   2.658   4.196  10.208 -1.4749 -3.0134  1.6808
 1995SOL    HW217448   2.616   4.095  10.110  1.8882  0.5046 -1.4864
 1996SOL     OW17449   2.956   0.389   4.069  0.0309 -0.1600  0.2947
 1996SOL    HW117450   2.986   0.325   4.005 -0.2205 -0.1983  0.2167
 1996SOL    HW217451   3.032   0.443   4.093  0.7926 -0.1692 -2.0895
 1997SOL     OW17452   2.938   3.773   8.014  0.7281 -0.2543 -0.2099
 1997SOL    HW117453   3.023   3.756   7.972  0.9254  0.1225  0.0318
 1997SOL    HW217454   2.933   3.710   8.085  0.1378 -2.2539 -2.0380
 1998SOL     OW17455   4.714   2.378  16.379 -0.0215  0.0517 -0.3905
 1998SOL    HW117456   0.080   2.400  16.404  0.2961 -0.0792 -1.4053
 1998SOL    HW217457   4.666   2.404  16.458  0.6595 -0.3603  0.1573
 1999SOL     OW17458   1.312   2.207   3.757 -0.0712 -0.2780  0.6242
 1999SOL    HW117459   1.227   2.206   3.800 -0.0304  2.0555  0.7304
 1999SOL    HW217460   1.290   2.276   3.695 -2.2336 -1.6230 -0.1024
 2000SOL     OW17461   2.782   2.590   2.305  0.2759  0.2408 -0.1212
 2000SOL    HW117462   2.856   2.630   2.350 -0.5425 -1.6386  2.9396
 2000SOL    HW217463   2.816   2.512   2.261 -1.5121  0.0475 -1.1618
 2001SOL     OW17464   1.479   3.594   8.953  0.3641  0.0658 -0.2251
 2001SOL    HW117465   1.552   3.582   9.014 -0.5577  1.4851  1.1879
 2001SOL    HW217466   1.410   3.592   9.019 -0.3678  0.3775 -0.9872
 2002SOL     OW17467   2.630   4.402   8.782  0.0110 -0.0429  0.1170
 2002SOL    HW117468   2.718   4.433   8.805  0.4500 -0.5545 -0.8984
 2002SOL    HW217469   2.603   4.346   8.855  0.1135 -2.2824 -1.5962
 2003SOL     OW17470   3.975   3.881   5.509  1.0154  0.1802 -0.0017
 2003SOL    HW117471   3.940   3.795   5.532  1.2856 -0.5758 -2.4784
 2003SOL    HW217472   3.944   3.931   5.585  0.1732 -0.5065  0.1043
 2004SOL     OW17473   0.534   4.696   5.915 -0.0359  0.6025  0.0010
 2004SOL    HW117474   0.462   4.659   5.864  2.2066  1.6119 -3.9864
 2004SOL    HW217475   0.506   0.064   5.914 -0.3208  0.5214  0.8378
 2005SOL     OW17476   3.617   0.161   0.375  0.2374 -0.1742 -0.0809
 2005SOL    HW117477   3.597   0.234   0.434 -0.5062  0.8837 -1.6441
 2005SOL    HW217478   3.670   0.201   0.306  0.5424 -1.3235 -0.5105
 2006SOL     OW17479   0.044   2.324   1.299  0.5800  0.0969 -0.2583
 2006SOL    HW117480   4.703   2.331   1.368 -0.6994  2.0014 -1.6385
 2006SOL    HW217481   4.715   2.287   1.229 -2.6473  4.3110 -0.0651
 2007SOL     OW17482   1.589   1.797   2.971 -0.2576  0.3122  0.3486
 2007SOL    HW117483   1.540   1.742   3.032 -0.4163 -1.1500 -1.1014
 2007SOL    HW217484   1.516   1.816   2.911 -0.0801  3.7438  1.2153
 2008SOL     OW17485   1.079   4.063  12.558  0.2981  0.0760  0.2532
 2008SOL    HW117486   1.135   4.140  12.547  0.5523 -0.2628 -0.8483
 2008SOL    HW217487   1.089   4.008  12.481 -2.3014 -0.4562  0.2769
 2009SOL     OW17488   2.954   2.217   5.831 -0.3345 -0.7213  0.0914
 2009SOL    HW117489   2.890   2.261   5.888  1.7536  1.5905  0.6533
 2009SOL    HW217490   2.975   2.138   5.880  0.8647 -0.2477  0.3332
 2010SOL     OW17491   4.551   4.575   0.041  0.2061  0.1734  0.6589
 2010SOL    HW117492   4.549   4.649  17.676 -1.2839 -0.0795  0.4028
 2010SOL    HW217493   4.576   4.619   0.122  1.9769 -0.2206  0.3446
 2011SOL     OW17494   0.012   0.329   3.338 -0.0116  0.3244  0.0830
 2011SOL    HW117495   0.003   0.423   3.323  0.6105  0.4254  0.3227
 2011SOL    HW217496   0.043   0.295   3.254  2.1596 -0.8531  1.3548
 2012SOL     OW17497   1.372   1.633   7.507  0.0121  0.2212  0.2520
 2012SOL    HW117498   1.396   1.580   7.583 -0.0172  0.0684  0.1548
 2012SOL    HW217499   1.409   1.568   7.447 -0.1844 -0.8026  1.2577
 2013SOL     OW17500   0.064   2.764   7.130  0.2620 -0.5047 -0.0287
 2013SOL    HW117501   0.012   2.722   7.062  1.1433  0.2423 -1.1739
 2013SOL    HW217502   0.031   2.717   7.206  3.6283 -0.6670  1.3466
 2014SOL     OW17503   4.354   3.862   3.070 -0.0115 -0.5373 -0.3972
 2014SOL    HW117504   4.427   3.805   3.094  1.5849  1.8220  0.3804
 2014SOL    HW217505   4.377   3.872   2.977  0.0314 -0.4907 -0.3817
 2015SOL     OW17506   3.237   1.681  14.527 -0.0397  0.7540 -0.1795
 2015SOL    HW117507   3.247   1.707  14.435 -0.6170  0.6479 -0.2759
 2015SOL    HW217508   3.253   1.587  14.529 -0.0021  0.7334 -1.4517
 2016SOL     OW17509   3.467   3.512   7.900 -0.3230  0.2688 -0.4130
 2016SOL    HW117510   3.465   3.427   7.944  1.0898 -0.1882 -1.2326
 2016SOL    HW217511   3.419   3.570   7.959  1.4912  1.8114 -0.4646
 2017SOL     OW17512   4.411   2.068  10.874  0.1251  0.5127 -0.4539
 2017SOL    HW117513   4.481   2.093  10.814  0.9801 -0.8449 -0.0180
 2017SOL    HW217514   4.413   1.975  10.853  0.2599  0.6788 -1.1837
 2018SOL     OW17515   1.088   2.497   8.130  0.2776  0.0745  0.0117
 2018SOL    HW117516   1.111   2.589   8.140  0.4791  0.0141  0.1068
 2018SOL    HW217517   1.039   2.475   8.209  0.0058  1.0513  0.1116
 2019SOL     OW17518   2.206   4.411   0.914  0.3546  0.3504 -0.1973
 2019SOL    HW117519   2.138   4.441   0.974 -0.2909 -2.1260  0.2813
 2019SOL    HW217520   2.198   4.318   0.936  0.1829 -0.0414 -1.9023
 2020SOL     OW17521   0.705   4.014   5.486  0.0544  0.0685 -0.0298
 2020SOL    HW117522   0.744   4.099   5.468 -1.4290  0.5765 -0.8133
 2020SOL    HW217523   0.750   4.007   5.571 -1.7146  0.2103  0.9150
 2021SOL     OW17524   2.325   0.715  14.015 -0.1041 -0.1492 -0.3714
 2021SOL    HW117525   2.412   0.676  14.028 -0.9811 -1.6167  1.1399
 2021SOL    HW217526   2.327   0.806  13.988  0.8860  0.5317  1.9924
 2022SOL     OW17527   1.852   0.356   5.730 -0.2830  1.2753  0.5831
 2022SOL    HW117528   1.827   0.264   5.729  0.1282  1.2063 -1.9650
 2022SOL    HW217529   1.771   0.409   5.734 -0.6471  0.6046  2.4507
 2023SOL     OW17530   4.683   0.635   6.857 -0.3194 -1.0198  0.1692
 2023SOL    HW117531   4.709   0.619   6.767  2.3820 -1.0886  0.9673
 2023SOL    HW217532   0.013   0.579   6.913  0.3507  2.4878  3.0344
 2024SOL     OW17533   0.588   0.888   5.530  0.0536  0.9549  1.0228
 2024SOL    HW117534   0.516   0.882   5.592 -2.2686  1.4526 -1.6084
 2024SOL    HW217535   0.555   0.957   5.472 -1.4682 -2.3542 -2.0606
 2025SOL     OW17536   1.019   2.077   1.379  0.0489  0.2810 -0.3781
 2025SOL    HW117537   1.024   2.109   1.289 -1.7442  0.2995 -0.4680
 2025SOL    HW217538   0.963   2.148   1.411 -0.2237 -0.3693  0.5985
 2026SOL     OW17539   3.639   4.543   5.657  0.6138  0.4533 -0.4858
 2026SOL    HW117540   3.693   4.516   5.582  2.1589  2.1683  0.0182
 2026SOL    HW217541   3.596   4.462   5.683  2.1024  0.8475  3.2021
 2027SOL     OW17542   1.410   3.009   7.120 -0.2439  0.0047 -0.7858
 2027SOL    HW117543   1.356   2.947   7.169 -1.1814  0.8689 -0.7362
 2027SOL    HW217544   1.493   2.997   7.166 -0.3654 -0.9920 -0.8118
 2028SOL     OW17545   1.662   1.273   3.826 -0.3987 -0.0078 -0.0087
 2028SOL    HW117546   1.608   1.233   3.894  0.8758 -0.5449  0.6846
 2028SOL    HW217547   1.612   1.354   3.824 -1.4136 -0.6471 -0.3334
 2029SOL     OW17548   3.493   3.529   0.089  0.1006  0.3787 -0.2526
 2029SOL    HW117549   3.520   3.437   0.096 -0.8891  0.0304 -1.0699
 2029SOL    HW217550   3.576   3.555   0.049  0.7495 -0.4036  0.5737
 2030SOL     OW17551   4.038   2.032   6.249 -0.2395 -0.0814 -0.0578
 2030SOL    HW117552   4.047   2.053   6.342 -0.8089 -0.9974  0.2059
 2030SOL    HW217553   3.948   2.053   6.225 -0.1366 -1.8999 -2.0852
 2031SOL     OW17554   0.225   2.439   8.694 -0.1808 -0.7365  0.5574
 2031SOL    HW117555   0.311   2.403   8.672  0.1260 -0.5348  1.4061
 2031SOL    HW217556   0.261   2.508   8.750  0.9706 -0.4459 -0.5626
 2032SOL     OW17557   2.426   3.102   4.479  0.4939 -0.0165 -0.8674
 2032SOL    HW117558   2.436   3.092   4.574 -1.0247  4.2584 -0.2555
 2032SOL    HW217559   2.358   3.038   4.459 -0.7542  0.5922  1.3869
 2033SOL     OW17560   1.973   3.194   3.229 -0.1392  0.5109 -0.2301
 2033SOL    HW117561   2.006   3.237   3.150  0.9784 -0.1945 -0.1439
 2033SOL    HW217562   2.042   3.133   3.255  0.0504  0.6832 -0.3340
 2034SOL     OW17563   0.366   1.108   7.167 -0.3586  0.3939 -0.5903
 2034SOL    HW117564   0.348   1.031   7.114  1.1674  0.9283 -1.8906
 2034SOL    HW217565   0.338   1.075   7.252  1.3939  2.2051  0.7000
 2035SOL     OW17566   4.290   2.792   7.204  0.3836 -0.4261 -0.6216
 2035SOL    HW117567   4.285   2.884   7.232 -0.5521 -0.9413  0.8796
 2035SOL    HW217568   4.303   2.749   7.289 -1.3967  3.2827  1.5255
 2036SOL     OW17569   1.443   4.628   3.006 -0.6213 -0.0114  0.3977
 2036SOL    HW117570   1.452   4.535   3.023 -0.9002 -0.1927 -0.4524
 2036SOL    HW217571   1.457   4.630   2.912 -1.2759 -2.0606  0.2526
 2037SOL     OW17572   3.342   4.460  17.585  0.6881  0.2428 -0.1582
 2037SOL    HW117573   3.391   4.518  17.643  0.8553 -1.1154  1.0714
 2037SOL    HW217574   3.305   4.401  17.651  0.7436 -1.0784 -1.2867
 2038SOL     OW17575   1.690   0.082  13.701 -0.3102  0.2712  0.3172
 2038SOL    HW117576   1.736   0.075  13.785  1.6449  0.6126 -0.7184
 2038SOL    HW217577   1.724   0.166  13.671 -0.7334  0.4297  0.2814
 2039SOL     OW17578   1.089   2.973  13.701 -0.1854 -0.2258 -0.6751
 2039SOL    HW117579   1.105   2.960  13.795  0.4636 -2.5203 -1.1223
 2039SOL    HW217580   1.105   3.067  13.689  0.3284 -0.5339 -2.4144
 2040SOL     OW17581   4.113   1.581   2.833  0.2542  0.1325 -0.7261
 2040SOL    HW117582   4.044   1.576   2.899  0.3510 -0.7308 -0.6961
 2040SOL    HW217583   4.068   1.649   2.783 -0.4808  1.1139  1.2795
 2041SOL     OW17584   0.457   4.114   7.554  0.1584 -0.4982 -0.4653
 2041SOL    HW117585   0.371   4.088   7.588 -0.2045 -0.4491 -1.3400
 2041SOL    HW217586   0.515   4.085   7.625  0.4887  1.4262  0.0530
 2042SOL     OW17587   1.121   0.046   4.788 -0.3380  0.2153  0.1992
 2042SOL    HW117588   1.169   0.120   4.825  0.0890 -0.5509  1.1826
 2042SOL    HW217589   1.178   0.029   4.713 -0.3592  0.0190  0.2276
 2043SOL     OW17590   0.492   0.810   4.827 -0.2709  0.3168 -0.5111
 2043SOL    HW117591   0.420   0.872   4.821 -0.7991 -0.1183  1.6085
 2043SOL    HW217592   0.555   0.854   4.770 -0.4708  1.4979  0.2011
 2044SOL     OW17593   1.115   2.007   5.321  0.0543 -0.1487  0.7449
 2044SOL    HW117594   1.156   2.077   5.372 -2.6662  1.2723  0.9783
 2044SOL    HW217595   1.041   1.982   5.377 -0.6152  4.0645  1.7664
 2045SOL     OW17596   2.916   3.290   5.506 -0.4176  0.0491 -0.5001
 2045SOL    HW117597   2.917   3.249   5.419 -0.1821  1.6198 -1.2383
 2045SOL    HW217598   2.920   3.381   5.476 -0.4812 -0.3502 -1.7406
 2046SOL     OW17599   4.037   0.274   9.593  0.2810  0.3769  1.0749
 2046SOL    HW117600   3.945   0.250   9.583  0.6208 -0.5930  0.2285
 2046SOL    HW217601   4.070   0.242   9.508 -0.1222  1.1514  0.6289
 2047SOL     OW17602   0.383   3.119   7.601 -0.4399 -0.2442  0.1247
 2047SOL    HW117603   0.316   3.054   7.581 -1.1883 -0.2938  2.7730
 2047SOL    HW217604   0.389   3.167   7.519  1.2636 -1.3578 -0.4164
 2048SOL     OW17605   0.221   3.868  17.283  0.5786 -0.2546  0.2485
 2048SOL    HW117606   0.239   3.804  17.351 -0.1954 -0.4613  0.2464
 2048SOL    HW217607   0.142   3.913  17.312 -0.8287 -4.1630  2.4198
 2049SOL     OW17608   1.525   1.430   1.580  0.1127  0.1668  0.0781
 2049SOL    HW117609   1.476   1.427   1.662 -2.6771 -3.2728 -1.6922
 2049SOL    HW217610   1.473   1.495   1.531  2.2922  1.6432 -0.2916
 2050SOL     OW17611   0.910   1.588   5.063  0.2780 -0.4536  0.5736
 2050SOL    HW117612   0.815   1.574   5.065  0.3018 -0.4905  1.5047
 2050SOL    HW217613   0.916   1.675   5.103  0.1850  0.8374 -2.1961
 2051SOL     OW17614   1.193   3.714  10.814  0.0453 -0.7328  0.1884
 2051SOL    HW117615   1.229   3.646  10.757 -0.7961  0.5315 -1.8657
 2051SOL    HW217616   1.169   3.652  10.883 -0.1292 -1.4156 -0.4772
 2052SOL     OW17617   2.774   3.132   1.747  0.6763  0.2471 -0.0138
 2052SOL    HW117618   2.869   3.131   1.754  0.8765 -2.7988 -2.9012
 2052SOL    HW217619   2.774   3.164   1.657  0.7401 -2.0585 -0.8400
 2053SOL     OW17620   1.522   4.168   2.606  0.3832  0.0505  0.0122
 2053SOL    HW117621   1.510   4.082   2.567  1.5584  0.2260 -0.7332
 2053SOL    HW217622   1.438   4.175   2.651  0.7716  0.6212  0.6551
 2054SOL     OW17623   3.315   0.081   4.108  0.3050 -0.1690 -0.2936
 2054SOL    HW117624   3.322   0.083   4.204  3.2198 -2.0800 -0.4460
 2054SOL    HW217625   3.239   0.026   4.090 -1.1183  1.6077  0.2753
 2055SOL     OW17626   2.368   2.970   7.115  0.0236  0.2173 -0.2355
 2055SOL    HW117627   2.337   3.036   7.176  0.9974 -0.1548  0.6672
 2055SOL    HW217628   2.463   2.973   7.125  0.3169 -0.3882 -2.7284
 2056SOL     OW17629   0.989   0.708   7.900 -0.3362 -0.6151  0.4598
 2056SOL    HW117630   0.939   0.736   7.823  1.2566 -1.8487 -1.0266
 2056SOL    HW217631   0.915   0.672   7.950 -1.2055  0.2960 -0.1750
 2057SOL     OW17632   0.045   2.197   5.728  0.5159 -0.4968 -0.4171
 2057SOL    HW117633   0.100   2.273   5.746  3.1714 -2.4459 -0.3132
 2057SOL    HW217634   4.687   2.246   5.719  0.1028 -1.3855 -1.4511
 2058SOL     OW17635   0.074   0.190  11.273 -0.3151  0.3321  0.0734
 2058SOL    HW117636   0.169   0.197  11.284 -0.1147 -0.5163 -1.0914
 2058SOL    HW217637   0.044   0.176  11.363 -2.2591 -0.8763 -0.7730
 2059SOL     OW17638   0.076   4.199  10.973  0.1887  0.1669  0.2916
 2059SOL    HW117639   0.057   4.267  10.909 -4.1788  0.5702  1.9940
 2059SOL    HW217640   0.129   4.153  10.908 -2.0632 -1.6863 -0.2520
 2060SOL     OW17641   2.229   0.205   1.431  0.4729 -0.1573  0.4601
 2060SOL    HW117642   2.271   0.139   1.375  1.0295  0.2183  0.4370
 2060SOL    HW217643   2.181   0.156   1.497  0.3685  0.3730  0.7753
 2061SOL     OW17644   3.768   2.364   2.873  0.4648  0.5587  0.1109
 2061SOL    HW117645   3.769   2.455   2.842  0.4336  0.4370 -0.2467
 2061SOL    HW217646   3.705   2.375   2.945  0.4719 -1.3831  0.4178
 2062SOL     OW17647   2.305   1.786   4.834 -0.5965 -0.8288 -0.5656
 2062SOL    HW117648   2.261   1.746   4.909  0.3681 -1.2385 -0.2209
 2062SOL    HW217649   2.397   1.767   4.853 -0.5183  2.2277  2.2168
 2063SOL     OW17650   2.874   1.472   7.029 -0.4150 -0.5672 -1.0219
 2063SOL    HW117651   2.923   1.390   7.031  4.2153  2.2525  1.5213
 2063SOL    HW217652   2.781   1.451   7.032 -0.5848  0.2851 -0.1521
 2064SOL     OW17653   0.486   1.300   3.708  0.0812 -0.0092 -0.4092
 2064SOL    HW117654   0.432   1.303   3.787  2.1276 -2.5372  1.0969
 2064SOL    HW217655   0.503   1.206   3.704  2.7630  0.5713 -2.7915
 2065SOL     OW17656   1.591   2.730   6.102  0.3483  0.5793 -0.6213
 2065SOL    HW117657   1.507   2.725   6.148  0.0999  0.4844 -1.0888
 2065SOL    HW217658   1.600   2.641   6.068 -1.0746  0.3478 -0.3889
 2066SOL     OW17659   1.770   1.262   8.361 -0.0427  0.4342  0.4482
 2066SOL    HW117660   1.783   1.351   8.393 -0.6241  0.8032 -0.3720
 2066SOL    HW217661   1.714   1.229   8.432 -0.0006 -1.0687 -0.2324
 2067SOL     OW17662   2.753   0.724   5.404 -0.6192  0.4000 -0.6693
 2067SOL    HW117663   2.736   0.630   5.394 -1.8257  0.7838 -2.3709
 2067SOL    HW217664   2.725   0.750   5.316 -0.2243 -0.2053 -0.9713
 2068SOL     OW17665   1.003   0.376   1.474 -0.1936  0.0714  0.6550
 2068SOL    HW117666   1.059   0.448   1.503  0.5061  0.0268 -0.5935
 2068SOL    HW217667   1.056   0.325   1.412  1.0997  0.7877  1.1867
 2069SOL     OW17668   0.434   3.462   6.001 -0.1859 -0.3009  0.3182
 2069SOL    HW117669   0.465   3.389   5.947 -0.4795 -1.9458  2.3826
 2069SOL    HW217670   0.340   3.457   5.987 -0.3028  4.6925 -0.5656
 2070SOL     OW17671   4.644   2.252  10.827  0.1347 -0.3440  0.3470
 2070SOL    HW117672   4.581   2.294  10.768  0.4540 -0.9705 -0.4531
 2070SOL    HW217673   4.593   2.238  10.907 -1.1087  0.1125 -0.3545
 2071SOL     OW17674   2.461   3.172   2.241  0.0305 -0.8525 -0.2345
 2071SOL    HW117675   2.462   3.128   2.156  0.0969 -1.5592  0.1374
 2071SOL    HW217676   2.553   3.191   2.258 -0.4082  0.9226  0.1437
 2072SOL     OW17677   3.469   0.531   4.298 -0.0470  0.2688  0.0503
 2072SOL    HW117678   3.478   0.548   4.392  0.1638 -1.6660  0.3786
 2072SOL    HW217679   3.554   0.489   4.283 -0.8394 -0.5994 -2.0658
 2073SOL     OW17680   3.583   1.913   4.728  0.2604 -0.0583 -0.1405
 2073SOL    HW117681   3.633   1.980   4.773 -0.1676  1.9006 -2.5872
 2073SOL    HW217682   3.526   1.969   4.674 -2.0986 -3.0581 -0.7909
 2074SOL     OW17683   1.236   3.502  15.011  0.2146 -0.1633  0.0501
 2074SOL    HW117684   1.320   3.466  14.982  0.4512 -0.4399  1.0674
 2074SOL    HW217685   1.181   3.425  14.996 -0.8118  0.2912  1.4832
 2075SOL     OW17686   1.293   4.038   5.664 -0.1300 -0.3784 -0.0340
 2075SOL    HW117687   1.220   4.076   5.713 -0.0190  0.8534 -0.8162
 2075SOL    HW217688   1.327   3.968   5.720 -0.6274  0.2475  1.0476
 2076SOL     OW17689   4.651   3.090   0.836  0.3751  0.2490 -0.5255
 2076SOL    HW117690   4.577   3.098   0.896  0.2632 -0.7587 -0.5334
 2076SOL    HW217691   4.628   3.155   0.769 -0.6074 -1.4122 -1.7948
 2077SOL     OW17692   1.465   3.329   5.319  0.1184  0.6501 -0.0739
 2077SOL    HW117693   1.487   3.248   5.272 -1.0415 -0.0930  0.6612
 2077SOL    HW217694   1.543   3.383   5.312  1.5827 -1.3481  0.8436
 2078SOL     OW17695   1.433   1.791   5.764 -0.0321  0.2970 -0.8916
 2078SOL    HW117696   1.357   1.733   5.764  0.4126 -0.2771 -1.9395
 2078SOL    HW217697   1.496   1.727   5.799 -0.3311  0.2873 -0.3607
 2079SOL     OW17698   1.246   1.214   5.024  0.2213  0.9926  0.1376
 2079SOL    HW117699   1.184   1.258   4.967  0.6925  0.6940 -0.6049
 2079SOL    HW217700   1.330   1.216   4.978  1.5975  2.0380  2.6571
 2080SOL     OW17701   3.813   3.164   3.445  0.5723 -0.3548 -0.7862
 2080SOL    HW117702   3.755   3.156   3.369 -0.4229  2.0600 -0.2658
 2080SOL    HW217703   3.834   3.257   3.448  2.2212 -0.7514 -0.1819
 2081SOL     OW17704   0.840   2.016   9.269 -0.1365 -0.7752 -0.5096
 2081SOL    HW117705   0.916   2.059   9.229  0.5581 -2.2549 -0.7746
 2081SOL    HW217706   0.876   1.928   9.278  0.3448 -0.4691  0.5773
 2082SOL     OW17707   2.169   2.872   4.099  0.2702  0.3101 -0.2382
 2082SOL    HW117708   2.087   2.850   4.141  0.1474 -0.0117 -0.6442
 2082SOL    HW217709   2.136   2.929   4.030  1.2988  0.4659 -0.6120
 2083SOL     OW17710   1.240   1.442   7.918 -0.5954  0.1987 -0.2326
 2083SOL    HW117711   1.322   1.395   7.929 -2.1779 -2.5998 -0.4907
 2083SOL    HW217712   1.204   1.447   8.006  1.1898  1.0486  0.4543
 2084SOL     OW17713   3.730   4.076   1.909  0.5717 -0.1582 -0.3811
 2084SOL    HW117714   3.821   4.068   1.883  0.7356  0.8972 -0.1359
 2084SOL    HW217715   3.746   4.101   2.000  1.0147 -2.6011  0.2241
 2085SOL     OW17716   1.721   3.476  10.134 -0.4395  0.4367  0.0124
 2085SOL    HW117717   1.713   3.569  10.158  0.9105  0.5897 -0.1078
 2085SOL    HW217718   1.692   3.472  10.043 -0.0773  1.3365 -0.1447
 2086SOL     OW17719   1.263   0.971   2.891  0.2189  0.6862 -0.7234
 2086SOL    HW117720   1.307   0.895   2.852 -0.3440 -0.2054  0.3911
 2086SOL    HW217721   1.329   1.003   2.952  0.1504  2.8102 -1.7683
 2087SOL     OW17722   1.106   3.311  13.703 -0.2675 -0.0369 -0.0037
 2087SOL    HW117723   1.172   3.353  13.758 -0.5859  2.8646 -1.8117
 2087SOL    HW217724   1.033   3.368  13.727  0.1018 -0.2509  1.5956
 2088SOL     OW17725   0.198   3.829   2.801  0.0194 -0.2246  0.7287
 2088SOL    HW117726   0.218   3.738   2.823  0.5975  0.0423  1.2813
 2088SOL    HW217727   0.264   3.891   2.830 -2.1845  1.6930  1.6095
 2089SOL     OW17728   3.323   3.047   2.140  0.1226  0.0113 -0.1785
 2089SOL    HW117729   3.305   2.964   2.096  0.2365 -0.1979  0.1720
 2089SOL    HW217730   3.305   3.036   2.233 -0.4920  0.1518 -0.2796
 2090SOL     OW17731   4.140   1.371  14.431 -0.3442 -0.3526 -0.3784
 2090SOL    HW117732   4.125   1.410  14.517  0.6442 -1.8248  0.4550
 2090SOL    HW217733   4.169   1.285  14.461 -0.0670 -0.1916 -0.1834
 2091SOL     OW17734   1.307   2.613   1.778  0.8569  0.1300 -0.3139
 2091SOL    HW117735   1.300   2.618   1.683 -0.9200 -1.3832 -0.2704
 2091SOL    HW217736   1.391   2.656   1.796  2.3055 -2.5414 -0.7620
 2092SOL     OW17737   0.251   2.705   4.785  0.0576 -0.2430 -0.3890
 2092SOL    HW117738   0.209   2.760   4.719  0.5258 -1.8300 -2.0157
 2092SOL    HW217739   0.176   2.645   4.788 -0.3245  0.3307  1.4097
 2093SOL     OW17740   1.056   3.407   5.661 -0.0207  0.2941 -0.1233
 2093SOL    HW117741   1.146   3.391   5.633 -0.2250 -3.1368  1.1882
 2093SOL    HW217742   1.062   3.452   5.745  0.5416  0.5609 -0.3071
 2094SOL     OW17743   1.694   3.609  11.623  0.2084  0.3209 -0.0647
 2094SOL    HW117744   1.705   3.606  11.528 -1.7495 -0.2420 -0.2847
 2094SOL    HW217745   1.604   3.581  11.639  0.5285 -2.0316 -2.4635
 2095SOL     OW17746   2.146   1.578   1.359 -0.2073  0.2216  0.0024
 2095SOL    HW117747   2.188   1.644   1.303  0.2071 -0.7252 -0.8103
 2095SOL    HW217748   2.063   1.581   1.311 -0.2531  1.7393  0.1694
 2096SOL     OW17749   0.230   3.453   6.893  0.4966 -0.7022 -0.0518
 2096SOL    HW117750   0.277   3.453   6.976 -0.2103  1.9138  0.3497
 2096SOL    HW217751   0.140   3.445   6.925  0.5454 -1.3973 -0.0879
 2097SOL     OW17752   2.547   4.370   6.368  0.0993 -0.0728 -0.7226
 2097SOL    HW117753   2.589   4.307   6.310  0.4313 -1.1435  0.7025
 2097SOL    HW217754   2.472   4.394   6.314 -0.6256 -0.8410 -0.0542
 2098SOL     OW17755   3.356   4.173   7.795 -0.5384 -0.5776 -0.0969
 2098SOL    HW117756   3.276   4.224   7.783  0.9882  1.1226 -3.0774
 2098SOL    HW217757   3.419   4.228   7.748 -0.4406 -0.2108  0.4670
 2099SOL     OW17758   4.414   2.776   6.923  0.7462  0.1500  0.5433
 2099SOL    HW117759   4.471   2.852   6.912  1.9270 -0.6151  1.4407
 2099SOL    HW217760   4.366   2.792   7.004 -0.5162 -2.9803  0.4180
 2100SOL     OW17761   0.829   0.223   5.794  0.1292  0.2269  0.4745
 2100SOL    HW117762   0.792   0.309   5.814  0.8777  0.9813 -1.3858
 2100SOL    HW217763   0.923   0.238   5.788 -0.0484  0.6184 -1.4368
 2101SOL     OW17764   3.893   3.787   6.277  0.1901 -0.6058 -0.4134
 2101SOL    HW117765   3.974   3.774   6.326  0.2660  2.3541  0.2333
 2101SOL    HW217766   3.829   3.825   6.338  1.6403 -0.0927  0.7837
 2102SOL     OW17767   4.357   0.112   2.160 -0.2266  0.0564  0.3055
 2102SOL    HW117768   4.411   0.039   2.190 -0.1843  1.9851  4.9376
 2102SOL    HW217769   4.398   0.177   2.218  1.5305  0.4151 -1.3167
 2103SOL     OW17770   1.852   3.671   9.848 -0.5600 -0.0222  0.1269
 2103SOL    HW117771   1.820   3.605   9.787  2.0846 -1.0657 -0.1365
 2103SOL    HW217772   1.922   3.615   9.880  0.1395  1.1080  0.5824
 2104SOL     OW17773   3.736   4.436   3.915  0.3100 -0.4357  0.3767
 2104SOL    HW117774   3.810   4.425   3.854 -0.7387  1.2161 -1.1841
 2104SOL    HW217775   3.762   4.520   3.952  2.3185 -0.7788 -0.2449
 2105SOL     OW17776   3.005   2.896   0.062 -0.2936 -0.1227  0.8286
 2105SOL    HW117777   2.983   2.862   0.149 -0.7444 -1.5227  0.1669
 2105SOL    HW217778   3.097   2.919   0.068 -0.0626 -0.5195 -1.0949
 2106SOL     OW17779   0.501   1.556   6.489  0.0478  0.3039  0.4582
 2106SOL    HW117780   0.433   1.602   6.440 -1.1281 -0.5989  1.2595
 2106SOL    HW217781   0.457   1.537   6.572 -1.6163  1.4351 -0.1633
 2107SOL     OW17782   1.146   1.966  10.297 -0.0326  0.1264  0.4541
 2107SOL    HW117783   1.127   1.880  10.335 -0.4115  0.5943  1.3258
 2107SOL    HW217784   1.193   1.941  10.218 -2.0785  1.6244 -1.2326
 2108SOL     OW17785   3.315   0.577   2.240  0.2612 -0.1472  0.8864
 2108SOL    HW117786   3.363   0.652   2.205  0.7769 -0.0706  1.7732
 2108SOL    HW217787   3.388   0.521   2.265 -0.9596 -2.1971 -0.0657
 2109SOL     OW17788   1.480   4.572   7.639  0.2323 -0.1631 -0.4226
 2109SOL    HW117789   1.440   4.589   7.553  0.7008 -0.1117 -0.6338
 2109SOL    HW217790   1.546   4.641   7.643 -1.0998  1.0022  1.3002
 2110SOL     OW17791   1.500   1.654   2.754  0.2421 -0.4243 -0.4668
 2110SOL    HW117792   1.444   1.588   2.796 -0.3045  0.6324  0.4624
 2110SOL    HW217793   1.437   1.726   2.750 -1.9373 -2.3387 -0.9464
 2111SOL     OW17794   2.084   4.118   0.345 -0.0758 -0.6448 -0.0070
 2111SOL    HW117795   1.992   4.103   0.363 -0.3058  1.0392  0.2619
 2111SOL    HW217796   2.083   4.125   0.249  2.0756 -0.5773 -0.0434
 2112SOL     OW17797   1.892   2.828   4.162 -0.1207  0.2063 -0.6335
 2112SOL    HW117798   1.877   2.738   4.190  2.6128 -0.6455 -1.8800
 2112SOL    HW217799   1.802   2.857   4.149 -0.3032 -0.2762 -0.4607
 2113SOL     OW17800   3.061   0.471   1.417  0.1845 -0.2712  0.5070
 2113SOL    HW117801   3.132   0.493   1.357  0.0866  0.9624  0.8446
 2113SOL    HW217802   2.984   0.504   1.371  0.6288  0.5961  0.3921
 2114SOL     OW17803   2.859   2.066   1.981  0.2822 -0.0509 -0.2675
 2114SOL    HW117804   2.910   2.006   1.926 -0.9155 -0.7711 -0.6030
 2114SOL    HW217805   2.875   2.022   2.064  3.4130  1.3910 -0.1042
 2115SOL     OW17806   2.178   2.170  15.993 -0.3663 -0.2420 -0.3724
 2115SOL    HW117807   2.270   2.161  16.016 -0.7715 -4.4737 -0.2848
 2115SOL    HW217808   2.140   2.221  16.063  0.3641 -0.5236  0.2302
 2116SOL     OW17809   0.332   1.907  13.109 -0.3263  0.0674  0.1789
 2116SOL    HW117810   0.334   1.846  13.183  0.3489  1.4012  1.2642
 2116SOL    HW217811   0.346   1.845  13.038  0.0687 -0.9157  1.1097
 2117SOL     OW17812   0.747   0.125  16.333 -0.2128 -0.3415 -0.2014
 2117SOL    HW117813   0.680   0.061  16.308 -1.8590  0.3904  2.3407
 2117SOL    HW217814   0.807   0.056  16.360 -0.1972 -1.2639 -2.6252
 2118SOL     OW17815   1.904   4.140   5.542  0.2541  0.6245 -0.6896
 2118SOL    HW117816   1.938   4.051   5.537  1.9055  1.2189 -0.2866
 2118SOL    HW217817   1.818   4.122   5.580  0.6870  1.9050  0.9340
 2119SOL     OW17818   0.129   4.655   2.074  0.0059  0.1878  0.0449
 2119SOL    HW117819   0.192   4.585   2.092 -0.0543  0.1045 -0.0665
 2119SOL    HW217820   0.058   4.609   2.030 -0.2021  1.8753 -1.3829
 2120SOL     OW17821   1.034   3.110   9.729 -1.0439 -0.3123 -0.1098
 2120SOL    HW117822   1.072   3.115   9.642 -1.0512  1.1445 -0.0388
 2120SOL    HW217823   0.959   3.167   9.712  0.5030  1.9684  0.5872
 2121SOL     OW17824   0.953   3.889   7.744  0.0240 -0.6024 -0.4016
 2121SOL    HW117825   0.874   3.842   7.716 -0.7158  1.6437 -2.1115
 2121SOL    HW217826   1.012   3.850   7.680  0.1061 -0.1896 -0.5783
 2122SOL     OW17827   4.101   4.364   4.942  0.0352  0.5391 -0.1442
 2122SOL    HW117828   4.006   4.375   4.935  0.1198  2.2645  1.5443
 2122SOL    HW217829   4.120   4.275   4.972  1.1135  0.2692 -1.5984
 2123SOL     OW17830   2.816   2.518  11.841 -0.8114  0.4205 -0.0961
 2123SOL    HW117831   2.863   2.600  11.827 -0.6357  0.0586 -1.6258
 2123SOL    HW217832   2.893   2.461  11.839 -0.8522  0.3920 -1.2491
 2124SOL     OW17833   1.139   2.045   0.547  0.0668  0.2421 -0.0548
 2124SOL    HW117834   1.082   1.985   0.595 -1.6178  1.5220 -0.4358
 2124SOL    HW217835   1.171   2.106   0.613  0.7654  0.1966 -0.3499
 2125SOL     OW17836   4.506   2.787  13.271 -0.3726  0.2397 -0.2349
 2125SOL    HW117837   4.450   2.833  13.334  0.1825  0.9533 -0.2611
 2125SOL    HW217838   4.449   2.710  13.271  0.3708 -0.3172 -2.5100
 2126SOL     OW17839   3.908   1.762   6.085  0.4674  0.2072  0.1430
 2126SOL    HW117840   3.881   1.785   6.173 -0.9330 -1.0113  0.0370
 2126SOL    HW217841   3.822   1.762   6.043 -0.5380 -2.8968  2.2285
 2127SOL     OW17842   1.877   2.467   4.448 -0.1209 -0.0982 -0.4861
 2127SOL    HW117843   1.811   2.508   4.504  0.2638 -0.2891  0.1149
 2127SOL    HW217844   1.874   2.376   4.480 -0.0341  0.1965  0.3731
 2128SOL     OW17845   1.233   3.361   8.705  0.4648  0.5971 -0.0911
 2128SOL    HW117846   1.269   3.424   8.641  0.8417 -0.0015 -0.4750
 2128SOL    HW217847   1.310   3.343   8.759  1.1153  1.0968 -0.8316
 2129SOL     OW17848   4.114   2.425   6.321 -0.6939  0.6435  0.0105
 2129SOL    HW117849   4.114   2.497   6.384 -2.5994  2.1825 -1.7347
 2129SOL    HW217850   4.130   2.355   6.384 -0.0467  1.5389  0.8351
 2130SOL     OW17851   0.207   4.585   1.758  0.1507  0.4938  0.2462
 2130SOL    HW117852   0.122   4.630   1.757  0.6557  1.4033 -0.8458
 2130SOL    HW217853   0.202   4.537   1.676 -0.5168 -2.5364  2.0611
 2131SOL     OW17854   2.179   0.074   3.026 -0.3548 -0.1951  0.4536
 2131SOL    HW117855   2.088   0.095   3.048  0.6463  2.8964  1.6141
 2131SOL    HW217856   2.208   0.060   3.117  0.2357 -1.3454  0.0886
 2132SOL     OW17857   0.793   4.585   3.425 -0.2365 -0.1828  0.1596
 2132SOL    HW117858   0.799   4.531   3.347  2.4733 -2.4941  1.9572
 2132SOL    HW217859   0.884   4.587   3.454 -0.1633  4.1276 -0.3418
 2133SOL     OW17860   3.365   3.508   0.335 -0.0709  0.1456  0.1005
 2133SOL    HW117861   3.392   3.472   0.251 -2.6240 -0.1943 -0.5687
 2133SOL    HW217862   3.436   3.463   0.382 -2.0234 -0.7846  2.1631
 2134SOL     OW17863   3.813   2.663  10.035  0.7136 -0.2818  0.3073
 2134SOL    HW117864   3.776   2.712   9.960  2.8552 -0.1924 -0.7003
 2134SOL    HW217865   3.786   2.719  10.108  1.9314 -3.0422  2.8286
 2135SOL     OW17866   4.336   4.619  12.502  0.3613  0.0098  0.4450
 2135SOL    HW117867   4.259   4.643  12.451  1.6006 -1.7598 -2.2890
 2135SOL    HW217868   4.358   4.704  12.540  1.9402 -0.3029  0.2461
 2136SOL     OW17869   1.963   0.776   4.629  0.2550 -1.0264 -0.2807
 2136SOL    HW117870   2.017   0.700   4.605  2.2337 -0.2890  1.8813
 2136SOL    HW217871   2.005   0.837   4.568 -0.7520 -0.1795 -0.1279
 2137SOL     OW17872   2.950   4.699   1.305 -0.1094  0.4478 -0.2222
 2137SOL    HW117873   3.024   4.640   1.317  0.3905  1.3104  1.0309
 2137SOL    HW217874   2.997   0.058   1.315  0.2590  0.2066  0.0159
 2138SOL     OW17875   4.052   4.071   9.065 -0.2179 -0.2446  0.0103
 2138SOL    HW117876   4.115   4.004   9.038  1.7238  2.2999 -1.8630
 2138SOL    HW217877   4.084   4.090   9.153 -1.1262  0.9415  0.0837
 2139SOL     OW17878   4.703   4.499  15.104  0.0919 -0.6241  0.0768
 2139SOL    HW117879   0.030   4.424  15.135  1.4813  0.5719  0.7102
 2139SOL    HW217880   4.684   4.474  15.014 -1.2192  0.0744  0.1662
 2140SOL     OW17881   0.707   1.288   2.999 -0.0753  0.4791  0.0959
 2140SOL    HW117882   0.722   1.287   2.905  1.7029 -0.7015  0.3880
 2140SOL    HW217883   0.704   1.195   3.022  1.5347  0.1564 -1.0074
 2141SOL     OW17884   2.437   3.763  13.250 -0.1042 -0.1290 -0.2979
 2141SOL    HW117885   2.441   3.723  13.163 -1.0843  2.1933 -1.4115
 2141SOL    HW217886   2.342   3.762  13.257 -0.1082  0.6311 -0.2713
 2142SOL     OW17887   2.034   0.983  15.408  0.1303 -0.2939 -0.0431
 2142SOL    HW117888   1.984   0.911  15.448 -0.6548  0.4325  0.2967
 2142SOL    HW217889   2.103   0.941  15.356  1.4396  2.2381 -0.3283
 2143SOL     OW17890   4.053   4.406   5.309 -0.6629  0.5211 -0.4337
 2143SOL    HW117891   4.030   4.317   5.337  1.2401  0.9111  2.2770
 2143SOL    HW217892   3.968   4.451   5.316 -0.9490  0.1839 -1.7110
 2144SOL     OW17893   0.802   0.480  11.891 -0.3471  0.2690 -0.3589
 2144SOL    HW117894   0.833   0.393  11.916 -2.5750 -0.1728  0.8814
 2144SOL    HW217895   0.886   0.525  11.882  0.7258 -1.5254  0.6222
 2145SOL     OW17896   2.691   0.970   0.785 -0.0130 -0.1314 -0.4458
 2145SOL    HW117897   2.714   1.012   0.868  1.5246  1.5918 -1.7326
 2145SOL    HW217898   2.685   1.049   0.731 -2.5003  0.2296  0.3492
 2146SOL     OW17899   1.700   1.086   3.618  0.2136  0.4017  0.0835
 2146SOL    HW117900   1.711   1.129   3.702  0.0591 -0.9294  0.7900
 2146SOL    HW217901   1.607   1.064   3.627  0.4343 -0.3319  0.6016
 2147SOL     OW17902   1.717   1.203   0.430 -0.6791  0.4910 -0.3511
 2147SOL    HW117903   1.754   1.131   0.378  0.4678  3.5216 -3.7018
 2147SOL    HW217904   1.733   1.179   0.522 -0.6792  2.1409  0.0812
 2148SOL     OW17905   4.136   2.020  11.926 -0.0059 -0.2620 -0.3155
 2148SOL    HW117906   4.050   2.060  11.917  0.8313  1.4260 -0.8056
 2148SOL    HW217907   4.190   2.091  11.892  0.6487 -1.2165 -1.2642
 2149SOL     OW17908   0.610   3.101   3.469  0.3628 -0.3889 -0.4780
 2149SOL    HW117909   0.518   3.120   3.447 -0.1710 -0.8235  1.4128
 2149SOL    HW217910   0.636   3.179   3.518  1.4247  0.1456 -1.8825
 2150SOL     OW17911   1.081   4.368   7.549  0.0142  0.9976 -0.2029
 2150SOL    HW117912   1.085   4.275   7.572  0.0714  1.3547  1.2329
 2150SOL    HW217913   0.989   4.392   7.539 -0.5865 -1.5124 -0.7168
 2151SOL     OW17914   0.102   0.188   3.095  0.1994  0.1540  0.4256
 2151SOL    HW117915   0.076   0.212   3.006  1.8088  1.3801  0.2662
 2151SOL    HW217916   0.167   0.121   3.075 -0.6748 -0.9359  1.2198
 2152SOL     OW17917   4.480   1.977   0.986  0.5991  0.4343 -0.2781
 2152SOL    HW117918   4.431   1.924   0.923 -0.1018  2.5133 -1.4863
 2152SOL    HW217919   4.481   2.063   0.946  0.9686  0.5379 -0.0486
 2153SOL     OW17920   0.857   2.602   0.018 -1.0717 -0.4499 -0.3979
 2153SOL    HW117921   0.785   2.571  17.660  0.3560 -0.9185 -2.0255
 2153SOL    HW217922   0.833   2.568   0.104 -2.6746 -1.6818 -1.3342
 2154SOL     OW17923   2.428   1.819   8.128 -0.1163  0.5182 -0.8226
 2154SOL    HW117924   2.485   1.742   8.135  2.1031  2.4202  1.9867
 2154SOL    HW217925   2.493   1.889   8.120 -0.7848  1.1853 -0.4231
 2155SOL     OW17926   0.747   0.030  13.284  0.3890 -0.1451 -0.2446
 2155SOL    HW117927   0.840   0.050  13.280  0.8998 -2.7919 -0.9332
 2155SOL    HW217928   0.720   0.026  13.192  0.9291 -0.8406 -0.3696
 2156SOL     OW17929   1.881   1.922   8.953 -0.2557  0.6364 -0.3235
 2156SOL    HW117930   1.959   1.897   8.904  0.5597  0.6226  0.9792
 2156SOL    HW217931   1.849   1.836   8.980 -0.4107  0.7140 -0.2603
 2157SOL     OW17932   3.767   2.263   5.032 -0.2558 -0.0207  0.3827
 2157SOL    HW117933   3.814   2.180   5.038  0.5229  0.4815  1.2472
 2157SOL    HW217934   3.708   2.237   4.961  1.8018  1.4977 -1.8935
 2158SOL     OW17935   1.966   1.034   4.761  0.2335  0.1890 -0.0182
 2158SOL    HW117936   2.060   1.054   4.764 -0.1603  2.0388 -0.3883
 2158SOL    HW217937   1.964   0.956   4.706 -0.8236 -0.2262  0.6033
 2159SOL     OW17938   0.322   3.691  11.557  0.2541 -1.1494  0.2807
 2159SOL    HW117939   0.355   3.729  11.638 -1.2698  0.3031  0.2258
 2159SOL    HW217940   0.238   3.736  11.559  0.3682 -0.9175 -0.1873
 2160SOL     OW17941   1.155   2.082   5.902  0.4558 -0.3069  0.0899
 2160SOL    HW117942   1.189   2.058   5.816  0.1046  0.8872 -0.3779
 2160SOL    HW217943   1.069   2.039   5.901 -0.1503  0.8607  1.3854
 2161SOL     OW17944   1.925   1.407   4.479 -0.0079  0.3418 -0.4224
 2161SOL    HW117945   1.885   1.426   4.564 -0.1645 -1.3754 -0.1130
 2161SOL    HW217946   2.001   1.354   4.504  0.4192 -0.0555 -2.5307
 2162SOL     OW17947   1.600   4.692  10.855 -0.6105  0.5985 -0.5046
 2162SOL    HW117948   1.633   4.676  10.766 -1.3437 -1.4241 -0.4107
 2162SOL    HW217949   1.511   4.658  10.849  0.6481 -2.4375 -1.5495
 2163SOL     OW17950   1.276   1.628   8.740  0.6249  0.2001 -0.3071
 2163SOL    HW117951   1.354   1.577   8.761  1.7609  2.6002  1.2615
 2163SOL    HW217952   1.228   1.558   8.695  0.1132  1.2053 -1.3048
 2164SOL     OW17953   2.472   1.339   1.677 -0.4303 -0.4493 -0.0897
 2164SOL    HW117954   2.427   1.381   1.604  0.3860 -2.1207 -1.5556
 2164SOL    HW217955   2.399   1.281   1.700 -1.5552  1.2608  0.5815
 2165SOL     OW17956   0.288   1.789  14.294 -0.3557 -0.6560  0.2320
 2165SOL    HW117957   0.296   1.775  14.200 -0.8330 -1.0857  0.2519
 2165SOL    HW217958   0.263   1.707  14.335 -2.4903  0.1840  0.6211
 2166SOL     OW17959   3.789   2.357   4.298 -0.5729 -0.3516 -0.3379
 2166SOL    HW117960   3.745   2.407   4.230 -2.4556 -0.9979  0.3855
 2166SOL    HW217961   3.724   2.361   4.368 -0.8497  2.4868 -0.7832
 2167SOL     OW17962   4.418   3.153  11.459 -0.2319 -0.0514  0.6750
 2167SOL    HW117963   4.475   3.120  11.389 -0.7664  0.7545 -0.1495
 2167SOL    HW217964   4.452   3.110  11.537  0.3119 -1.7920 -0.5254
 2168SOL     OW17965   4.586   1.622   6.993 -0.0608  0.6253  0.3503
 2168SOL    HW117966   4.604   1.556   7.061 -2.7628 -0.5573 -0.1133
 2168SOL    HW217967   4.663   1.678   7.002 -0.2674  0.8422  0.7429
 2169SOL     OW17968   3.497   3.893   0.635  0.2006 -0.2199  0.3135
 2169SOL    HW117969   3.559   3.935   0.576  1.3649  0.3129  1.9338
 2169SOL    HW217970   3.454   3.826   0.580 -2.5284  0.7520  1.2739
 2170SOL     OW17971   2.106   2.789   7.784 -0.2044 -0.0641 -0.1944
 2170SOL    HW117972   2.184   2.791   7.840  0.8708  0.1943 -1.6941
 2170SOL    HW217973   2.136   2.823   7.700  1.8044 -2.0515 -0.2996
 2171SOL     OW17974   4.056   3.280   2.754 -0.4703  0.1503 -0.5654
 2171SOL    HW117975   4.112   3.212   2.792 -1.7723 -1.1390 -0.9445
 2171SOL    HW217976   4.111   3.357   2.763 -1.6672  0.8009  1.0564
 2172SOL     OW17977   3.795   3.038   5.980  0.3783 -0.4128 -0.1377
 2172SOL    HW117978   3.872   2.997   5.940  0.6671  0.1161 -0.1302
 2172SOL    HW217979   3.768   2.975   6.046  0.7282 -1.0528 -0.6162
 2173SOL     OW17980   1.525   0.615   6.920 -0.1389 -0.3495  0.7189
 2173SOL    HW117981   1.588   0.554   6.959 -1.1554 -1.3105  0.8781
 2173SOL    HW217982   1.441   0.581   6.951  0.2372  0.0018  2.1270
 2174SOL     OW17983   0.905   1.963   0.052  0.3212  0.7613 -0.0419
 2174SOL    HW117984   0.827   2.012   0.079  0.6428  0.8061  0.8282
 2174SOL    HW217985   0.979   2.020   0.069  0.9649  0.2901 -1.2657
 2175SOL     OW17986   1.541   2.908   5.626 -0.1490  0.2293 -0.2730
 2175SOL    HW117987   1.516   2.876   5.712 -0.9642  0.8818 -0.2650
 2175SOL    HW217988   1.483   2.862   5.565  0.6959 -0.7239 -0.3544
 2176SOL     OW17989   1.402   3.568   6.769 -0.3525  0.2378  0.9450
 2176SOL    HW117990   1.306   3.567   6.773 -0.2815 -1.0487  2.0407
 2176SOL    HW217991   1.415   3.644   6.712 -0.4379 -0.5934 -0.1808
 2177SOL     OW17992   2.277   2.140   2.042  0.6352 -0.6954  0.0948
 2177SOL    HW117993   2.346   2.179   1.987 -0.3621  0.3149 -0.4545
 2177SOL    HW217994   2.275   2.206   2.111  1.3263  0.1067 -0.6438
 2178SOL     OW17995   2.942   1.584   5.866 -0.2256  0.5026  0.2297
 2178SOL    HW117996   2.978   1.583   5.777  3.0310 -1.6312  1.5777
 2178SOL    HW217997   2.858   1.624   5.846 -0.1169  1.0153  0.8190
 2179SOL     OW17998   0.990   1.782  12.693 -0.3464  0.5221  0.2725
 2179SOL    HW117999   1.015   1.873  12.678  0.7387 -0.0142 -1.2459
 2179SOL    HW218000   1.068   1.739  12.657  0.8949  1.7275  1.5257
 2180SOL     OW18001   0.830   1.665   4.319  0.2642  0.0557  0.2038
 2180SOL    HW118002   0.779   1.592   4.353 -0.8366  0.5674 -0.3451
 2180SOL    HW218003   0.763   1.717   4.274  1.4850 -0.0460 -1.7058
 2181SOL     OW18004   3.737   0.346   6.761 -0.6489 -0.3758 -0.3487
 2181SOL    HW118005   3.814   0.294   6.738  0.7748  1.0697  1.1972
 2181SOL    HW218006   3.671   0.295   6.713 -2.3168 -0.9432  2.5220
 2182SOL     OW18007   1.682   1.389  14.595  0.7209  0.5776  0.3778
 2182SOL    HW118008   1.731   1.455  14.545 -0.7635  0.1175 -1.6511
 2182SOL    HW218009   1.732   1.313  14.567  3.0922  2.3007 -0.1195
 2183SOL     OW18010   4.501   4.557   4.467  0.2355  0.8400  0.0461
 2183SOL    HW118011   4.569   4.540   4.402 -1.9255  0.3199 -2.0866
 2183SOL    HW218012   4.423   4.522   4.425  0.3704  0.5978 -0.0054
 2184SOL     OW18013   1.547   0.888   8.363 -0.2428 -0.7033  0.3756
 2184SOL    HW118014   1.519   0.927   8.281  1.6608  1.7388  0.8829
 2184SOL    HW218015   1.568   0.966   8.414 -2.6140  0.4762 -0.4510
 2185SOL     OW18016   0.893   0.678  14.032 -0.5077  0.6988  0.2749
 2185SOL    HW118017   0.969   0.731  14.009 -1.4030  2.1768  0.6739
 2185SOL    HW218018   0.921   0.620  14.103 -1.0730  0.9934  0.7412
 2186SOL     OW18019   3.053   4.445   6.369  0.3289  0.0730 -0.3874
 2186SOL    HW118020   2.978   4.483   6.322  2.4742  3.1906 -1.3391
 2186SOL    HW218021   3.056   4.500   6.447  1.0386  1.0573 -1.1000
 2187SOL     OW18022   4.513   1.184   8.580 -0.0699 -0.0693  0.0053
 2187SOL    HW118023   4.523   1.175   8.674 -1.0298 -1.9714 -0.0702
 2187SOL    HW218024   4.607   1.179   8.562 -0.1022 -2.0666  0.3945
 2188SOL     OW18025   3.565   4.097  12.979 -0.1912  0.5843 -0.2470
 2188SOL    HW118026   3.586   4.048  12.899 -1.5744 -1.5725  0.7420
 2188SOL    HW218027   3.539   4.185  12.950  0.2173  0.8308  0.1358
 2189SOL     OW18028   0.895   0.768  11.389  0.1756  0.3520  0.0440
 2189SOL    HW118029   0.969   0.781  11.448  1.8282 -2.3026 -1.4092
 2189SOL    HW218030   0.865   0.856  11.366 -0.4984  0.1782  0.2673
 2190SOL     OW18031   4.340   1.989   9.510  0.1526  0.5469  0.1606
 2190SOL    HW118032   4.338   1.939   9.592  1.6156  0.1653 -0.0374
 2190SOL    HW218033   4.429   2.023   9.505 -0.6447  2.9678  2.4001
 2191SOL     OW18034   0.647   2.493   1.581  0.3988 -0.6156 -0.2009
 2191SOL    HW118035   0.615   2.580   1.557 -2.2827 -1.9764 -1.5610
 2191SOL    HW218036   0.618   2.445   1.504  0.4509  0.2654 -0.7685
 2192SOL     OW18037   3.496   2.861   8.813 -0.1059 -0.2442  0.1236
 2192SOL    HW118038   3.589   2.842   8.829 -0.0234  0.3500  0.3315
 2192SOL    HW218039   3.506   2.919   8.738 -2.4952 -0.3042 -0.2349
 2193SOL     OW18040   0.194   4.067  10.721  0.1939  0.4488 -0.0512
 2193SOL    HW118041   0.149   4.024  10.649  1.3827  2.2956 -1.8777
 2193SOL    HW218042   0.276   4.018  10.724 -0.2752 -0.2904  0.7202
 2194SOL     OW18043   3.949   0.805  15.016  0.2472  0.6211 -0.2273
 2194SOL    HW118044   3.888   0.860  15.065  0.6478  1.0539 -0.2101
 2194SOL    HW218045   3.896   0.764  14.947 -0.0012 -0.4537  0.6073
 2195SOL     OW18046   2.386   0.953   5.353 -0.8129 -0.2732 -0.1562
 2195SOL    HW118047   2.346   0.893   5.417  0.8884 -1.3617 -0.0986
 2195SOL    HW218048   2.404   0.897   5.277  1.3219 -1.3493  1.1316
 2196SOL     OW18049   0.134   0.211   5.150  0.3138 -0.7384  0.1010
 2196SOL    HW118050   0.168   0.261   5.224 -2.9289  2.3734 -0.5066
 2196SOL    HW218051   0.137   0.273   5.077 -2.3933  1.1623  1.6089
 2197SOL     OW18052   3.031   4.458   4.743  0.0146 -0.1056 -0.1337
 2197SOL    HW118053   3.046   4.398   4.817 -1.3481  0.5659  0.6859
 2197SOL    HW218054   2.942   4.435   4.718  0.5720 -1.2694 -1.0665
 2198SOL     OW18055   0.970   2.348   7.070  0.8374 -0.1173  0.0225
 2198SOL    HW118056   0.900   2.355   7.135  1.4469 -0.5083  0.7226
 2198SOL    HW218057   1.045   2.381   7.119  0.6646  0.8070 -0.3350
 2199SOL     OW18058   0.176   0.352  13.662 -0.1581  0.4930  0.5724
 2199SOL    HW118059   0.197   0.326  13.572  0.2012 -2.1076  1.4184
 2199SOL    HW218060   0.191   0.268  13.704  2.8029  1.9486  2.4223
 2200SOL     OW18061   4.239   2.927   6.779  0.3149  0.0061  0.3052
 2200SOL    HW118062   4.257   3.014   6.813  1.3065  0.6005 -1.7668
 2200SOL    HW218063   4.265   2.864   6.847 -0.8896  0.3986  1.1448
 2201SOL     OW18064   0.697   2.815   4.651  0.2443 -0.3099 -0.2804
 2201SOL    HW118065   0.678   2.736   4.701 -0.3620 -0.8242 -1.3291
 2201SOL    HW218066   0.611   2.841   4.617 -0.2658  0.8997  1.9252
 2202SOL     OW18067   1.645   1.574   4.721 -0.5877  0.0459  0.3483
 2202SOL    HW118068   1.610   1.495   4.763 -0.2144 -0.4990 -0.3642
 2202SOL    HW218069   1.736   1.545   4.726 -0.4826  0.2886 -0.2642
 2203SOL     OW18070   4.184   3.047   5.163  0.2938 -0.3733 -0.0293
 2203SOL    HW118071   4.141   3.121   5.205  0.3983 -1.0329  1.2538
 2203SOL    HW218072   4.177   2.975   5.225 -1.1695  1.2176  1.6433
 2204SOL     OW18073   1.540   2.050   4.099 -0.5451  0.5331  0.0646
 2204SOL    HW118074   1.495   2.130   4.127 -1.0158 -0.2008  1.4477
 2204SOL    HW218075   1.623   2.084   4.066 -0.0510  1.3768  2.1521
 2205SOL     OW18076   0.156   0.180  16.146  0.4269  0.1505  0.1939
 2205SOL    HW118077   0.128   0.138  16.064  0.3998 -0.3110  0.4401
 2205SOL    HW218078   0.115   0.122  16.210 -0.2373 -1.0846 -1.3450
 2206SOL     OW18079   0.209   2.513  16.467  0.5405  0.3193 -0.1071
 2206SOL    HW118080   0.278   2.481  16.525 -0.0450 -1.4355 -0.3858
 2206SOL    HW218081   0.182   2.601  16.494  1.3470  0.8140 -0.9153
 2207SOL     OW18082   0.723   1.513  16.660  0.3514  0.3298 -0.3048
 2207SOL    HW118083   0.652   1.455  16.684 -1.5408  1.4587 -3.2433
 2207SOL    HW218084   0.673   1.593  16.643 -0.2271 -0.5654 -2.6825
 2208SOL     OW18085   1.510   0.245   4.302  0.7575  0.1463  0.1160
 2208SOL    HW118086   1.573   0.307   4.265  0.8770 -0.5452 -0.8298
 2208SOL    HW218087   1.538   0.246   4.394  1.3262 -0.4158 -0.0541
 2209SOL     OW18088   4.467   3.724   6.273 -0.1213  0.1618  0.1034
 2209SOL    HW118089   4.461   3.812   6.311  0.0497  2.4532 -5.2034
 2209SOL    HW218090   4.375   3.709   6.250  0.1557 -1.2717 -0.0726
 2210SOL     OW18091   2.433   2.539   6.706 -0.1291  0.1884  0.2867
 2210SOL    HW118092   2.427   2.632   6.728 -0.3248  0.4722 -0.9643
 2210SOL    HW218093   2.382   2.541   6.625 -0.9486 -2.3687  0.7456
 2211SOL     OW18094   0.128   3.328   7.339  0.2999  0.3538  0.1710
 2211SOL    HW118095   0.154   3.357   7.426  0.7734  1.2229 -0.2585
 2211SOL    HW218096   0.077   3.250   7.360 -1.0641  0.9800 -0.8480
 2212SOL     OW18097   1.622   2.930  13.364 -0.0530 -0.0272 -0.3299
 2212SOL    HW118098   1.565   2.917  13.289 -2.4960  1.7635  1.1959
 2212SOL    HW218099   1.559   2.956  13.431  0.6068  0.9967 -0.0953
 2213SOL     OW18100   0.375   3.424  15.548 -0.9245  0.2918  0.3693
 2213SOL    HW118101   0.460   3.434  15.592 -1.0086  0.2414  0.5417
 2213SOL    HW218102   0.383   3.331  15.526 -2.1572 -0.2171  2.0569
 2214SOL     OW18103   3.274   3.041  15.793 -0.1706 -0.1550 -0.2386
 2214SOL    HW118104   3.252   3.127  15.828 -0.8820 -0.4667  0.0822
 2214SOL    HW218105   3.208   3.025  15.726 -1.7234 -2.5331  1.8252
 2215SOL     OW18106   0.583   2.454   2.704 -0.3892 -0.9304 -0.0553
 2215SOL    HW118107   0.628   2.536   2.686 -0.5864 -0.7763  0.1558
 2215SOL    HW218108   0.635   2.437   2.783 -0.3356 -1.0615 -0.1175
 2216SOL     OW18109   4.426   2.227  13.042  0.0779  0.2482 -0.0813
 2216SOL    HW118110   4.334   2.253  13.044  0.1198  0.4191 -0.3538
 2216SOL    HW218111   4.466   2.308  13.009 -2.9099  0.3971 -3.3884
 2217SOL     OW18112   4.319   2.349  12.673 -0.0563  0.6471 -0.4225
 2217SOL    HW118113   4.306   2.255  12.688  1.1250  0.4567 -0.6400
 2217SOL    HW218114   4.411   2.347  12.647  0.2572  0.0578  0.7264
 2218SOL     OW18115   4.414   0.137   8.315 -0.0476 -0.0099 -0.2617
 2218SOL    HW118116   4.340   0.076   8.312  1.2596 -1.5547 -0.9653
 2218SOL    HW218117   4.375   0.218   8.347 -1.0665 -1.0702  1.1635
 2219SOL     OW18118   1.671   2.294   1.529  0.2872 -0.4904 -0.1931
 2219SOL    HW118119   1.591   2.261   1.568 -0.5080  0.3748 -1.0946
 2219SOL    HW218120   1.691   2.215   1.479 -0.6902 -0.7498 -0.1745
 2220SOL     OW18121   4.316   0.438   8.123 -0.1512  0.1981 -0.4857
 2220SOL    HW118122   4.354   0.526   8.125 -1.5662  0.8052 -0.3003
 2220SOL    HW218123   4.240   0.449   8.066 -0.2587  2.0463  0.0257
 2221SOL     OW18124   3.243   4.251   5.583  0.0798 -0.3205  0.0458
 2221SOL    HW118125   3.202   4.295   5.657 -0.5273 -1.0147  0.1190
 2221SOL    HW218126   3.276   4.329   5.538  1.0963  0.2437  1.7756
 2222SOL     OW18127   4.643   4.178  10.471  0.2030  0.5701  0.6813
 2222SOL    HW118128   4.708   4.108  10.480 -1.2485 -0.9780 -0.9225
 2222SOL    HW218129   4.584   4.154  10.542 -0.0409 -0.9258 -0.0303
 2223SOL     OW18130   4.231   3.828   3.584 -0.4529 -0.6836 -0.3677
 2223SOL    HW118131   4.191   3.841   3.671  0.7092  0.3638  0.0005
 2223SOL    HW218132   4.237   3.918   3.552  3.6490 -0.7319  0.2350
 2224SOL     OW18133   3.065   4.388  11.671 -0.3093 -0.1896 -0.5615
 2224SOL    HW118134   2.988   4.336  11.649  0.6185 -1.8809  0.1352
 2224SOL    HW218135   3.042   4.481  11.669 -0.1736 -0.1786 -1.9010
 2225SOL     OW18136   1.164   0.498   2.414  0.0703  1.0119  0.1017
 2225SOL    HW118137   1.210   0.486   2.497  1.1766  0.0896 -0.6493
 2225SOL    HW218138   1.104   0.568   2.440 -0.5214  0.2803  0.6890
 2226SOL     OW18139   2.772   3.860  16.880  0.3896 -0.0753  0.4766
 2226SOL    HW118140   2.697   3.805  16.899 -1.5295  0.8943 -4.4096
 2226SOL    HW218141   2.737   3.922  16.816 -1.6691 -0.9199  0.7990
 2227SOL     OW18142   3.903   3.532  16.664  0.5585  0.3053 -0.4592
 2227SOL    HW118143   3.874   3.444  16.688 -0.6260  0.8576  0.1313
 2227SOL    HW218144   3.911   3.576  16.748 -1.5891 -1.6802  0.7644
 2228SOL     OW18145   4.007   1.121  10.055  0.4707 -0.0360 -0.3276
 2228SOL    HW118146   3.921   1.156  10.031 -0.3206  0.1728  2.8700
 2228SOL    HW218147   3.992   1.027  10.045 -2.4013  0.3601  0.2770
 2229SOL     OW18148   1.208   0.080  11.959 -0.3362  0.4598 -0.6859
 2229SOL    HW118149   1.283   0.132  11.987  0.3012 -1.0414  0.3675
 2229SOL    HW218150   1.177   0.132  11.884 -1.4131  1.2429  0.3094
 2230SOL     OW18151   0.339   4.493   2.535 -0.4575 -0.0904  0.2414
 2230SOL    HW118152   0.340   4.504   2.630 -1.0533 -1.6683  0.4458
 2230SOL    HW218153   0.413   4.434   2.522  0.2063  1.6835 -3.9551
 2231SOL     OW18154   1.261   1.811   3.858 -0.7206  0.0168  0.3240
 2231SOL    HW118155   1.353   1.836   3.864 -0.1634 -1.2372 -3.1094
 2231SOL    HW218156   1.225   1.846   3.940 -2.1872  2.3278 -1.3191
 2232SOL     OW18157   0.686   4.368  14.599 -0.7193 -0.1577  0.6975
 2232SOL    HW118158   0.615   4.308  14.622 -0.6352 -0.3228  0.5230
 2232SOL    HW218159   0.647   4.396  14.516  1.5681 -0.0861 -0.3428
 2233SOL     OW18160   3.743   2.288   8.127 -0.4465  0.3006  0.1170
 2233SOL    HW118161   3.774   2.378   8.136  0.6536  0.0284 -0.8548
 2233SOL    HW218162   3.811   2.249   8.071  0.3291 -0.1481  1.3805
 2234SOL     OW18163   2.320   1.235   8.296  0.3402  0.6306  0.9310
 2234SOL    HW118164   2.234   1.240   8.337  0.9218 -0.9464  2.3629
 2234SOL    HW218165   2.306   1.230   8.202 -0.2431  0.3420  1.0309
 2235SOL     OW18166   2.009   0.590   7.743 -0.4350  0.1320  0.0560
 2235SOL    HW118167   2.055   0.653   7.688 -2.6322  1.7017  0.0547
 2235SOL    HW218168   1.987   0.640   7.822  0.0774  0.7990 -0.2234
 2236SOL     OW18169   4.086   1.044  10.815 -0.4317  0.2858 -0.4385
 2236SOL    HW118170   4.106   1.129  10.853  1.3944  0.1202 -1.0328
 2236SOL    HW218171   4.093   1.060  10.721 -1.4099  3.1297 -0.0300
 2237SOL     OW18172   3.078   1.883  17.108  0.0573 -0.8717 -0.4176
 2237SOL    HW118173   3.145   1.857  17.171 -0.0574  0.0847  0.1019
 2237SOL    HW218174   3.070   1.798  17.066 -1.6429 -1.7480  1.6987
 2238SOL     OW18175   2.272   0.291   9.284  0.1562  0.2930  0.4305
 2238SOL    HW118176   2.334   0.284   9.356  0.1142  3.9556  0.8083
 2238SOL    HW218177   2.311   0.225   9.227  0.1561 -0.6551  1.5362
 2239SOL     OW18178   4.607   1.993  17.030 -0.5399  0.3810  0.6072
 2239SOL    HW118179   4.668   1.919  17.021 -1.0466 -0.0792  0.9236
 2239SOL    HW218180   4.620   2.049  16.953  0.2650  2.1884  2.0712
 2240SOL     OW18181   1.157   3.705   7.267  0.6701 -0.1986  0.1872
 2240SOL    HW118182   1.195   3.732   7.183 -0.1869  0.9236  0.1557
 2240SOL    HW218183   1.236   3.695   7.320  0.7040 -0.7752  0.0240
 2241SOL     OW18184   4.646   0.478  14.765  0.0278  0.5401  0.3160
 2241SOL    HW118185   0.005   0.511  14.728  1.0189 -0.8405  1.3180
 2241SOL    HW218186   4.679   0.393  14.793  2.7300  1.4785  0.0602
 2242SOL     OW18187   2.342   4.208  16.812  0.6199 -0.0061  0.6301
 2242SOL    HW118188   2.295   4.206  16.896  0.7658  2.3060  0.7583
 2242SOL    HW218189   2.284   4.259  16.756 -1.7633 -1.1737  1.9931
 2243SOL     OW18190   2.293   1.237   8.654  0.3561  0.2218  0.1482
 2243SOL    HW118191   2.240   1.227   8.575  1.2215 -1.0594 -0.2738
 2243SOL    HW218192   2.231   1.298   8.694  2.6030  3.1928 -0.9690
 2244SOL     OW18193   2.821   4.290   6.007  0.0052  0.4925 -0.6583
 2244SOL    HW118194   2.840   4.288   5.914  2.3024 -0.6964 -0.1733
 2244SOL    HW218195   2.800   4.382   6.023 -1.5329 -0.1441  1.0163
 2245SOL     OW18196   3.327   2.033   2.485  0.4112  0.5663 -0.1974
 2245SOL    HW118197   3.410   2.036   2.439  1.2666 -0.1489  1.2988
 2245SOL    HW218198   3.279   2.079   2.416 -0.5286  2.1452  1.4883
 2246SOL     OW18199   1.279   2.815  10.161 -0.5680  0.1516 -0.1766
 2246SOL    HW118200   1.363   2.778  10.186 -0.9803 -1.3007 -0.9275
 2246SOL    HW218201   1.280   2.897  10.210 -0.9716 -0.2550  0.5095
 2247SOL     OW18202   0.677   3.611   3.818 -0.3011 -0.1576 -0.0455
 2247SOL    HW118203   0.689   3.705   3.799  2.9740 -0.6993 -0.7692
 2247SOL    HW218204   0.587   3.612   3.851 -0.4112  3.0040 -0.4296
 2248SOL     OW18205   3.035   3.643  13.260  0.4526  0.3039 -0.6341
 2248SOL    HW118206   3.035   3.581  13.187 -2.3134  0.9608 -1.2003
 2248SOL    HW218207   2.941   3.660  13.261  0.5974  1.0007  0.9225
 2249SOL     OW18208   3.936   1.126   9.522  0.2691 -0.1973  0.1706
 2249SOL    HW118209   4.029   1.136   9.500  0.1577 -1.0962 -0.7004
 2249SOL    HW218210   3.951   1.049   9.578 -1.1070 -1.0952 -0.6960
 2250SOL     OW18211   3.986   0.366   8.958  0.8142 -0.0468 -0.3826
 2250SOL    HW118212   3.915   0.396   9.016  1.5375  1.1741 -0.1438
 2250SOL    HW218213   3.940   0.292   8.918  0.1596  0.4160 -0.4880
 2251SOL     OW18214   2.820   3.950   8.157  0.6484  0.3589 -0.2351
 2251SOL    HW118215   2.857   3.889   8.093  3.2396  1.9664 -0.2548
 2251SOL    HW218216   2.896   3.967   8.213 -0.1472 -1.3444  1.3631
 2252SOL     OW18217   0.989   0.225   8.597  0.0941  0.1516  0.3780
 2252SOL    HW118218   0.939   0.292   8.644  0.7766  1.1519 -0.3307
 2252SOL    HW218219   1.005   0.272   8.516 -0.2805  0.7489  0.6509
 2253SOL     OW18220   1.416   0.317  15.450  0.8810  0.2091 -0.5777
 2253SOL    HW118221   1.487   0.330  15.388  1.0796 -0.5601 -0.5086
 2253SOL    HW218222   1.434   0.227  15.477  2.6912  0.5697 -0.5827
 2254SOL     OW18223   0.087   2.811   0.399 -0.6775  0.3343 -0.0566
 2254SOL    HW118224   0.123   2.853   0.321 -0.1831  0.0283  0.0082
 2254SOL    HW218225   0.052   2.727   0.369 -1.3849  1.1089 -1.4171
 2255SOL     OW18226   0.466   1.652  10.856 -0.3732 -0.0218 -0.1119
 2255SOL    HW118227   0.492   1.661  10.764  0.3894  0.8728  0.1959
 2255SOL    HW218228   0.487   1.741  10.882 -1.4709  0.1494  0.1722
 2256SOL     OW18229   0.054   0.547   9.910  0.1785 -1.5890  0.5232
 2256SOL    HW118230   4.707   0.516   9.853  1.7925 -0.0471 -2.3217
 2256SOL    HW218231   0.002   0.589   9.979 -0.4960 -0.3903 -0.7104
 2257SOL     OW18232   4.538   1.800   7.326  0.6065  0.3410  0.0536
 2257SOL    HW118233   4.627   1.836   7.328  0.2488  1.1936  0.8908
 2257SOL    HW218234   4.546   1.707   7.349 -1.3163  0.0904 -0.2702
 2258SOL     OW18235   0.602   2.980  11.263 -0.6955 -0.0371  0.8017
 2258SOL    HW118236   0.588   3.055  11.205  0.0725  0.5785  1.4102
 2258SOL    HW218237   0.566   2.909  11.209  0.0416  0.7185 -0.6666
 2259SOL     OW18238   3.019   0.490  15.160  0.0053  0.6363 -0.1114
 2259SOL    HW118239   2.940   0.540  15.139  0.0361  0.5674 -0.3942
 2259SOL    HW218240   2.970   0.408  15.162 -1.3008  1.3645 -1.7122
 2260SOL     OW18241   4.519   0.912   0.423  0.2242 -0.2161 -0.0985
 2260SOL    HW118242   4.459   0.984   0.442 -0.7733 -1.3142  0.9403
 2260SOL    HW218243   4.485   0.866   0.346 -2.4132 -0.7557  1.3787
 2261SOL     OW18244   4.060   3.657  10.342 -0.0107 -0.2475 -0.2251
 2261SOL    HW118245   4.106   3.666  10.425 -2.6732  1.0252  1.1162
 2261SOL    HW218246   4.008   3.577  10.355  0.0609  0.1182  2.3532
 2262SOL     OW18247   3.929   0.720   5.361  0.2617  0.0479  0.4998
 2262SOL    HW118248   3.850   0.772   5.352  0.8146  0.1198 -3.7761
 2262SOL    HW218249   3.897   0.642   5.407 -2.1950  0.8204  0.0959
 2263SOL     OW18250   2.219   0.081  14.922 -0.3906 -0.0589 -0.0125
 2263SOL    HW118251   2.271   0.138  14.866  2.8500 -2.8911  0.1502
 2263SOL    HW218252   2.131   0.094  14.886 -0.4204 -0.8592 -0.2100
 2264SOL     OW18253   3.879   0.614   6.765 -0.0949 -0.7659 -0.2881
 2264SOL    HW118254   3.960   0.617   6.816 -0.3955 -2.1163  0.2426
 2264SOL    HW218255   3.880   0.523   6.737  1.7363 -0.3034 -1.7380
 2265SOL     OW18256   1.932   1.422   3.845 -0.0797 -0.0408 -0.2461
 2265SOL    HW118257   1.973   1.385   3.923 -3.5712  0.1264  1.6405
 2265SOL    HW218258   1.840   1.397   3.842 -0.2753  0.4739  1.5964
 2266SOL     OW18259   2.799   0.820   8.396  0.5863 -0.7532 -0.1960
 2266SOL    HW118260   2.776   0.738   8.439  0.4195 -1.2664 -1.2548
 2266SOL    HW218261   2.795   0.794   8.304  0.6429 -1.4997  0.0163
 2267SOL     OW18262   0.617   1.928   3.004  0.2255  0.1114  0.1190
 2267SOL    HW118263   0.619   2.005   2.948 -0.0620 -0.6599 -0.9655
 2267SOL    HW218264   0.711   1.909   3.006  0.0279 -1.1743 -2.2885
 2268SOL     OW18265   2.180   2.430   7.885  0.5165  0.5506 -0.7303
 2268SOL    HW118266   2.194   2.398   7.974 -1.1771  1.9091  0.0196
 2268SOL    HW218267   2.169   2.344   7.843  0.2114 -0.6544  1.7970
 2269SOL     OW18268   0.394   4.038   2.842 -0.0025  0.4740 -0.1081
 2269SOL    HW118269   0.391   4.080   2.756  0.4552 -2.1857 -1.4211
 2269SOL    HW218270   0.486   4.017   2.859 -0.3423  0.2055  1.4571
 2270SOL     OW18271   0.354   3.753  13.513  0.7843 -0.0828 -0.2005
 2270SOL    HW118272   0.311   3.676  13.550 -0.9500  0.9713 -0.0122
 2270SOL    HW218273   0.444   3.752  13.543  0.8357 -0.9407 -0.3841
 2271SOL     OW18274   2.600   3.086   6.296 -0.5090  0.3276  0.2915
 2271SOL    HW118275   2.692   3.061   6.295 -0.2834  1.1260  0.9886
 2271SOL    HW218276   2.567   3.043   6.374  1.9528 -1.3142  0.4278
 2272SOL     OW18277   1.112   3.213  10.174  0.4502 -0.0403  0.4642
 2272SOL    HW118278   1.021   3.206  10.202  0.7133 -1.9123  0.7846
 2272SOL    HW218279   1.101   3.271  10.098  0.5122 -0.2840  0.2706
 2273SOL     OW18280   1.431   1.570  11.774 -0.6190  0.4308  0.3168
 2273SOL    HW118281   1.371   1.635  11.739 -2.5580 -1.9813 -0.7800
 2273SOL    HW218282   1.365   1.509  11.808 -1.6035  0.7832 -0.9888
 2274SOL     OW18283   4.206   4.078   3.491  0.3732 -0.0845 -0.0824
 2274SOL    HW118284   4.127   4.079   3.437  0.9508  0.1785 -0.9200
 2274SOL    HW218285   4.272   4.078   3.421  1.0697 -0.7537  0.5721
 2275SOL     OW18286   1.851   1.894   3.011  0.2612 -0.0288 -0.0204
 2275SOL    HW118287   1.873   1.909   2.919  0.0101 -2.0044 -0.4127
 2275SOL    HW218288   1.760   1.865   3.006 -0.0841  0.8175  1.2286
 2276SOL     OW18289   4.077   2.989   3.145  0.0662  0.3433 -0.3565
 2276SOL    HW118290   4.138   3.062   3.155  1.6855 -0.8711 -1.2947
 2276SOL    HW218291   4.031   3.017   3.066 -4.1123 -2.2117  1.2060
 2277SOL     OW18292   3.131   2.301  16.161  0.1718 -0.2998  0.7219
 2277SOL    HW118293   3.125   2.314  16.256  2.3037  0.5845  0.7312
 2277SOL    HW218294   3.144   2.207  16.163  0.9957 -0.2088 -0.2757
 2278SOL     OW18295   1.511   2.947   4.657  0.0597 -0.1908  0.2364
 2278SOL    HW118296   1.512   2.851   4.656  2.1276 -0.1633 -1.3370
 2278SOL    HW218297   1.575   2.973   4.590  0.2445 -3.7898 -0.9866
 2279SOL     OW18298   0.324   2.143   0.935  0.5807  0.1259 -0.3560
 2279SOL    HW118299   0.243   2.108   0.898 -0.1220  1.0114  0.3566
 2279SOL    HW218300   0.366   2.060   0.957  2.7263  0.7088 -2.2795
 2280SOL     OW18301   1.746   2.603  14.245  0.3965 -0.3779  0.3134
 2280SOL    HW118302   1.724   2.610  14.153 -0.9963 -0.1157  0.6730
 2280SOL    HW218303   1.770   2.693  14.269 -0.9633  0.1161 -0.2167
 2281SOL     OW18304   3.332   0.509   8.559  0.2248  0.0711 -0.0341
 2281SOL    HW118305   3.289   0.459   8.629 -0.3878 -0.6138 -0.8943
 2281SOL    HW218306   3.257   0.530   8.503  1.2383 -1.6221 -2.0164
 2282SOL     OW18307   2.068   1.724   8.461 -0.5284 -0.1622  0.1699
 2282SOL    HW118308   2.152   1.743   8.418 -0.0508  0.6079  1.4473
 2282SOL    HW218309   2.071   1.785   8.535  1.1152  3.1284 -2.6031
 2283SOL     OW18310   1.579   0.225   8.866 -0.1287 -1.0951 -0.0708
 2283SOL    HW118311   1.641   0.290   8.896 -0.9781  0.2748 -1.2771
 2283SOL    HW218312   1.513   0.210   8.933 -0.0110 -0.6443  0.1399
 2284SOL     OW18313   2.607   3.439   5.143  0.1453  0.2169  0.1991
 2284SOL    HW118314   2.557   3.507   5.189  3.0438  2.7551 -0.4406
 2284SOL    HW218315   2.544   3.366   5.144  1.1313 -0.6361 -0.1977
 2285SOL     OW18316   2.307   3.739   4.553 -0.1819  0.6218  0.6422
 2285SOL    HW118317   2.328   3.832   4.565 -2.2605  1.5303 -2.4953
 2285SOL    HW218318   2.261   3.729   4.636  0.4933  1.3822  1.1050
 2286SOL     OW18319   4.365   4.579   0.635  0.0728 -0.0963  0.1389
 2286SOL    HW118320   4.405   4.505   0.589  2.6499  0.2877  1.7703
 2286SOL    HW218321   4.397   4.654   0.586 -0.4829 -0.5734 -0.9560
 2287SOL     OW18322   0.824   4.097   1.496 -0.7035  0.0425 -0.8881
 2287SOL    HW118323   0.743   4.052   1.471 -0.3081 -0.6550 -0.9032
 2287SOL    HW218324   0.878   4.034   1.449 -0.5848 -0.8647  0.4549
 2288SOL     OW18325   0.122   1.642  14.555 -0.1685 -0.1709 -0.1498
 2288SOL    HW118326   0.104   1.731  14.524 -1.1307 -0.4683 -0.4544
 2288SOL    HW218327   0.037   1.598  14.548  0.1443 -0.4707 -1.9933
 2289SOL     OW18328   1.639   0.821  17.526  0.2704  0.6641 -0.3779
 2289SOL    HW118329   1.683   0.745  17.565  0.2193  0.6735 -0.3031
 2289SOL    HW218330   1.649   0.888  17.593  0.5274 -1.3828  1.6435
 2290SOL     OW18331   0.735   1.237   1.873 -0.0728  0.0777  0.5851
 2290SOL    HW118332   0.816   1.192   1.848  0.7564  1.4992  0.7218
 2290SOL    HW218333   0.717   1.297   1.801 -1.5435  2.8075  3.2353
 2291SOL     OW18334   1.478   0.117  12.495  0.4929 -0.2953  0.6568
 2291SOL    HW118335   1.501   0.025  12.505  1.1574 -0.1322  0.6443
 2291SOL    HW218336   1.443   0.131  12.583  0.9088 -0.4983  0.8565
 2292SOL     OW18337   4.292   1.839   6.331 -0.3665 -0.8591 -0.3739
 2292SOL    HW118338   4.297   1.785   6.410 -0.4119  0.8485  0.8135
 2292SOL    HW218339   4.231   1.792   6.274  1.9687 -1.7145 -2.1346
 2293SOL     OW18340   0.915   0.543   1.798 -0.1436 -0.0235  0.1967
 2293SOL    HW118341   0.876   0.457   1.781 -1.5035  0.9946 -1.7808
 2293SOL    HW218342   0.991   0.515   1.850 -0.3081 -1.7722 -0.4905
 2294SOL     OW18343   4.393   2.288   2.995 -0.2595 -0.5849  0.0170
 2294SOL    HW118344   4.466   2.341   2.964  0.5709 -1.4338  0.5548
 2294SOL    HW218345   4.328   2.302   2.925  0.3872  0.1922 -0.4340
 2295SOL     OW18346   2.201   1.312   6.889 -0.5061 -0.3162 -0.3144
 2295SOL    HW118347   2.199   1.242   6.954  1.4514  0.3952  0.5114
 2295SOL    HW218348   2.283   1.300   6.842 -0.2463 -1.3197  0.3978
 2296SOL     OW18349   2.113   3.323   3.019 -0.3781  0.1181 -0.2232
 2296SOL    HW118350   2.125   3.239   2.973  0.0376 -0.1245  0.3357
 2296SOL    HW218351   2.204   3.329   3.047 -0.2478  0.1119 -0.6371
 2297SOL     OW18352   2.415   1.414   5.046 -0.6169 -0.2361 -0.4648
 2297SOL    HW118353   2.373   1.370   5.121  1.0425  1.5927  1.5073
 2297SOL    HW218354   2.348   1.482   5.037 -1.4203 -0.7075  1.7692
 2298SOL     OW18355   0.039   2.888   6.465  0.2832 -0.4468 -0.0392
 2298SOL    HW118356   0.089   2.861   6.542 -1.9388  1.3873  2.0671
 2298SOL    HW218357   4.673   2.868   6.492  0.4563 -1.3857 -0.1703
 2299SOL     OW18358   3.762   2.546   1.026  0.2212 -0.0119  0.1412
 2299SOL    HW118359   3.763   2.456   1.058  2.1384  0.5110  1.5368
 2299SOL    HW218360   3.827   2.585   1.084  0.4986  0.6696 -0.6200
 2300SOL     OW18361   3.436   0.123   7.878 -0.1091  0.1005 -0.2053
 2300SOL    HW118362   3.389   0.180   7.939 -1.4038 -1.2466  0.0362
 2300SOL    HW218363   3.366   0.062   7.854  1.4911 -2.0853  0.7456
 2301SOL     OW18364   2.432   3.381  16.980  0.6699 -0.0056  0.1635
 2301SOL    HW118365   2.524   3.372  17.004  1.3374  0.5853 -2.1477
 2301SOL    HW218366   2.383   3.335  17.048  0.6642  0.3677  0.4130
 2302SOL     OW18367   1.636   2.739   5.824  0.6720  0.3256  0.1883
 2302SOL    HW118368   1.731   2.743   5.825  0.7084 -1.5717  2.4708
 2302SOL    HW218369   1.603   2.751   5.913  2.0420 -0.1951  0.7475
 2303SOL     OW18370   0.361   1.109  10.912  0.4448 -0.0676 -0.6090
 2303SOL    HW118371   0.305   1.186  10.911  0.5566  0.0505  1.7834
 2303SOL    HW218372   0.443   1.144  10.879  1.5450 -2.6108 -0.6152
 2304SOL     OW18373   2.724   0.580   3.967 -0.1971  0.2315 -0.4340
 2304SOL    HW118374   2.712   0.573   3.872  2.9153 -4.1278 -0.5380
 2304SOL    HW218375   2.816   0.606   3.962 -0.2279  0.2666 -0.8575
 2305SOL     OW18376   0.844   0.827   2.745 -0.3152 -0.0948 -0.3979
 2305SOL    HW118377   0.872   0.910   2.706  1.0661 -0.2016  0.3660
 2305SOL    HW218378   0.909   0.767   2.709 -0.5795 -0.2786 -0.5704
 2306SOL     OW18379   3.982   1.385   0.751 -0.1643 -0.2144  0.2763
 2306SOL    HW118380   3.892   1.367   0.722  0.9373 -1.0584 -2.5648
 2306SOL    HW218381   3.961   1.462   0.804 -0.4587  0.8681 -1.4151
 2307SOL     OW18382   0.255   3.506  12.686  0.8171  0.1526 -0.2692
 2307SOL    HW118383   0.297   3.420  12.677  0.6171 -0.1580  1.6297
 2307SOL    HW218384   0.239   3.522  12.593  0.6832  1.3469 -0.0460
 2308SOL     OW18385   2.318   0.492  11.184  0.2394  0.2307 -0.0591
 2308SOL    HW118386   2.384   0.547  11.141 -1.1490  2.7167  1.0052
 2308SOL    HW218387   2.231   0.521  11.155 -0.0090  0.7493  1.2159
 2309SOL     OW18388   1.411   1.122   3.903  0.2403 -0.4103  0.4339
 2309SOL    HW118389   1.342   1.181   3.934  0.5862  0.4904 -0.5199
 2309SOL    HW218390   1.373   1.035   3.916 -0.8395  0.1522  0.9706
 2310SOL     OW18391   0.954   2.417   7.913 -0.6500 -0.4449  0.0508
 2310SOL    HW118392   0.943   2.507   7.885 -1.4977  0.3080  2.8043
 2310SOL    HW218393   1.024   2.430   7.978 -1.5920  0.2716  0.9181
 2311SOL     OW18394   2.859   2.053  13.971 -0.0645  0.1155  1.0733
 2311SOL    HW118395   2.767   2.079  13.967  0.2477  0.7658 -2.1927
 2311SOL    HW218396   2.893   2.139  13.994  1.3807 -0.0684 -0.3629
 2312SOL     OW18397   2.159   1.650   7.312 -0.5851  0.0429  0.3842
 2312SOL    HW118398   2.160   1.555   7.300  0.8070  0.0613  0.2985
 2312SOL    HW218399   2.073   1.676   7.279  0.0830  0.6399 -0.8726
 2313SOL     OW18400   1.672   1.616   2.505  0.4386 -0.3853 -0.1703
 2313SOL    HW118401   1.686   1.693   2.450  0.1592 -2.0674 -2.5816
 2313SOL    HW218402   1.601   1.646   2.561 -0.5827 -3.6374  0.2492
 2314SOL     OW18403   4.016   3.923   6.660 -0.0559 -0.2483 -0.4137
 2314SOL    HW118404   3.956   3.849   6.649 -0.3526 -0.0961  0.1532
 2314SOL    HW218405   4.076   3.876   6.717  1.0327 -1.1483 -2.3066
 2315SOL     OW18406   2.216   1.907  12.908  0.5231  0.1438  0.5666
 2315SOL    HW118407   2.174   1.825  12.881  1.4585 -0.0896 -0.1501
 2315SOL    HW218408   2.146   1.949  12.958  0.1972 -1.0200  1.1049
 2316SOL     OW18409   2.403   0.586   7.781 -0.3354 -0.3396  0.6106
 2316SOL    HW118410   2.424   0.497   7.752 -4.6882 -1.3324  0.4987
 2316SOL    HW218411   2.467   0.622   7.720 -2.2313 -0.4361 -1.4146
 2317SOL     OW18412   3.834   3.762   3.903 -0.7036  0.2243  0.4454
 2317SOL    HW118413   3.806   3.851   3.927  0.2009  0.2612  1.3402
 2317SOL    HW218414   3.824   3.710   3.982  1.0453  0.1569  0.6127
 2318SOL     OW18415   3.870   0.569   8.666 -0.6513  0.1845 -0.1857
 2318SOL    HW118416   3.960   0.587   8.639 -0.7769  0.3772 -0.4691
 2318SOL    HW218417   3.868   0.476   8.643  2.4757  0.1013 -0.1689
 2319SOL     OW18418   2.632   0.960   9.927  0.0972  0.6431 -0.2529
 2319SOL    HW118419   2.591   1.041   9.897 -0.2921  0.9634  1.1164
 2319SOL    HW218420   2.649   0.918   9.843 -1.2240  0.3990 -0.4033
 2320SOL     OW18421   0.380   1.312   0.269  0.3863 -0.0545 -0.1505
 2320SOL    HW118422   0.311   1.266   0.317  0.6071  1.9044  2.0408
 2320SOL    HW218423   0.325   1.379   0.228  1.0624  1.7352  1.8334
 2321SOL     OW18424   2.178   0.762   1.644  0.2504 -0.0363  0.2410
 2321SOL    HW118425   2.140   0.696   1.702  0.1984  0.7734  1.1283
 2321SOL    HW218426   2.157   0.834   1.703 -1.4824 -0.1518 -0.2299
 2322SOL     OW18427   1.884   0.372   7.275  0.3249 -0.1979 -0.3295
 2322SOL    HW118428   1.907   0.463   7.294 -0.6309  0.0889 -0.5354
 2322SOL    HW218429   1.941   0.361   7.199  1.2149  1.5635  0.0926
 2323SOL     OW18430   2.398   4.535   2.434 -0.2052 -0.2854 -0.4802
 2323SOL    HW118431   2.468   4.519   2.498  0.3023  0.4599 -0.8425
 2323SOL    HW218432   2.335   4.475   2.473 -1.4495  1.3686  0.0490
 2324SOL     OW18433   1.442   3.252   2.790 -0.4618  0.2016  0.2954
 2324SOL    HW118434   1.368   3.195   2.809 -1.4806  1.5347  0.3448
 2324SOL    HW218435   1.448   3.219   2.700  0.8880  1.7995 -0.2130
 2325SOL     OW18436   3.236   3.404   2.393  0.3799 -0.1209  0.5256
 2325SOL    HW118437   3.257   3.457   2.317  1.6925  2.4515  2.6866
 2325SOL    HW218438   3.267   3.467   2.458  0.5471 -1.1619  1.4731
 2326SOL     OW18439   0.119   3.108   0.458  0.2897  1.0424 -0.7119
 2326SOL    HW118440   0.137   3.192   0.500 -1.7842  1.0675  0.1171
 2326SOL    HW218441   0.061   3.148   0.394  0.9553  0.9140 -1.4023
 2327SOL     OW18442   3.388   4.448   9.072 -0.3327 -0.0671 -0.3600
 2327SOL    HW118443   3.400   4.377   9.135 -0.9311 -0.2539 -0.4582
 2327SOL    HW218444   3.306   4.489   9.098  0.9077  2.0711  0.1961
 2328SOL     OW18445   0.190   2.433   8.385  0.2846  0.1347  0.1688
 2328SOL    HW118446   0.246   2.394   8.318 -1.3396 -1.7031 -0.1142
 2328SOL    HW218447   0.211   2.375   8.458 -0.7246 -0.6606 -0.1759
 2329SOL     OW18448   0.175   3.360  13.176  0.1305 -0.1766  0.3309
 2329SOL    HW118449   0.203   3.427  13.238  0.3167 -1.9455  2.1423
 2329SOL    HW218450   0.137   3.298  13.237 -0.7849 -1.1477 -1.2204
 2330SOL     OW18451   1.174   0.280   6.887  0.4024  0.3132 -0.0272
 2330SOL    HW118452   1.232   0.216   6.927  0.7915  0.1612 -0.8387
 2330SOL    HW218453   1.104   0.286   6.951  0.5087 -1.6368  0.2558
 2331SOL     OW18454   4.668   3.384   6.628 -0.0274 -0.0056 -0.0373
 2331SOL    HW118455   4.723   3.319   6.583  0.4364 -1.3505  2.4822
 2331SOL    HW218456   4.618   3.412   6.551 -1.3956 -1.4212  0.3403
 2332SOL     OW18457   1.288   1.873  12.771 -0.5512  0.1495 -0.1366
 2332SOL    HW118458   1.364   1.921  12.739 -0.5504  0.4640  0.3367
 2332SOL    HW218459   1.253   1.944  12.825 -0.1860 -0.8529  1.4038
 2333SOL     OW18460   4.453   2.256   7.485 -0.6120  0.0301 -0.2409
 2333SOL    HW118461   4.413   2.183   7.532 -0.2617  0.5625  0.8921
 2333SOL    HW218462   4.493   2.312   7.551 -0.4662  0.2524 -0.5166
 2334SOL     OW18463   2.122   3.896   6.988  0.0098  0.3405 -0.1775
 2334SOL    HW118464   2.195   3.835   6.980 -2.7371 -2.9734 -0.0243
 2334SOL    HW218465   2.057   3.866   6.923 -0.2920  1.0647 -0.2054
 2335SOL     OW18466   3.925   3.234   8.446  0.0083  0.3582  0.2284
 2335SOL    HW118467   3.869   3.312   8.440  0.8187  0.8390 -1.1378
 2335SOL    HW218468   4.012   3.274   8.435  0.1872 -0.7173 -2.3112
 2336SOL     OW18469   0.618   4.564   6.514  0.1981 -0.2308  0.5546
 2336SOL    HW118470   0.565   4.551   6.593 -1.9832 -2.4004 -1.2716
 2336SOL    HW218471   0.704   4.577   6.554 -0.6691 -0.6869  2.5893
 2337SOL     OW18472   2.683   1.504   4.701  0.1262 -0.5701 -0.6429
 2337SOL    HW118473   2.707   1.446   4.630  1.5734 -1.7100  0.7775
 2337SOL    HW218474   2.766   1.526   4.744 -0.3655 -3.2996  1.7557
 2338SOL     OW18475   2.530   0.867   0.427 -0.3669 -0.1565 -0.0277
 2338SOL    HW118476   2.592   0.939   0.436  0.3682 -0.6391 -1.2210
 2338SOL    HW218477   2.507   0.845   0.517  3.0724 -3.2273  0.1067
 2339SOL     OW18478   4.454   2.989   8.508  0.3313  0.6788 -0.2194
 2339SOL    HW118479   4.516   2.922   8.479 -0.4941 -0.7925  1.3980
 2339SOL    HW218480   4.420   3.016   8.422  1.0476 -1.2150 -1.1036
 2340SOL     OW18481   4.600   3.603   8.545 -0.8006 -0.0801 -0.3742
 2340SOL    HW118482   4.664   3.574   8.480 -0.3227  0.0586  0.0371
 2340SOL    HW218483   4.529   3.641   8.493  0.0178 -0.9893 -2.1686
 2341SOL     OW18484   1.097   3.389   0.086 -0.0443  0.1939 -0.7300
 2341SOL    HW118485   1.156   3.331   0.133 -1.4386 -0.9142 -0.3495
 2341SOL    HW218486   1.051   3.444   0.149 -0.6371 -1.1266 -0.0164
 2342SOL     OW18487   1.099   3.830  12.718 -0.4449 -0.3253 -0.1020
 2342SOL    HW118488   1.074   3.911  12.674 -2.9428 -2.3243 -2.4037
 2342SOL    HW218489   1.018   3.810  12.765 -1.7634  0.3153 -2.1045
 2343SOL     OW18490   4.206   2.620  17.385 -0.0304 -0.1601  0.1704
 2343SOL    HW118491   4.263   2.667  17.445 -1.1159  0.3459  0.8197
 2343SOL    HW218492   4.250   2.642  17.303  2.7851 -0.9225  1.5033
 2344SOL     OW18493   2.657   2.018   6.881 -0.0214 -0.8765 -0.5792
 2344SOL    HW118494   2.586   1.954   6.878  0.9679 -2.1590  2.9001
 2344SOL    HW218495   2.610   2.096   6.910 -0.0403 -0.8891 -0.5758
 2345SOL     OW18496   3.026   2.547  14.721  0.7454  0.0444 -0.4479
 2345SOL    HW118497   3.094   2.523  14.784  0.3184  0.0455  0.0135
 2345SOL    HW218498   3.056   2.510  14.639 -0.2489  0.0098 -0.8014
 2346SOL     OW18499   0.613   0.160  14.836  0.1130 -0.1216 -0.3850
 2346SOL    HW118500   0.564   0.208  14.769  1.0149 -0.5701 -1.3718
 2346SOL    HW218501   0.703   0.192  14.828 -0.8976  2.4332 -1.5964
 2347SOL     OW18502   3.829   3.579   7.758  0.2694 -0.0105  0.3015
 2347SOL    HW118503   3.902   3.604   7.702  1.1099 -1.2186  0.8684
 2347SOL    HW218504   3.752   3.607   7.707  2.0705  1.5844 -1.5614
 2348SOL     OW18505   3.552   1.626  13.378 -0.4585 -0.3709  0.2374
 2348SOL    HW118506   3.628   1.608  13.323  0.1294  0.8915  0.6512
 2348SOL    HW218507   3.567   1.718  13.398 -2.6929 -0.0067  0.1832
 2349SOL     OW18508   0.034   0.231  14.435  0.1026 -0.4764 -0.6793
 2349SOL    HW118509   0.006   0.213  14.525 -0.3120 -0.6333 -0.8353
 2349SOL    HW218510   0.021   0.143  14.400 -1.8795 -1.3017  2.0594
 2350SOL     OW18511   2.450   2.268   4.852  0.0143  0.2221  0.2238
 2350SOL    HW118512   2.420   2.350   4.813  0.0499 -1.1724 -2.7243
 2350SOL    HW218513   2.530   2.250   4.803 -0.9843 -0.1844 -1.2442
 2351SOL     OW18514   1.870   3.373   5.873  0.0234  0.3022 -0.2181
 2351SOL    HW118515   1.829   3.350   5.790  0.7949  0.3888 -0.6163
 2351SOL    HW218516   1.853   3.467   5.887 -0.6402 -0.1321  1.9084
 2352SOL     OW18517   3.512   0.316   2.060  0.0684 -0.4271  0.0640
 2352SOL    HW118518   3.499   0.316   2.155  2.3332  0.1775  0.3694
 2352SOL    HW218519   3.604   0.343   2.056 -0.5664  1.6130 -0.6338
 2353SOL     OW18520   4.226   2.490   4.878 -0.5500  0.3659 -0.2875
 2353SOL    HW118521   4.242   2.398   4.898  0.9911  0.3107 -1.7918
 2353SOL    HW218522   4.134   2.491   4.904 -1.0225  0.0599 -1.9494
 2354SOL     OW18523   0.628   0.529   6.142 -0.0121 -0.1396  0.0507
 2354SOL    HW118524   0.561   0.577   6.192 -1.1806 -2.3627  0.6015
 2354SOL    HW218525   0.703   0.524   6.201 -0.5477 -2.0525  0.5569
 2355SOL     OW18526   4.286   1.031   8.565  0.3735 -0.0758 -0.1438
 2355SOL    HW118527   4.265   1.039   8.658  0.1703 -2.8569  0.0408
 2355SOL    HW218528   4.373   1.071   8.553 -0.4453  1.6978 -0.2119
 2356SOL     OW18529   4.170   1.183  13.973  0.2655  0.1488  0.1101
 2356SOL    HW118530   4.155   1.246  13.902  0.9525 -0.6891 -0.7682
 2356SOL    HW218531   4.110   1.112  13.951 -0.3256  0.4052  0.8782
 2357SOL     OW18532   2.177   2.466   9.812  0.0614  0.2534  0.0839
 2357SOL    HW118533   2.235   2.391   9.819 -0.0240  0.0518 -1.4086
 2357SOL    HW218534   2.237   2.536   9.838  0.0859  0.3706 -0.2901
 2358SOL     OW18535   1.125   2.156   2.485  0.1565  0.5611 -0.2108
 2358SOL    HW118536   1.145   2.071   2.523 -1.0152  0.5395  0.3654
 2358SOL    HW218537   1.111   2.214   2.560 -0.7991  0.2200 -0.1202
 2359SOL     OW18538   2.574   3.914  17.598  0.1660  0.9331  0.4594
 2359SOL    HW118539   2.605   3.977  17.532  0.6324 -1.2855 -1.4318
 2359SOL    HW218540   2.636   3.919  17.670 -0.6475  0.1733  1.1987
 2360SOL     OW18541   4.328   1.661   2.989 -0.1411 -0.4197  0.6082
 2360SOL    HW118542   4.265   1.612   2.936 -1.2321  2.2912 -0.6032
 2360SOL    HW218543   4.269   1.726   3.027 -0.4686  0.9614 -2.2182
 2361SOL     OW18544   1.503   0.395   4.976 -0.5195 -0.2049 -0.2950
 2361SOL    HW118545   1.501   0.305   5.007 -0.9473 -1.5214 -4.1155
 2361SOL    HW218546   1.595   0.422   4.974 -0.5983  0.1232  0.6691
 2362SOL     OW18547   3.874   4.365   6.975  0.3083  0.5075  0.0583
 2362SOL    HW118548   3.869   4.398   7.065  1.2885 -1.7852  0.9603
 2362SOL    HW218549   3.962   4.380   6.939  0.6958 -1.6893  0.1355
 2363SOL     OW18550   2.159   4.666   9.823  0.2515  0.4588  0.5304
 2363SOL    HW118551   2.164   0.037   9.836 -0.7443  0.6952 -0.7794
 2363SOL    HW218552   2.246   4.631   9.842  0.7839  1.0930 -0.8280
 2364SOL     OW18553   1.887   3.459   2.926  0.0301 -0.3980  0.5893
 2364SOL    HW118554   1.834   3.488   3.000 -0.0768  1.1406 -0.0762
 2364SOL    HW218555   1.959   3.409   2.964 -0.6431 -1.8958 -0.0937
 2365SOL     OW18556   3.502   0.401  15.664 -0.1090 -0.4570  0.1727
 2365SOL    HW118557   3.431   0.340  15.685 -1.2115  1.0334  0.8225
 2365SOL    HW218558   3.532   0.353  15.587 -0.6184 -0.3452 -0.1005
 2366SOL     OW18559   0.644   2.260  17.386  0.3070  0.0245  0.0832
 2366SOL    HW118560   0.711   2.227  17.445 -1.6596 -2.0302  1.1687
 2366SOL    HW218561   0.635   2.181  17.333  0.8613  1.2371 -1.7994
 2367SOL     OW18562   3.336   4.467   1.544 -0.2544 -0.5583  0.6326
 2367SOL    HW118563   3.305   4.555   1.522  0.3514 -0.3668  0.5607
 2367SOL    HW218564   3.415   4.458   1.491 -1.2915 -0.7550 -0.8777
 2368SOL     OW18565   4.451   1.171  13.439  0.4424 -0.3999 -0.1051
 2368SOL    HW118566   4.446   1.166  13.535 -0.7050 -0.5274 -0.1740
 2368SOL    HW218567   4.402   1.090  13.424  2.3012 -0.9634 -3.0832
 2369SOL     OW18568   0.467   3.537   5.605 -0.1925  0.6139  0.3025
 2369SOL    HW118569   0.412   3.604   5.643  0.5638  2.3866 -1.7360
 2369SOL    HW218570   0.541   3.530   5.666  1.4750  1.2972 -1.6210
 2370SOL     OW18571   3.104   0.403   3.694  0.0263 -0.0402 -0.4822
 2370SOL    HW118572   3.162   0.479   3.683 -1.2277  0.8601 -0.9040
 2370SOL    HW218573   3.101   0.395   3.789 -0.2645  2.1911 -0.3053
 2371SOL     OW18574   3.382   3.894   0.882  0.4826  0.2129 -0.2601
 2371SOL    HW118575   3.423   3.903   0.795 -0.9660  3.9764 -0.5783
 2371SOL    HW218576   3.338   3.810   0.870 -0.3147  0.5534  0.3437
 2372SOL     OW18577   4.535   4.126  11.803  0.1777 -0.0377 -0.3952
 2372SOL    HW118578   4.516   4.117  11.710  0.3664  1.8307 -0.6129
 2372SOL    HW218579   4.584   4.208  11.812  0.0817 -0.3146  2.4804
 2373SOL     OW18580   2.719   3.363   3.172 -0.0686 -0.5353 -0.0367
 2373SOL    HW118581   2.761   3.448   3.180  1.1396 -1.1782  0.3722
 2373SOL    HW218582   2.718   3.345   3.077 -2.1745 -1.5590  0.1571
 2374SOL     OW18583   0.788   3.939  10.538 -0.0440 -0.1487 -0.0365
 2374SOL    HW118584   0.862   3.886  10.569  0.0221  0.2007  0.3972
 2374SOL    HW218585   0.729   3.871  10.506 -0.2044 -0.7294  1.4916
 2375SOL     OW18586   0.456   3.263   0.881 -0.4951 -0.3160 -0.5850
 2375SOL    HW118587   0.366   3.271   0.849 -0.8019  1.5501  0.8308
 2375SOL    HW218588   0.439   3.289   0.971  0.6733  2.1393 -1.0757
 2376SOL     OW18589   2.677   2.547   4.838  0.1724  0.4250  0.1627
 2376SOL    HW118590   2.646   2.506   4.919  1.0581 -1.4512 -0.4557
 2376SOL    HW218591   2.598   2.599   4.819 -0.1358 -0.0687  0.0897
 2377SOL     OW18592   2.356   3.346   4.722 -0.0943  0.0183 -0.2007
 2377SOL    HW118593   2.282   3.373   4.668  0.9346  1.3958 -0.9083
 2377SOL    HW218594   2.353   3.411   4.793 -1.0564  1.5245 -1.6360
 2378SOL     OW18595   1.703   3.763  15.640  0.2409 -0.1037 -0.5008
 2378SOL    HW118596   1.705   3.667  15.632  0.4757  0.0321 -2.1907
 2378SOL    HW218597   1.726   3.782  15.731 -1.4325  1.9262 -0.5019
 2379SOL     OW18598   1.615   1.962   5.556  0.5836 -0.1624  0.5300
 2379SOL    HW118599   1.558   1.915   5.617 -1.3085 -1.3819 -2.1744
 2379SOL    HW218600   1.605   1.916   5.473 -0.8218  0.0344  0.5880
 2380SOL     OW18601   4.299   2.925   6.234 -0.5608  0.3460  0.3943
 2380SOL    HW118602   4.236   2.888   6.296 -0.5829 -0.9240 -0.3996
 2380SOL    HW218603   4.375   2.909   6.290  0.2511 -2.8113 -1.6274
 2381SOL     OW18604   3.939   1.267   6.877 -0.4699 -0.0154  0.1574
 2381SOL    HW118605   3.881   1.217   6.935  1.1348 -0.8947  1.0142
 2381SOL    HW218606   3.920   1.355   6.909 -0.0010  0.1187  0.0587
 2382SOL     OW18607   1.016   3.013  12.640  0.5467 -0.0427 -0.1114
 2382SOL    HW118608   1.107   3.037  12.660 -0.1133  2.5360 -0.1921
 2382SOL    HW218609   1.004   3.074  12.567  0.1514  0.2241  0.1813
 2383SOL     OW18610   0.214   4.107   7.654 -0.0180 -0.4798 -0.4508
 2383SOL    HW118611   0.180   4.196   7.645  0.5268 -0.0711  1.5163
 2383SOL    HW218612   0.144   4.058   7.610 -1.6060  0.2831  1.2024
 2384SOL     OW18613   2.920   4.479  15.065  0.0199  0.3295 -0.3677
 2384SOL    HW118614   2.878   4.556  15.105  0.3741  1.2312 -1.7486
 2384SOL    HW218615   2.911   4.411  15.132 -0.8622  2.0017  1.2023
 2385SOL     OW18616   1.747   2.104   5.721 -0.6505 -0.4515 -0.0921
 2385SOL    HW118617   1.697   2.051   5.659 -1.7825  0.8643 -0.2961
 2385SOL    HW218618   1.785   2.163   5.655  1.9356  0.5388  2.3070
 2386SOL     OW18619   3.541   1.342   6.350 -0.4103  0.4078  0.0278
 2386SOL    HW118620   3.597   1.278   6.394 -0.1771  1.0560  0.6645
 2386SOL    HW218621   3.454   1.311   6.375 -0.4847  1.1274  0.6517
 2387SOL     OW18622   0.709   2.831   6.986  0.1798 -0.5104 -0.0974
 2387SOL    HW118623   0.684   2.783   7.064  1.1832  0.7511  1.0045
 2387SOL    HW218624   0.804   2.831   6.990  0.2411 -0.6983 -1.3343
 2388SOL     OW18625   2.323   0.378   6.631  0.1464 -0.0821  0.1670
 2388SOL    HW118626   2.286   0.289   6.630  0.5975 -0.2628 -0.8511
 2388SOL    HW218627   2.257   0.429   6.584 -0.3673 -1.1670 -0.2993
 2389SOL     OW18628   2.512   1.700   3.644 -0.0732 -0.0412 -0.0966
 2389SOL    HW118629   2.508   1.666   3.733  0.2323  0.5474  0.1405
 2389SOL    HW218630   2.418   1.711   3.632  0.1699 -0.0886 -2.0728
 2390SOL     OW18631   4.312   1.022   3.548 -0.0380 -0.3275 -0.8817
 2390SOL    HW118632   4.364   1.096   3.519 -0.4926 -0.3523 -1.7604
 2390SOL    HW218633   4.264   1.010   3.467 -0.4757 -2.0792 -0.3729
 2391SOL     OW18634   1.253   3.167   2.260  0.0429  0.0397  0.4179
 2391SOL    HW118635   1.316   3.178   2.189  0.6565 -0.7146  0.8371
 2391SOL    HW218636   1.196   3.095   2.234 -2.8577  3.1432 -1.7460
 2392SOL     OW18637   2.033   4.046  17.427  1.0836 -0.1997  0.3786
 2392SOL    HW118638   2.099   3.977  17.426  0.8790 -0.3993  0.7726
 2392SOL    HW218639   2.080   4.121  17.463  1.7420 -0.7811  0.7204
 2393SOL     OW18640   1.758   3.489  13.246 -0.7949 -0.0556 -0.0313
 2393SOL    HW118641   1.758   3.466  13.339 -0.6020 -0.3368 -0.0999
 2393SOL    HW218642   1.749   3.584  13.253 -0.2812  0.1730 -2.7908
 2394SOL     OW18643   1.882   2.498  11.610  0.8416 -0.8108 -0.0879
 2394SOL    HW118644   1.814   2.445  11.567  1.0675 -0.3477 -1.0183
 2394SOL    HW218645   1.945   2.518  11.540  1.0558  2.0563  0.9293
 2395SOL     OW18646   1.078   2.802   5.189 -0.2596 -0.0780  0.1010
 2395SOL    HW118647   1.029   2.767   5.264 -2.5854  2.1072 -0.3966
 2395SOL    HW218648   1.040   2.756   5.115  0.2219  0.6027 -0.5729
 2396SOL     OW18649   2.051   0.883  11.615  0.0853  0.0273  0.0976
 2396SOL    HW118650   2.009   0.848  11.537  0.5645  1.9501 -1.0195
 2396SOL    HW218651   2.104   0.806  11.638 -1.4076 -0.2689  2.6350
 2397SOL     OW18652   1.627   1.022  11.620 -0.1559 -0.5521  0.1070
 2397SOL    HW118653   1.602   1.017  11.528 -0.2033  1.7053 -0.0064
 2397SOL    HW218654   1.713   1.064  11.616 -0.4731 -0.0705 -1.8036
 2398SOL     OW18655   4.425   0.726   9.971  0.6207 -0.3500  0.3067
 2398SOL    HW118656   4.500   0.667   9.979  0.0634 -1.1723 -0.4915
 2398SOL    HW218657   4.467   0.810   9.949 -2.1601  0.9874  0.1517
 2399SOL     OW18658   3.002   2.562   3.709 -0.7358  0.5233 -0.7252
 2399SOL    HW118659   3.094   2.586   3.703 -0.8992  0.9081 -1.7559
 2399SOL    HW218660   2.986   2.555   3.803 -4.7762  1.1104 -1.3751
 2400SOL     OW18661   4.146   0.163   7.291 -0.1425 -0.2552 -1.0858
 2400SOL    HW118662   4.095   0.176   7.211  1.3437  2.1838 -1.6656
 2400SOL    HW218663   4.153   0.253   7.323 -1.2746 -0.1904 -1.0162
 2401SOL     OW18664   1.645   3.539   6.134  0.5114 -0.4434 -0.3626
 2401SOL    HW118665   1.605   3.576   6.213  0.2693  0.9695 -1.1431
 2401SOL    HW218666   1.714   3.488   6.178  0.4008 -0.8788 -0.6966
 2402SOL     OW18667   3.471   4.157   2.277 -0.6293  0.0797 -0.2709
 2402SOL    HW118668   3.472   4.067   2.308  0.0417 -0.3068 -1.4073
 2402SOL    HW218669   3.387   4.186   2.310 -0.6968 -1.1977  0.6511
 2403SOL     OW18670   1.004   0.936  14.171  0.0025  0.0454  0.1906
 2403SOL    HW118671   1.018   0.933  14.077 -0.5316  0.4665  0.0954
 2403SOL    HW218672   1.003   1.029  14.193 -0.9811  0.3289 -1.0878
 2404SOL     OW18673   1.193   1.866   1.279  0.1583 -0.0077 -0.0412
 2404SOL    HW118674   1.139   1.928   1.326 -0.6086 -0.6796 -0.0395
 2404SOL    HW218675   1.169   1.874   1.187  1.1075  1.0991 -0.1910
 2405SOL     OW18676   3.615   2.014  16.857  0.3954 -0.6442 -1.1542
 2405SOL    HW118677   3.566   1.998  16.777 -1.2742 -0.1630 -0.2423
 2405SOL    HW218678   3.704   1.995  16.829  0.5842 -0.7639 -0.4849
 2406SOL     OW18679   3.383   0.079   7.421 -0.2920 -0.2525 -0.0019
 2406SOL    HW118680   3.465   0.030   7.422 -0.6889 -0.9217 -1.2084
 2406SOL    HW218681   3.408   0.159   7.373  0.0341  0.2124  0.9343
 2407SOL     OW18682   3.376   3.729   1.868  0.6782  0.1439  0.1965
 2407SOL    HW118683   3.289   3.761   1.844  0.1307 -1.7809 -0.3496
 2407SOL    HW218684   3.410   3.816   1.890 -0.8722  1.1010 -1.1652
 2408SOL     OW18685   0.673   1.843   5.619  0.1230 -0.6815 -0.4409
 2408SOL    HW118686   0.723   1.789   5.680 -0.6410  0.0461  0.8267
 2408SOL    HW218687   0.697   1.930   5.651  0.1918 -1.1440  0.7555
 2409SOL     OW18688   1.947   3.193   4.974  0.3046 -0.2111  0.6261
 2409SOL    HW118689   1.942   3.135   5.050 -1.7977 -1.5324 -0.5137
 2409SOL    HW218690   1.876   3.256   4.985  2.9872  2.9001  0.2372
 2410SOL     OW18691   3.283   1.174   3.810 -0.0377 -0.6921  0.1160
 2410SOL    HW118692   3.351   1.196   3.873  0.3670  0.0020 -0.5607
 2410SOL    HW218693   3.248   1.090   3.839 -1.1476 -0.8957 -1.7763
 2411SOL     OW18694   4.452   4.154   3.650 -0.2275 -0.2401  0.1149
 2411SOL    HW118695   4.492   4.092   3.589  1.4215  1.1872 -0.2453
 2411SOL    HW218696   4.370   4.138   3.604  0.5804  0.5782 -1.6352
 2412SOL     OW18697   3.878   0.251   6.217  0.1552 -0.2099 -0.0105
 2412SOL    HW118698   3.969   0.229   6.195  0.1016 -1.6090  1.1347
 2412SOL    HW218699   3.833   0.210   6.143 -0.8747  0.1256  0.4355
 2413SOL     OW18700   3.119   2.577   7.598  0.2286  0.4049 -0.0452
 2413SOL    HW118701   3.081   2.653   7.555  1.1756  1.5112  1.0738
 2413SOL    HW218702   3.095   2.509   7.535 -0.3496  0.2820  0.3133
 2414SOL     OW18703   0.679   1.038   3.092 -1.2836  0.1023  0.4030
 2414SOL    HW118704   0.630   0.990   3.025  1.4836  0.3506 -1.8127
 2414SOL    HW218705   0.681   0.978   3.166 -3.1224  2.0921  2.0895
 2415SOL     OW18706   4.370   3.493   4.770 -0.6172  0.2822 -0.0283
 2415SOL    HW118707   4.344   3.495   4.862 -0.0473  0.5472  0.1288
 2415SOL    HW218708   4.297   3.438   4.742  0.6150 -1.4115  0.0896
 2416SOL     OW18709   0.111   0.181  12.690 -0.3180 -0.2011 -0.0352
 2416SOL    HW118710   0.026   0.211  12.724  0.2671 -0.3185  1.5261
 2416SOL    HW218711   0.079   0.113  12.630 -0.7616 -1.0692  1.1950
 2417SOL     OW18712   1.301   2.739   6.216  0.3708 -0.8724 -0.8620
 2417SOL    HW118713   1.212   2.746   6.251  0.1714 -2.4982 -1.0557
 2417SOL    HW218714   1.338   2.682   6.284 -1.2200 -2.4428 -1.3186
 2418SOL     OW18715   0.324   2.704   7.915  0.2723  0.2473 -0.1837
 2418SOL    HW118716   0.329   2.746   7.829  2.5521 -1.6465 -0.9682
 2418SOL    HW218717   0.416   2.701   7.939  0.7058  1.3288 -1.7274
 2419SOL     OW18718   1.430   3.079   1.548  0.1380  0.3872 -0.4048
 2419SOL    HW118719   1.353   3.024   1.532 -0.1481  0.0935  1.9868
 2419SOL    HW218720   1.400   3.122   1.628 -0.3823 -0.6601 -0.0257
 2420SOL     OW18721   4.468   1.029   1.956  0.2482 -0.0110 -0.1996
 2420SOL    HW118722   4.401   1.054   2.020  3.1715  1.8424  2.0882
 2420SOL    HW218723   4.431   1.081   1.884 -0.7820 -1.0689 -0.4342
 2421SOL     OW18724   3.154   4.475  13.631  0.2761 -0.3755  0.6317
 2421SOL    HW118725   3.241   4.448  13.601  0.3408  0.2288  0.2787
 2421SOL    HW218726   3.173   4.567  13.648  2.3955 -0.7885  0.5904
 2422SOL     OW18727   1.561   2.319   3.046  0.1077 -0.1063 -0.3894
 2422SOL    HW118728   1.573   2.403   3.002  1.4426  0.4126  0.9987
 2422SOL    HW218729   1.633   2.275   3.001 -1.0619 -1.1471 -1.2690
 2423SOL     OW18730   4.573   3.067   9.563  0.2264  0.3964  0.3226
 2423SOL    HW118731   4.523   2.990   9.535 -2.1883  2.4938 -1.1977
 2423SOL    HW218732   4.657   3.026   9.581  0.6437 -0.2425 -3.0976
 2424SOL     OW18733   3.880   0.547   7.393  0.4626 -0.3446 -0.1407
 2424SOL    HW118734   3.786   0.566   7.403  0.9564  1.9299  0.2795
 2424SOL    HW218735   3.902   0.508   7.477 -0.7506 -1.1863 -0.2009
 2425SOL     OW18736   3.156   0.673  17.415  0.0888  0.1236 -0.1958
 2425SOL    HW118737   3.136   0.754  17.462 -2.2946  0.7093 -2.2386
 2425SOL    HW218738   3.162   0.706  17.325  0.7435 -2.6624 -1.1794
 2426SOL     OW18739   2.749   0.422  13.201  0.8151 -0.1754  0.8713
 2426SOL    HW118740   2.735   0.368  13.279  2.4627  0.7628  1.8086
 2426SOL    HW218741   2.691   0.496  13.217 -0.8150 -1.2944  0.1082
 2427SOL     OW18742   1.780   3.010   3.257 -0.2933 -0.0241  0.0755
 2427SOL    HW118743   1.840   2.938   3.277  0.0310 -0.0104 -0.8331
 2427SOL    HW218744   1.840   3.082   3.235 -0.3574  0.4014  1.3144
 2428SOL     OW18745   3.337   1.055  16.572  0.1693  0.5426 -0.3541
 2428SOL    HW118746   3.374   1.131  16.617  0.4696  0.5667 -0.6395
 2428SOL    HW218747   3.259   1.084  16.525  0.1836  0.3510 -0.4981
 2429SOL     OW18748   4.650   0.269   7.221  0.2211 -0.0241  0.5638
 2429SOL    HW118749   4.649   0.247   7.128  0.3946 -2.9006  1.2685
 2429SOL    HW218750   4.626   0.362   7.217 -1.3686 -0.5367 -2.2824
 2430SOL     OW18751   3.767   1.122  14.876  0.4851  0.1388  0.1689
 2430SOL    HW118752   3.711   1.119  14.799  1.8452  0.9701 -0.8616
 2430SOL    HW218753   3.846   1.093  14.829  0.4326 -1.1769  0.8978
 2431SOL     OW18754   1.925   1.107   2.568 -0.4540  0.2877  0.3292
 2431SOL    HW118755   2.002   1.055   2.590 -0.8920  0.1019  1.3983
 2431SOL    HW218756   1.943   1.173   2.635 -0.6966  1.7298 -1.0091
 2432SOL     OW18757   2.872   2.055   3.840  0.1963 -0.7903 -0.1399
 2432SOL    HW118758   2.930   2.059   3.764 -0.1158 -0.5730 -0.3642
 2432SOL    HW218759   2.785   2.063   3.800  1.1787 -0.8106 -2.2988
 2433SOL     OW18760   0.642   3.716   5.144 -0.3566 -0.4879  0.3483
 2433SOL    HW118761   0.637   3.667   5.226  0.3458 -0.9070  0.1383
 2433SOL    HW218762   0.620   3.641   5.089 -0.3356 -2.1881  2.6843
 2434SOL     OW18763   4.543   2.969   8.981  0.2734 -0.2653  0.4747
 2434SOL    HW118764   4.584   3.041   9.030  0.3989 -0.1822  0.2477
 2434SOL    HW218765   4.449   2.988   8.978  0.3429  0.0836  0.5000
 2435SOL     OW18766   0.443   2.594  10.878 -0.1510 -0.0072 -0.2162
 2435SOL    HW118767   0.382   2.557  10.813 -0.7014 -0.9509  0.8378
 2435SOL    HW218768   0.446   2.525  10.945 -0.8235  0.2638  0.0859
 2436SOL     OW18769   1.214   1.607   9.919  0.0314  0.1836 -0.1624
 2436SOL    HW118770   1.236   1.619   9.826 -3.0321  0.4667 -0.8483
 2436SOL    HW218771   1.302   1.597   9.955 -0.1922  0.9586  0.6129
 2437SOL     OW18772   1.668   2.982   4.432 -0.0475 -0.3380 -0.5375
 2437SOL    HW118773   1.603   2.912   4.436  0.5226 -0.7855  1.1683
 2437SOL    HW218774   1.697   2.979   4.341  0.3381  1.3595 -0.4589
 2438SOL     OW18775   2.402   2.050   3.853 -0.4694  0.6666  0.0857
 2438SOL    HW118776   2.366   2.001   3.779 -1.4259  2.8213 -0.8561
 2438SOL    HW218777   2.454   2.123   3.819  0.3761 -0.3340 -0.7744
 2439SOL     OW18778   3.339   0.123   5.149 -0.5103 -0.2015  0.0765
 2439SOL    HW118779   3.304   0.210   5.164 -0.2995  0.1172 -1.3168
 2439SOL    HW218780   3.346   0.098   5.242  0.4497  0.3416  0.1538
 2440SOL     OW18781   1.159   2.465   0.072 -0.3007  0.2053  0.2087
 2440SOL    HW118782   1.223   2.414   0.122 -3.5252 -3.6808  0.3790
 2440SOL    HW218783   1.080   2.418   0.099 -0.2533  0.7400  1.2895
 2441SOL     OW18784   3.804   0.705   4.075 -0.5169  0.2999 -0.5846
 2441SOL    HW118785   3.774   0.787   4.113 -0.6494  0.6003 -1.3354
 2441SOL    HW218786   3.823   0.733   3.986  2.5256  1.4471  0.4340
 2442SOL     OW18787   1.073   2.952   8.127 -0.1564  0.5913 -0.3423
 2442SOL    HW118788   1.007   2.955   8.196  0.1456  1.1918 -0.0819
 2442SOL    HW218789   1.101   3.043   8.116 -0.2720  0.5043 -1.3231
 2443SOL     OW18790   3.119   1.404   4.443  0.6330  0.3672 -0.4823
 2443SOL    HW118791   3.155   1.413   4.355  0.7552  0.9249 -0.3743
 2443SOL    HW218792   3.070   1.323   4.456 -0.3327  0.9062 -0.8101
 2444SOL     OW18793   4.268   2.941   0.449 -0.3645  0.1287  0.3150
 2444SOL    HW118794   4.337   3.003   0.427  0.3686 -0.5328  0.7531
 2444SOL    HW218795   4.256   2.902   0.362  3.7097 -0.8350  0.2061
 2445SOL     OW18796   3.783   2.025   4.358 -0.3732 -0.0605  0.2575
 2445SOL    HW118797   3.807   2.082   4.431  1.3693 -0.4814  0.0132
 2445SOL    HW218798   3.703   2.067   4.326 -1.3069 -3.2259 -1.5194
 2446SOL     OW18799   1.377   3.370   2.039  0.3503 -0.4583  0.4005
 2446SOL    HW118800   1.390   3.428   1.964 -1.1902 -1.0528 -0.3067
 2446SOL    HW218801   1.391   3.435   2.108  4.1670 -3.6181  2.6685
 2447SOL     OW18802   0.509   3.768   0.800  0.3197  0.3434 -0.3602
 2447SOL    HW118803   0.452   3.694   0.821  2.0906 -0.7406  0.6799
 2447SOL    HW218804   0.569   3.767   0.875 -2.6586 -1.0564  1.9992
 2448SOL     OW18805   1.218   1.139   0.251 -0.1963 -0.4162 -0.7706
 2448SOL    HW118806   1.171   1.221   0.255 -0.9800 -0.9074 -0.0310
 2448SOL    HW218807   1.151   1.074   0.274 -1.2824  0.7543 -0.6529
 2449SOL     OW18808   3.786   1.542   2.537  0.3281 -0.2690  0.4007
 2449SOL    HW118809   3.813   1.619   2.586 -1.8956  1.9336 -1.8323
 2449SOL    HW218810   3.710   1.507   2.583  0.2158 -1.0103 -0.3371
 2450SOL     OW18811   4.463   3.116   0.453  0.1481 -0.1159  0.0983
 2450SOL    HW118812   4.476   3.164   0.535  2.2028  2.4091 -1.7359
 2450SOL    HW218813   4.537   3.055   0.451 -1.4110 -2.0512  0.6827
 2451SOL     OW18814   3.669   0.473   0.683  0.6205  0.1622 -0.5944
 2451SOL    HW118815   3.694   0.498   0.772 -1.0906  0.7799 -0.2892
 2451SOL    HW218816   3.750   0.427   0.660 -1.1539 -2.8557 -0.7826
 2452SOL     OW18817   4.557   0.438   9.803 -0.1557  0.0711  0.2617
 2452SOL    HW118818   4.573   0.344   9.789  1.1754  0.6108 -1.7710
 2452SOL    HW218819   4.520   0.440   9.892 -0.5997  1.5431  0.0431
 2453SOL     OW18820   2.050   3.138   8.151  0.7940 -0.1898  0.2394
 2453SOL    HW118821   2.011   3.051   8.162 -0.7258  0.6077  1.1451
 2453SOL    HW218822   2.023   3.151   8.060  0.1850 -2.5668  0.0764
 2454SOL     OW18823   1.820   2.927   3.646  0.5894 -0.1251  0.0639
 2454SOL    HW118824   1.766   2.893   3.717  1.7593 -0.4511  0.8043
 2454SOL    HW218825   1.761   2.906   3.574  0.3894 -0.3887  0.3036
 2455SOL     OW18826   0.443   3.062   3.724  1.0549  0.2670  0.0396
 2455SOL    HW118827   0.395   3.007   3.662  1.0262  0.9529 -0.5455
 2455SOL    HW218828   0.447   3.008   3.803 -1.8768 -1.5140 -1.0542
 2456SOL     OW18829   2.493   1.816   7.316  0.2547 -0.1301  0.2536
 2456SOL    HW118830   2.557   1.845   7.381  2.3902 -0.2850 -1.8030
 2456SOL    HW218831   2.468   1.902   7.281  3.8612  0.1187 -1.6788
 2457SOL     OW18832   0.747   4.419   5.122 -0.1537  0.1915 -0.3147
 2457SOL    HW118833   0.705   4.489   5.072  1.1070 -0.1326 -1.8233
 2457SOL    HW218834   0.704   4.337   5.100 -1.6195  1.2161 -1.2959
 2458SOL     OW18835   0.332   2.175   5.892  0.4014  0.0185 -0.4292
 2458SOL    HW118836   0.320   2.083   5.871  1.0466 -0.1612 -0.0157
 2458SOL    HW218837   0.327   2.165   5.987  1.6362  2.5810 -0.0973
 2459SOL     OW18838   3.166   3.278   1.256 -0.8358 -0.1881 -0.8908
 2459SOL    HW118839   3.116   3.233   1.188  0.3154 -3.4893  0.4525
 2459SOL    HW218840   3.133   3.368   1.259 -1.2222 -0.4030  1.3169
 2460SOL     OW18841   2.782   4.528   2.815  0.3452 -0.0722  0.2828
 2460SOL    HW118842   2.824   4.446   2.839  0.4185  0.0478  0.5674
 2460SOL    HW218843   2.804   4.574   2.896  1.7587 -0.7635  0.2827
 2461SOL     OW18844   0.746   3.328  16.581 -0.0506 -0.3317  0.1182
 2461SOL    HW118845   0.664   3.324  16.533  0.9063 -3.4879 -1.2612
 2461SOL    HW218846   0.798   3.275  16.520  0.8907  0.5399  0.1609
 2462SOL     OW18847   0.662   3.046   3.038 -0.7732 -0.1021 -0.0907
 2462SOL    HW118848   0.599   3.113   3.064 -0.1821  0.0789  0.8929
 2462SOL    HW218849   0.690   3.026   3.127 -1.2217 -1.2930 -0.2157
 2463SOL     OW18850   4.628   1.178   7.482 -0.4652  0.0643 -0.4362
 2463SOL    HW118851   4.534   1.197   7.478 -0.8601 -0.9409  3.3520
 2463SOL    HW218852   4.670   1.257   7.515  2.8593 -1.8314 -0.1871
 2464SOL     OW18853   1.984   1.466   2.334  0.5083  0.0169  0.6946
 2464SOL    HW118854   1.980   1.468   2.430 -0.2597 -0.7142  0.6813
 2464SOL    HW218855   1.925   1.536   2.303  0.4495 -0.6436 -0.6498
 2465SOL     OW18856   2.868   0.019   6.847  0.5304  0.2556  0.1862
 2465SOL    HW118857   2.818   4.680   6.898  2.7893 -0.9730  0.9172
 2465SOL    HW218858   2.852   0.102   6.893 -0.9746 -1.3736  2.5680
 2466SOL     OW18859   3.217   3.922   7.717 -0.0700  0.0423 -1.3253
 2466SOL    HW118860   3.265   4.004   7.712 -1.5997  1.0087  0.0391
 2466SOL    HW218861   3.146   3.942   7.656  0.1052 -0.0152 -1.5507
 2467SOL     OW18862   1.212   4.691   2.387  0.1142  0.0714  0.0208
 2467SOL    HW118863   1.172   4.663   2.305  1.2899 -4.1566  0.8811
 2467SOL    HW218864   1.134   4.705   2.440 -0.4724 -1.9551 -0.2888
 2468SOL     OW18865   4.132   2.198   3.820 -0.6065 -0.0896  0.2820
 2468SOL    HW118866   4.153   2.124   3.877 -0.0606  0.7087  1.1279
 2468SOL    HW218867   4.134   2.153   3.736 -1.5136  1.0493 -0.3447
 2469SOL     OW18868   2.524   2.558   2.359 -0.2470  0.2583 -0.6318
 2469SOL    HW118869   2.515   2.651   2.380 -1.2596  0.3798 -1.5903
 2469SOL    HW218870   2.618   2.558   2.339 -0.7897  3.2625 -3.1956
 2470SOL     OW18871   4.589   1.581   0.444  0.2178  0.3299 -0.3682
 2470SOL    HW118872   4.525   1.640   0.405 -0.2355  0.3321  0.3877
 2470SOL    HW218873   4.667   1.636   0.442 -0.0930  0.8056  0.5672
 2471SOL     OW18874   3.421   2.659   6.554 -0.6489 -0.5525  0.0749
 2471SOL    HW118875   3.383   2.726   6.610 -1.6076 -0.2032 -0.9845
 2471SOL    HW218876   3.423   2.594   6.624 -1.5018  2.3023  2.7071
 2472SOL     OW18877   4.478   2.937  14.607 -0.5241 -0.2016 -0.7475
 2472SOL    HW118878   4.430   2.890  14.539 -0.0743 -2.1436  0.2755
 2472SOL    HW218879   4.423   3.013  14.625  1.0967  1.0020 -0.8590
 2473SOL     OW18880   1.490   1.927   6.010 -0.6220 -0.3580  0.2031
 2473SOL    HW118881   1.460   1.913   5.920 -1.5928  1.2819  0.2640
 2473SOL    HW218882   1.436   1.862   6.056 -0.2560 -0.8920 -0.1244
 2474SOL     OW18883   1.603   4.528  12.754 -0.1293  0.1127  0.1254
 2474SOL    HW118884   1.616   4.567  12.841  0.3229  2.9366 -1.1917
 2474SOL    HW218885   1.514   4.492  12.748 -1.2021  2.2877  2.6936
 2475SOL     OW18886   1.810   4.198   4.131 -0.4321 -0.7213  0.1579
 2475SOL    HW118887   1.807   4.182   4.037  0.9765  3.0274 -0.5148
 2475SOL    HW218888   1.784   4.290   4.132 -0.0452 -0.6131  0.6753
 2476SOL     OW18889   1.086   1.597   4.268  0.0933  0.1340  0.4128
 2476SOL    HW118890   1.001   1.618   4.307 -1.3238 -1.4144 -1.7775
 2476SOL    HW218891   1.135   1.565   4.344  0.9343 -1.2063 -0.6894
 2477SOL     OW18892   4.641   4.230  15.971 -0.2408 -0.7571  0.3479
 2477SOL    HW118893   4.599   4.144  15.964  0.1884 -0.8951 -0.4548
 2477SOL    HW218894   4.705   4.226  15.901 -0.5324 -2.0880  0.1522
 2478SOL     OW18895   0.602   4.566   1.285  0.0932 -0.2499  0.2142
 2478SOL    HW118896   0.529   4.524   1.240  1.2603 -2.0285 -0.0231
 2478SOL    HW218897   0.641   4.610   1.209 -2.6391 -2.2236 -2.3513
 2479SOL     OW18898   0.823   3.433   6.046  0.3526 -0.0250 -0.3254
 2479SOL    HW118899   0.882   3.358   6.046 -0.4320 -0.6481  0.4357
 2479SOL    HW218900   0.792   3.442   5.956  1.8508 -2.3098 -1.0586
 2480SOL     OW18901   4.234   4.577   4.943 -0.0044 -0.3909 -0.2961
 2480SOL    HW118902   4.196   4.490   4.932  0.5577 -0.9967  2.6038
 2480SOL    HW218903   4.296   4.582   4.870  0.6325  4.6861  0.6281
 2481SOL     OW18904   3.601   4.154  13.273  0.7616  0.0193 -0.3942
 2481SOL    HW118905   3.612   4.177  13.365 -1.8072  1.5526 -0.4761
 2481SOL    HW218906   3.538   4.223  13.253  1.1613  0.5298  0.1091
 2482SOL     OW18907   2.105   2.646   6.735 -0.3744 -0.1763 -0.1927
 2482SOL    HW118908   2.016   2.679   6.751 -0.1039  0.1503  0.6632
 2482SOL    HW218909   2.104   2.638   6.640 -1.0721 -2.6173  0.0196
 2483SOL     OW18910   2.847   3.568   5.191  0.0012  0.4594  0.2775
 2483SOL    HW118911   2.778   3.511   5.156  0.5300  0.8824 -1.4939
 2483SOL    HW218912   2.849   3.637   5.124 -0.6897 -0.2260 -0.4549
 2484SOL     OW18913   0.879   0.967  13.055 -0.0343  0.5960 -0.3420
 2484SOL    HW118914   0.971   0.943  13.069  0.1647  0.4469 -1.9021
 2484SOL    HW218915   0.881   1.058  13.085 -1.0964  0.8513 -1.0506
 2485SOL     OW18916   3.612   2.554   5.759 -0.1863 -0.0403  0.3630
 2485SOL    HW118917   3.643   2.507   5.837  0.9549 -1.8535 -1.1763
 2485SOL    HW218918   3.555   2.484   5.727  1.0112 -0.4523 -0.8804
 2486SOL     OW18919   1.726   4.418   7.705 -0.1658 -0.5879  0.3062
 2486SOL    HW118920   1.656   4.449   7.763 -0.9482  1.3198 -1.6175
 2486SOL    HW218921   1.687   4.405   7.618 -0.2932  0.2895  0.2267
 2487SOL     OW18922   3.442   0.555  13.330 -0.0422 -0.3653 -0.2031
 2487SOL    HW118923   3.535   0.570  13.315 -0.8064  2.6957 -1.8729
 2487SOL    HW218924   3.409   0.636  13.292  2.7452  0.7125 -0.2997
 2488SOL     OW18925   2.652   4.038   2.464 -0.2211  0.5012  0.4840
 2488SOL    HW118926   2.617   4.113   2.512 -1.1391  0.0012  0.6074
 2488SOL    HW218927   2.594   3.969   2.498  1.1353  1.1979  4.2681
 2489SOL     OW18928   0.440   1.926   0.132  0.1783 -0.1681 -0.3813
 2489SOL    HW118929   0.357   1.880   0.125  1.5074 -2.4276 -1.2030
 2489SOL    HW218930   0.470   1.927   0.041 -1.9275 -0.7357 -1.0816
 2490SOL     OW18931   3.667   3.805   9.739  0.0816 -0.5001 -0.1795
 2490SOL    HW118932   3.665   3.733   9.802 -0.6599  0.1345  0.5078
 2490SOL    HW218933   3.573   3.824   9.735  0.4940  1.0672 -2.2348
 2491SOL     OW18934   0.978   4.243  15.892  0.0584 -0.2671 -0.0262
 2491SOL    HW118935   0.994   4.293  15.812  4.6992  0.7757  1.5670
 2491SOL    HW218936   1.003   4.309  15.956  0.9990  0.8304 -1.5324
 2492SOL     OW18937   2.082   1.915   5.792 -0.0849 -0.1042 -0.1057
 2492SOL    HW118938   1.999   1.909   5.837 -0.5939 -2.9334 -1.4307
 2492SOL    HW218939   2.059   1.887   5.703  0.2663 -2.1157  0.4395
 2493SOL     OW18940   2.185   4.027   5.884 -0.0133 -0.3607 -0.7434
 2493SOL    HW118941   2.103   4.037   5.931  0.1401  0.7434 -0.7247
 2493SOL    HW218942   2.178   4.078   5.804 -1.8807  1.2765  0.4830
 2494SOL     OW18943   4.149   0.460  12.961  0.0391  0.4717 -0.3427
 2494SOL    HW118944   4.195   0.544  12.956  2.6598 -0.8550  1.5670
 2494SOL    HW218945   4.120   0.465  13.053 -0.3711 -0.1496 -0.4383
 2495SOL     OW18946   4.227   3.621   6.179 -0.6592 -0.1613 -0.2935
 2495SOL    HW118947   4.151   3.608   6.234 -0.7701 -0.0420 -0.4180
 2495SOL    HW218948   4.187   3.583   6.101  0.6631 -1.0141 -0.5716
 2496SOL     OW18949   3.509   2.513   8.086 -0.2786 -0.3243 -0.1826
 2496SOL    HW118950   3.475   2.602   8.091 -1.5000 -0.8078 -0.0250
 2496SOL    HW218951   3.604   2.530   8.089 -0.8147  2.1918  2.2233
 2497SOL     OW18952   3.106   2.285  11.490 -0.5310  0.1717 -0.5479
 2497SOL    HW118953   3.101   2.368  11.538  2.3744 -0.2154  0.4117
 2497SOL    HW218954   3.078   2.223  11.557 -2.0109  2.3496  0.8613
 2498SOL     OW18955   2.799   0.854   2.903  0.0126 -0.7816 -0.0474
 2498SOL    HW118956   2.723   0.831   2.956  0.5694 -0.3263  0.9396
 2498SOL    HW218957   2.864   0.797   2.943 -0.9919 -0.8808  1.4244
 2499SOL     OW18958   0.470   3.726   5.946 -0.5577  0.0198  0.0546
 2499SOL    HW118959   0.384   3.761   5.920 -0.2289  0.2068 -0.7667
 2499SOL    HW218960   0.439   3.643   5.981  0.3240  0.1202  1.0892
 2500SOL     OW18961   0.444   3.399   7.530 -0.2952 -0.6032 -0.0189
 2500SOL    HW118962   0.466   3.373   7.619 -1.1783 -1.3481 -0.0206
 2500SOL    HW218963   0.355   3.432   7.544  0.0574  1.2292 -2.0261
 2501SOL     OW18964   2.551   0.247  11.511 -0.1678  0.0031  0.0035
 2501SOL    HW118965   2.613   0.178  11.486 -1.1540 -1.0230  0.3943
 2501SOL    HW218966   2.497   0.272  11.436 -1.0086 -1.1316  0.2308
 2502SOL     OW18967   4.494   3.949   2.398 -0.1766  0.3004  0.0350
 2502SOL    HW118968   4.551   3.967   2.473 -0.0321  0.7343 -0.1813
 2502SOL    HW218969   4.500   4.024   2.339  0.8629  0.8033  0.7648
 2503SOL     OW18970   0.505   3.325   1.500 -0.2677 -0.3317  0.2753
 2503SOL    HW118971   0.565   3.334   1.426 -1.0267 -1.4160 -0.4776
 2503SOL    HW218972   0.429   3.317   1.442 -0.5325 -0.8499  0.6958
 2504SOL     OW18973   2.769   4.113   7.821  0.3815  0.0726  0.1294
 2504SOL    HW118974   2.759   4.208   7.825  2.1501  0.2260  0.9779
 2504SOL    HW218975   2.862   4.121   7.844  0.1240 -0.1009  1.2081
 2505SOL     OW18976   1.643   2.812   3.465 -0.2231 -0.7865  0.0234
 2505SOL    HW118977   1.611   2.733   3.420 -1.5679 -0.7257  0.8484
 2505SOL    HW218978   1.571   2.814   3.528  0.1890  0.0286  0.4560
 2506SOL     OW18979   2.348   1.780   6.035 -0.1907  0.0862  0.2148
 2506SOL    HW118980   2.260   1.782   5.997  0.3744  0.4107 -1.0580
 2506SOL    HW218981   2.343   1.708   6.097 -0.7356  1.5890  1.9352
 2507SOL     OW18982   0.219   0.269  13.413 -0.0910 -0.1934  0.1450
 2507SOL    HW118983   0.281   0.202  13.383 -0.3046 -0.6757  0.7732
 2507SOL    HW218984   0.138   0.224  13.386  0.0341 -0.5060  0.2848
 2508SOL     OW18985   0.718   3.427  11.126  0.3261 -0.3164  0.2594
 2508SOL    HW118986   0.672   3.511  11.126  0.4116 -0.2582 -2.5470
 2508SOL    HW218987   0.717   3.406  11.033 -0.1414  0.7987  0.0150
 2509SOL     OW18988   3.938   0.855   8.517 -0.2672 -0.0476  0.2672
 2509SOL    HW118989   3.986   0.783   8.557 -1.7368 -1.5759 -0.7424
 2509SOL    HW218990   3.886   0.805   8.454  0.1641  0.7076 -0.6862
 2510SOL     OW18991   0.930   1.231   6.906  0.2392 -0.1025 -0.7563
 2510SOL    HW118992   0.938   1.326   6.908  1.5551 -0.2184 -0.5061
 2510SOL    HW218993   0.927   1.212   7.000  1.0594 -0.8603 -0.8865
 2511SOL     OW18994   3.582   2.608   9.544 -0.5464  0.4369  0.0327
 2511SOL    HW118995   3.570   2.581   9.453  0.5702  0.1739 -0.0307
 2511SOL    HW218996   3.510   2.565   9.589 -1.1106  0.2390 -1.0442
 2512SOL     OW18997   1.822   3.864   6.076 -0.2471 -0.0910 -0.0125
 2512SOL    HW118998   1.774   3.911   6.008  1.7825  0.4983 -1.0393
 2512SOL    HW218999   1.777   3.899   6.153 -1.4351 -1.1756 -0.2197
 2513SOL     OW19000   0.027   3.620   4.080 -0.1277  0.4810 -0.2534
 2513SOL    HW119001   0.000   3.528   4.087 -1.6945  0.7533 -2.6681
 2513SOL    HW219002   0.098   3.633   4.143 -1.0465 -0.9240  1.0536
 2514SOL     OW19003   0.052   1.153   9.976 -0.2431  0.1707 -0.3265
 2514SOL    HW119004   0.078   1.082  10.035 -2.9754  1.2945  2.2329
 2514SOL    HW219005   4.683   1.167   9.994  0.2600  2.6142  0.3314
 2515SOL     OW19006   0.489   3.823   8.933 -0.8101 -0.4519 -0.0271
 2515SOL    HW119007   0.518   3.900   8.885  0.1372 -1.3599 -0.9335
 2515SOL    HW219008   0.438   3.772   8.871  1.6501 -2.6777 -0.2406
 2516SOL     OW19009   2.160   2.986   6.944  0.4453 -0.6614 -0.2395
 2516SOL    HW119010   2.096   2.966   7.013 -1.6621 -0.5129 -2.1586
 2516SOL    HW219011   2.239   2.979   6.998 -0.5846 -1.4754  1.1833
 2517SOL     OW19012   2.056   0.294   0.817 -0.3886  0.6282 -0.3350
 2517SOL    HW119013   1.983   0.287   0.755 -0.5425 -0.2598 -0.0532
 2517SOL    HW219014   2.121   0.331   0.757  0.4519  0.3341  0.3886
 2518SOL     OW19015   1.396   1.121   2.598 -0.1189 -0.7234  0.3379
 2518SOL    HW119016   1.378   1.131   2.505 -1.1809 -0.6864  0.5358
 2518SOL    HW219017   1.491   1.114   2.596 -0.0854  0.3286 -1.7268
 2519SOL     OW19018   4.075   1.351   5.887 -0.3015  0.6156  0.1413
 2519SOL    HW119019   4.058   1.440   5.856 -0.2653 -0.0497 -1.7907
 2519SOL    HW219020   4.068   1.363   5.982  0.7626  0.2800  0.2617
 2520SOL     OW19021   0.350   3.214   4.696 -0.3244  0.1884 -0.3911
 2520SOL    HW119022   0.263   3.201   4.659 -0.2550 -2.0415  0.2477
 2520SOL    HW219023   0.379   3.297   4.658 -0.2042 -0.7232 -2.2885
 2521SOL     OW19024   3.250   2.754   1.562  0.4397  0.3228  0.3310
 2521SOL    HW119025   3.246   2.691   1.634 -0.9058 -1.1934 -1.0659
 2521SOL    HW219026   3.171   2.803   1.581  0.0421 -0.4004  0.5542
 2522SOL     OW19027   2.321   0.057   1.209  0.2084 -0.1572 -0.7944
 2522SOL    HW119028   2.370   0.103   1.141  1.4482 -0.3646 -0.0385
 2522SOL    HW219029   2.266   4.714   1.168 -0.0040 -0.7528  0.4734
 2523SOL     OW19030   2.126   2.456   4.667 -0.0023  0.2555 -0.1351
 2523SOL    HW119031   2.094   2.400   4.737  0.8289 -0.9814 -0.7379
 2523SOL    HW219032   2.095   2.542   4.696 -1.0839 -0.4189  0.6753
 2524SOL     OW19033   1.000   0.748   7.522 -0.4888 -0.5214 -0.7005
 2524SOL    HW119034   0.907   0.764   7.537 -0.1184 -0.1603  1.2216
 2524SOL    HW219035   0.995   0.760   7.427  0.1467  0.6422 -0.5910
 2525SOL     OW19036   3.007   1.752   6.085  0.4040 -0.1476 -0.3332
 2525SOL    HW119037   3.082   1.757   6.144 -0.5532  0.0119  0.8619
 2525SOL    HW219038   3.028   1.676   6.031 -0.2005  0.1845 -1.0327
 2526SOL     OW19039   3.414   1.503  13.933 -0.0277  0.0818  0.5689
 2526SOL    HW119040   3.455   1.500  14.020 -0.7013  0.0616  0.8879
 2526SOL    HW219041   3.347   1.437  13.950 -0.7402  1.0755  1.6556
 2527SOL     OW19042   1.498   3.563   7.021  0.0824 -0.0455  0.2518
 2527SOL    HW119043   1.510   3.475   7.056 -3.5806 -1.5992 -2.2994
 2527SOL    HW219044   1.461   3.559   6.933  0.4812  1.1948  0.0196
 2528SOL     OW19045   3.550   3.547   6.551  0.1307 -0.4621  0.0899
 2528SOL    HW119046   3.481   3.610   6.571  0.1150  0.3592 -2.5308
 2528SOL    HW219047   3.531   3.529   6.459 -0.4698 -0.3041  0.1835
 2529SOL     OW19048   3.730   3.031   6.820  0.0949  0.1076  0.3928
 2529SOL    HW119049   3.693   3.075   6.743 -1.5027 -1.0894  0.4901
 2529SOL    HW219050   3.802   3.088   6.848  2.2987 -2.7392  0.4450
 2530SOL     OW19051   2.176   2.324   1.805  0.4016  0.3324  0.0172
 2530SOL    HW119052   2.271   2.310   1.795  0.1201 -2.0688  0.7684
 2530SOL    HW219053   2.143   2.244   1.764 -1.5830  0.0698  2.1527
 2531SOL     OW19054   4.180   3.859   1.895 -0.1772  0.0409  0.0566
 2531SOL    HW119055   4.184   3.803   1.818 -0.4747  0.3213 -0.1624
 2531SOL    HW219056   4.265   3.903   1.901 -0.8429  1.5683 -1.8294
 2532SOL     OW19057   3.548   1.100   2.596 -0.1706  0.1375  0.1282
 2532SOL    HW119058   3.561   1.082   2.503 -0.0765  1.4505 -0.1041
 2532SOL    HW219059   3.454   1.116   2.592 -0.2772 -0.1117  1.7293
 2533SOL     OW19060   2.849   1.470  17.131  0.1281 -0.4243  0.6694
 2533SOL    HW119061   2.778   1.521  17.093  1.9636  1.5374 -0.1564
 2533SOL    HW219062   2.928   1.524  17.134  0.2901 -0.6087 -0.0869
 2534SOL     OW19063   4.437   2.360   6.282  0.0594 -0.3875 -0.0866
 2534SOL    HW119064   4.486   2.384   6.361  0.9477 -1.5774 -0.2744
 2534SOL    HW219065   4.350   2.388   6.308  1.2886  1.0800  2.4999
 2535SOL     OW19066   2.322   2.914   8.669  0.0236 -0.1639 -0.4289
 2535SOL    HW119067   2.339   2.825   8.700  0.0025  0.0018  0.0553
 2535SOL    HW219068   2.403   2.964   8.679 -0.6095  0.9690 -0.8774
 2536SOL     OW19069   3.646   4.701   7.408  0.3532  0.0861 -0.2879
 2536SOL    HW119070   3.696   4.699   7.326 -1.1859  0.2146 -1.2290
 2536SOL    HW219071   3.663   4.613   7.443  1.7826  0.2648 -0.5506
 2537SOL     OW19072   2.521   2.483   3.178 -0.3254 -0.2472 -0.1892
 2537SOL    HW119073   2.568   2.543   3.236 -0.6244 -0.3591  0.1688
 2537SOL    HW219074   2.447   2.460   3.233 -1.5759  2.2269 -0.8097
 2538SOL     OW19075   3.529   1.468  16.841 -0.0026 -0.2699  0.1219
 2538SOL    HW119076   3.522   1.502  16.752 -0.5253 -2.4781 -0.6955
 2538SOL    HW219077   3.455   1.408  16.829  0.6099 -0.8844 -0.5893
 2539SOL     OW19078   3.691   2.770   7.975  0.0286 -0.1164  0.3751
 2539SOL    HW119079   3.726   2.741   7.891  2.4516  1.7939  0.7389
 2539SOL    HW219080   3.712   2.863   7.985 -0.5712  0.3711 -2.9147
 2540SOL     OW19081   3.257   3.153   6.941  0.6216 -0.4624  0.4196
 2540SOL    HW119082   3.317   3.170   6.868  2.1789 -0.8743  1.6052
 2540SOL    HW219083   3.186   3.110   6.894  0.4277  1.2914 -0.9022
 2541SOL     OW19084   1.561   2.784  10.806 -0.4678 -0.4558  0.1590
 2541SOL    HW119085   1.509   2.754  10.880 -0.9219 -1.3640 -0.5389
 2541SOL    HW219086   1.542   2.877  10.792  0.8644 -0.1273  0.4523
 2542SOL     OW19087   0.433   0.087   3.292 -0.2430 -0.3514 -0.0744
 2542SOL    HW119088   0.496   0.152   3.261 -1.3784  0.8717  0.1413
 2542SOL    HW219089   0.498   0.017   3.284 -1.7673 -1.8499  0.5979
 2543SOL     OW19090   1.349   4.704   0.357  0.4741 -0.1989 -0.1097
 2543SOL    HW119091   1.406   4.708   0.434  1.8033  1.3503 -1.2123
 2543SOL    HW219092   1.354   0.069   0.322 -0.0603  0.3114  1.1058
 2544SOL     OW19093   3.891   1.611   3.022 -0.0759 -0.3814  0.0880
 2544SOL    HW119094   3.872   1.658   3.103  0.0563 -2.0308  1.0798
 2544SOL    HW219095   3.802   1.597   2.989  0.0516  1.1052 -0.8822
 2545SOL     OW19096   4.524   0.646   6.541  0.7721 -0.0778  0.2353
 2545SOL    HW119097   4.609   0.623   6.579 -0.2275 -3.6074  0.3377
 2545SOL    HW219098   4.547   0.613   6.453 -0.1765 -0.6057  0.1843
 2546SOL     OW19099   1.906   2.445   1.579 -0.4359 -0.0296  0.0087
 2546SOL    HW119100   1.835   2.382   1.567 -1.5319  1.1782  0.1025
 2546SOL    HW219101   1.955   2.399   1.647  0.9582 -0.1849 -1.1158
 2547SOL     OW19102   0.808   2.570  14.314 -0.2377 -0.6727  0.3117
 2547SOL    HW119103   0.837   2.649  14.267 -0.6273  0.1911  1.5241
 2547SOL    HW219104   0.763   2.513  14.252 -0.2090  0.3063 -0.6238
 2548SOL     OW19105   1.592   2.228  14.716  0.2451  0.9630 -0.2495
 2548SOL    HW119106   1.572   2.196  14.628 -2.0778 -0.6852  0.8926
 2548SOL    HW219107   1.512   2.280  14.727 -0.2339  0.1456  0.1190
 2549SOL     OW19108   2.350   0.989   7.320 -0.0225  0.2390  0.4753
 2549SOL    HW119109   2.309   0.949   7.244 -1.5815 -0.0322  1.4451
 2549SOL    HW219110   2.283   0.985   7.389 -0.2071  1.8514  0.3793
 2550SOL     OW19111   4.367   2.411   8.933  0.2753 -0.4383 -0.1902
 2550SOL    HW119112   4.409   2.326   8.918  1.5671  0.1028  0.2950
 2550SOL    HW219113   4.371   2.410   9.028 -3.3891  0.5974 -0.0168
 2551SOL     OW19114   0.014   3.783   4.869 -0.8513 -0.1086  0.0075
 2551SOL    HW119115   0.065   3.711   4.833  1.4557  1.6892 -0.2976
 2551SOL    HW219116   4.701   3.741   4.947 -0.5800 -0.9111 -0.3014
 2552SOL     OW19117   3.898   2.485   2.413  0.5339  0.5534  0.6121
 2552SOL    HW119118   3.805   2.485   2.437  0.1424 -2.2500 -0.9194
 2552SOL    HW219119   3.935   2.416   2.468 -0.1336 -0.0982  0.2305
 2553SOL     OW19120   3.040   1.177  14.474  0.1022 -0.5589 -0.1353
 2553SOL    HW119121   2.969   1.126  14.512 -0.6295 -1.3074 -2.5009
 2553SOL    HW219122   3.079   1.233  14.541  1.2936 -1.8956  0.2882
 2554SOL     OW19123   3.273   1.261   3.497  0.6554 -0.0396 -0.5011
 2554SOL    HW119124   3.361   1.283   3.469  0.3948  1.0678 -0.4267
 2554SOL    HW219125   3.257   1.186   3.439  1.1744  1.1695 -2.2155
 2555SOL     OW19126   1.728   1.792   4.396  0.0962 -0.0762 -0.2317
 2555SOL    HW119127   1.813   1.820   4.430 -0.8722 -0.0389  2.1456
 2555SOL    HW219128   1.712   1.860   4.330  0.6206  1.8247  1.5876
 2556SOL     OW19129   1.495   1.516   8.910  0.1000  0.0980  0.3992
 2556SOL    HW119130   1.530   1.538   8.996  0.9099 -2.8445  0.7988
 2556SOL    HW219131   1.570   1.517   8.851  0.0205 -1.9415  0.2677
 2557SOL     OW19132   3.432   0.859   8.462 -0.1892  0.1214 -0.0860
 2557SOL    HW119133   3.407   0.898   8.546  1.1332  1.6705 -0.4016
 2557SOL    HW219134   3.516   0.825   8.494 -0.8491 -1.9506 -0.5377
 2558SOL     OW19135   4.154   1.235  11.926 -0.0715  0.2664 -0.2682
 2558SOL    HW119136   4.166   1.257  11.834  1.0471 -1.1504 -0.4692
 2558SOL    HW219137   4.200   1.151  11.927 -1.8050 -0.7409 -3.2226
 2559SOL     OW19138   3.314   4.369   3.872 -0.8580  0.1881 -0.3480
 2559SOL    HW119139   3.388   4.315   3.844 -0.4498  1.5186 -1.8335
 2559SOL    HW219140   3.243   4.330   3.822 -0.7731  0.1855 -0.4657
 2560SOL     OW19141   0.021   0.112  13.292 -0.3548 -0.0954  0.2864
 2560SOL    HW119142   0.059   0.043  13.236  2.5454 -0.4500  2.7265
 2560SOL    HW219143   4.667   0.130  13.240 -0.3493  2.8030  1.2792
 2561SOL     OW19144   1.547   1.739   9.425  0.0652 -0.1548  0.2459
 2561SOL    HW119145   1.508   1.770   9.507 -0.6951 -1.9007  0.5528
 2561SOL    HW219146   1.519   1.648   9.429 -0.4344 -0.0596 -1.0994
 2562SOL     OW19147   0.151   1.417   6.911  0.4295  0.2617 -0.3869
 2562SOL    HW119148   0.155   1.419   7.007  1.0308 -1.3545 -0.3825
 2562SOL    HW219149   0.236   1.461   6.902  0.4418  0.1375 -0.8533
 2563SOL     OW19150   2.942   4.271   1.940 -0.2257 -0.4172 -0.4372
 2563SOL    HW119151   2.914   4.278   2.031 -0.2462 -2.2531 -0.3027
 2563SOL    HW219152   3.016   4.332   1.943 -0.3933 -0.1531 -1.6061
 2564SOL     OW19153   4.081   1.736  17.471  0.1402 -0.0094  0.2364
 2564SOL    HW119154   3.994   1.771  17.458 -0.0964 -0.4949  0.4829
 2564SOL    HW219155   4.135   1.796  17.421 -0.8239  1.6146  1.1489
 2565SOL     OW19156   3.398   0.432   8.979  0.2894  0.4299  0.6405
 2565SOL    HW119157   3.476   0.400   8.934 -0.6963  1.6519 -1.9316
 2565SOL    HW219158   3.429   0.440   9.069  1.6309  1.4699  0.0946
 2566SOL     OW19159   3.491   2.029   5.052  0.3573 -0.6803 -0.2535
 2566SOL    HW119160   3.571   2.072   5.023 -0.1564  0.8752  0.6104
 2566SOL    HW219161   3.518   1.943   5.085  0.6523 -0.6725 -0.4818
 2567SOL     OW19162   3.655   3.870   1.357  0.2264  0.4517  0.0026
 2567SOL    HW119163   3.621   3.863   1.446  0.9621 -1.9571  0.1098
 2567SOL    HW219164   3.569   3.861   1.317 -0.0479 -1.5100  1.0336
 2568SOL     OW19165   3.584   1.549  17.555 -0.3578 -0.1790  0.2793
 2568SOL    HW119166   3.518   1.589  17.611  1.1456  3.0448 -0.2399
 2568SOL    HW219167   3.561   1.456  17.562  0.4961 -0.2965  1.6195
 2569SOL     OW19168   3.006   0.127   1.660 -0.4162 -0.2919  0.2056
 2569SOL    HW119169   2.973   0.210   1.696  1.1802  0.4541 -0.0422
 2569SOL    HW219170   2.924   0.101   1.619 -1.3569  2.6703  0.1674
 2570SOL     OW19171   2.573   0.337   3.051 -0.3038  0.2263  0.1478
 2570SOL    HW119172   2.526   0.407   3.098  0.2551 -0.3138  1.4986
 2570SOL    HW219173   2.524   0.343   2.969  1.4052 -0.9682 -0.9524
 2571SOL     OW19174   3.301   1.803   8.818  0.0021 -0.6164 -0.7501
 2571SOL    HW119175   3.293   1.765   8.731  1.7972  0.2991 -1.3129
 2571SOL    HW219176   3.370   1.868   8.807 -0.7816  0.3641  0.0600
 2572SOL     OW19177   2.024   2.465  11.184  0.1601  0.0746 -0.0459
 2572SOL    HW119178   2.088   2.506  11.243  0.5174 -1.7286  0.8293
 2572SOL    HW219179   2.077   2.420  11.118 -1.8388 -0.1636 -1.4945
 2573SOL     OW19180   4.668   1.360   3.558  0.3238 -0.1289  0.3309
 2573SOL    HW119181   0.015   1.304   3.589  0.8091 -0.5603 -1.5637
 2573SOL    HW219182   4.709   1.376   3.473  0.2438 -1.7106 -0.0030
 2574SOL     OW19183   2.765   3.903   7.195 -0.0610  0.1307  0.1525
 2574SOL    HW119184   2.835   3.927   7.134 -0.6086  0.3986 -0.3773
 2574SOL    HW219185   2.696   3.965   7.170  0.7759  0.0735 -2.3302
 2575SOL     OW19186   3.119   4.163   6.445 -0.5328 -0.0341 -0.5244
 2575SOL    HW119187   3.113   4.259   6.438  1.9178  0.2307  0.9455
 2575SOL    HW219188   3.074   4.144   6.362  0.0764 -0.7009 -0.7028
 2576SOL     OW19189   4.217   2.577   5.496  0.1050  0.6580  0.7021
 2576SOL    HW119190   4.258   2.504   5.450  0.3962 -0.9993  3.6435
 2576SOL    HW219191   4.285   2.619   5.549  1.8423 -2.7021  1.1494
 2577SOL     OW19192   4.090   3.366   6.923  0.1135 -0.6801 -0.2123
 2577SOL    HW119193   4.013   3.361   6.980 -0.1997  2.0431 -0.3784
 2577SOL    HW219194   4.151   3.424   6.969 -2.6076  0.1383  2.3887
 2578SOL     OW19195   3.902   4.606   7.709  0.1865 -0.2789 -0.2535
 2578SOL    HW119196   3.993   4.603   7.681 -0.3031 -1.0784 -1.7413
 2578SOL    HW219197   3.901   4.688   7.759  0.4355 -1.5218  1.7820
 2579SOL     OW19198   2.396   2.456  10.757 -0.4081 -0.3496  0.0087
 2579SOL    HW119199   2.436   2.388  10.811  0.8592  0.7008  0.4035
 2579SOL    HW219200   2.475   2.511  10.752 -0.4582 -0.2892 -0.1319
 2580SOL     OW19201   1.602   1.541   9.156 -0.3691  0.3980 -0.0074
 2580SOL    HW119202   1.512   1.542   9.189 -0.5818  0.2183 -0.5752
 2580SOL    HW219203   1.652   1.491   9.221  1.0037  0.8810 -0.6791
 2581SOL     OW19204   0.147   3.082   1.520 -1.2276 -0.1283 -0.3703
 2581SOL    HW119205   0.082   3.080   1.450 -3.0695  0.7297  1.3208
 2581SOL    HW219206   0.164   3.176   1.527  3.0034 -1.0292  1.3745
 2582SOL     OW19207   4.613   1.562   5.411  0.3206  0.3466 -0.2997
 2582SOL    HW119208   4.623   1.647   5.368  0.0321  0.0270 -0.9847
 2582SOL    HW219209   4.698   1.565   5.456 -0.1204 -1.6244  0.6443
 2583SOL     OW19210   3.732   2.788   5.313 -0.2819  0.3329 -0.6023
 2583SOL    HW119211   3.782   2.730   5.256  1.3232  0.6732  0.4724
 2583SOL    HW219212   3.704   2.727   5.382  0.9430 -3.0160 -3.1023
 2584SOL     OW19213   3.222   1.033   3.348 -0.1786  0.1773 -1.1050
 2584SOL    HW119214   3.146   1.065   3.301 -1.0860  0.0437  0.2677
 2584SOL    HW219215   3.203   0.942   3.371 -0.0651  0.5539  0.5188
 2585SOL     OW19216   3.636   4.327   8.002  0.1409 -0.4627 -0.4366
 2585SOL    HW119217   3.691   4.317   8.079  0.3125 -0.6163 -0.5790
 2585SOL    HW219218   3.557   4.290   8.041  0.2541 -1.9782 -1.6489
 2586SOL     OW19219   2.712   3.458   2.907  0.4756 -0.8696  0.1170
 2586SOL    HW119220   2.652   3.503   2.847 -1.8192 -2.8867  0.8811
 2586SOL    HW219221   2.785   3.519   2.915  1.3213 -2.0661  1.1894
 2587SOL     OW19222   3.010   2.519   6.051 -0.7170 -0.4118 -0.0894
 2587SOL    HW119223   3.096   2.477   6.048 -0.6384 -0.4560  2.9392
 2587SOL    HW219224   2.963   2.477   5.979 -1.8179  1.8114 -0.6387
 2588SOL     OW19225   2.670   1.181   8.319 -0.2960 -0.3834 -0.0698
 2588SOL    HW119226   2.623   1.264   8.322  1.1125  0.3553  1.2293
 2588SOL    HW219227   2.730   1.190   8.393  0.0408 -1.7583 -0.1722
 2589SOL     OW19228   1.574   3.119   6.432  0.6130  0.5611 -0.1679
 2589SOL    HW119229   1.589   3.191   6.370  3.9212  1.5406  1.7956
 2589SOL    HW219230   1.551   3.171   6.509  2.6155  1.1123  0.0600
 2590SOL     OW19231   3.012   3.076   9.475 -0.6778  0.3867  0.3917
 2590SOL    HW119232   3.055   2.991   9.471 -0.1367  0.7135 -0.7090
 2590SOL    HW219233   3.081   3.120   9.525 -1.2248  0.5697  0.9873
 2591SOL     OW19234   1.742   3.963   0.146 -0.1764 -0.1160  0.2214
 2591SOL    HW119235   1.737   3.960   0.241 -1.4992 -3.1958  0.0723
 2591SOL    HW219236   1.654   3.933   0.121 -0.1193 -0.0075 -0.1103
 2592SOL     OW19237   3.062   2.794   6.215  0.1202 -0.0550 -0.4156
 2592SOL    HW119238   3.000   2.760   6.150 -0.0574  0.1010 -0.3301
 2592SOL    HW219239   3.142   2.796   6.163 -0.2769  3.6334 -0.8986
 2593SOL     OW19240   4.639   4.433  11.826 -0.2534  0.0671  0.3989
 2593SOL    HW119241   4.704   4.412  11.759 -1.1536  2.4908 -1.2170
 2593SOL    HW219242   4.639   4.528  11.833  0.4831 -0.0225  1.7863
 2594SOL     OW19243   1.865   0.096   6.317 -0.3551  0.2155 -0.1041
 2594SOL    HW119244   1.795   0.130   6.260  0.4740  2.9924  0.5417
 2594SOL    HW219245   1.809   0.057   6.384  1.8150 -1.7877  0.5288
 2595SOL     OW19246   1.624   4.656   4.699  0.2921  0.2775 -0.6521
 2595SOL    HW119247   1.592   4.704   4.775 -0.9767  0.5390 -1.3365
 2595SOL    HW219248   1.718   4.670   4.703  0.2231 -0.4243  3.3701
 2596SOL     OW19249   3.251   1.881   5.853  0.2493  0.8257  0.1498
 2596SOL    HW119250   3.222   1.795   5.822  0.9887  0.5462  0.2288
 2596SOL    HW219251   3.254   1.928   5.769 -0.3061  1.2420  0.3717
 2597SOL     OW19252   1.661   0.855   7.829  0.3188  0.3368 -0.7256
 2597SOL    HW119253   1.747   0.878   7.865 -0.6605  2.0934  0.5192
 2597SOL    HW219254   1.691   0.813   7.749 -0.0813  0.6243 -1.0309
 2598SOL     OW19255   0.723   3.851   8.151  0.3318  0.1743  0.0035
 2598SOL    HW119256   0.811   3.878   8.122  0.3235 -0.5725 -0.6964
 2598SOL    HW219257   0.663   3.911   8.107  1.7400  2.4050  1.1144
 2599SOL     OW19258   0.019   3.318  12.729  0.0680 -0.7522 -0.3234
 2599SOL    HW119259   0.088   3.321  12.663  0.2822 -1.1253 -0.1158
 2599SOL    HW219260   4.680   3.251  12.702  0.0725 -1.7955  2.2734
 2600SOL     OW19261   3.251   4.721  13.663 -0.2131  0.0433 -0.1697
 2600SOL    HW119262   3.216   0.043  13.740  2.7304  0.3154  0.9960
 2600SOL    HW219263   3.305   0.069  13.631  0.3294  0.0764  0.8299
 2601SOL     OW19264   2.640   1.241   6.464  0.2154 -0.1163  0.3147
 2601SOL    HW119265   2.580   1.315   6.459 -0.2833 -0.5770 -0.5196
 2601SOL    HW219266   2.695   1.248   6.387  0.7000 -1.3148  0.5454
 2602SOL     OW19267   1.608   3.425   3.853  0.7002 -0.2423 -0.2721
 2602SOL    HW119268   1.540   3.489   3.832 -0.1275 -0.6731  1.1391
 2602SOL    HW219269   1.662   3.418   3.774  0.6947  2.8013 -0.5732
 2603SOL     OW19270   1.220   0.219   4.063  0.5330  0.1250  0.1340
 2603SOL    HW119271   1.299   0.259   4.026 -0.6540  0.9841 -1.4764
 2603SOL    HW219272   1.160   0.239   3.991 -1.9714 -3.8604  1.1163
 2604SOL     OW19273   0.369   0.049   1.887  0.2360  0.2212 -0.2242
 2604SOL    HW119274   0.321   4.692   1.871  0.5030  0.0107  0.0360
 2604SOL    HW219275   0.297   0.111   1.894  0.7408  0.6933  0.8065
 2605SOL     OW19276   2.797   3.655  10.178  0.3657  0.0348 -0.0405
 2605SOL    HW119277   2.748   3.602  10.241  0.6555 -2.0182 -1.5463
 2605SOL    HW219278   2.843   3.709  10.242  0.6609 -1.1069  0.7163
 2606SOL     OW19279   2.939   0.443  15.440 -0.1291  0.3684  0.1469
 2606SOL    HW119280   2.961   0.453  15.347 -1.8731 -1.6530 -0.4841
 2606SOL    HW219281   3.007   0.495  15.482 -0.8511  0.4311  1.2392
 2607SOL     OW19282   2.133   0.855   8.113  0.0663  0.0244 -0.2131
 2607SOL    HW119283   2.163   0.917   8.180  2.3649 -2.8494  1.3846
 2607SOL    HW219284   2.209   0.800   8.095  0.1303 -0.6485  2.1602
 2608SOL     OW19285   4.229   3.373   7.543  0.3748  1.0597  0.0496
 2608SOL    HW119286   4.188   3.289   7.524 -0.8232  1.3926  1.1765
 2608SOL    HW219287   4.291   3.343   7.609  0.1698 -1.4665 -0.9035
 2609SOL     OW19288   0.064   0.238   2.797 -0.0075 -0.0343 -0.1335
 2609SOL    HW119289   0.085   0.328   2.774 -1.4521  0.7501  1.6722
 2609SOL    HW219290   0.141   0.185   2.774 -1.5766 -2.3229 -0.1613
 2610SOL     OW19291   1.707   1.840   9.218  0.5099 -0.2778 -0.2752
 2610SOL    HW119292   1.696   1.927   9.256  0.9890 -0.4955  0.3668
 2610SOL    HW219293   1.628   1.793   9.245 -0.8318  0.5602 -2.7074
 2611SOL     OW19294   3.022   0.320  17.381  0.1049 -0.0247 -0.0071
 2611SOL    HW119295   3.058   0.335  17.468  0.7155  1.5348 -0.5250
 2611SOL    HW219296   3.037   0.227  17.368 -0.1447 -0.5285  3.3975
 2612SOL     OW19297   0.493   1.761  15.226 -0.0989 -0.0895 -0.1472
 2612SOL    HW119298   0.465   1.682  15.272  0.7470 -1.4288 -1.9583
 2612SOL    HW219299   0.442   1.749  15.146 -1.0333 -2.5548  0.8104
 2613SOL     OW19300   4.237   2.393   3.265 -0.3142 -0.9176 -0.1050
 2613SOL    HW119301   4.317   2.408   3.215  0.2231  0.1964  1.1124
 2613SOL    HW219302   4.168   2.400   3.199 -0.4874 -1.1703  0.0460
 2614SOL     OW19303   2.091   4.714   1.557  0.1601  0.0827 -0.0742
 2614SOL    HW119304   2.023   0.029   1.611 -2.2751 -0.8077 -2.5274
 2614SOL    HW219305   2.037   4.667   1.494 -0.2913 -0.4964  0.7423
 2615SOL     OW19306   3.636   3.215  11.490 -0.2946  0.4648  0.4712
 2615SOL    HW119307   3.725   3.219  11.454 -1.0308 -0.2040 -1.3948
 2615SOL    HW219308   3.639   3.242  11.582 -0.2243  1.8255  0.0696
 2616SOL     OW19309   0.720   2.019   8.761  0.0551  0.1042  0.3392
 2616SOL    HW119310   0.695   1.996   8.672 -0.5466 -0.1666  0.5738
 2616SOL    HW219311   0.811   1.992   8.775 -0.1820  0.1132  1.8946
 2617SOL     OW19312   0.262   2.919  12.824  0.5239  0.1909  0.0401
 2617SOL    HW119313   0.245   2.988  12.887 -0.6749  1.7651 -2.0173
 2617SOL    HW219314   0.355   2.898  12.838  1.2080  1.8270 -2.0887
 2618SOL     OW19315   2.485   2.092  15.722 -0.1802 -0.3034 -0.4550
 2618SOL    HW119316   2.407   2.134  15.685 -0.2461  1.5123  1.7432
 2618SOL    HW219317   2.451   2.031  15.787  3.0187 -1.2673  0.3001
 2619SOL     OW19318   2.215   0.234   8.272  0.2466  0.0111 -0.0296
 2619SOL    HW119319   2.175   0.286   8.342  1.2306 -0.4981  0.9114
 2619SOL    HW219320   2.230   0.153   8.322  0.6837  0.1185  0.0155
 2620SOL     OW19321   2.126   4.061   4.165 -0.7182  0.6443 -0.1348
 2620SOL    HW119322   2.219   4.040   4.161 -0.5016  1.2224  1.7582
 2620SOL    HW219323   2.097   4.008   4.240  2.4492 -0.0888  0.5893
 2621SOL     OW19324   2.732   3.547   0.305  0.2343 -0.2897 -0.2425
 2621SOL    HW119325   2.731   3.629   0.354  0.1625 -1.8397  2.3262
 2621SOL    HW219326   2.653   3.536   0.252  0.7715  0.1868 -1.1503
 2622SOL     OW19327   3.543   2.736  11.835 -0.4506  0.0540 -0.2225
 2622SOL    HW119328   3.567   2.806  11.895  1.8519 -1.3519  0.4782
 2622SOL    HW219329   3.564   2.662  11.892 -0.1091  1.1429  1.0696
 2623SOL     OW19330   3.379   4.308  13.208 -0.8262  0.2003 -0.1503
 2623SOL    HW119331   3.360   4.230  13.155 -1.8913 -0.0862  0.6519
 2623SOL    HW219332   3.349   4.372  13.143  1.5309 -0.5044 -1.9360
 2624SOL     OW19333   2.372   0.606   1.024 -0.4355  0.1439 -0.6772
 2624SOL    HW119334   2.371   0.615   1.120  3.1211  0.0260 -0.6467
 2624SOL    HW219335   2.310   0.532   1.023  2.8169 -2.6016  0.9631
 2625SOL     OW19336   3.519   1.247   4.277  0.4819  0.4478  0.7700
 2625SOL    HW119337   3.613   1.236   4.268  0.6385  2.9638 -0.5660
 2625SOL    HW219338   3.515   1.338   4.305 -0.3851  1.1953 -1.8213
 2626SOL     OW19339   3.711   3.555  13.314  0.0586 -0.2535  0.3381
 2626SOL    HW119340   3.727   3.475  13.364 -0.1482  0.0220  0.8477
 2626SOL    HW219341   3.744   3.525  13.229  0.7330  1.3716  0.0297
 2627SOL     OW19342   3.735   4.278   8.265 -0.1395  0.2049 -0.6072
 2627SOL    HW119343   3.710   4.185   8.273 -0.6477  0.4932  1.3484
 2627SOL    HW219344   3.715   4.317   8.350 -2.1275 -1.0996 -0.4720
 2628SOL     OW19345   3.227   3.968   5.099 -0.1110  0.4875 -0.3395
 2628SOL    HW119346   3.233   3.953   5.193 -0.4321 -0.7111 -0.5081
 2628SOL    HW219347   3.312   3.930   5.076 -0.5272  0.6110 -2.1358
 2629SOL     OW19348   1.787   2.894   6.935  0.7366  0.5280 -0.0168
 2629SOL    HW119349   1.830   2.858   6.857  0.0361  0.3846 -0.3304
 2629SOL    HW219350   1.751   2.974   6.898 -1.5650 -0.3031  0.4158
 2630SOL     OW19351   2.507   4.129   9.381  0.5477  0.5793 -0.2591
 2630SOL    HW119352   2.581   4.095   9.331  0.1958  0.1317 -0.4792
 2630SOL    HW219353   2.489   4.076   9.459  1.4429 -2.2082 -1.9389
 2631SOL     OW19354   2.995   3.693   2.370  0.9441 -0.4925 -0.0264
 2631SOL    HW119355   3.011   3.748   2.293  0.2696 -0.3855 -0.0856
 2631SOL    HW219356   3.070   3.634   2.364 -1.1030 -2.8051 -2.4149
 2632SOL     OW19357   3.529   2.722   4.396 -0.0725  0.8821  0.1686
 2632SOL    HW119358   3.505   2.806   4.358  1.4902  1.7702  1.1969
 2632SOL    HW219359   3.450   2.690   4.441  0.7838 -1.0576  0.3139
 2633SOL     OW19360   0.569   1.809   6.887  0.1815  0.0747  0.6248
 2633SOL    HW119361   0.661   1.788   6.872 -0.1863 -1.7815  0.9375
 2633SOL    HW219362   0.568   1.900   6.856 -0.7381 -0.4215 -0.8269
 2634SOL     OW19363   3.510   1.122   8.611 -0.4877 -0.3395  0.2562
 2634SOL    HW119364   3.543   1.131   8.521  2.7452 -0.1905  1.4602
 2634SOL    HW219365   3.498   1.215   8.630 -3.1430 -1.1684  2.4217
 2635SOL     OW19366   4.704   4.685   4.784  0.2144 -0.2851  0.2829
 2635SOL    HW119367   4.659   0.011   4.852  2.2950 -0.7077  2.0044
 2635SOL    HW219368   4.661   4.712   4.703  1.6698 -1.6391 -0.9487
 2636SOL     OW19369   0.621   0.836  16.349 -0.0804 -0.4608 -0.3271
 2636SOL    HW119370   0.638   0.779  16.274  1.4934  0.9256 -1.0033
 2636SOL    HW219371   0.666   0.788  16.419 -0.5445 -0.0211  0.2757
 2637SOL     OW19372   2.550   4.580   9.060 -0.1060  0.5743  0.1568
 2637SOL    HW119373   2.513   4.605   8.976  0.1798 -2.7340 -0.9525
 2637SOL    HW219374   2.631   4.631   9.050  1.4371 -1.5964  1.4505
 2638SOL     OW19375   2.214   1.556   5.659  0.4426  0.0854  0.2840
 2638SOL    HW119376   2.177   1.570   5.747 -1.2283 -2.9885  0.0438
 2638SOL    HW219377   2.269   1.480   5.677  0.1233 -0.7653 -2.4221
 2639SOL     OW19378   0.340   3.275  12.640  0.2750 -0.3776  0.3637
 2639SOL    HW119379   0.391   3.194  12.630  3.7081  1.3895  3.5066
 2639SOL    HW219380   0.288   3.265  12.560  2.2815 -1.2271 -0.8432
 2640SOL     OW19381   2.593   0.451   0.329 -0.2073 -0.0538 -0.4440
 2640SOL    HW119382   2.499   0.459   0.342 -0.5151 -1.3403 -1.8717
 2640SOL    HW219383   2.620   0.541   0.311  0.9131  0.3435  3.1850
 2641SOL     OW19384   3.039   1.151   4.475  0.7099  0.1453  0.6294
 2641SOL    HW119385   3.087   1.139   4.393 -0.3635 -3.3988  0.5341
 2641SOL    HW219386   3.055   1.067   4.518  0.5739 -1.3485 -2.2596
 2642SOL     OW19387   1.219   3.889   4.276  0.6749  0.2105  0.4634
 2642SOL    HW119388   1.192   3.870   4.366 -0.3174  0.4387  0.2091
 2642SOL    HW219389   1.292   3.826   4.278  2.6754  2.4722 -1.6773
 2643SOL     OW19390   4.420   0.846   5.713 -0.7850  0.5604 -0.1315
 2643SOL    HW119391   4.360   0.921   5.712  1.0209  1.9907 -0.8706
 2643SOL    HW219392   4.497   0.896   5.742  0.4207 -2.1361  1.3301
 2644SOL     OW19393   4.073   2.281   4.254 -0.4496  0.2959  0.3006
 2644SOL    HW119394   4.084   2.186   4.258 -0.2671  0.3076  0.0407
 2644SOL    HW219395   3.981   2.297   4.230 -0.5253 -1.4143 -0.5434
 2645SOL     OW19396   1.268   2.978   5.266  0.6213 -0.1154 -0.2222
 2645SOL    HW119397   1.191   3.015   5.308 -0.0774 -0.2479 -1.3943
 2645SOL    HW219398   1.220   2.906   5.226  0.3920 -0.1047  0.0360
 2646SOL     OW19399   0.348   4.230   6.302  0.1098  0.2080  0.7814
 2646SOL    HW119400   0.420   4.198   6.249 -2.1801 -0.9088 -1.6518
 2646SOL    HW219401   0.280   4.173   6.266 -0.3730  0.3590  1.4360
 2647SOL     OW19402   2.998   3.723   9.687  0.1827  0.1580  0.4905
 2647SOL    HW119403   3.093   3.711   9.681 -0.5300 -3.5218 -3.5318
 2647SOL    HW219404   2.984   3.660   9.758  1.4859  0.7593  1.2795
 2648SOL     OW19405   0.564   1.170  11.568  0.5162  0.6497 -0.9566
 2648SOL    HW119406   0.551   1.091  11.517  0.6822  0.4780 -0.7356
 2648SOL    HW219407   0.629   1.214  11.513 -0.7019  1.5742 -1.6315
 2649SOL     OW19408   2.454   1.461  15.299  0.1711  0.2191 -0.0265
 2649SOL    HW119409   2.486   1.405  15.370  1.5525  1.5191  0.3824
 2649SOL    HW219410   2.435   1.545  15.341  1.1747  0.5439 -0.2348
 2650SOL     OW19411   4.338   1.296   2.822 -0.2228  0.1136  0.4371
 2650SOL    HW119412   4.392   1.289   2.743 -0.2209  0.0715  0.4421
 2650SOL    HW219413   4.269   1.358   2.798  1.1480  1.5773  0.2271
 2651SOL     OW19414   4.010   3.856  10.170 -0.1957  0.4348  0.2728
 2651SOL    HW119415   4.059   3.800  10.110 -2.3810 -2.9960  1.7372
 2651SOL    HW219416   4.015   3.801  10.247  0.2404  0.6389  0.3902
 2652SOL     OW19417   3.178   2.562  10.501  0.1285  0.1007  0.2535
 2652SOL    HW119418   3.129   2.505  10.442  0.9629 -1.1359  0.7428
 2652SOL    HW219419   3.260   2.513  10.505  0.5403  0.8339  0.9242
 2653SOL     OW19420   4.632   2.775  11.380 -0.2163  0.3931 -0.4612
 2653SOL    HW119421   4.654   2.690  11.419  1.7617  0.7682 -0.7603
 2653SOL    HW219422   4.672   2.838  11.440 -0.1365 -1.7423  1.7332
 2654SOL     OW19423   0.729   3.069   7.459  0.0574  0.2630  0.0269
 2654SOL    HW119424   0.740   3.163   7.476  0.3334  0.0489  0.9936
 2654SOL    HW219425   0.698   3.040   7.545  1.8272 -1.0970  0.2014
 2655SOL     OW19426   1.697   3.758   3.600  0.3190  0.1207  0.7454
 2655SOL    HW119427   1.788   3.740   3.622  0.7175 -0.6339 -1.4822
 2655SOL    HW219428   1.656   3.682   3.641 -2.0664  1.0509  0.1322
 2656SOL     OW19429   3.082   2.269   7.789  0.1055 -0.4737  0.3672
 2656SOL    HW119430   3.002   2.246   7.743  1.9892  0.4176 -3.3707
 2656SOL    HW219431   3.145   2.212   7.745  1.6670  2.2382 -0.9310
 2657SOL     OW19432   1.056   2.449   2.339 -0.0933  0.7168 -0.2436
 2657SOL    HW119433   1.023   2.364   2.311  1.5126  0.3607 -1.0926
 2657SOL    HW219434   1.094   2.430   2.425 -2.3160 -1.4229  0.2549
 2658SOL     OW19435   3.608   2.261   8.386 -0.3133 -0.5493  0.3973
 2658SOL    HW119436   3.697   2.284   8.412 -0.2795 -0.9666  0.6356
 2658SOL    HW219437   3.616   2.271   8.291  0.2916  2.7913  0.8012
 2659SOL     OW19438   3.541   2.835   6.354 -0.2307  0.1367 -0.9540
 2659SOL    HW119439   3.476   2.831   6.425  1.0092 -2.4653  0.0410
 2659SOL    HW219440   3.491   2.794   6.283  0.0000 -1.6052 -0.1148
 2660SOL     OW19441   2.757   2.337   5.975 -0.2123 -0.4162 -0.8368
 2660SOL    HW119442   2.706   2.354   5.895  1.5552 -1.5449 -2.1911
 2660SOL    HW219443   2.692   2.355   6.043  0.6052 -0.7206  0.0207
 2661SOL     OW19444   2.916   2.360   5.551  0.3372  0.0433  0.1781
 2661SOL    HW119445   2.884   2.298   5.617  0.2084  0.0821  0.1513
 2661SOL    HW219446   2.902   2.308   5.472 -0.3843  0.3528  0.1003
 2662SOL     OW19447   0.052   2.037   7.900  0.1472 -0.1153 -0.1018
 2662SOL    HW119448   4.700   2.055   7.845  0.5994  0.8041 -0.4201
 2662SOL    HW219449   0.125   2.063   7.844  0.9067 -0.6991  0.6140
 2663SOL     OW19450   4.095   0.254   0.746  0.0963 -0.2527 -0.4289
 2663SOL    HW119451   4.040   0.320   0.704  0.8643 -0.8625 -2.3434
 2663SOL    HW219452   4.096   0.289   0.836  2.3293  1.7792 -1.2286
 2664SOL     OW19453   2.323   4.105   5.374  0.2273 -0.1315 -0.1370
 2664SOL    HW119454   2.355   4.032   5.427 -0.8803 -1.1245 -0.8087
 2664SOL    HW219455   2.358   4.178   5.424 -0.1780  0.2463 -0.4056
 2665SOL     OW19456   3.251   3.579   7.587 -0.6311 -0.2906  0.1193
 2665SOL    HW119457   3.168   3.582   7.540  0.9511  2.3176 -2.4974
 2665SOL    HW219458   3.305   3.630   7.527  0.0926 -1.4849 -0.2653
 2666SOL     OW19459   2.972   4.602   8.932  0.3865 -0.1628  0.0648
 2666SOL    HW119460   3.066   4.612   8.919  0.1608  0.5324 -1.0304
 2666SOL    HW219461   2.949   4.556   8.851  1.0051 -0.3381 -0.0162
 2667SOL     OW19462   0.571   0.613  11.995  0.3571  0.3052 -0.2313
 2667SOL    HW119463   0.568   0.699  11.953 -1.9869  0.9079  1.1195
 2667SOL    HW219464   0.656   0.581  11.966  0.6977  0.6993  0.3312
 2668SOL     OW19465   3.882   0.946   2.726 -0.0533  0.0989 -0.0115
 2668SOL    HW119466   3.885   0.863   2.774 -1.1194  2.1016  3.5445
 2668SOL    HW219467   3.834   0.919   2.648 -0.6816  0.3027  0.2991
 2669SOL     OW19468   4.458   0.047   0.424  0.3628  0.1638  0.0940
 2669SOL    HW119469   4.500   0.121   0.468 -0.1130 -0.4752  1.6288
 2669SOL    HW219470   4.530   0.028   0.363  1.9710  1.1439  1.6962
 2670SOL     OW19471   0.492   4.449  13.159 -0.1497 -0.0050  0.0122
 2670SOL    HW119472   0.410   4.456  13.208 -1.1009 -3.1711 -1.1435
 2670SOL    HW219473   0.557   4.450  13.229  0.6028 -1.4679 -0.6639
 2671SOL     OW19474   0.899   2.308   1.435 -0.1131  0.3476 -0.9590
 2671SOL    HW119475   0.918   2.364   1.360  0.2363  1.1470 -0.2754
 2671SOL    HW219476   0.803   2.308   1.437 -0.0737 -0.7238  1.9191
 2672SOL     OW19477   1.430   1.800  15.358 -0.2875  0.2564 -0.4168
 2672SOL    HW119478   1.446   1.766  15.270  2.3238  2.0289 -0.5949
 2672SOL    HW219479   1.450   1.892  15.343  0.8298 -0.3674 -2.7786
 2673SOL     OW19480   2.842   1.137   3.785 -0.0459 -0.0369 -0.9495
 2673SOL    HW119481   2.754   1.108   3.761  0.0542  0.6279 -2.1043
 2673SOL    HW219482   2.822   1.183   3.867  0.2507 -1.7237  0.0645
 2674SOL     OW19483   1.536   4.039   1.437  0.2438 -0.2751 -0.0573
 2674SOL    HW119484   1.580   4.091   1.504  0.6821 -0.6922 -0.0238
 2674SOL    HW219485   1.518   4.104   1.370 -0.9170 -1.0545 -0.4895
 2675SOL     OW19486   1.698   2.022   7.542  0.1823  0.1293 -0.0095
 2675SOL    HW119487   1.776   1.969   7.526  0.0222  0.0301 -0.4748
 2675SOL    HW219488   1.716   2.076   7.619 -0.1032  2.1495 -1.3634
 2676SOL     OW19489   0.655   0.265  11.779 -0.1775  0.5485 -0.1388
 2676SOL    HW119490   0.654   0.360  11.791  1.5928  0.3868  1.3443
 2676SOL    HW219491   0.745   0.250  11.810 -0.7287  0.4087  1.4135
 2677SOL     OW19492   3.984   1.157   3.672 -0.3978  0.3555 -0.0573
 2677SOL    HW119493   4.047   1.091   3.702  0.2483  1.4174  0.9414
 2677SOL    HW219494   3.910   1.131   3.727 -2.1630  3.4369 -1.0225
 2678SOL     OW19495   0.866   0.688   2.115  0.1375 -0.0103 -0.6224
 2678SOL    HW119496   0.960   0.682   2.128  0.2492  0.2359 -1.2794
 2678SOL    HW219497   0.852   0.783   2.118 -1.1635 -0.2162 -0.3764
 2679SOL     OW19498   4.132   4.400   6.910  0.4893  0.1122 -0.2504
 2679SOL    HW119499   4.158   4.466   6.973 -0.1699  1.6683 -1.6222
 2679SOL    HW219500   4.196   4.429   6.845  1.3209 -0.1941  0.4208
 2680SOL     OW19501   2.606   1.435   3.691  0.0411 -0.3944  0.1591
 2680SOL    HW119502   2.687   1.455   3.738  0.0035 -0.2970  0.1811
 2680SOL    HW219503   2.587   1.517   3.644  0.1799  0.8962  2.3641
 2681SOL     OW19504   1.452   4.488   9.859 -0.3801 -0.2346  0.2454
 2681SOL    HW119505   1.486   4.546   9.791  2.1449 -0.0753  1.6271
 2681SOL    HW219506   1.528   4.429   9.859  0.6764  1.1182 -1.6736
 2682SOL     OW19507   0.579   0.890  11.264 -0.0985 -0.1556 -0.5921
 2682SOL    HW119508   0.632   0.970  11.262 -2.4633  1.5330  2.8741
 2682SOL    HW219509   0.608   0.856  11.349 -1.3494 -0.6676 -0.3676
 2683SOL     OW19510   4.630   2.372   8.497  0.3174 -0.4127 -0.2182
 2683SOL    HW119511   4.718   2.400   8.472  0.1216  0.0062 -0.4320
 2683SOL    HW219512   4.584   2.436   8.442  0.3144  0.2375  0.5459
 2684SOL     OW19513   0.182   4.672   7.983  0.1841  0.7308 -0.4112
 2684SOL    HW119514   0.218   4.684   8.071  1.3046 -0.6988 -0.6824
 2684SOL    HW219515   0.130   0.029   7.977 -1.0660  0.0737  1.5184
 2685SOL     OW19516   4.122   2.051   7.151  0.0300  0.8845  0.2352
 2685SOL    HW119517   4.157   1.974   7.195 -0.4845  0.9357  0.7272
 2685SOL    HW219518   4.059   2.099   7.205 -0.7846  0.6096 -0.4551
 2686SOL     OW19519   1.540   3.160   5.551 -0.3824 -0.2476  0.1382
 2686SOL    HW119520   1.528   3.140   5.458 -0.7332  0.7252 -0.0199
 2686SOL    HW219521   1.540   3.075   5.596 -0.5175  0.0384  0.6741
 2687SOL     OW19522   4.575   1.210  14.844 -0.2879 -0.1649  0.2233
 2687SOL    HW119523   4.541   1.129  14.881 -1.9123 -0.6847 -2.3849
 2687SOL    HW219524   4.501   1.258  14.807  0.0068  0.5434  0.5464
 2688SOL     OW19525   0.971   2.026  14.809 -0.3897  0.7546  0.6648
 2688SOL    HW119526   1.008   2.000  14.894  2.3558  0.6756 -0.5818
 2688SOL    HW219527   1.027   1.968  14.758  1.0995  2.7062  0.0646
 2689SOL     OW19528   4.373   2.915  14.305  0.1590 -0.2996  0.1648
 2689SOL    HW119529   4.428   2.905  14.227 -0.1312  1.0920 -0.2059
 2689SOL    HW219530   4.393   3.007  14.319 -1.9409  0.4815 -1.9184
 2690SOL     OW19531   3.833   1.486  16.460 -0.1788  0.4713 -0.3948
 2690SOL    HW119532   3.780   1.469  16.382  0.6791 -1.6281 -0.5241
 2690SOL    HW219533   3.791   1.561  16.503  0.6461 -0.2868  1.7448
 2691SOL     OW19534   0.162   2.351   3.542  0.5552  0.1735 -0.2234
 2691SOL    HW119535   0.112   2.293   3.484  0.4866 -1.7160  1.7189
 2691SOL    HW219536   0.095   2.394   3.595  0.2035  0.2763 -0.7390
 2692SOL     OW19537   1.031   4.494   4.534  0.1969 -0.0236  0.9115
 2692SOL    HW119538   1.105   4.438   4.557  0.2341 -0.8274 -1.1966
 2692SOL    HW219539   1.073   4.575   4.505  0.4379 -0.0277  1.2446
 2693SOL     OW19540   4.021   2.091  14.542  0.0060 -0.0677 -0.0702
 2693SOL    HW119541   3.985   2.153  14.605 -1.0345 -0.4337 -0.3093
 2693SOL    HW219542   4.105   2.074  14.585  1.0464 -0.1173 -2.1130
 2694SOL     OW19543   3.717   2.220   8.884 -0.3762  0.4741  0.1817
 2694SOL    HW119544   3.746   2.300   8.929  0.4247  0.1155  0.2940
 2694SOL    HW219545   3.624   2.223   8.907 -0.7121 -2.3890 -0.8239
 2695SOL     OW19546   1.747   1.963   3.712 -0.2316 -0.4087  0.0031
 2695SOL    HW119547   1.669   1.964   3.768 -0.1844 -3.8697  0.1373
 2695SOL    HW219548   1.823   1.949   3.768  1.3097  3.2263 -1.1584
 2696SOL     OW19549   3.697   3.522   2.823  0.1080  0.6931 -0.1786
 2696SOL    HW119550   3.706   3.457   2.893  0.7983 -0.0578 -0.9645
 2696SOL    HW219551   3.617   3.477   2.796 -0.2894  0.1899  1.8336
 2697SOL     OW19552   0.214   2.816   1.215 -0.5760 -0.1290 -0.3612
 2697SOL    HW119553   0.194   2.793   1.124  1.3851 -0.2789 -0.7531
 2697SOL    HW219554   0.227   2.726   1.245  1.7466  0.1973 -0.4068
 2698SOL     OW19555   2.018   3.849   6.746  0.0830  0.4752  0.3663
 2698SOL    HW119556   1.961   3.783   6.708  1.7602 -1.2130  0.7395
 2698SOL    HW219557   1.988   3.927   6.700  0.6663  0.9982  0.8802
 2699SOL     OW19558   0.916   4.315   4.223  0.4878 -0.0949 -0.0920
 2699SOL    HW119559   0.997   4.366   4.219  0.9105 -0.5658  2.1636
 2699SOL    HW219560   0.947   4.234   4.263  2.6248  0.2629 -1.0474
 2700SOL     OW19561   0.361   2.891   3.058 -0.4473  0.6525  0.7185
 2700SOL    HW119562   0.291   2.948   3.028  0.3941 -0.3873 -3.2796
 2700SOL    HW219563   0.407   2.875   2.976  0.1899  1.9488  0.8278
 2701SOL     OW19564   1.805   3.488   5.473  0.5907 -0.1930  0.0907
 2701SOL    HW119565   1.793   3.472   5.379  0.2534  0.6647 -0.0119
 2701SOL    HW219566   1.900   3.503   5.477  0.4309  1.6866 -2.7464
 2702SOL     OW19567   3.830   2.326   7.639  0.4170 -0.2382 -0.4014
 2702SOL    HW119568   3.877   2.321   7.555  0.2238 -3.5318 -0.2990
 2702SOL    HW219569   3.881   2.398   7.677  0.8720 -0.2783 -0.9219
 2703SOL     OW19570   4.168   3.269  10.676  0.4877 -0.0565 -0.2086
 2703SOL    HW119571   4.112   3.329  10.726  3.3113  0.4686  2.3502
 2703SOL    HW219572   4.258   3.300  10.686 -1.0581  3.9648  1.5434
 2704SOL     OW19573   0.827   1.559   6.677  0.3900  0.0394 -0.1684
 2704SOL    HW119574   0.797   1.641   6.637 -0.4784 -1.4228 -2.4534
 2704SOL    HW219575   0.747   1.531   6.721  0.4479 -3.2082 -2.1553
 2705SOL     OW19576   3.791   3.194   8.221 -0.2619  0.6931  0.3070
 2705SOL    HW119577   3.842   3.272   8.200  0.0928  0.6631  1.0326
 2705SOL    HW219578   3.828   3.179   8.308 -0.8213 -0.0446  0.4129
 2706SOL     OW19579   3.816   1.654   7.969 -0.0885  0.5068 -0.2357
 2706SOL    HW119580   3.776   1.697   7.893  0.7451 -0.3655 -1.1627
 2706SOL    HW219581   3.903   1.625   7.942  0.3844 -0.0666  1.9235
 2707SOL     OW19582   3.208   1.483   4.750 -0.5050 -0.0499 -0.0924
 2707SOL    HW119583   3.206   1.576   4.772  2.0140  0.4845 -2.0414
 2707SOL    HW219584   3.183   1.464   4.659  0.7374 -0.2112 -0.4058
 2708SOL     OW19585   3.599   2.873  12.072 -0.1869 -0.5113  0.0816
 2708SOL    HW119586   3.653   2.840  12.143  0.1542  0.0450  0.0815
 2708SOL    HW219587   3.549   2.944  12.112 -1.5790 -1.5667  0.2195
 2709SOL     OW19588   0.771   1.896   7.832 -0.5251  0.5396  0.1627
 2709SOL    HW119589   0.761   1.927   7.922  1.0590 -1.1050  0.8981
 2709SOL    HW219590   0.681   1.896   7.798  0.2077  0.0337 -1.8068
 2710SOL     OW19591   3.805   3.008  11.576 -0.4115 -0.3378 -0.0035
 2710SOL    HW119592   3.723   3.056  11.585 -0.5810 -0.4246 -1.0758
 2710SOL    HW219593   3.773   2.939  11.517  2.2802 -1.4715 -0.1187
 2711SOL     OW19594   2.423   2.134   5.877  0.2786  0.0539  0.0559
 2711SOL    HW119595   2.486   2.185   5.826  0.5160 -0.9507 -0.6443
 2711SOL    HW219596   2.484   2.104   5.944  0.3261 -2.1285 -0.9533
 2712SOL     OW19597   3.034   1.550   9.511 -0.3165  0.0163  0.1500
 2712SOL    HW119598   3.022   1.603   9.589 -0.2348 -1.2937  1.0450
 2712SOL    HW219599   3.111   1.501   9.538  0.5194  1.4459  0.3913
 2713SOL     OW19600   1.539   3.625   4.109 -0.0838 -0.4493 -0.3945
 2713SOL    HW119601   1.608   3.675   4.151  2.0049 -3.2958 -0.4536
 2713SOL    HW219602   1.511   3.685   4.040 -2.6668  1.2154  2.1294
 2714SOL     OW19603   3.072   0.592   5.147  0.2387 -0.8333  0.4007
 2714SOL    HW119604   3.102   0.597   5.238 -0.5816 -0.8210  0.6743
 2714SOL    HW219605   3.022   0.674   5.148 -0.3806 -1.1837 -1.1620
 2715SOL     OW19606   3.320   1.066   5.986 -0.2700  0.2572 -0.0965
 2715SOL    HW119607   3.360   1.020   5.911 -1.1046 -1.1333  0.3243
 2715SOL    HW219608   3.395   1.082   6.043  0.6730 -1.0745 -0.9697
 2716SOL     OW19609   3.553   3.111   4.113  0.2690 -0.2679  0.2704
 2716SOL    HW119610   3.515   3.130   4.199  0.8000  0.3152  0.3748
 2716SOL    HW219611   3.635   3.160   4.115  0.0437  0.0802  1.2003
 2717SOL     OW19612   3.520   2.613   7.707 -0.7840  0.2728  0.2179
 2717SOL    HW119613   3.467   2.692   7.719 -2.8871 -1.3285  1.4720
 2717SOL    HW219614   3.607   2.650   7.719 -1.4860  1.6557  1.0074
 2718SOL     OW19615   3.209   1.809   6.251  0.3742 -0.6381  0.0364
 2718SOL    HW119616   3.301   1.786   6.237  0.5534  1.7452 -2.5561
 2718SOL    HW219617   3.185   1.744   6.318  1.3492 -2.1275 -1.0581
 2719SOL     OW19618   3.337   2.251   4.767 -0.6805 -0.6321 -0.5289
 2719SOL    HW119619   3.267   2.287   4.821  0.6525  0.2454  0.6050
 2719SOL    HW219620   3.294   2.229   4.684  0.3603  2.8640 -2.0037
 2720SOL     OW19621   0.158   3.405   0.501 -0.5722  0.1291 -0.7834
 2720SOL    HW119622   0.107   3.485   0.487 -2.0867 -0.5445  0.9370
 2720SOL    HW219623   0.242   3.429   0.461 -1.5277  1.1075 -2.2042
 2721SOL     OW19624   3.096   1.880   7.968 -0.2389 -0.3199 -0.0084
 2721SOL    HW119625   3.105   1.975   7.974  0.8016 -0.4821  0.8498
 2721SOL    HW219626   3.169   1.861   7.910 -0.7209  0.2178 -0.7892
 2722SOL     OW19627   4.612   2.077   8.619  0.0979  0.2216  0.6933
 2722SOL    HW119628   4.536   2.082   8.677 -0.5639  0.3320 -0.1813
 2722SOL    HW219629   4.631   2.171   8.615  1.2692  0.0584  2.3571
 2723SOL     OW19630   2.607   0.615   7.636  0.6195  0.7244 -0.5166
 2723SOL    HW119631   2.648   0.530   7.654 -0.6376  1.2124  4.4201
 2723SOL    HW219632   2.672   0.658   7.580  0.4657  1.4357 -0.1400
 2724SOL     OW19633   0.448   3.419   2.053  0.1842 -0.0335  0.3711
 2724SOL    HW119634   0.373   3.467   2.017  0.5018 -0.3006 -0.6505
 2724SOL    HW219635   0.442   3.333   2.010 -2.6885  0.1976  0.2931
 2725SOL     OW19636   3.892   4.129   8.851 -0.3076  0.7914  0.0528
 2725SOL    HW119637   3.816   4.141   8.908 -1.3510 -1.9548 -0.7469
 2725SOL    HW219638   3.955   4.099   8.918  0.9494  0.7248 -1.1614
 2726SOL     OW19639   3.921   2.615   4.140 -0.5962  0.2750 -0.0123
 2726SOL    HW119640   3.978   2.589   4.213 -0.1100  0.9173 -0.1583
 2726SOL    HW219641   3.961   2.560   4.073 -0.7296 -0.1614  0.2730
 2727SOL     OW19642   2.634   3.013   7.302 -0.1439 -0.8119 -0.3116
 2727SOL    HW119643   2.692   3.067   7.356 -2.0539 -2.0083  3.0017
 2727SOL    HW219644   2.658   3.029   7.211 -0.7148 -0.4050 -0.3930
 2728SOL     OW19645   1.727   2.314  11.463 -0.1132  0.0049 -0.2681
 2728SOL    HW119646   1.762   2.266  11.388  2.9348  0.4529  0.8550
 2728SOL    HW219647   1.633   2.294  11.457  0.8282 -4.6095  0.7733
 2729SOL     OW19648   0.564   3.994   1.449  0.2835 -0.0266  0.3179
 2729SOL    HW119649   0.502   3.926   1.424 -2.3484  2.7623 -0.7551
 2729SOL    HW219650   0.569   3.988   1.544 -1.1132 -1.1420  0.3194
 2730SOL     OW19651   0.585   2.080   6.750  0.2918 -0.0197 -0.1389
 2730SOL    HW119652   0.564   2.143   6.820 -0.5255 -0.2859 -0.1365
 2730SOL    HW219653   0.654   2.133   6.711 -1.4633 -0.6406 -4.1254
 2731SOL     OW19654   0.850   2.295   2.555 -0.0307  0.1632 -0.1747
 2731SOL    HW119655   0.908   2.362   2.591  0.5110  0.6383 -1.9452
 2731SOL    HW219656   0.799   2.338   2.487  1.2167  0.9290 -0.6270
 2732SOL     OW19657   4.150   4.060  13.189 -0.3368 -0.5414 -0.1246
 2732SOL    HW119658   4.105   4.065  13.105 -0.6395  1.1671  0.1516
 2732SOL    HW219659   4.243   4.049  13.169 -0.4386 -1.9288  0.1629
 2733SOL     OW19660   3.030   4.470  16.016 -0.0523 -0.2337 -0.2456
 2733SOL    HW119661   3.089   4.527  16.065  1.4936 -2.5336  0.6053
 2733SOL    HW219662   3.077   4.388  16.031 -1.8484 -1.1284  0.3867
 2734SOL     OW19663   3.284   3.224  12.893 -0.2160 -0.1496  0.6788
 2734SOL    HW119664   3.234   3.290  12.844 -1.0529  0.2924  2.1341
 2734SOL    HW219665   3.378   3.244  12.888 -0.8219  2.0914 -1.8384
 2735SOL     OW19666   0.840   1.594   3.574  0.8855  0.0907  0.4503
 2735SOL    HW119667   0.844   1.539   3.496  1.6871 -0.9570  1.2478
 2735SOL    HW219668   0.785   1.530   3.618  0.4700  0.1713  0.0527
 2736SOL     OW19669   1.336   1.359   3.662  0.1135 -0.0265  0.0240
 2736SOL    HW119670   1.365   1.363   3.753 -0.1888 -1.3165  0.1818
 2736SOL    HW219671   1.271   1.428   3.660  2.3230  2.0108 -1.2948
 2737SOL     OW19672   1.642   0.312  10.781 -0.6720  0.2006  0.0769
 2737SOL    HW119673   1.627   0.314  10.876 -0.3976  1.5811  0.0865
 2737SOL    HW219674   1.552   0.298  10.752 -0.5157  1.1505 -0.8652
 2738SOL     OW19675   4.271   3.395   3.394 -0.3431 -0.6445 -0.3009
 2738SOL    HW119676   4.217   3.469   3.422 -0.2509 -0.9381  0.6481
 2738SOL    HW219677   4.358   3.418   3.426  1.1294 -2.9505 -2.6622
 2739SOL     OW19678   4.222   2.225   8.345 -0.7889 -0.0722  0.0397
 2739SOL    HW119679   4.193   2.135   8.332 -1.0732  0.2490 -1.4644
 2739SOL    HW219680   4.287   2.238   8.276  1.8533  0.7170  2.6419
 2740SOL     OW19681   2.145   0.338  16.951 -0.2173  0.0888  0.1961
 2740SOL    HW119682   2.081   0.337  16.879 -0.2099 -0.1523  0.1935
 2740SOL    HW219683   2.220   0.381  16.912 -0.4393  1.1916  1.0063
 2741SOL     OW19684   0.889   3.814   9.853 -0.7852  0.6916  0.2204
 2741SOL    HW119685   0.865   3.747   9.790 -0.3754 -0.9543  1.8114
 2741SOL    HW219686   0.829   3.807   9.927 -1.3339 -0.2012 -0.3183
 2742SOL     OW19687   3.172   4.470  13.949 -0.1290  0.5474  0.3631
 2742SOL    HW119688   3.116   4.489  13.873  0.3077 -1.4760 -0.4700
 2742SOL    HW219689   3.174   4.553  13.998 -3.3238  0.9602 -0.1590
 2743SOL     OW19690   1.779   4.113   0.762  0.1601  0.1061 -0.7799
 2743SOL    HW119691   1.805   4.037   0.711 -0.7584 -0.7980  0.1088
 2743SOL    HW219692   1.844   4.175   0.730 -0.4266  0.1951 -1.8009
 2744SOL     OW19693   2.240   0.305   0.573 -0.0579 -0.1345 -0.0068
 2744SOL    HW119694   2.312   0.362   0.599 -0.5756  0.9262 -0.8938
 2744SOL    HW219695   2.219   0.346   0.488  1.8889  0.7471 -0.0590
 2745SOL     OW19696   3.572   3.529  15.105  0.1801  0.6569 -0.1954
 2745SOL    HW119697   3.665   3.543  15.124  0.2566 -2.2397  1.6072
 2745SOL    HW219698   3.549   3.613  15.066 -2.0547  0.0288 -0.2546
 2746SOL     OW19699   0.215   3.462  15.318  0.4473  0.2196 -0.0281
 2746SOL    HW119700   0.258   3.455  15.403  0.7557 -0.6321 -0.2547
 2746SOL    HW219701   0.270   3.404  15.266 -0.6988 -1.4224  0.5957
 2747SOL     OW19702   1.765   2.302  15.588 -0.0563 -0.5887  0.0139
 2747SOL    HW119703   1.738   2.394  15.586  0.0056 -0.5996 -1.6372
 2747SOL    HW219704   1.812   2.290  15.671 -0.8358 -2.0285  0.2405
 2748SOL     OW19705   0.835   2.821   1.469  0.7762 -0.9920 -0.5958
 2748SOL    HW119706   0.897   2.879   1.423  1.5525 -1.3164  0.0439
 2748SOL    HW219707   0.833   2.738   1.421  0.9050 -1.2392 -0.1711
 2749SOL     OW19708   4.153   4.222  11.352 -0.0419  0.3735 -0.4195
 2749SOL    HW119709   4.244   4.193  11.347  0.5375  2.4418 -1.6469
 2749SOL    HW219710   4.108   4.144  11.321 -2.6748  1.3072  1.0710
 2750SOL     OW19711   3.047   1.281   1.754 -0.3828 -0.4282 -0.4953
 2750SOL    HW119712   3.128   1.240   1.724 -0.4021  0.7940 -2.1831
 2750SOL    HW219713   3.059   1.261   1.847  0.5826  0.5499 -0.4209
 2751SOL     OW19714   2.552   2.398   7.199 -0.0955 -0.0545  0.4415
 2751SOL    HW119715   2.532   2.445   7.118 -0.6679 -0.8244  0.1374
 2751SOL    HW219716   2.462   2.369   7.218 -0.2063 -1.7054 -2.6967
 2752SOL     OW19717   1.735   1.526   2.829 -0.4945 -0.3631 -0.1201
 2752SOL    HW119718   1.685   1.449   2.802  1.5529 -1.5951 -0.4167
 2752SOL    HW219719   1.676   1.597   2.806  0.8915  0.1824 -1.9722
 2753SOL     OW19720   4.615   2.388  15.432  0.4323  0.2561  0.2947
 2753SOL    HW119721   4.582   2.466  15.388 -1.6042 -0.3320  0.7761
 2753SOL    HW219722   4.573   2.309  15.397  1.0329 -0.7162  1.7724
 2754SOL     OW19723   2.289   1.869  14.960  0.2812  0.0621  0.2096
 2754SOL    HW119724   2.382   1.878  14.939 -0.0154 -1.3874 -1.8119
 2754SOL    HW219725   2.269   1.798  14.898  2.4525 -1.4172  1.2166
 2755SOL     OW19726   1.737   2.849   5.245  0.0663 -0.0818 -0.3296
 2755SOL    HW119727   1.717   2.760   5.276  2.9795 -1.2860 -1.8343
 2755SOL    HW219728   1.819   2.833   5.198  0.0446 -0.8551 -0.1039
 2756SOL     OW19729   3.102   4.631   2.796 -0.7349 -0.8647 -0.2638
 2756SOL    HW119730   3.087   4.562   2.860  1.3924 -0.8520  0.2496
 2756SOL    HW219731   3.192   4.656   2.816 -1.1078 -0.3388  0.7108
 2757SOL     OW19732   2.492   1.694  15.448 -0.1218 -0.2824 -0.1294
 2757SOL    HW119733   2.430   1.693  15.521  1.2707 -0.1665  1.0363
 2757SOL    HW219734   2.476   1.778  15.404  1.1609  1.0394  1.9150
 2758SOL     OW19735   0.075   3.649  15.152  0.3507  0.4599 -0.2501
 2758SOL    HW119736   0.128   3.728  15.160 -2.2995  2.1184  0.8193
 2758SOL    HW219737   0.110   3.596  15.224  1.2321  2.0136  0.4761
 2759SOL     OW19738   4.313   1.389   2.068 -0.3719  0.5683  0.0151
 2759SOL    HW119739   4.326   1.395   1.973 -1.3709 -0.7907 -0.2232
 2759SOL    HW219740   4.385   1.447   2.092 -0.4950  1.7973 -2.5834
 2760SOL     OW19741   4.126   0.240   2.065 -0.9358 -0.3680 -0.5393
 2760SOL    HW119742   4.054   0.231   2.129  0.2851 -2.1730  0.5626
 2760SOL    HW219743   4.192   0.192   2.114 -0.8868  1.4636  1.2490
 2761SOL     OW19744   3.272   3.282   1.518 -0.0785 -0.2755 -0.3533
 2761SOL    HW119745   3.302   3.194   1.542  0.1992 -0.3578 -0.9914
 2761SOL    HW219746   3.261   3.275   1.423  1.3364  1.1119 -0.6116
 2762SOL     OW19747   3.836   0.739   3.784  0.2398  0.0891  0.1660
 2762SOL    HW119748   3.880   0.660   3.817 -1.5138 -0.6617  0.7213
 2762SOL    HW219749   3.882   0.743   3.700  0.8860  1.5315  0.5925
 2763SOL     OW19750   3.975   0.501   6.203  0.2961  0.1251  0.3405
 2763SOL    HW119751   4.010   0.519   6.290  0.2666  1.1661  0.1293
 2763SOL    HW219752   3.953   0.410   6.224  1.3664 -0.5230 -1.2924
 2764SOL     OW19753   1.355   4.343   6.986  0.2023 -0.1340 -0.0645
 2764SOL    HW119754   1.432   4.322   7.039 -0.0651  0.1343  0.4325
 2764SOL    HW219755   1.294   4.342   7.060  0.0121  1.5627 -0.1889
 2765SOL     OW19756   0.563   1.932   9.243 -0.7342 -0.3819  0.6242
 2765SOL    HW119757   0.657   1.950   9.249  0.0281 -3.4907 -2.1006
 2765SOL    HW219758   0.529   2.022   9.242 -0.9431 -0.5126 -2.4278
 2766SOL     OW19759   2.309   3.036   1.571 -0.6649  0.1978  0.4432
 2766SOL    HW119760   2.249   3.063   1.502  0.2214 -1.6298 -1.0450
 2766SOL    HW219761   2.267   2.953   1.596 -0.5435 -0.2746 -0.9202
 2767SOL     OW19762   1.993   3.647   6.130 -0.3833  0.1921  0.1296
 2767SOL    HW119763   1.908   3.687   6.112  0.5982  1.6935 -1.1828
 2767SOL    HW219764   1.980   3.556   6.155 -0.4222  0.3430  0.6469
 2768SOL     OW19765   4.703   4.676  13.923  0.0526  0.4596  0.7323
 2768SOL    HW119766   4.660   4.596  13.892 -2.2396  0.8547  2.9558
 2768SOL    HW219767   0.006   4.657  14.013 -0.2510  2.4356  1.2322
 2769SOL     OW19768   1.517   1.295   2.853 -0.2121  0.3587  0.1371
 2769SOL    HW119769   1.458   1.362   2.888  0.6730  1.8116 -1.1528
 2769SOL    HW219770   1.466   1.260   2.780 -0.1706  1.2082 -0.2989
 2770SOL     OW19771   2.631   0.658   2.567  0.1744  0.2190  0.2247
 2770SOL    HW119772   2.616   0.752   2.557 -2.1257 -0.4158 -2.4308
 2770SOL    HW219773   2.680   0.641   2.487 -0.5104 -0.1181 -0.1296
 2771SOL     OW19774   3.413   4.437  13.485 -0.6695  0.1282 -0.1609
 2771SOL    HW119775   3.404   4.369  13.417 -1.0977  2.3547 -2.3181
 2771SOL    HW219776   3.481   4.493  13.447  0.0481 -1.5706 -1.4078
 2772SOL     OW19777   1.431   4.033  14.346 -0.3741 -0.0561  0.0676
 2772SOL    HW119778   1.464   4.077  14.268  1.7558  0.9312  1.5111
 2772SOL    HW219779   1.447   4.100  14.413  0.0355  0.4192 -0.5037
 2773SOL     OW19780   1.688   2.913   7.730 -0.6368 -0.1761  0.0764
 2773SOL    HW119781   1.745   2.989   7.742 -1.1065  0.6216 -2.6196
 2773SOL    HW219782   1.605   2.950   7.700 -1.1449 -0.6346  0.9637
 2774SOL     OW19783   4.043   3.367  14.875  0.0785  0.3947  0.2094
 2774SOL    HW119784   4.105   3.359  14.947  0.1985 -0.7965 -0.0345
 2774SOL    HW219785   3.991   3.439  14.912  0.4612  0.6486  0.2533
 2775SOL     OW19786   2.669   4.068  17.385 -0.1079  0.5454  0.1297
 2775SOL    HW119787   2.731   4.125  17.339 -0.5122  1.3117  0.5423
 2775SOL    HW219788   2.634   4.029  17.305 -0.5743  1.9233 -0.3397
 2776SOL     OW19789   4.109   4.486   4.256  0.0550 -0.1755 -0.2068
 2776SOL    HW119790   4.202   4.499   4.238 -0.2277  1.9551 -0.1096
 2776SOL    HW219791   4.106   4.463   4.349  2.8710 -0.1951 -0.1329
 2777SOL     OW19792   0.568   2.641   3.221  0.0757  0.3443 -0.0704
 2777SOL    HW119793   0.573   2.591   3.303 -0.7419  0.0422 -0.2095
 2777SOL    HW219794   0.627   2.712   3.248  0.7851  0.5984 -2.3426
 2778SOL     OW19795   1.538   2.031   8.249 -0.5536 -0.1825 -0.5251
 2778SOL    HW119796   1.553   2.119   8.214  1.7636 -0.6296 -0.7088
 2778SOL    HW219797   1.482   2.004   8.176 -0.0453 -0.6336 -0.7500
 2779SOL     OW19798   0.636   0.491  15.698 -0.3345  0.1668  0.0461
 2779SOL    HW119799   0.600   0.571  15.659 -1.7631 -1.5297 -2.1665
 2779SOL    HW219800   0.670   0.455  15.616 -2.6675 -0.8775 -0.4686
 2780SOL     OW19801   1.348   4.466   7.395 -0.6346 -0.3517  0.2652
 2780SOL    HW119802   1.305   4.425   7.319 -0.7683  2.4703 -1.1920
 2780SOL    HW219803   1.280   4.442   7.458 -0.7703  0.6538  0.5019
 2781SOL     OW19804   1.702   4.315   0.342 -0.1285 -0.5021  0.2879
 2781SOL    HW119805   1.671   4.401   0.315 -0.3654 -0.2108  1.4540
 2781SOL    HW219806   1.631   4.260   0.309 -1.6334  0.8175  1.2801
 2782SOL     OW19807   0.409   3.625   3.916  0.0492  0.2699 -0.0268
 2782SOL    HW119808   0.418   3.659   4.005  0.3471 -0.4879  0.2352
 2782SOL    HW219809   0.322   3.658   3.894  0.7690  0.2118 -2.9461
 2783SOL     OW19810   4.159   2.577   6.545 -0.4719 -0.7242  0.6191
 2783SOL    HW119811   4.243   2.583   6.589 -1.2691 -0.3709  2.0820
 2783SOL    HW219812   4.098   2.559   6.616  0.2490 -0.5183  1.2885
 2784SOL     OW19813   1.778   2.895   6.489  0.1323  0.2536  0.4794
 2784SOL    HW119814   1.785   2.847   6.407  2.1266  0.1630  0.6994
 2784SOL    HW219815   1.703   2.953   6.478 -0.3663 -0.4113  0.3628
 2785SOL     OW19816   4.283   3.520   9.328  0.3720 -0.0924 -0.3838
 2785SOL    HW119817   4.248   3.472   9.403  0.5977 -0.1430 -0.3115
 2785SOL    HW219818   4.376   3.498   9.335  0.0774 -0.6242  1.7812
 2786SOL     OW19819   0.933   2.723   2.368 -0.3654  0.8686  0.4801
 2786SOL    HW119820   0.976   2.638   2.355  0.6886  1.5925 -0.6985
 2786SOL    HW219821   0.907   2.745   2.278  1.0796 -0.1732 -0.2000
 2787SOL     OW19822   0.114   3.348  10.148 -0.1502 -0.1299  0.4381
 2787SOL    HW119823   0.055   3.294  10.201  1.4098 -2.5155 -0.2444
 2787SOL    HW219824   0.175   3.380  10.215  0.5484 -0.6039  0.0311
 2788SOL     OW19825   1.113   1.599   0.886 -0.5879  0.3046  0.8484
 2788SOL    HW119826   1.049   1.610   0.817  1.5095 -1.4426 -1.3967
 2788SOL    HW219827   1.125   1.504   0.877 -0.4426  0.6704 -2.5575
 2789SOL     OW19828   3.509   3.240   0.934 -0.0275 -0.2435 -0.3897
 2789SOL    HW119829   3.499   3.198   1.019  0.8692  0.9889  0.3122
 2789SOL    HW219830   3.536   3.160   0.889  0.1578 -1.5382  2.0051
 2790SOL     OW19831   0.014   3.949  11.843  0.7696  0.0271 -0.8862
 2790SOL    HW119832   0.011   3.871  11.898  3.6726  0.0524 -0.7059
 2790SOL    HW219833   4.663   4.003  11.871  2.1277  1.9767 -0.9949
 2791SOL     OW19834   0.193   1.373  11.601  0.7370 -0.6406 -0.5642
 2791SOL    HW119835   0.209   1.283  11.631 -1.3443 -1.7634 -2.8731
 2791SOL    HW219836   0.274   1.389  11.553 -0.1051 -0.2658 -1.8689
 2792SOL     OW19837   2.356   2.257   9.803  0.2244 -0.7640 -0.1373
 2792SOL    HW119838   2.378   2.247   9.895  1.9038  0.8044 -0.3760
 2792SOL    HW219839   2.423   2.310   9.759 -2.7504  1.4670 -2.0202
 2793SOL     OW19840   1.837   0.777   8.734  0.2667  0.1969  0.5460
 2793SOL    HW119841   1.925   0.782   8.696 -0.1744  0.7637 -0.4168
 2793SOL    HW219842   1.851   0.814   8.821 -1.2529 -0.3109  1.0143
 2794SOL     OW19843   3.390   1.148   1.746 -0.2140 -1.1574  0.2479
 2794SOL    HW119844   3.380   1.060   1.709  0.8572 -0.4810 -1.6350
 2794SOL    HW219845   3.363   1.140   1.837 -0.9413  1.2592  0.2418
 2795SOL     OW19846   1.381   4.029   7.675 -0.1827  0.1310  0.0427
 2795SOL    HW119847   1.461   4.082   7.682 -0.3904  0.3254  0.9833
 2795SOL    HW219848   1.421   3.942   7.673 -0.0926  0.1865 -0.5052
 2796SOL     OW19849   1.392   2.509   8.111  0.0045  0.0395  0.4735
 2796SOL    HW119850   1.350   2.595   8.104  0.2012  0.0354 -0.7018
 2796SOL    HW219851   1.317   2.449   8.119  1.4958 -1.5178  2.9097
 2797SOL     OW19852   3.259   3.986   5.579  0.8136 -0.7785 -0.6426
 2797SOL    HW119853   3.221   3.945   5.502 -2.4681 -0.1275  0.6387
 2797SOL    HW219854   3.249   4.079   5.558  1.0057 -0.5623  0.2185
 2798SOL     OW19855   4.103   1.857  12.164  0.4366  0.0073  0.8332
 2798SOL    HW119856   4.115   1.916  12.089 -1.7561 -2.3154 -1.3860
 2798SOL    HW219857   4.085   1.780  12.110 -0.1771  0.1041  0.8952
 2799SOL     OW19858   0.107   1.172   8.706  0.2022  0.6277  0.6582
 2799SOL    HW119859   0.085   1.172   8.612 -0.6287 -0.4540  0.8580
 2799SOL    HW219860   0.059   1.248   8.739 -3.6962 -0.9150 -1.5096
 2800SOL     OW19861   2.003   3.555  13.128  0.1545  0.0272  0.2724
 2800SOL    HW119862   1.928   3.497  13.114  1.0680 -0.4028 -2.9682
 2800SOL    HW219863   2.061   3.526  13.057  0.9694 -0.7976  1.2733
 2801SOL     OW19864   2.153   4.546   8.011 -0.0290 -0.1230  0.0408
 2801SOL    HW119865   2.070   4.524   7.969 -0.9728  0.3976  1.6465
 2801SOL    HW219866   2.123   4.620   8.063 -0.6259  0.5832 -1.2908
 2802SOL     OW19867   1.786   0.181   8.114  0.0132 -0.6895  0.2664
 2802SOL    HW119868   1.821   0.268   8.095  2.4069 -1.1310  2.6448
 2802SOL    HW219869   1.717   0.207   8.175 -0.7777 -1.8857 -0.1326
 2803SOL     OW19870   1.987   4.147   8.925 -1.1753 -0.1699  0.5094
 2803SOL    HW119871   1.906   4.147   8.875 -3.0918  0.9184  3.6581
 2803SOL    HW219872   1.960   4.087   8.994 -0.8961 -0.7639  0.0975
 2804SOL     OW19873   1.925   3.795  16.861 -0.1107 -0.1620  0.2761
 2804SOL    HW119874   1.974   3.859  16.809 -0.8822 -0.3674 -0.7073
 2804SOL    HW219875   1.900   3.731  16.794  0.1502 -0.8902  0.8769
 2805SOL     OW19876   0.593   0.646  10.482 -0.1018 -0.1066  0.0101
 2805SOL    HW119877   0.537   0.626  10.557 -0.6759  0.0004 -0.3840
 2805SOL    HW219878   0.643   0.721  10.513 -0.3673  0.2215 -0.3622
 2806SOL     OW19879   4.235   4.195  13.665  0.1070  0.0980 -0.0335
 2806SOL    HW119880   4.145   4.225  13.650 -0.0686 -1.3785 -1.8740
 2806SOL    HW219881   4.234   4.113  13.616 -0.0709  0.5682 -0.8243
 2807SOL     OW19882   3.734   2.181  11.958 -0.1942  0.0514 -0.2843
 2807SOL    HW119883   3.826   2.205  11.947  0.2030 -0.4182  1.9638
 2807SOL    HW219884   3.729   2.244  12.030  1.9252 -0.8892  0.6859
 2808SOL     OW19885   1.958   2.718   5.619  0.1810  0.1489  0.5820
 2808SOL    HW119886   1.981   2.775   5.545  0.9152  1.9732  2.2252
 2808SOL    HW219887   1.926   2.641   5.572  2.1978 -0.3031 -0.0815
 2809SOL     OW19888   1.942   1.354   2.734 -0.0523  0.1676 -0.1310
 2809SOL    HW119889   2.018   1.398   2.697 -1.1215  2.3120  0.2010
 2809SOL    HW219890   1.884   1.429   2.751  0.5736  0.3129  1.3234
 2810SOL     OW19891   2.336   1.785   1.844  0.0542  0.1899  0.0978
 2810SOL    HW119892   2.244   1.769   1.822  0.1808  1.0711 -1.0697
 2810SOL    HW219893   2.385   1.742   1.774 -3.4512 -0.7131 -1.8295
 2811SOL     OW19894   3.473   0.088  17.219  0.3067 -0.4017 -0.6232
 2811SOL    HW119895   3.461   0.004  17.264 -1.8226  0.7557  0.9788
 2811SOL    HW219896   3.425   0.139  17.285  1.2757 -1.1474  0.6688
 2812SOL     OW19897   0.234   0.130   7.247 -0.4278  0.2234  0.1868
 2812SOL    HW119898   0.232   0.115   7.342  2.4792 -2.0243 -0.1042
 2812SOL    HW219899   0.160   0.079   7.214 -0.6849 -1.2393  2.9522
 2813SOL     OW19900   1.809   0.849   9.014  0.3902  0.0703  0.0269
 2813SOL    HW119901   1.846   0.931   9.045  1.1466  0.2167 -1.2906
 2813SOL    HW219902   1.722   0.852   9.055  1.4008 -0.5485  2.2129
 2814SOL     OW19903   2.375   0.879   0.691  0.3367 -0.6430 -0.0765
 2814SOL    HW119904   2.389   0.932   0.769 -0.5262  1.2541 -1.1989
 2814SOL    HW219905   2.281   0.862   0.683  0.3414 -2.3270  3.4320
 2815SOL     OW19906   2.859   2.571   0.335 -0.1498  0.2363 -0.1071
 2815SOL    HW119907   2.949   2.552   0.309 -0.7945 -1.7116 -0.9258
 2815SOL    HW219908   2.843   2.477   0.341  0.4788  0.0971 -0.5924
 2816SOL     OW19909   0.192   3.351   1.377  0.2411  0.3287  0.1559
 2816SOL    HW119910   0.119   3.302   1.340  1.4584 -1.4811  0.1793
 2816SOL    HW219911   0.137   3.409   1.430 -0.2285 -0.3664  0.4264
 2817SOL     OW19912   2.198   0.572   7.349  0.6522 -0.1630 -0.4183
 2817SOL    HW119913   2.228   0.486   7.378  2.3278  0.3147 -0.7903
 2817SOL    HW219914   2.202   0.629   7.425 -0.4054  0.0030 -0.4870
 2818SOL     OW19915   0.513   0.536   4.237  0.6795  0.1199  0.6221
 2818SOL    HW119916   0.593   0.561   4.283 -0.1003 -0.5024  2.2935
 2818SOL    HW219917   0.554   0.495   4.161 -0.9911 -0.4606  0.0293
 2819SOL     OW19918   3.085   3.907   5.360 -0.1518  0.4477 -0.5813
 2819SOL    HW119919   3.031   3.861   5.424  1.9542 -0.8975  0.2128
 2819SOL    HW219920   3.101   3.842   5.292  0.5387 -1.3356  1.2943
 2820SOL     OW19921   2.446   3.087   4.754  0.5543 -0.1717  0.3399
 2820SOL    HW119922   2.540   3.101   4.770  0.3078  0.8081  0.9186
 2820SOL    HW219923   2.406   3.174   4.748  0.3237 -0.4103 -1.4645
 2821SOL     OW19924   3.310   4.597  11.104  0.2274 -0.5811  0.0015
 2821SOL    HW119925   3.298   4.675  11.049 -0.7851 -0.0675  0.9545
 2821SOL    HW219926   3.351   4.531  11.048  1.3416  0.5921 -0.5578
 2822SOL     OW19927   2.142   2.544   6.481 -0.2737 -0.0577  0.6129
 2822SOL    HW119928   2.063   2.526   6.430 -0.2334  1.2696  0.0676
 2822SOL    HW219929   2.174   2.457   6.501  1.0868  0.2340 -0.2835
 2823SOL     OW19930   3.228   3.593  14.467 -0.6308 -0.3093  0.3863
 2823SOL    HW119931   3.254   3.681  14.494 -2.2054  0.5641 -0.9101
 2823SOL    HW219932   3.220   3.606  14.372 -0.4241 -0.7408  0.3077
 2824SOL     OW19933   3.454   4.081  14.272  0.5651 -0.3839  0.4992
 2824SOL    HW119934   3.390   4.121  14.213 -0.8166 -2.4918  0.5752
 2824SOL    HW219935   3.539   4.098  14.231 -0.0788  0.4636 -0.4745
 2825SOL     OW19936   4.307   0.375   8.387 -0.5005 -0.3151 -0.1794
 2825SOL    HW119937   4.309   0.448   8.449  0.3314 -0.6071  0.1417
 2825SOL    HW219938   4.325   0.417   8.302  0.4177  1.1830  0.7501
 2826SOL     OW19939   1.899   1.109   3.844 -0.6871 -0.5860 -0.3840
 2826SOL    HW119940   1.842   1.184   3.832 -0.5849 -0.6288 -1.1360
 2826SOL    HW219941   1.936   1.130   3.930  0.0165 -2.4967 -0.2169
 2827SOL     OW19942   1.905   0.670   7.995 -0.3460 -0.2145  0.1929
 2827SOL    HW119943   1.980   0.717   8.032 -0.1354 -0.6266  0.2940
 2827SOL    HW219944   1.843   0.713   8.054  0.9145 -1.8552  2.7323
 2828SOL     OW19945   3.130   4.502   3.051  0.0979 -0.1245 -0.7696
 2828SOL    HW119946   3.174   4.578   3.090 -0.3178 -0.3637  0.1766
 2828SOL    HW219947   3.041   4.521   3.079  0.0156 -0.9597 -0.4512
 2829SOL     OW19948   2.821   1.639  12.531  0.2342  0.1956 -0.0451
 2829SOL    HW119949   2.762   1.665  12.602  0.6503  0.5290  0.1846
 2829SOL    HW219950   2.784   1.559  12.494  1.4159 -0.9273  1.1733
 2830SOL     OW19951   3.491   3.941   1.137  0.2744 -0.2371 -0.1214
 2830SOL    HW119952   3.505   3.925   1.043 -1.3213 -1.3221 -0.1760
 2830SOL    HW219953   3.397   3.959   1.129  0.1244 -0.2912  1.6351
 2831SOL     OW19954   3.301   2.831  14.448 -0.5156 -0.2120 -0.3698
 2831SOL    HW119955   3.227   2.803  14.502 -0.9822 -0.2090 -0.9936
 2831SOL    HW219956   3.278   2.783  14.368  1.9787 -1.1543 -0.5239
 2832SOL     OW19957   4.227   1.713   3.916 -0.4268  0.2137 -0.1607
 2832SOL    HW119958   4.157   1.691   3.855 -0.3379  0.7380 -0.4540
 2832SOL    HW219959   4.303   1.719   3.858 -1.3063  0.3938 -1.2749
 2833SOL     OW19960   2.793   2.361  12.059 -0.1490 -0.1740  0.1667
 2833SOL    HW119961   2.743   2.429  12.013  2.1906  2.2715  1.2116
 2833SOL    HW219962   2.881   2.362  12.022 -0.5143  0.2336 -0.7019
 2834SOL     OW19963   2.802   1.608   2.852  0.1424 -0.6723 -0.6188
 2834SOL    HW119964   2.742   1.567   2.914  0.3348 -0.5110 -0.3252
 2834SOL    HW219965   2.853   1.649   2.922  0.7407 -2.0241 -0.2665
 2835SOL     OW19966   3.284   4.064   7.237 -0.1930  0.4043 -0.1070
 2835SOL    HW119967   3.257   4.059   7.145 -2.5580  1.1023  0.5352
 2835SOL    HW219968   3.258   3.974   7.260 -0.1805  0.2838 -0.5567
 2836SOL     OW19969   2.140   1.867  15.248  0.5318 -0.3277 -0.0638
 2836SOL    HW119970   2.161   1.913  15.329  1.7343 -3.3868  1.3586
 2836SOL    HW219971   2.083   1.797  15.279 -1.1388  0.9843 -0.2048
 2837SOL     OW19972   3.443   4.516  11.699  0.9147  0.4870  0.6936
 2837SOL    HW119973   3.478   4.571  11.629 -0.5851  0.7462  0.1543
 2837SOL    HW219974   3.434   4.577  11.773 -0.9772 -0.2174  1.0532
 2838SOL     OW19975   4.633   0.105   4.131  0.8053  0.5207 -0.3286
 2838SOL    HW119976   4.543   0.132   4.115  0.2934 -0.7507  0.4359
 2838SOL    HW219977   4.644   0.026   4.079 -0.3916 -1.0520  1.8328
 2839SOL     OW19978   2.128   0.238   7.105 -0.1042  0.4458 -0.0067
 2839SOL    HW119979   2.095   0.173   7.167  0.3087  0.6129  0.3841
 2839SOL    HW219980   2.218   0.250   7.134 -0.1859 -0.9434  0.8318
 2840SOL     OW19981   1.422   2.686   0.965 -0.3101 -0.3446  0.1384
 2840SOL    HW119982   1.457   2.726   1.045 -1.8585 -0.9503  1.1158
 2840SOL    HW219983   1.433   2.760   0.906  1.6957 -0.0964  0.7838
 2841SOL     OW19984   0.232   1.432   7.184 -0.2028 -0.3888  0.0623
 2841SOL    HW119985   0.309   1.481   7.157  1.1469 -1.3534  2.2198
 2841SOL    HW219986   0.248   1.407   7.275  2.5666  1.0946 -0.0307
 2842SOL     OW19987   0.839   0.051   1.314  0.0441 -0.3009 -0.2236
 2842SOL    HW119988   0.810   0.014   1.231 -3.3021  1.2792  0.2696
 2842SOL    HW219989   0.760   0.063   1.366 -0.1902  0.4182 -0.7505
 2843SOL     OW19990   4.684   4.429   1.779  0.1821  0.3372  0.1201
 2843SOL    HW119991   4.704   4.413   1.687 -1.3175 -1.8182  0.1679
 2843SOL    HW219992   4.694   4.524   1.784 -0.2578  0.3452  0.9267
 2844SOL     OW19993   0.187   2.584   4.429 -0.1315 -0.0442  0.6136
 2844SOL    HW119994   0.248   2.656   4.439 -1.2445  0.9124  0.4713
 2844SOL    HW219995   0.108   2.638   4.425  1.0050  1.5931  0.4297
 2845SOL     OW19996   3.259   0.650   8.862 -0.2614  0.2601  0.6273
 2845SOL    HW119997   3.341   0.696   8.878 -0.3667  1.3690 -1.8653
 2845SOL    HW219998   3.275   0.568   8.908  3.1164 -0.1230 -1.2667
 2846SOL     OW19999   1.051   2.485   5.514  0.1348 -0.1230 -0.1168
 2846SOL    HW120000   0.987   2.451   5.576  0.0751 -1.3625 -0.8500
 2846SOL    HW220001   0.995   2.534   5.455  1.8018  0.0113 -1.6125
 2847SOL     OW20002   0.055   3.266   4.348 -0.4548 -0.0948 -0.4617
 2847SOL    HW120003   0.128   3.326   4.340 -0.1712 -0.6479 -2.0675
 2847SOL    HW220004   0.069   3.218   4.267 -3.1722 -0.4202 -0.7344
 2848SOL     OW20005   0.852   3.654   7.223 -0.0363 -0.3967  0.0614
 2848SOL    HW120006   0.941   3.653   7.259 -1.2957  1.6183  3.2453
 2848SOL    HW220007   0.872   3.638   7.131 -2.8048 -0.8229 -0.4734
 2849SOL     OW20008   4.264   4.604   3.409 -0.2379 -0.1396  0.7705
 2849SOL    HW120009   4.174   4.624   3.436 -0.3881 -0.0569  0.2120
 2849SOL    HW220010   4.238   4.558   3.330  0.8894  1.9161 -0.8142
 2850SOL     OW20011   0.902   0.521   4.644 -0.7029 -0.2892  0.3978
 2850SOL    HW120012   0.836   0.504   4.711 -1.6124 -0.3951 -0.5224
 2850SOL    HW220013   0.844   0.562   4.580 -1.0484  1.2061  1.6677
 2851SOL     OW20014   2.955   4.687  13.492  0.0953 -0.1160  0.2127
 2851SOL    HW120015   2.988   4.629  13.560  2.0547  0.8847  0.1142
 2851SOL    HW220016   2.860   4.688  13.502  0.3301  0.8950  2.5536
 2852SOL     OW20017   0.979   1.328   8.427  0.0442 -0.5402  0.0630
 2852SOL    HW120018   0.912   1.267   8.397 -0.5112  1.7149 -3.2416
 2852SOL    HW220019   1.005   1.290   8.511  1.2296  0.9215  0.3705
 2853SOL     OW20020   2.688   4.599   5.008 -0.1039 -0.2999 -0.7105
 2853SOL    HW120021   2.726   4.514   4.983  0.9767 -0.0100 -0.0827
 2853SOL    HW220022   2.740   4.656   4.951 -0.2088  0.2935 -0.2104
 2854SOL     OW20023   1.518   0.753   5.684 -0.2796 -0.7520 -0.0819
 2854SOL    HW120024   1.571   0.790   5.755  1.6887 -0.9852 -1.4124
 2854SOL    HW220025   1.429   0.750   5.719  0.4331 -0.4810  1.7492
 2855SOL     OW20026   2.034   0.780   6.109  0.1731 -0.3052 -0.5855
 2855SOL    HW120027   1.963   0.717   6.110 -1.0394  1.0501 -1.2656
 2855SOL    HW220028   2.112   0.730   6.133  0.3989  0.5854  0.5500
 2856SOL     OW20029   4.406   3.513  15.727 -0.6877  0.3921  0.2705
 2856SOL    HW120030   4.478   3.453  15.706 -2.2932 -0.8778 -1.5791
 2856SOL    HW220031   4.335   3.487  15.669 -0.8626 -0.8905  1.0600
 2857SOL     OW20032   1.083   3.720   5.302 -0.1609  0.4241  0.0816
 2857SOL    HW120033   1.091   3.628   5.276 -1.9223  0.3932 -0.3314
 2857SOL    HW220034   1.075   3.766   5.219 -0.7079 -0.1589 -0.1899
 2858SOL     OW20035   4.428   0.805   5.446 -0.3485 -0.2522  0.2477
 2858SOL    HW120036   4.335   0.822   5.432 -0.4089 -0.4140  0.4549
 2858SOL    HW220037   4.422   0.806   5.541 -0.0977  2.0740  0.2303
 2859SOL     OW20038   1.647   0.127   5.478 -0.5199 -0.2867 -0.2679
 2859SOL    HW120039   1.551   0.124   5.485 -0.3457 -1.5035  1.4198
 2859SOL    HW220040   1.661   0.168   5.393 -1.1124 -1.7662 -1.0851
 2860SOL     OW20041   1.934   4.316   2.297 -0.1823  0.0739  0.0107
 2860SOL    HW120042   1.850   4.349   2.329 -0.3874 -0.8158  0.3852
 2860SOL    HW220043   1.964   4.390   2.243  1.0112  1.8687  3.1704
 2861SOL     OW20044   1.937   3.193   5.456  0.1044  0.3935 -0.0029
 2861SOL    HW120045   1.917   3.278   5.496 -1.9589 -0.3552  0.5405
 2861SOL    HW220046   1.966   3.131   5.522  2.0416 -2.6789 -3.7396
 2862SOL     OW20047   0.974   0.119   1.066  0.0778 -0.0062 -0.0648
 2862SOL    HW120048   1.028   0.122   1.145 -0.0558 -0.0670  0.0281
 2862SOL    HW220049   0.980   0.028   1.037  0.5395 -0.4205  1.3796
 2863SOL     OW20050   1.037   2.954  10.480 -0.5134  0.1499 -0.3711
 2863SOL    HW120051   1.098   2.999  10.538  0.0769 -1.1430  0.0030
 2863SOL    HW220052   1.043   2.860  10.499  1.6176  0.0782 -1.3205
 2864SOL     OW20053   0.040   1.176   8.435 -0.1000 -0.1540 -0.3871
 2864SOL    HW120054   4.710   1.235   8.383  1.1876  0.5460 -0.9392
 2864SOL    HW220055   0.087   1.121   8.372  0.1867 -1.3822  0.8929
 2865SOL     OW20056   3.885   3.832  12.750  0.8098 -0.7023 -0.0368
 2865SOL    HW120057   3.957   3.798  12.696  2.3191 -1.2619  2.3132
 2865SOL    HW220058   3.882   3.754  12.805  0.7737 -0.8594 -0.2626
 2866SOL     OW20059   3.545   0.021   9.278  0.3504 -0.3676  0.5065
 2866SOL    HW120060   3.543   4.687   9.354 -1.3257 -0.6462  0.2468
 2866SOL    HW220061   3.637   0.048   9.284  0.6409 -1.3091  0.3656
 2867SOL     OW20062   3.968   2.686   8.628 -0.1673 -0.3512  0.2405
 2867SOL    HW120063   4.054   2.727   8.622  0.5721 -1.4611  3.0438
 2867SOL    HW220064   3.963   2.663   8.721 -2.8939  1.2425  0.4921
 2868SOL     OW20065   2.749   2.633   6.792  0.1172  0.4474  0.2259
 2868SOL    HW120066   2.707   2.612   6.708  0.1645 -1.2309  0.6149
 2868SOL    HW220067   2.810   2.699   6.760 -0.1728 -0.1318 -1.5374
 2869SOL     OW20068   3.410   4.492   3.536  0.4007 -0.0553 -0.1526
 2869SOL    HW120069   3.487   4.446   3.569 -0.9078 -1.8099  0.4452
 2869SOL    HW220070   3.439   4.504   3.445 -0.8468  2.5394 -0.2028
 2870SOL     OW20071   3.678   0.629  15.839 -0.1610  0.4082 -0.2931
 2870SOL    HW120072   3.772   0.619  15.854 -0.0691  1.0204 -0.4912
 2870SOL    HW220073   3.670   0.707  15.784  2.2269  1.2494  0.5255
 2871SOL     OW20074   1.130   1.106   8.561  0.2648 -0.0005 -0.0575
 2871SOL    HW120075   1.046   1.123   8.604  0.8656  1.2138  0.6310
 2871SOL    HW220076   1.158   1.031   8.614  0.2549  0.4738  0.6238
 2872SOL     OW20077   1.810   0.528  11.636 -0.1419 -0.3881 -0.3423
 2872SOL    HW120078   1.751   0.603  11.630 -1.5401 -1.5092 -0.4891
 2872SOL    HW220079   1.792   0.487  11.551 -0.4584  2.0140 -1.4550
 2873SOL     OW20080   0.480   3.047   8.647  0.3199 -0.2446  0.0469
 2873SOL    HW120081   0.411   3.112   8.656  0.6047 -0.0516  0.8140
 2873SOL    HW220082   0.470   3.027   8.553 -0.6674 -0.5074  0.2113
 2874SOL     OW20083   2.054   0.544   3.630 -0.0507  0.1801  0.1532
 2874SOL    HW120084   2.047   0.634   3.663 -1.4572 -0.0089  0.3500
 2874SOL    HW220085   2.081   0.564   3.540 -0.6906 -2.5018 -0.6314
 2875SOL     OW20086   3.066   3.436  13.083  0.0962  0.1620  0.0220
 2875SOL    HW120087   3.050   3.432  12.988 -1.7606 -3.0648  0.4716
 2875SOL    HW220088   3.087   3.345  13.103 -1.5306 -0.2399 -0.0263
 2876SOL     OW20089   2.494   0.478   8.434 -0.5015  0.3146  0.1326
 2876SOL    HW120090   2.447   0.537   8.376  0.1989  1.5262  0.7905
 2876SOL    HW220091   2.421   0.450   8.490  0.4413 -1.1966  0.5940
 2877SOL     OW20092   0.703   2.900   3.280  0.7631 -0.2292  0.1723
 2877SOL    HW120093   0.657   2.962   3.337 -0.2631 -0.1815 -0.7089
 2877SOL    HW220094   0.797   2.900   3.294  0.8294  1.6006 -0.2271
 2878SOL     OW20095   2.719   2.670  16.678 -0.8784  0.3610  0.6237
 2878SOL    HW120096   2.712   2.575  16.684 -1.4524  0.3224 -0.5676
 2878SOL    HW220097   2.717   2.688  16.772 -0.8133 -0.4061  0.7725
 2879SOL     OW20098   3.175   0.032   4.911 -0.4877  0.4621  0.3093
 2879SOL    HW120099   3.246   4.722   4.856 -0.5077  0.8204  0.0673
 2879SOL    HW220100   3.229   0.087   4.968  0.7817  1.0174 -1.4273
 2880SOL     OW20101   0.676   2.955  11.883  0.4646 -0.1085  0.5623
 2880SOL    HW120102   0.604   2.972  11.944 -1.9120 -1.2546 -1.8859
 2880SOL    HW220103   0.656   3.012  11.809 -1.5861 -1.6315 -0.0641
 2881SOL     OW20104   0.201   0.506   4.330 -0.5151 -0.4693  0.1416
 2881SOL    HW120105   0.175   0.417   4.308 -0.7989  0.9488 -5.2724
 2881SOL    HW220106   0.288   0.518   4.293 -0.2154  1.9902  1.5985
 2882SOL     OW20107   2.574   2.709   2.754 -0.0680 -0.1434 -0.2364
 2882SOL    HW120108   2.494   2.695   2.703 -0.8700 -0.5035  1.0959
 2882SOL    HW220109   2.551   2.739   2.842  0.8771  0.7501 -0.2959
 2883SOL     OW20110   0.933   2.315   3.845 -0.0766 -0.4126 -0.0833
 2883SOL    HW120111   0.881   2.235   3.855 -0.1253 -0.6624 -2.3868
 2883SOL    HW220112   0.925   2.335   3.751 -1.8324 -1.6110 -0.1877
 2884SOL     OW20113   4.614   1.960   6.175  0.1368 -0.0331 -0.0939
 2884SOL    HW120114   4.591   1.874   6.210  0.1842  0.2271  0.5854
 2884SOL    HW220115   4.559   1.960   6.097 -0.0297  1.4106  0.0229
 2885SOL     OW20116   1.691   3.574   6.778 -0.1501 -0.2804  0.1206
 2885SOL    HW120117   1.725   3.525   6.853  0.4542  2.6298  1.7637
 2885SOL    HW220118   1.599   3.568   6.804 -0.8067  0.4471 -2.0290
 2886SOL     OW20119   2.722   4.392  17.099  0.6358 -0.1368 -0.4804
 2886SOL    HW120120   2.791   4.334  17.131  1.9231  0.3353 -2.3821
 2886SOL    HW220121   2.663   4.390  17.174 -0.1382 -1.2327 -1.1135
 2887SOL     OW20122   0.993   1.903   0.710  0.3999 -0.4576 -0.1967
 2887SOL    HW120123   0.920   1.954   0.744  1.2651  1.8885 -1.8249
 2887SOL    HW220124   0.946   1.824   0.684 -1.4381  0.4440  0.4297
 2888SOL     OW20125   0.695   0.485   2.910  0.2519  0.3802  0.4906
 2888SOL    HW120126   0.702   0.443   2.824 -0.9297  1.1173  0.0310
 2888SOL    HW220127   0.622   0.446   2.957  1.4431 -0.2121  1.8440
 2889SOL     OW20128   2.176   1.719   9.709 -0.1195  0.1738 -0.2143
 2889SOL    HW120129   2.249   1.780   9.694 -1.5702  1.4844 -1.8923
 2889SOL    HW220130   2.117   1.791   9.730  0.9500  1.4382 -1.5042
 2890SOL     OW20131   4.353   0.354   3.654  0.3630 -0.2067  0.2062
 2890SOL    HW120132   4.285   0.287   3.645  2.7407 -2.8036  1.5417
 2890SOL    HW220133   4.419   0.304   3.605 -1.2338  0.3478 -2.5030
 2891SOL     OW20134   1.034   4.573   4.920 -0.2036 -0.1226 -0.1393
 2891SOL    HW120135   1.076   4.640   4.866 -2.7631  1.4126 -0.2324
 2891SOL    HW220136   0.955   4.552   4.869  0.1975  0.0589 -0.8307
 2892SOL     OW20137   0.992   1.181   1.736  0.6267 -0.3947  0.1187
 2892SOL    HW120138   1.004   1.262   1.686 -2.4301  0.0947  0.1960
 2892SOL    HW220139   1.054   1.127   1.688 -0.5732 -2.5072  0.9186
 2893SOL     OW20140   4.109   2.168   9.010  0.4878 -0.1317  0.1214
 2893SOL    HW120141   4.089   2.241   8.952 -0.5581 -0.2302  0.3617
 2893SOL    HW220142   4.034   2.166   9.069  1.2835 -2.8382  1.0699
 2894SOL     OW20143   3.296   4.040   5.847  0.0785 -0.2402  0.2516
 2894SOL    HW120144   3.321   3.953   5.878 -0.2403 -0.9120 -1.3442
 2894SOL    HW220145   3.304   4.024   5.752  0.4449 -0.2601  0.2834
 2895SOL     OW20146   0.285   2.717   0.619 -0.0723  0.4525  0.3442
 2895SOL    HW120147   0.280   2.672   0.704  2.8936 -2.6611 -1.1571
 2895SOL    HW220148   0.340   2.651   0.577  2.9999  3.1892  0.1333
 2896SOL     OW20149   4.652   2.330   8.066  0.5954 -0.3895  0.1431
 2896SOL    HW120150   0.008   2.329   8.014 -0.2268 -1.9265 -1.0921
 2896SOL    HW220151   4.670   2.418   8.098  0.8311 -0.4339  0.1281
 2897SOL     OW20152   3.284   3.994  16.744  0.1957  0.1259  0.1056
 2897SOL    HW120153   3.288   3.903  16.715 -2.0691  0.2748 -0.6596
 2897SOL    HW220154   3.372   4.017  16.714  0.2325  1.5539  1.3081
 2898SOL     OW20155   3.282   3.486  12.352  0.7605 -0.6239 -0.3212
 2898SOL    HW120156   3.198   3.448  12.326  1.4322 -0.7022 -2.4211
 2898SOL    HW220157   3.285   3.569  12.304  0.2831 -1.4726 -1.8355
 2899SOL     OW20158   4.715   2.571   3.663 -0.6778  0.0914 -0.6033
 2899SOL    HW120159   0.046   2.534   3.732 -0.9258  1.5079  0.3521
 2899SOL    HW220160   0.000   2.665   3.674  2.2328 -0.4557  1.6051
 2900SOL     OW20161   0.135   2.005   6.292  0.0225 -0.1046  0.4477
 2900SOL    HW120162   0.048   2.014   6.253 -0.5753 -1.4570  1.4206
 2900SOL    HW220163   0.142   2.068   6.364  2.0576 -0.5792  0.6685
 2901SOL     OW20164   0.269   3.471   5.443  0.4152 -0.6553 -0.2600
 2901SOL    HW120165   0.343   3.492   5.501  0.6797  0.3771 -0.9778
 2901SOL    HW220166   0.313   3.451   5.360  0.5048 -0.5016 -0.2515
 2902SOL     OW20167   2.315   2.495  15.908 -0.0861 -0.5032  0.1681
 2902SOL    HW120168   2.289   2.408  15.941 -0.0311  0.4946  2.8824
 2902SOL    HW220169   2.351   2.525  15.992 -0.3953  0.6582 -0.1154
 2903SOL     OW20170   1.497   1.322   7.920 -0.4157  0.5715  0.1872
 2903SOL    HW120171   1.505   1.230   7.892 -0.1134  0.6445  0.0342
 2903SOL    HW220172   1.575   1.332   7.974 -0.3331  0.6672  0.0487
 2904SOL     OW20173   3.791   4.502   1.851  0.2192 -0.1613 -0.0451
 2904SOL    HW120174   3.701   4.484   1.875 -0.3625  2.8106  0.0339
 2904SOL    HW220175   3.797   4.504   1.755 -1.0644  0.5986 -0.1086
 2905SOL     OW20176   3.746   3.360   6.917 -0.2353  0.3454  0.3965
 2905SOL    HW120177   3.738   3.367   6.822  1.8583  0.8033  0.2448
 2905SOL    HW220178   3.794   3.441   6.934 -0.4569  0.4203  0.6665
 2906SOL     OW20179   3.315   3.624   5.005  0.1005  0.7247 -0.0459
 2906SOL    HW120180   3.351   3.539   5.029  0.0659 -0.0809 -2.8632
 2906SOL    HW220181   3.319   3.627   4.909  1.2698  1.6655  0.0194
 2907SOL     OW20182   3.440   0.726   4.102  0.3194  0.4804  0.4378
 2907SOL    HW120183   3.477   0.689   4.022  0.3040 -2.6405  1.8645
 2907SOL    HW220184   3.462   0.658   4.165  1.8525  0.1989 -0.4109
 2908SOL     OW20185   2.943   1.371  14.692  0.3623  0.7572  0.2467
 2908SOL    HW120186   2.922   1.431  14.620 -0.9179 -0.5108 -0.4189
 2908SOL    HW220187   2.906   1.290  14.657 -1.3576  2.2568 -1.4638
 2909SOL     OW20188   2.736   3.250   2.369  0.0188 -0.4734  0.2204
 2909SOL    HW120189   2.798   3.276   2.301  1.0807 -0.4467  1.1799
 2909SOL    HW220190   2.716   3.338   2.403 -1.8694 -1.0778  0.6893
 2910SOL     OW20191   0.633   3.372   2.226 -0.8197 -0.6098 -0.1568
 2910SOL    HW120192   0.709   3.381   2.168 -1.4963 -0.7578 -1.0545
 2910SOL    HW220193   0.561   3.399   2.170 -0.9635 -1.8404 -0.5647
 2911SOL     OW20194   1.015   3.688  15.856 -0.4200  0.0722  0.2921
 2911SOL    HW120195   1.057   3.771  15.878  0.3101  0.1519 -1.3555
 2911SOL    HW220196   0.983   3.710  15.768  0.3400 -0.3347 -0.0855
 2912SOL     OW20197   1.781   3.674   6.541  0.2904  0.0895  0.2987
 2912SOL    HW120198   1.761   3.638   6.627  2.9538  0.4840  1.0850
 2912SOL    HW220199   1.820   3.595   6.504  3.1807  3.0387 -2.9574
 2913SOL     OW20200   2.895   2.220  13.533  0.2327  0.3482  0.0791
 2913SOL    HW120201   2.822   2.281  13.523 -1.6692 -2.0547 -0.6019
 2913SOL    HW220202   2.873   2.175  13.615 -2.1164  0.5808 -0.4413
 2914SOL     OW20203   0.354   2.883   1.426  0.0777  0.1424  0.2271
 2914SOL    HW120204   0.308   2.863   1.345  1.2403  2.7400 -1.0700
 2914SOL    HW220205   0.313   2.967   1.446  0.9537  0.4579  0.6964
 2915SOL     OW20206   0.858   4.406   3.978  0.5270  0.1272 -0.2013
 2915SOL    HW120207   0.857   4.331   3.919  0.9227 -0.6210  0.7385
 2915SOL    HW220208   0.868   4.361   4.062  1.9696  2.0705  0.6509
 2916SOL     OW20209   2.310   3.526  15.157  0.1046  0.5713 -0.3030
 2916SOL    HW120210   2.361   3.471  15.216 -0.4902  0.1981 -0.1380
 2916SOL    HW220211   2.377   3.588  15.129  0.5716 -0.1917 -0.8694
 2917SOL     OW20212   1.512   3.543   3.345  0.7481  0.4197  0.8371
 2917SOL    HW120213   1.444   3.487   3.308  0.1696  1.7374 -0.0700
 2917SOL    HW220214   1.463   3.622   3.365 -0.5842 -0.3662  0.6762
 2918SOL     OW20215   0.423   1.168   3.165 -0.2983 -0.1568 -0.3116
 2918SOL    HW120216   0.506   1.120   3.173  0.0876  0.5947  0.1845
 2918SOL    HW220217   0.415   1.180   3.070  0.7583  1.1235 -0.2433
 2919SOL     OW20218   1.923   3.379   3.942 -0.1006  0.5790 -0.3906
 2919SOL    HW120219   1.855   3.410   4.001  0.5910  0.2683  0.5758
 2919SOL    HW220220   2.004   3.404   3.987  1.1015  0.5304 -2.5366
 2920SOL     OW20221   3.888   4.069   6.889  0.2682 -0.2053  0.0068
 2920SOL    HW120222   3.961   4.023   6.931  0.4678  0.6485  0.5872
 2920SOL    HW220223   3.912   4.159   6.913  0.4308 -0.2375 -0.0300
 2921SOL     OW20224   1.611   1.135   6.806  0.1176 -0.3892  0.3878
 2921SOL    HW120225   1.660   1.151   6.726 -1.8231 -1.2949 -0.9739
 2921SOL    HW220226   1.594   1.042   6.793 -1.1051 -0.1217  0.1493
 2922SOL     OW20227   0.595   1.414  10.997  0.1449 -0.0809  0.0890
 2922SOL    HW120228   0.620   1.493  10.950 -1.4723  0.0711 -0.5163
 2922SOL    HW220229   0.520   1.452  11.043 -1.3257 -0.0564 -2.2757
 2923SOL     OW20230   2.727   4.243   8.565  0.0887  0.4969  0.9403
 2923SOL    HW120231   2.731   4.286   8.651 -0.3359 -1.6881  2.0691
 2923SOL    HW220232   2.681   4.315   8.522 -0.8003 -1.9750 -2.2009
 2924SOL     OW20233   4.590   3.859  11.391  0.5646 -0.0446 -0.0680
 2924SOL    HW120234   4.539   3.779  11.377  0.2952 -0.0125  0.7135
 2924SOL    HW220235   4.674   3.827  11.359  0.6177  1.0872 -1.0328
 2925SOL     OW20236   3.667   0.086  17.032 -0.3323  0.3180  0.3691
 2925SOL    HW120237   3.698   0.173  17.061  1.7468 -0.2997  0.0516
 2925SOL    HW220238   3.588   0.081  17.085 -1.0818  1.2179 -0.6764
 2926SOL     OW20239   1.896   0.802   3.840 -0.1522 -0.0609  0.0247
 2926SOL    HW120240   1.833   0.785   3.770  1.3078 -0.6152 -1.1784
 2926SOL    HW220241   1.916   0.895   3.830  1.0869 -0.5874 -2.4217
 2927SOL     OW20242   4.222   0.835   7.706  0.2984 -0.1693  0.2336
 2927SOL    HW120243   4.180   0.778   7.641 -2.0630  1.7943  0.0435
 2927SOL    HW220244   4.301   0.784   7.727  0.6422  0.7963  1.3345
 2928SOL     OW20245   4.099   3.914   2.471 -0.4369  0.5820 -0.2739
 2928SOL    HW120246   4.152   3.992   2.489 -0.5707  0.6874 -0.3290
 2928SOL    HW220247   4.163   3.861   2.423  0.2109  0.1225  1.0874
 2929SOL     OW20248   3.381   1.992  17.070  0.3394  0.5809 -0.5138
 2929SOL    HW120249   3.336   2.074  17.049 -0.9300 -0.1324 -0.5298
 2929SOL    HW220250   3.468   2.019  17.040 -0.0781  0.9196 -1.4175
 2930SOL     OW20251   0.564   4.445   8.721  0.2626  0.3544 -0.8948
 2930SOL    HW120252   0.559   4.490   8.806  0.5993 -0.3066 -0.5199
 2930SOL    HW220253   0.490   4.483   8.674  0.3974  1.4053 -0.2792
 2931SOL     OW20254   1.870   3.495  10.462  0.1692  0.5554 -0.0927
 2931SOL    HW120255   1.876   3.400  10.452 -0.5945  0.3665  1.2078
 2931SOL    HW220256   1.958   3.523  10.436  0.4435  1.8864  2.2555
 2932SOL     OW20257   2.034   0.753  14.874  0.6945  0.1327 -0.1456
 2932SOL    HW120258   2.012   0.682  14.935  2.3587 -0.4593 -0.2529
 2932SOL    HW220259   2.108   0.788  14.923  0.3056 -0.5251  0.9371
 2933SOL     OW20260   3.331   4.627   7.196 -0.2164 -0.4829 -0.0970
 2933SOL    HW120261   3.345   4.667   7.282 -3.0096 -0.2100  0.2380
 2933SOL    HW220262   3.239   4.603   7.205 -0.5168  1.2273  1.4218
 2934SOL     OW20263   0.156   4.566   5.638  0.0893  0.4098  0.1840
 2934SOL    HW120264   0.232   4.553   5.694 -0.2896 -2.6590 -0.0005
 2934SOL    HW220265   0.156   4.488   5.582 -0.3748  0.7469 -0.2857
 2935SOL     OW20266   2.586   1.141   6.131 -0.0795 -0.6433 -0.0037
 2935SOL    HW120267   2.661   1.169   6.183 -1.3596  1.5567  0.6965
 2935SOL    HW220268   2.587   1.200   6.055 -0.9914  0.9810  1.2311
 2936SOL     OW20269   0.741   3.300   2.850  0.1236  0.1339 -0.3998
 2936SOL    HW120270   0.750   3.205   2.842 -2.6679 -0.1527 -0.2564
 2936SOL    HW220271   0.646   3.313   2.850  0.2796  1.2986  0.6795
 2937SOL     OW20272   1.063   0.703   2.660  0.5142  0.1629  0.0316
 2937SOL    HW120273   1.040   0.703   2.568  1.3378 -0.4987 -0.1766
 2937SOL    HW220274   1.152   0.739   2.655  0.6927 -0.6849 -2.8208
 2938SOL     OW20275   1.788   2.724   4.566  0.0003  0.2265  0.4449
 2938SOL    HW120276   1.693   2.712   4.560 -0.1439  0.1731  2.8100
 2938SOL    HW220277   1.800   2.760   4.654 -0.0038 -0.6393  0.8034
 2939SOL     OW20278   3.302   4.224   4.275 -0.2591 -0.0961  0.3095
 2939SOL    HW120279   3.290   4.287   4.346  0.5788  2.2103 -1.5751
 2939SOL    HW220280   3.389   4.189   4.293 -0.0002 -0.4494 -1.6065
 2940SOL     OW20281   0.891   0.081   8.198  0.2453 -0.0474 -0.3990
 2940SOL    HW120282   0.887   0.015   8.129  0.7949  1.4025 -1.8088
 2940SOL    HW220283   0.946   0.137   8.143 -0.2605  1.4159  0.5860
 2941SOL     OW20284   2.336   3.639   2.607 -0.2328 -0.1919  0.2822
 2941SOL    HW120285   2.294   3.611   2.526  1.2993 -0.9184 -0.2662
 2941SOL    HW220286   2.273   3.600   2.668 -1.0842  0.1535 -0.3736
 2942SOL     OW20287   4.160   0.167   3.667  0.3658 -0.4382 -0.3399
 2942SOL    HW120288   4.140   0.191   3.757  3.8854 -1.7542  0.8042
 2942SOL    HW220289   4.073   0.155   3.631  0.6339  3.8544 -2.4227
 2943SOL     OW20290   0.038   2.095   3.322 -0.4278 -0.1008  0.4624
 2943SOL    HW120291   0.106   2.029   3.335 -0.4946 -0.3737 -0.6391
 2943SOL    HW220292   0.073   2.153   3.254 -2.3246 -1.3675 -1.5634
 2944SOL     OW20293   0.812   3.331   7.550 -0.4112  0.0927 -0.8063
 2944SOL    HW120294   0.901   3.366   7.564 -0.7836  1.4421 -1.7914
 2944SOL    HW220295   0.764   3.354   7.630 -1.8027  0.5297 -1.7664
 2945SOL     OW20296   3.167   1.927   6.972 -0.2908  0.1097  0.7221
 2945SOL    HW120297   3.081   1.920   7.013 -1.0859  0.7212 -0.8462
 2945SOL    HW220298   3.161   2.004   6.916  3.6589  1.4612  2.1580
 2946SOL     OW20299   4.601   4.407   2.148 -0.0069 -0.2012 -0.2505
 2946SOL    HW120300   4.673   4.347   2.130 -1.0461 -2.7655  4.1140
 2946SOL    HW220301   4.551   4.394   2.067 -1.3697 -0.6680  0.6720
 2947SOL     OW20302   0.194   3.913   7.863  0.0933  0.6541  0.5280
 2947SOL    HW120303   0.232   3.996   7.890 -1.8721  1.2805  1.3291
 2947SOL    HW220304   0.151   3.931   7.780  0.9569 -0.0060 -0.0714
 2948SOL     OW20305   0.112   0.007  16.351 -0.1387 -0.1626 -0.3856
 2948SOL    HW120306   0.064   0.032  16.430  0.3335 -1.3594  0.2650
 2948SOL    HW220307   0.175   4.661  16.367  1.0435  0.9607 -0.1980
 2949SOL     OW20308   4.120   3.464  15.126 -0.1248  0.3345  0.2992
 2949SOL    HW120309   4.192   3.445  15.186 -0.3085  0.0265  0.4155
 2949SOL    HW220310   4.088   3.547  15.161  1.2436 -0.1814  2.8268
 2950SOL     OW20311   0.078   3.055   5.198  0.1668  0.4009  0.4078
 2950SOL    HW120312   0.089   3.112   5.274 -3.0056 -0.0569  1.1837
 2950SOL    HW220313   0.129   3.101   5.131 -0.6612  1.5937  0.6034
 2951SOL     OW20314   1.469   0.041  15.422 -0.1978  0.0908  0.1264
 2951SOL    HW120315   1.457   4.677  15.460 -1.2612  0.7787  1.3741
 2951SOL    HW220316   1.533   0.033  15.351 -1.5278  1.2140 -1.1950
 2952SOL     OW20317   3.368   2.572  15.564 -0.6800  0.3613  0.5754
 2952SOL    HW120318   3.406   2.517  15.633 -0.4411  0.2827  0.3822
 2952SOL    HW220319   3.445   2.617  15.531 -1.8333  2.0085  0.1049
 2953SOL     OW20320   0.290   3.604   9.454  0.1961 -0.3363 -0.3250
 2953SOL    HW120321   0.251   3.527   9.412  1.1007 -0.3003 -1.2289
 2953SOL    HW220322   0.230   3.608   9.529 -1.7371  1.1932 -1.9425
 2954SOL     OW20323   1.153   2.975   2.107 -0.2842  0.2721  0.1590
 2954SOL    HW120324   1.114   3.001   2.023  1.5212  0.4149 -0.6398
 2954SOL    HW220325   1.107   2.894   2.125  0.5889 -0.2128  0.2238
 2955SOL     OW20326   1.377   2.376   8.783  0.3048 -0.1845  0.3927
 2955SOL    HW120327   1.460   2.424   8.785  0.4621 -0.5091  1.6430
 2955SOL    HW220328   1.431   2.298   8.796  0.7380 -0.6263 -4.1392
 2956SOL     OW20329   0.617   0.241  11.249  0.1169 -0.0738  0.5710
 2956SOL    HW120330   0.668   0.245  11.330 -0.0788 -0.5831  0.7203
 2956SOL    HW220331   0.664   0.306  11.197 -2.2533  1.1049 -0.0761
 2957SOL     OW20332   0.962   0.935   4.008 -0.3276 -0.1652 -0.3159
 2957SOL    HW120333   0.869   0.933   3.987  0.0500  2.0006 -2.1595
 2957SOL    HW220334   0.974   0.842   4.029  4.0351  0.5375  0.1809
 2958SOL     OW20335   1.141   3.644   3.743  0.0169  0.4220 -0.3685
 2958SOL    HW120336   1.193   3.721   3.720  0.9767 -0.8831 -2.6251
 2958SOL    HW220337   1.145   3.588   3.665  0.4842  0.0804 -0.0997
 2959SOL     OW20338   1.707   3.717   5.578 -0.2342 -0.2182 -0.0721
 2959SOL    HW120339   1.717   3.630   5.538  2.2602  0.5093 -0.9670
 2959SOL    HW220340   1.634   3.696   5.636 -0.3880  0.5867  0.0271
 2960SOL     OW20341   4.061   0.722   7.485  0.1697 -0.5865  0.2518
 2960SOL    HW120342   3.997   0.792   7.500  0.2671 -0.2901 -0.7621
 2960SOL    HW220343   4.006   0.661   7.436  0.0128 -0.6918  0.5613
 2961SOL     OW20344   3.157   2.333   3.157 -0.4026  0.4681  0.1851
 2961SOL    HW120345   3.160   2.414   3.106  2.1337 -0.0929 -0.5610
 2961SOL    HW220346   3.081   2.286   3.124  0.3808 -1.0341  0.5413
 2962SOL     OW20347   1.289   1.318   8.567 -0.0472  0.2221 -0.1549
 2962SOL    HW120348   1.301   1.314   8.662 -0.3109  1.4219 -0.0765
 2962SOL    HW220349   1.225   1.248   8.555  0.0559 -0.2191  1.8080
 2963SOL     OW20350   1.588   4.542   4.284 -0.1213  0.4125 -0.3307
 2963SOL    HW120351   1.654   4.563   4.350 -0.0542 -3.0434  0.7129
 2963SOL    HW220352   1.522   4.611   4.294  0.4816  1.0205 -0.5887
 2964SOL     OW20353   2.625   4.055  16.746 -0.1399  0.9375 -0.2102
 2964SOL    HW120354   2.541   4.083  16.783  0.6386 -0.5440  2.6606
 2964SOL    HW220355   2.620   4.080  16.654  0.6252  0.5842 -0.3446
 2965SOL     OW20356   3.085   1.859   9.281  0.1154 -0.8977 -0.4275
 2965SOL    HW120357   3.155   1.905   9.235 -0.5569 -0.3522 -0.9106
 2965SOL    HW220358   3.124   1.849   9.368  1.0942  0.2484 -0.7366
 2966SOL     OW20359   2.213   1.725   2.470  0.3528  0.0173  0.2257
 2966SOL    HW120360   2.165   1.804   2.446 -0.9217 -0.4949  1.1081
 2966SOL    HW220361   2.283   1.771   2.518 -1.8449  2.9401  0.6288
 2967SOL     OW20362   2.167   2.593   9.557 -0.4883 -0.8127 -0.1863
 2967SOL    HW120363   2.164   2.689   9.557  1.6840 -0.7366 -0.9749
 2967SOL    HW220364   2.140   2.577   9.647 -1.1721 -0.8800 -0.4062
 2968SOL     OW20365   2.959   3.565   7.532  0.3983 -0.4433  1.2770
 2968SOL    HW120366   2.928   3.602   7.615  0.1352  2.2790 -0.0512
 2968SOL    HW220367   2.961   3.648   7.484 -0.7529 -1.6987 -0.9342
 2969SOL     OW20368   2.983   1.207  10.419 -0.2013  0.3407  0.0746
 2969SOL    HW120369   2.970   1.148  10.494  0.8788  1.4627  1.1653
 2969SOL    HW220370   2.943   1.162  10.345  0.2597  1.2577 -0.7351
 2970SOL     OW20371   1.387   0.550   4.430  0.3131  0.2281 -0.0641
 2970SOL    HW120372   1.475   0.577   4.405  0.1720  1.5262  0.8045
 2970SOL    HW220373   1.347   0.618   4.375 -0.4228  0.5122  0.8070
 2971SOL     OW20374   3.769   3.963   7.501  0.4219 -0.5102 -0.0680
 2971SOL    HW120375   3.751   3.918   7.584  2.6298  0.7249  1.0807
 2971SOL    HW220376   3.805   4.046   7.533 -1.5254 -0.6476  2.5107
 2972SOL     OW20377   3.007   0.325   5.707 -0.1765 -0.7123 -0.4718
 2972SOL    HW120378   3.048   0.285   5.784  2.8340  2.4481 -0.4065
 2972SOL    HW220379   3.063   0.402   5.696 -0.6066 -0.3239  0.1042
 2973SOL     OW20380   0.542   1.920   6.106 -0.1544  0.2653 -0.0741
 2973SOL    HW120381   0.453   1.954   6.115  0.3507  1.9010 -1.2535
 2973SOL    HW220382   0.576   1.997   6.062  1.4888  0.2704  1.2033
 2974SOL     OW20383   2.362   0.441  16.809  0.2842 -0.1333  0.0274
 2974SOL    HW120384   2.449   0.447  16.770 -0.2055  0.4936 -0.9697
 2974SOL    HW220385   2.311   0.457  16.730 -1.3662  1.4035  1.3832
 2975SOL     OW20386   3.414   3.218   6.715  0.5147 -0.2046  0.1343
 2975SOL    HW120387   3.490   3.166   6.688  1.1596  1.0352 -0.4352
 2975SOL    HW220388   3.392   3.255   6.629 -1.1615 -3.2706 -0.7709
 2976SOL     OW20389   2.498   1.716  12.047 -0.3388  0.0229 -0.2595
 2976SOL    HW120390   2.427   1.781  12.039  0.7627  1.1452 -0.8296
 2976SOL    HW220391   2.576   1.762  12.017 -0.3210  1.2658  1.6785
 2977SOL     OW20392   3.910   1.339  11.984 -0.3181  0.2647  0.4497
 2977SOL    HW120393   3.996   1.297  11.976 -0.5779 -0.1125 -0.4253
 2977SOL    HW220394   3.849   1.267  11.992  0.4001 -0.6312 -2.0861
 2978SOL     OW20395   3.472   3.350  12.201  0.0109 -0.0829 -0.1071
 2978SOL    HW120396   3.545   3.373  12.258 -1.5482  3.4700  0.4083
 2978SOL    HW220397   3.400   3.399  12.239 -1.0862 -0.7961 -1.2627
 2979SOL     OW20398   1.218   2.359   1.608 -0.1197  0.5551 -0.0676
 2979SOL    HW120399   1.302   2.316   1.596  0.3978  2.0622 -1.9043
 2979SOL    HW220400   1.170   2.318   1.536  0.4480 -1.3545  0.6599
 2980SOL     OW20401   1.345   4.357  14.293  0.1813 -0.2632  0.0437
 2980SOL    HW120402   1.422   4.323  14.339  0.5107  0.6267  0.1631
 2980SOL    HW220403   1.335   4.284  14.232 -0.6224  1.0827 -1.4148
 2981SOL     OW20404   1.917   3.845   3.140  0.3618 -0.2515 -0.1347
 2981SOL    HW120405   1.915   3.934   3.174 -1.0050  0.9287 -3.3324
 2981SOL    HW220406   1.852   3.806   3.199  1.8283 -1.9726  0.3556
 2982SOL     OW20407   2.906   4.057   1.334 -0.3679 -0.1838 -0.7673
 2982SOL    HW120408   2.949   3.979   1.368 -0.6905 -0.9134 -2.0305
 2982SOL    HW220409   2.831   4.026   1.283 -0.8371  1.3820 -1.0398
 2983SOL     OW20410   0.094   1.417   3.342 -0.0346  0.0906 -0.2170
 2983SOL    HW120411   0.142   1.492   3.377  0.7585 -0.4106 -0.2160
 2983SOL    HW220412   0.077   1.462   3.260  0.2236  0.3245 -0.1434
 2984SOL     OW20413   4.386   2.951   4.780 -0.2927 -0.1977 -0.4548
 2984SOL    HW120414   4.354   2.914   4.698  1.1304 -1.7599 -0.3012
 2984SOL    HW220415   4.329   2.907   4.843 -1.4706 -0.1864 -1.5017
 2985SOL     OW20416   2.938   0.177   6.538  0.0785  0.3238 -0.3974
 2985SOL    HW120417   2.988   0.245   6.494  0.0817  1.1070  0.8128
 2985SOL    HW220418   2.860   0.178   6.482 -1.0041 -1.6263  1.0661
 2986SOL     OW20419   0.393   2.981   6.362 -0.3694  0.1804 -0.2948
 2986SOL    HW120420   0.392   2.932   6.444  0.4988 -0.1384 -0.4729
 2986SOL    HW220421   0.334   2.920   6.318 -1.2557 -0.2968  1.5675
 2987SOL     OW20422   1.326   1.761   6.171 -0.7956 -0.3509 -0.6345
 2987SOL    HW120423   1.235   1.731   6.168 -0.7680 -0.3403 -1.7705
 2987SOL    HW220424   1.315   1.850   6.204  0.7930 -0.0635 -0.8711
 2988SOL     OW20425   0.700   3.403   4.468 -0.1881  0.4041 -0.3029
 2988SOL    HW120426   0.694   3.324   4.522 -0.9643 -0.0121 -1.0073
 2988SOL    HW220427   0.739   3.462   4.533  0.8321  0.4168 -0.9308
 2989SOL     OW20428   1.816   1.258   7.551 -0.0281  0.3521  0.4922
 2989SOL    HW120429   1.819   1.180   7.496  1.6956  0.3536  0.5821
 2989SOL    HW220430   1.841   1.223   7.637 -0.0521  0.5992  0.5992
 2990SOL     OW20431   3.677   1.965   3.851  0.5828 -0.5793 -0.1058
 2990SOL    HW120432   3.754   2.006   3.890 -0.4423 -0.7323  2.1481
 2990SOL    HW220433   3.702   1.875   3.834  1.4423 -0.3013 -0.2888
 2991SOL     OW20434   3.369   1.563   8.442 -0.3497  0.4858 -0.1625
 2991SOL    HW120435   3.296   1.502   8.442 -0.3380  0.4728  0.7084
 2991SOL    HW220436   3.334   1.640   8.487 -0.1049 -0.3737  1.4819
 2992SOL     OW20437   4.522   3.434   7.525 -0.4007 -0.2223 -0.2043
 2992SOL    HW120438   4.595   3.496   7.519 -0.2654 -0.2532  1.1344
 2992SOL    HW220439   4.446   3.490   7.512  0.5556  1.5865  2.0315
 2993SOL     OW20440   1.896   1.664   1.273 -0.0765  0.5774 -0.0661
 2993SOL    HW120441   1.804   1.662   1.247 -0.1211  1.2880  0.0372
 2993SOL    HW220442   1.913   1.759   1.271 -0.8511  0.7185  0.2483
 2994SOL     OW20443   2.393   0.451   2.802  0.0103 -0.3234 -0.3772
 2994SOL    HW120444   2.423   0.370   2.760 -0.7786 -0.9631  0.2926
 2994SOL    HW220445   2.328   0.409   2.858 -1.7230 -0.0209 -2.2086
 2995SOL     OW20446   3.197   3.280   5.113 -0.2343 -0.3735 -0.2224
 2995SOL    HW120447   3.182   3.331   5.033 -1.5893 -0.3904  0.0221
 2995SOL    HW220448   3.220   3.344   5.180 -2.6815 -1.2673  1.4722
 2996SOL     OW20449   1.643   2.972   4.156 -0.3720 -0.0139  0.2582
 2996SOL    HW120450   1.678   3.032   4.091 -2.4928  0.7813 -0.1355
 2996SOL    HW220451   1.554   3.002   4.175 -0.4626 -0.1401  0.0346
 2997SOL     OW20452   0.625   4.468   6.258  0.0305 -0.4642  0.1199
 2997SOL    HW120453   0.636   4.373   6.256 -0.1756 -0.4937  0.3696
 2997SOL    HW220454   0.615   4.487   6.351 -0.7133 -1.3516  0.2128
 2998SOL     OW20455   3.242   0.860   5.381  0.2346  0.0500 -0.1738
 2998SOL    HW120456   3.158   0.858   5.427  1.5847  1.1471  2.2993
 2998SOL    HW220457   3.219   0.914   5.305  0.1384 -1.7338 -1.4190
 2999SOL     OW20458   2.703   1.061  16.033 -0.0342  0.1134  0.1474
 2999SOL    HW120459   2.764   1.120  16.077  0.2893 -0.9429  1.1084
 2999SOL    HW220460   2.692   1.112  15.953 -2.0435 -0.8027 -0.1681
 3000SOL     OW20461   4.546   0.464  14.427  0.0941  0.6656  0.5420
 3000SOL    HW120462   4.630   0.426  14.401 -0.7017 -0.3985 -0.5085
 3000SOL    HW220463   4.506   0.384  14.462  0.5343  0.5389  0.7539
 3001SOL     OW20464   4.155   0.000   8.282  0.0251  0.0692 -0.6706
 3001SOL    HW120465   4.156   4.665   8.207 -0.0571  0.2581 -0.8214
 3001SOL    HW220466   4.126   4.668   8.354 -0.6097  1.5872  0.2745
 3002SOL     OW20467   2.093   3.592  10.321 -0.3116 -0.2354 -0.5746
 3002SOL    HW120468   2.155   3.573  10.392  0.6013  0.1792 -1.2694
 3002SOL    HW220469   2.158   3.628  10.260 -1.4840 -0.8352 -2.1686
 3003SOL     OW20470   2.069   3.724   1.723  0.1835  0.3009 -0.0311
 3003SOL    HW120471   2.125   3.786   1.769 -0.7607  2.8846 -2.3464
 3003SOL    HW220472   2.120   3.643   1.717 -0.3417 -0.2460  2.7912
 3004SOL     OW20473   3.627   0.588   5.257  0.3973 -0.5164  0.0704
 3004SOL    HW120474   3.621   0.620   5.167 -0.6061 -0.4803  0.1495
 3004SOL    HW220475   3.565   0.643   5.304 -0.0459 -1.5219  0.6599
 3005SOL     OW20476   1.552   3.298   8.023 -0.4878 -0.1771 -0.1635
 3005SOL    HW120477   1.518   3.364   7.963 -0.9241 -0.3392 -0.0890
 3005SOL    HW220478   1.645   3.317   8.009 -0.1942 -2.6573 -1.5468
 3006SOL     OW20479   1.675   1.512   8.710 -0.2842  0.0009  0.5698
 3006SOL    HW120480   1.761   1.548   8.728  0.2294 -1.7370  1.6051
 3006SOL    HW220481   1.679   1.526   8.615  0.4757  2.4319  0.9826
 3007SOL     OW20482   0.589   0.431  16.744 -0.1883  0.3975 -0.2086
 3007SOL    HW120483   0.650   0.388  16.683  0.9243  1.8817 -0.1237
 3007SOL    HW220484   0.623   0.520  16.750 -0.8952  0.6812 -0.3540
 3008SOL     OW20485   2.381   1.315   9.201 -0.2145 -0.2094 -0.3259
 3008SOL    HW120486   2.465   1.353   9.177 -0.1391  0.3457  0.7838
 3008SOL    HW220487   2.388   1.220   9.201  0.7097 -0.1448  2.9654
 3009SOL     OW20488   3.503   1.160   7.031 -0.1736 -0.0255 -0.1072
 3009SOL    HW120489   3.483   1.249   7.002  2.4761  0.3593 -0.7453
 3009SOL    HW220490   3.434   1.153   7.098  0.2354 -1.5536  0.1557
 3010SOL     OW20491   0.298   1.065   9.230 -0.5786 -0.0243 -0.1517
 3010SOL    HW120492   0.368   1.123   9.198 -1.5526  0.4177 -1.5357
 3010SOL    HW220493   0.275   1.027   9.145 -0.6977 -0.8732  0.2634
 3011SOL     OW20494   2.508   3.676   3.298 -0.2105 -0.3384  0.7108
 3011SOL    HW120495   2.508   3.588   3.260  0.2559  0.5552 -1.3766
 3011SOL    HW220496   2.526   3.719   3.215  3.2969 -3.4258 -0.1716
 3012SOL     OW20497   1.188   1.771   4.573 -0.2302 -0.5627 -0.4558
 3012SOL    HW120498   1.229   1.744   4.655 -0.0244  1.6105  0.1365
 3012SOL    HW220499   1.189   1.691   4.521 -0.4396  1.2400 -3.2383
 3013SOL     OW20500   3.868   4.187   0.917 -0.5134 -0.0036  0.0419
 3013SOL    HW120501   3.826   4.250   0.976  0.0626 -0.9576  1.4572
 3013SOL    HW220502   3.844   4.106   0.961 -0.5723 -0.2276 -0.4083
 3014SOL     OW20503   3.541   3.950   6.468  0.4966  0.2878  0.1385
 3014SOL    HW120504   3.507   3.861   6.472 -0.0353  0.4961  0.2300
 3014SOL    HW220505   3.491   3.980   6.393 -0.9594 -1.0791  0.5536
 3015SOL     OW20506   4.690   3.271   7.084  0.0364 -0.3535 -0.5747
 3015SOL    HW120507   0.040   3.305   7.135 -0.2239 -0.0358 -0.4104
 3015SOL    HW220508   4.669   3.350   7.034 -0.1560 -0.4164 -0.5935
 3016SOL     OW20509   1.278   4.282  12.579  0.1755 -0.1831 -0.0205
 3016SOL    HW120510   1.367   4.299  12.548  0.3306 -1.8946 -0.5049
 3016SOL    HW220511   1.271   4.359  12.635 -0.3641 -1.3423  1.4997
 3017SOL     OW20512   2.712   3.823   5.705 -0.8469 -0.2373  0.5883
 3017SOL    HW120513   2.689   3.812   5.613 -0.0299  0.5311  0.2906
 3017SOL    HW220514   2.626   3.810   5.745 -2.3113  1.7685 -1.9878
 3018SOL     OW20515   4.411   1.850   0.167  0.0438  0.5170  0.2596
 3018SOL    HW120516   4.388   1.798   0.244  3.1005 -1.9899 -0.5105
 3018SOL    HW220517   4.365   1.932   0.184 -2.1543 -0.7836  0.6194
 3019SOL     OW20518   1.055   0.259   3.845  0.0004  1.0999 -0.1467
 3019SOL    HW120519   1.035   0.345   3.808  0.5785 -0.4188 -4.0156
 3019SOL    HW220520   0.999   0.208   3.785 -0.4308 -0.4542  1.5993
 3020SOL     OW20521   3.357   3.073  16.674  0.4533  0.0184 -0.4559
 3020SOL    HW120522   3.333   3.030  16.756  1.6604  2.1875  1.0523
 3020SOL    HW220523   3.298   3.147  16.690  0.6224  0.0535  0.0182
 3021SOL     OW20524   0.481   3.289   2.763  0.3225  0.2619  0.0056
 3021SOL    HW120525   0.414   3.235   2.805 -0.0424  2.4616  2.3161
 3021SOL    HW220526   0.468   3.280   2.669  2.5871  0.7519 -0.3581
 3022SOL     OW20527   3.929   3.959   8.173  0.0512  0.4656  0.2301
 3022SOL    HW120528   3.840   3.950   8.206  0.6029 -0.9410  1.3207
 3022SOL    HW220529   3.947   4.048   8.201  0.2939  0.3325  0.4942
 3023SOL     OW20530   3.605   0.389  13.586 -0.2522 -0.2497  0.0193
 3023SOL    HW120531   3.624   0.436  13.667 -1.7866  1.4451 -0.6117
 3023SOL    HW220532   3.538   0.446  13.549 -0.7062 -0.1904  0.9286
 3024SOL     OW20533   1.927   4.496   0.435  0.3100  0.8218  0.3041
 3024SOL    HW120534   1.896   4.506   0.345  1.8305  0.8543 -0.2156
 3024SOL    HW220535   1.935   4.400   0.440 -3.4633  0.4343 -0.8725
 3025SOL     OW20536   3.843   3.433   2.617  0.4490  0.0405 -0.5953
 3025SOL    HW120537   3.920   3.385   2.647  0.8234  0.0600 -1.5392
 3025SOL    HW220538   3.810   3.466   2.700  0.3723 -0.3550 -0.4654
 3026SOL     OW20539   3.409   1.006   6.825  0.3645  0.4803 -0.2115
 3026SOL    HW120540   3.336   1.001   6.886  0.8152  0.4342  0.3175
 3026SOL    HW220541   3.457   1.072   6.874 -0.6718 -0.1212  1.5949
 3027SOL     OW20542   2.557   4.438   9.695 -0.1784  0.5043  0.0009
 3027SOL    HW120543   2.634   4.425   9.641 -0.4443 -1.9605  0.2320
 3027SOL    HW220544   2.584   4.390   9.773  0.2699  0.7420 -0.0096
 3028SOL     OW20545   1.494   1.488   3.871 -0.2477  0.1377  0.3063
 3028SOL    HW120546   1.509   1.569   3.821 -2.2029  0.5170  0.3221
 3028SOL    HW220547   1.467   1.529   3.953  1.8026 -0.4650  1.2789
 3029SOL     OW20548   1.404   3.965  12.513 -0.6476  0.0354  0.1640
 3029SOL    HW120549   1.480   4.014  12.482  2.5208 -3.6087  2.1006
 3029SOL    HW220550   1.353   4.038  12.549 -0.5511 -0.6530  1.7257
 3030SOL     OW20551   1.775   2.682   1.559  0.1150 -0.3027 -0.1297
 3030SOL    HW120552   1.813   2.748   1.616 -0.1902 -0.5916  0.4051
 3030SOL    HW220553   1.821   2.609   1.602  0.3768  0.4752  0.9147
 3031SOL     OW20554   1.709   1.538  12.403  1.0872 -0.3252 -0.1993
 3031SOL    HW120555   1.736   1.483  12.476  0.0978 -2.4517 -1.4234
 3031SOL    HW220556   1.737   1.493  12.323  0.0188  0.0050 -0.7710
 3032SOL     OW20557   1.952   3.363   2.244 -0.6229  0.1221 -0.6573
 3032SOL    HW120558   1.925   3.273   2.229 -0.8557  0.0830 -0.0137
 3032SOL    HW220559   2.039   3.358   2.205 -1.4847  2.2114 -2.8666
 3033SOL     OW20560   2.588   3.027   6.858  0.7913  0.1124 -0.3149
 3033SOL    HW120561   2.673   3.066   6.839  0.8411  0.0151 -0.2926
 3033SOL    HW220562   2.603   2.995   6.947  0.8960  0.2106 -0.2967
 3034SOL     OW20563   2.330   2.776   6.806 -0.3636 -0.1995  0.2506
 3034SOL    HW120564   2.299   2.848   6.860  2.2200  0.9967  0.1053
 3034SOL    HW220565   2.246   2.729   6.801  0.4614 -1.2615 -3.4496
 3035SOL     OW20566   2.180   4.239  12.466  0.5165  0.2175  0.0653
 3035SOL    HW120567   2.126   4.226  12.544  0.1442  1.5067  0.0284
 3035SOL    HW220568   2.121   4.272  12.398 -0.2809 -1.7914 -0.2333
 3036SOL     OW20569   3.062   3.439   8.191  0.7550 -0.7744 -0.4090
 3036SOL    HW120570   3.123   3.367   8.207  1.3556 -0.5555 -1.7706
 3036SOL    HW220571   2.991   3.389   8.150 -0.7514  1.0339 -0.0439
 3037SOL     OW20572   1.320   2.457  11.851  0.3596  0.4769  0.3155
 3037SOL    HW120573   1.260   2.516  11.805  0.0310 -0.2074 -0.1306
 3037SOL    HW220574   1.359   2.408  11.778 -0.1429 -0.5258  0.7305
 3038SOL     OW20575   4.049   0.395   7.593  0.6107  0.5612 -0.0836
 3038SOL    HW120576   4.106   0.397   7.517 -0.0143  0.2752 -0.5591
 3038SOL    HW220577   3.987   0.325   7.572 -0.1359  0.8996  1.0198
 3039SOL     OW20578   1.623   4.518  13.730  0.1986  0.4776 -0.4285
 3039SOL    HW120579   1.656   4.599  13.690 -0.7480  0.7541 -0.6647
 3039SOL    HW220580   1.544   4.495  13.680  0.7051 -0.6501 -0.7034
 3040SOL     OW20581   2.034   0.871  13.873  0.2187 -0.3643 -0.4949
 3040SOL    HW120582   2.067   0.937  13.935 -0.4000  1.8784 -2.5212
 3040SOL    HW220583   2.029   0.794  13.928  0.3032 -1.2775 -1.7705
 3041SOL     OW20584   0.498   0.050   6.375  0.0438  0.5969  0.2902
 3041SOL    HW120585   0.533   4.701   6.426 -1.7172  0.1235  0.8119
 3041SOL    HW220586   0.537   0.042   6.287 -3.1613  0.2892 -1.0849
 3042SOL     OW20587   3.247   1.515   8.068  0.2868 -0.2195  0.4347
 3042SOL    HW120588   3.166   1.540   8.112 -0.3423  0.2121 -0.9926
 3042SOL    HW220589   3.245   1.558   7.983 -1.3799  0.0288  0.5907
 3043SOL     OW20590   1.355   1.637   9.229  0.0704 -0.2957 -0.1022
 3043SOL    HW120591   1.290   1.603   9.168 -2.0940 -0.2999  2.2155
 3043SOL    HW220592   1.297   1.646   9.304  0.8709  0.5967  0.4143
 3044SOL     OW20593   2.927   2.580   7.360 -0.1836 -0.2803 -0.1615
 3044SOL    HW120594   2.953   2.498   7.318 -1.5401 -0.6842 -0.2188
 3044SOL    HW220595   2.850   2.616   7.316 -1.0342 -0.2734  1.3178
 3045SOL     OW20596   1.443   3.218   8.241 -0.0488 -0.1722  0.2714
 3045SOL    HW120597   1.475   3.249   8.156  1.1626 -1.4580  0.2613
 3045SOL    HW220598   1.533   3.196   8.266  0.0179 -0.0192  0.1653
 3046SOL     OW20599   3.518   2.191   4.296 -0.0528 -0.4573 -0.6883
 3046SOL    HW120600   3.439   2.138   4.290  0.6059 -1.5605  0.5354
 3046SOL    HW220601   3.521   2.225   4.206 -2.1356 -1.1076 -1.0036
 3047SOL     OW20602   4.400   4.105   6.650 -0.0067 -0.1064  0.6558
 3047SOL    HW120603   4.448   4.085   6.730  1.8797 -0.0314 -0.4621
 3047SOL    HW220604   4.316   4.117   6.693 -0.8250 -0.1887 -0.9102
 3048SOL     OW20605   0.314   1.760   7.260 -0.0463 -1.0024 -0.1450
 3048SOL    HW120606   0.394   1.812   7.252  0.8040 -2.2110  0.5328
 3048SOL    HW220607   0.342   1.695   7.324  1.8974  0.3747  0.3953
 3049SOL     OW20608   4.139   0.956   3.828 -0.4727 -0.5543  0.0459
 3049SOL    HW120609   4.092   0.965   3.911  0.7817 -1.9045  0.8843
 3049SOL    HW220610   4.218   1.005   3.849 -1.0893 -0.0305  1.0965
 3050SOL     OW20611   3.540   0.106   7.075 -0.7632 -0.2840 -0.0625
 3050SOL    HW120612   3.590   0.173   7.029  1.0861 -3.0632 -2.1033
 3050SOL    HW220613   3.452   0.140   7.058  0.6903  2.0002 -2.9698
 3051SOL     OW20614   3.071   0.273   2.346  0.7622  0.2439 -0.2937
 3051SOL    HW120615   3.028   0.214   2.408 -0.4917  2.1946  0.6849
 3051SOL    HW220616   3.059   0.216   2.270 -2.3316 -1.6424  1.6063
 3052SOL     OW20617   3.810   1.056  16.261  0.0110 -0.4930 -0.1397
 3052SOL    HW120618   3.813   1.104  16.344 -0.8976  0.6242 -0.7522
 3052SOL    HW220619   3.739   0.996  16.284 -0.9767  0.6659 -0.1631
 3053SOL     OW20620   2.164   3.598   5.936  0.4619  0.0675 -0.7292
 3053SOL    HW120621   2.118   3.610   6.018  1.6051 -0.7644  0.0513
 3053SOL    HW220622   2.230   3.538   5.971  0.0902  0.5632  0.7877
 3054SOL     OW20623   3.808   1.033   8.695 -0.0473  0.3434 -0.1959
 3054SOL    HW120624   3.723   1.024   8.653  0.0962  0.0164 -0.4163
 3054SOL    HW220625   3.865   0.974   8.646  0.0636 -0.1751  0.5619
 3055SOL     OW20626   2.095   0.109   5.160 -0.5515  0.3199  0.1257
 3055SOL    HW120627   2.083   0.099   5.255  0.5935 -0.7812  0.1472
 3055SOL    HW220628   2.046   0.032   5.130 -3.9154  2.6436 -0.4219
 3056SOL     OW20629   1.841   1.617   5.757  0.0420 -0.5234 -0.2739
 3056SOL    HW120630   1.818   1.696   5.805  1.2249 -0.3898  0.0828
 3056SOL    HW220631   1.782   1.547   5.785 -1.1934  1.1673  1.3059
 3057SOL     OW20632   3.008   3.638   6.549  0.0321 -0.0269 -0.1337
 3057SOL    HW120633   3.019   3.725   6.512 -4.2735 -0.3685 -2.1185
 3057SOL    HW220634   2.988   3.652   6.642  0.4446 -1.3289  0.1605
 3058SOL     OW20635   3.256   3.601   8.065  0.4724 -0.0445 -0.5930
 3058SOL    HW120636   3.198   3.543   8.115  1.2714 -2.3675 -2.3538
 3058SOL    HW220637   3.198   3.612   7.989 -1.2172  0.4550  0.7742
 3059SOL     OW20638   4.145   3.830   8.910 -0.3221  0.2540  0.0128
 3059SOL    HW120639   4.125   3.745   8.949 -1.3279  0.5271  0.0798
 3059SOL    HW220640   4.092   3.819   8.831 -0.2928  1.1252 -0.1311
 3060SOL     OW20641   1.842   3.652  11.843 -0.2119 -0.0823 -0.2235
 3060SOL    HW120642   1.862   3.631  11.752 -0.0977 -2.1650  0.2774
 3060SOL    HW220643   1.890   3.735  11.847  0.5781 -0.6092  1.2779
 3061SOL     OW20644   1.451   3.152   1.930  0.0938 -0.0079 -0.1017
 3061SOL    HW120645   1.418   3.228   1.979  0.8370 -0.0652  0.4846
 3061SOL    HW220646   1.406   3.168   1.847 -0.6603 -1.6096 -0.0005
 3062SOL     OW20647   2.837   3.163   7.415 -0.3281  0.7991  0.2518
 3062SOL    HW120648   2.881   3.103   7.475 -0.5631 -0.5864 -0.9562
 3062SOL    HW220649   2.904   3.226   7.389 -0.7039  1.8095  1.7500
 3063SOL     OW20650   1.463   0.351   0.579 -0.6678  0.3760 -0.1397
 3063SOL    HW120651   1.528   0.316   0.639  0.4760  0.1575 -1.5081
 3063SOL    HW220652   1.521   0.356   0.503  0.0393 -0.2771  0.3607
 3064SOL     OW20653   2.902   1.615   9.056 -0.4059 -0.1972  0.1534
 3064SOL    HW120654   2.976   1.584   9.107 -0.0923  1.3990  0.6743
 3064SOL    HW220655   2.880   1.543   8.997 -0.3690 -0.4565  0.4590
 3065SOL     OW20656   3.187   0.506   4.261 -0.1577 -0.1568  0.1495
 3065SOL    HW120657   3.163   0.414   4.274  1.1278 -0.2176  2.1883
 3065SOL    HW220658   3.282   0.508   4.274  0.0910 -0.6071 -1.5880
 3066SOL     OW20659   0.927   3.243   3.242 -0.3248  0.8164 -0.1877
 3066SOL    HW120660   0.922   3.199   3.326 -0.1449 -0.9707 -1.1065
 3066SOL    HW220661   0.841   3.284   3.228  0.2412  2.0861  0.0236
 3067SOL     OW20662   4.295   2.259   1.672  0.0092 -0.1280 -0.1721
 3067SOL    HW120663   4.203   2.270   1.695 -0.1038  2.0231 -1.6212
 3067SOL    HW220664   4.294   2.174   1.628  0.9267 -0.2190 -0.0216
 3068SOL     OW20665   2.959   4.350   5.030 -0.2170  0.3237  0.0972
 3068SOL    HW120666   2.961   4.254   5.037 -2.1734  0.3295  0.9644
 3068SOL    HW220667   3.029   4.365   5.092  1.8423 -2.5259 -1.5036
 3069SOL     OW20668   0.077   2.562  12.432 -0.0197 -0.0774  0.6635
 3069SOL    HW120669   0.154   2.525  12.390  1.1155  2.4786  0.4562
 3069SOL    HW220670   0.083   2.537  12.524 -0.3985 -2.8227 -0.0633
 3070SOL     OW20671   4.506   2.661  15.591  0.0874 -0.1302 -0.2223
 3070SOL    HW120672   4.527   2.691  15.503  1.7091 -1.4450 -0.2671
 3070SOL    HW220673   4.592   2.669  15.631  0.4434 -0.2901 -0.9530
 3071SOL     OW20674   3.340   3.682   8.843 -1.3943  0.2763 -0.0962
 3071SOL    HW120675   3.373   3.677   8.933 -1.1167  1.8354 -0.1118
 3071SOL    HW220676   3.363   3.600   8.799 -1.3221  0.9732 -1.3319
 3072SOL     OW20677   3.003   4.058   4.917  0.1320  0.2439  0.8419
 3072SOL    HW120678   3.078   4.015   4.958  0.2477 -1.2086 -0.8825
 3072SOL    HW220679   2.931   4.044   4.977 -1.9299  2.0745 -1.2170
 3073SOL     OW20680   0.929   3.767  10.962  0.0283  0.2713 -0.0546
 3073SOL    HW120681   0.982   3.847  10.957 -0.6051  0.7759  1.5899
 3073SOL    HW220682   0.987   3.699  10.997  0.3943  1.1585  1.0541
 3074SOL     OW20683   1.040   3.986   5.424 -0.2737 -0.1667  0.1171
 3074SOL    HW120684   0.980   3.978   5.499 -0.5310 -1.6928 -0.2572
 3074SOL    HW220685   1.025   3.900   5.384 -0.1192 -0.3882  0.5327
 3075SOL     OW20686   4.036   2.286   2.583 -0.0577  0.2998 -0.0360
 3075SOL    HW120687   4.063   2.272   2.674  1.8232 -0.3966 -0.6938
 3075SOL    HW220688   4.088   2.217   2.543 -1.7851 -0.6850 -0.5736
 3076SOL     OW20689   3.108   2.243   4.916 -0.2238  0.1974  0.2980
 3076SOL    HW120690   3.042   2.311   4.906 -1.2566 -0.8741 -0.1673
 3076SOL    HW220691   3.056   2.197   4.982 -1.5180  0.8124 -0.2952
 3077SOL     OW20692   0.196   0.249  13.049 -0.6356  0.0874  0.8653
 3077SOL    HW120693   0.163   0.221  13.135 -0.2620 -1.5838  0.4636
 3077SOL    HW220694   0.275   0.292  13.079  0.2322 -1.3738  0.6680
 3078SOL     OW20695   1.654   3.817   8.986  0.7212 -0.6889 -0.6718
 3078SOL    HW120696   1.727   3.761   8.962  0.8551 -0.3677 -1.0287
 3078SOL    HW220697   1.673   3.831   9.078  1.3583 -1.2964 -0.7193
 3079SOL     OW20698   3.721   3.726   4.400  0.2725  1.0808 -0.1711
 3079SOL    HW120699   3.797   3.776   4.367  1.3313 -0.6772 -0.3948
 3079SOL    HW220700   3.762   3.640   4.407  0.6894  1.0443 -2.8662
 3080SOL     OW20701   4.144   1.012  11.717  0.1823  0.2396 -0.1588
 3080SOL    HW120702   4.057   0.972  11.713  0.5407 -0.7216  1.5182
 3080SOL    HW220703   4.134   1.093  11.667 -1.6329 -0.5232 -0.9992
 3081SOL     OW20704   3.846   0.715   7.883  0.0055 -0.7603 -0.3457
 3081SOL    HW120705   3.810   0.667   7.809 -0.5581 -2.1773  0.8641
 3081SOL    HW220706   3.782   0.690   7.949 -1.0981  0.7469 -0.8222
 3082SOL     OW20707   2.513   1.140   7.063 -0.2964  0.0951  0.1531
 3082SOL    HW120708   2.547   1.105   7.145 -0.0659 -0.1653 -0.0518
 3082SOL    HW220709   2.522   1.064   7.006 -3.2336  0.0871 -0.2690
 3083SOL     OW20710   2.165   1.239  10.908  0.3710  0.2910  0.4915
 3083SOL    HW120711   2.096   1.305  10.915  0.0297  0.1516 -1.6117
 3083SOL    HW220712   2.234   1.290  10.865 -0.3430 -0.8790 -2.0627
 3084SOL     OW20713   0.031   0.737   4.930 -0.5019  0.4935  0.5913
 3084SOL    HW120714   0.064   0.767   5.014  0.8141  2.0366 -0.4798
 3084SOL    HW220715   0.113   0.740   4.881 -0.9871 -1.4273 -0.3534
 3085SOL     OW20716   4.496   3.170  14.312 -0.0528  0.6507 -0.5634
 3085SOL    HW120717   4.515   3.253  14.356  0.1925  0.4786 -0.3466
 3085SOL    HW220718   4.425   3.197  14.254 -0.2304  0.4606 -0.4375
 3086SOL     OW20719   0.533   2.128  15.590 -0.8778  0.4358 -0.4180
 3086SOL    HW120720   0.551   2.087  15.674 -0.7924  0.4473 -0.4311
 3086SOL    HW220721   0.592   2.202  15.604 -1.1116  0.2210  1.7429
 3087SOL     OW20722   4.554   1.838  11.552 -0.1553 -0.2411  0.7399
 3087SOL    HW120723   4.475   1.787  11.535  0.5263 -0.8954 -0.5135
 3087SOL    HW220724   4.558   1.835  11.648 -0.0874 -1.1367  0.7177
 3088SOL     OW20725   0.436   0.342   6.104 -0.6560  0.5071  0.2352
 3088SOL    HW120726   0.354   0.384   6.130 -0.2124  0.7207  1.3060
 3088SOL    HW220727   0.511   0.394   6.135  0.7933 -1.8257  0.6120
 3089SOL     OW20728   2.227   2.087   4.863  0.3640 -0.1090 -0.6114
 3089SOL    HW120729   2.258   1.997   4.871  0.3783 -0.2415 -2.2705
 3089SOL    HW220730   2.307   2.134   4.839 -0.3083  3.4388  3.9636
 3090SOL     OW20731   2.489   0.282  15.982  0.3286  0.0659  0.1432
 3090SOL    HW120732   2.523   0.198  16.012  0.5272  0.3783  0.7914
 3090SOL    HW220733   2.562   0.329  15.942 -1.2971  1.5858 -1.0715
 3091SOL     OW20734   2.730   4.642   5.487 -0.1017  0.1670 -0.6628
 3091SOL    HW120735   2.779   4.720   5.514 -1.4249  0.4750  0.8239
 3091SOL    HW220736   2.778   4.616   5.408 -0.3568 -1.3334 -0.3183
 3092SOL     OW20737   0.373   3.501  17.640 -0.2746  1.3334 -0.0288
 3092SOL    HW120738   0.386   3.537  17.552 -0.3876  1.3479 -0.0399
 3092SOL    HW220739   0.399   3.577  17.692 -1.5293  1.9228 -0.2464
 3093SOL     OW20740   0.014   4.713   6.387  0.2316  0.1550  0.0785
 3093SOL    HW120741   0.091   0.022   6.341 -0.5089 -0.1210 -1.3474
 3093SOL    HW220742   0.009   4.624   6.354  2.4491 -0.4204  1.2269
 3094SOL     OW20743   1.154   0.940   2.519  0.1739  0.1736 -0.4220
 3094SOL    HW120744   1.074   0.980   2.553 -0.8390 -1.4615 -0.9056
 3094SOL    HW220745   1.218   1.010   2.530  1.0181 -0.6979  0.1753
 3095SOL     OW20746   1.601   4.110   2.099  0.4854  0.0159  0.2822
 3095SOL    HW120747   1.557   4.172   2.041  1.9189  1.7955  1.0917
 3095SOL    HW220748   1.530   4.080   2.155  1.3891 -0.0336  1.3892
 3096SOL     OW20749   0.424   2.435   3.582  0.1022  0.5143  0.2465
 3096SOL    HW120750   0.330   2.417   3.572  0.1023  1.0022 -0.6287
 3096SOL    HW220751   0.417   2.486   3.663  3.5696 -2.1862  2.2005
 3097SOL     OW20752   4.258   3.688  16.407  0.1326  0.2423 -0.0466
 3097SOL    HW120753   4.237   3.681  16.500  0.6219  0.5353  0.0880
 3097SOL    HW220754   4.337   3.743  16.410  0.1107  0.2776 -0.1127
 3098SOL     OW20755   3.887   2.977   7.097 -0.5555 -0.2163  0.8970
 3098SOL    HW120756   3.914   2.948   7.010 -0.1820 -1.4573  1.4388
 3098SOL    HW220757   3.897   3.072   7.086  0.3487 -0.0107  3.4836
 3099SOL     OW20758   1.787   1.445   1.437  0.0933  0.2381 -0.0302
 3099SOL    HW120759   1.778   1.527   1.388 -2.3562  0.4149  0.6985
 3099SOL    HW220760   1.706   1.445   1.487 -1.0711  1.8530 -1.9016
 3100SOL     OW20761   0.701   0.672  16.799  0.2126 -0.1627  0.1162
 3100SOL    HW120762   0.741   0.754  16.768 -1.1297 -0.2591 -1.8719
 3100SOL    HW220763   0.736   0.670  16.888  0.0922 -0.3412  0.1583
 3101SOL     OW20764   2.416   1.867  15.256  0.0272 -0.2447 -0.3855
 3101SOL    HW120765   2.422   1.960  15.235 -2.3970 -0.4764 -2.0650
 3101SOL    HW220766   2.321   1.854  15.255  0.2750 -1.9398 -1.5123
 3102SOL     OW20767   0.783   2.101   4.002 -0.5964 -0.3197  0.2929
 3102SOL    HW120768   0.770   2.185   4.046  0.9500 -1.0664  2.1532
 3102SOL    HW220769   0.829   2.059   4.074 -2.5818 -0.9247  1.2082
 3103SOL     OW20770   3.676   4.471   8.510  0.1006 -0.2425  0.3668
 3103SOL    HW120771   3.605   4.448   8.570 -0.7525  0.4953 -0.3728
 3103SOL    HW220772   3.645   4.532   8.444  0.0548 -2.0307 -1.2339
 3104SOL     OW20773   0.903   1.982   4.240  0.6302  0.6318 -0.7163
 3104SOL    HW120774   0.877   1.911   4.298  1.0575  1.2696  0.2555
 3104SOL    HW220775   0.951   2.036   4.303 -0.9028  0.1412  0.8807
 3105SOL     OW20776   0.408   2.012   3.166 -0.6067  0.4246 -0.1461
 3105SOL    HW120777   0.491   1.979   3.132 -0.6421 -1.8107  1.9059
 3105SOL    HW220778   0.348   1.963   3.111 -1.4331 -0.1378  1.2543
 3106SOL     OW20779   3.957   3.677   2.326  0.0570  0.3218 -0.3577
 3106SOL    HW120780   3.951   3.640   2.238  0.8691  0.2172 -0.3683
 3106SOL    HW220781   3.998   3.758   2.296 -0.3088  0.5750 -0.1715
 3107SOL     OW20782   3.300   1.921   8.275 -0.0852  0.5956 -0.6017
 3107SOL    HW120783   3.365   1.971   8.325  1.2400 -2.4295  0.6711
 3107SOL    HW220784   3.342   1.897   8.192  1.9302  0.8039  0.3726
 3108SOL     OW20785   4.283   1.789  11.905  0.3040 -0.0160 -0.8938
 3108SOL    HW120786   4.230   1.726  11.855 -1.0049  2.6021 -2.8250
 3108SOL    HW220787   4.231   1.867  11.889  1.3171  0.5421 -1.5104
 3109SOL     OW20788   3.124   0.436   2.048  0.2644  0.1136  0.6627
 3109SOL    HW120789   3.107   0.342   2.036  0.8938  0.0920 -0.0721
 3109SOL    HW220790   3.128   0.447   2.143  0.0908  0.6005  0.6151
 3110SOL     OW20791   0.901   0.130   4.968 -0.2446 -0.2187  0.4200
 3110SOL    HW120792   0.838   0.160   4.903  0.2309 -0.5697 -0.1968
 3110SOL    HW220793   0.982   0.145   4.920 -1.3395 -3.7790 -2.5604
 3111SOL     OW20794   4.170   4.567   6.203 -0.0430  0.3787 -0.9914
 3111SOL    HW120795   4.181   4.574   6.298  0.3692 -0.8484 -0.9487
 3111SOL    HW220796   4.209   4.480   6.198 -0.0488  0.2192  1.9297
 3112SOL     OW20797   1.631   4.130   5.604  0.3666  0.0667  0.1288
 3112SOL    HW120798   1.626   4.218   5.643 -0.2249 -0.3566  0.9963
 3112SOL    HW220799   1.572   4.136   5.529 -1.7753  0.2848  1.8630
 3113SOL     OW20800   2.943   0.391   8.372  0.0689  0.7265 -1.0516
 3113SOL    HW120801   2.910   0.440   8.448  0.1187 -0.0273 -0.5531
 3113SOL    HW220802   2.934   0.455   8.302 -1.0872  2.5016  0.6897
 3114SOL     OW20803   1.136   4.719   3.173  0.8983  0.5729 -0.3893
 3114SOL    HW120804   1.198   4.665   3.123  0.8670 -0.5170  0.7375
 3114SOL    HW220805   1.190   0.032   3.243  1.3297 -2.9410  1.1159
 3115SOL     OW20806   0.157   1.456  10.077 -0.0190  0.0872 -0.0747
 3115SOL    HW120807   0.236   1.418  10.040 -1.2112 -0.8554 -1.6497
 3115SOL    HW220808   0.151   1.418  10.165  0.9276 -2.7154 -1.2539
 3116SOL     OW20809   1.708   3.512   2.088  0.2378  0.3961  0.3955
 3116SOL    HW120810   1.643   3.554   2.144  0.1810  2.6134 -1.3475
 3116SOL    HW220811   1.760   3.468   2.155  1.3524  1.3953  0.1834
 3117SOL     OW20812   0.330   2.447   4.817 -0.5012 -0.4872  0.2408
 3117SOL    HW120813   0.349   2.439   4.910 -0.3826  1.6001  0.4139
 3117SOL    HW220814   0.337   2.541   4.798 -0.7614 -0.0986  2.1115
 3118SOL     OW20815   3.484   4.694  11.929 -0.1307 -0.0367 -0.2259
 3118SOL    HW120816   3.470   4.629  11.998 -0.1240  0.6831  0.4514
 3118SOL    HW220817   3.416   0.027  11.965  1.6988  0.7602  1.9468
 3119SOL     OW20818   0.229   3.630   6.681  0.1234  0.1103  0.1285
 3119SOL    HW120819   0.185   3.691   6.740 -0.9611 -0.8905  0.3533
 3119SOL    HW220820   0.261   3.555   6.731 -0.4738  0.9904  1.8254
 3120SOL     OW20821   2.187   4.161   9.166  0.2258 -0.3899  0.7689
 3120SOL    HW120822   2.165   4.068   9.176 -0.9137 -0.0192  1.5985
 3120SOL    HW220823   2.102   4.189   9.134  0.9028 -1.9202 -2.3417
 3121SOL     OW20824   2.693   0.107   3.156 -0.0561  0.6100  0.2940
 3121SOL    HW120825   2.656   0.193   3.134  2.1001  2.2643  3.1421
 3121SOL    HW220826   2.778   0.138   3.188 -1.2447  1.6267  2.5048
 3122SOL     OW20827   0.580   2.681   0.916 -0.0899  0.5033  0.6391
 3122SOL    HW120828   0.658   2.627   0.928  0.4763  0.7663 -1.9368
 3122SOL    HW220829   0.513   2.645   0.975 -0.7165  0.2713 -0.2148
 3123SOL     OW20830   2.861   0.513   2.143 -0.2797 -0.3028  0.7518
 3123SOL    HW120831   2.820   0.565   2.073 -1.0703  0.3172  1.6716
 3123SOL    HW220832   2.935   0.486   2.090 -1.9022 -0.3731 -1.4679
 3124SOL     OW20833   4.104   3.606   4.872  0.1610 -0.0553 -0.0068
 3124SOL    HW120834   4.137   3.614   4.783  3.8736 -0.9952  1.3067
 3124SOL    HW220835   4.155   3.542   4.920 -1.6521 -0.7115  1.0588
 3125SOL     OW20836   4.335   3.517   1.198  0.2278 -0.2640 -0.4648
 3125SOL    HW120837   4.261   3.571   1.172 -1.1367 -0.4088  3.0830
 3125SOL    HW220838   4.335   3.516   1.294 -1.9683 -2.8630 -0.5094
 3126SOL     OW20839   0.481   0.388   8.565  0.5438 -0.0197 -0.4627
 3126SOL    HW120840   0.441   0.461   8.518 -1.0069 -1.4814 -1.3647
 3126SOL    HW220841   0.457   0.411   8.655  1.3307  2.2791 -0.8467
 3127SOL     OW20842   4.496   3.222   0.113 -1.1710 -0.5149  0.1164
 3127SOL    HW120843   4.483   3.285   0.041 -1.9833  0.6147  1.2440
 3127SOL    HW220844   4.486   3.136   0.072  0.0710 -1.1343  1.1219
 3128SOL     OW20845   1.973   0.384   6.019 -0.4225  0.0716 -0.3423
 3128SOL    HW120846   1.953   0.395   5.926 -2.6512 -0.3424  0.0878
 3128SOL    HW220847   2.033   0.309   6.016 -1.1618 -0.5596  0.4690
 3129SOL     OW20848   1.277   3.636   4.825 -0.6276 -0.0661  0.2044
 3129SOL    HW120849   1.186   3.664   4.813 -0.3923  1.0337  0.9917
 3129SOL    HW220850   1.312   3.626   4.737  1.2797  1.4802  0.7863
 3130SOL     OW20851   0.033   2.242   2.232 -0.0779  0.3506  0.2046
 3130SOL    HW120852   4.661   2.237   2.237 -0.0754  0.6166  0.5263
 3130SOL    HW220853   0.043   2.295   2.153  2.3061 -1.1908 -0.5135
 3131SOL     OW20854   4.456   2.692   6.308  0.1668 -0.8038  0.0510
 3131SOL    HW120855   4.458   2.610   6.359  0.3792 -0.7939  0.0604
 3131SOL    HW220856   4.474   2.752   6.380  1.7952  0.2812 -1.2856
 3132SOL     OW20857   0.055   3.135   4.098 -0.2461  0.0117 -0.1680
 3132SOL    HW120858   0.108   3.055   4.096 -0.3824 -0.1002  1.2820
 3132SOL    HW220859   4.715   3.113   4.030  0.6525 -0.7806 -0.7627
 3133SOL     OW20860   2.207   0.128   6.640  0.2175  0.1228 -0.1014
 3133SOL    HW120861   2.138   0.101   6.700  0.9175 -1.4066  0.0267
 3133SOL    HW220862   2.272   0.082   6.693 -0.4042 -0.2753  0.3164
 3134SOL     OW20863   1.156   2.633   3.218 -0.2232 -0.0062 -0.3624
 3134SOL    HW120864   1.231   2.686   3.193 -0.6052  1.0631  0.8060
 3134SOL    HW220865   1.205   2.555   3.247  1.1385  0.7213 -0.7017
 3135SOL     OW20866   2.490   1.866  12.958  0.0739 -0.1864  0.1553
 3135SOL    HW120867   2.395   1.876  12.950  0.3733  3.8691  1.7745
 3135SOL    HW220868   2.502   1.901  13.046 -0.6889  0.7161 -0.0879
 3136SOL     OW20869   4.122   2.855   5.388 -0.4097  0.4011 -0.3853
 3136SOL    HW120870   4.171   2.781   5.425 -0.9449  0.3321  0.1989
 3136SOL    HW220871   4.049   2.871   5.448 -1.2113  2.0973 -1.8530
 3137SOL     OW20872   1.454   4.119   3.570  0.2034 -0.5072 -0.4315
 3137SOL    HW120873   1.444   4.097   3.478 -3.6503 -0.5694  0.0243
 3137SOL    HW220874   1.477   4.212   3.576 -0.0732 -0.2992 -2.6337
 3138SOL     OW20875   4.382   2.847  11.390 -0.2990  0.5470  0.3883
 3138SOL    HW120876   4.476   2.830  11.379 -0.4251 -0.2000  0.4796
 3138SOL    HW220877   4.388   2.941  11.405  1.6657  0.2263  1.6878
 3139SOL     OW20878   4.304   1.938   9.248  0.0014  0.1596  0.6084
 3139SOL    HW120879   4.292   1.918   9.341 -0.6013 -1.1545  0.2493
 3139SOL    HW220880   4.308   2.034   9.250 -2.9474  0.3210 -2.1722
 3140SOL     OW20881   2.790   0.353   2.400  0.1661  0.6338  0.4074
 3140SOL    HW120882   2.740   0.332   2.320  1.7191 -1.1554 -0.0868
 3140SOL    HW220883   2.786   0.449   2.404 -2.4805  0.5219  0.9733
 3141SOL     OW20884   0.268   3.202  12.975 -0.2026  0.0375  0.2541
 3141SOL    HW120885   0.328   3.248  12.916  2.2279 -2.9736  0.3280
 3141SOL    HW220886   0.237   3.270  13.035  0.7511  0.0267  0.7601
 3142SOL     OW20887   4.044   0.356   5.348  0.0866  0.4003  0.4080
 3142SOL    HW120888   4.114   0.326   5.291  1.5772 -0.3492  2.6205
 3142SOL    HW220889   3.994   0.409   5.287 -1.4259 -1.3126  0.1617
 3143SOL     OW20890   1.131   4.669   5.347  0.4388 -0.1273 -0.5508
 3143SOL    HW120891   1.152   4.621   5.267  4.8904  0.5866  0.1919
 3143SOL    HW220892   1.039   4.684   5.323  0.0906 -1.0395  0.1865
 3144SOL     OW20893   0.144   0.890   8.743 -0.8347 -0.3896  0.5360
 3144SOL    HW120894   0.211   0.925   8.801 -0.5074 -1.6033  0.8861
 3144SOL    HW220895   0.105   0.976   8.724  0.2473 -0.1133 -0.4577
 3145SOL     OW20896   0.671   1.627   8.862 -0.1469 -0.4699  0.0544
 3145SOL    HW120897   0.613   1.702   8.870  3.1342  1.9207  1.5074
 3145SOL    HW220898   0.659   1.590   8.775 -1.2749 -0.2757  0.1227
 3146SOL     OW20899   1.974   1.052  10.785 -0.0659 -0.0718  0.3447
 3146SOL    HW120900   2.042   1.008  10.735 -0.4197  0.9985 -1.1221
 3146SOL    HW220901   2.029   1.103  10.844  0.8408 -0.0804 -0.4854
 3147SOL     OW20902   2.967   1.269   1.201  0.5934 -1.0452 -0.0090
 3147SOL    HW120903   3.042   1.315   1.163  0.6118  0.0580  1.3735
 3147SOL    HW220904   2.899   1.305   1.143  1.0856 -0.6885 -0.3633
 3148SOL     OW20905   1.225   2.604   5.024  0.5166 -0.1187  0.2810
 3148SOL    HW120906   1.256   2.682   4.977  0.1599 -1.0762 -1.5227
 3148SOL    HW220907   1.297   2.604   5.087  0.2448  0.3482  0.5969
 3149SOL     OW20908   1.478   2.063   4.624 -0.6012 -0.0964  0.3928
 3149SOL    HW120909   1.537   2.095   4.693 -0.1532 -0.2358  0.0740
 3149SOL    HW220910   1.444   1.985   4.667  0.4561  0.0680  1.5409
 3150SOL     OW20911   2.176   3.752  13.255  0.4484  0.3355 -0.1326
 3150SOL    HW120912   2.136   3.694  13.190 -0.3454  0.9507 -0.1892
 3150SOL    HW220913   2.099   3.804  13.278  0.6553  0.1848  0.9147
 3151SOL     OW20914   1.773   3.704   1.013  0.3789 -0.2253  0.4765
 3151SOL    HW120915   1.707   3.774   1.005  0.8350  0.0299 -1.0679
 3151SOL    HW220916   1.792   3.684   0.921  0.1525 -0.2918  0.4456
 3152SOL     OW20917   1.611   4.108   6.048 -0.1630  0.0206 -0.2303
 3152SOL    HW120918   1.530   4.115   5.997 -0.9827  0.0195  1.0593
 3152SOL    HW220919   1.671   4.164   5.999 -0.5388 -1.1181 -1.9993
 3153SOL     OW20920   2.710   2.310   8.279  0.1616 -0.0840 -0.3062
 3153SOL    HW120921   2.753   2.227   8.304 -1.4510 -0.3010  1.7315
 3153SOL    HW220922   2.623   2.274   8.261  0.1756 -0.6265  0.6656
 3154SOL     OW20923   0.888   0.344   6.715 -0.0543  0.8065 -0.2651
 3154SOL    HW120924   0.838   0.410   6.764  1.3892 -0.0669  2.3891
 3154SOL    HW220925   0.817   0.282   6.698  0.8552 -0.2525 -0.2184
 3155SOL     OW20926   4.056   2.172  10.862 -0.7317 -0.0630 -0.4465
 3155SOL    HW120927   4.038   2.138  10.950 -0.2420 -0.4925 -0.5099
 3155SOL    HW220928   3.977   2.143  10.816 -0.5865  0.6354 -1.1326
 3156SOL     OW20929   3.737   0.569  16.817  0.3451  0.0055  0.0753
 3156SOL    HW120930   3.818   0.574  16.867 -0.1409  0.3917  0.8414
 3156SOL    HW220931   3.752   0.584  16.724 -2.2237  0.1258 -0.3348
 3157SOL     OW20932   2.105   2.480   3.017 -0.4557  0.3356  0.3487
 3157SOL    HW120933   2.128   2.438   2.935 -0.1583 -1.1209  1.1671
 3157SOL    HW220934   2.157   2.558   3.032 -2.0387  1.2443  1.1660
 3158SOL     OW20935   2.655   0.203   7.865  0.3503  0.1525 -0.3302
 3158SOL    HW120936   2.675   0.142   7.936  1.6484 -0.1657 -0.9747
 3158SOL    HW220937   2.625   0.136   7.804 -1.0685  0.6342 -0.1775
 3159SOL     OW20938   2.918   3.396   0.659  0.0942  0.0466 -0.4018
 3159SOL    HW120939   2.888   3.322   0.605  0.6479  0.5435 -1.3953
 3159SOL    HW220940   2.972   3.445   0.597  1.3589 -1.0069 -0.1291
 3160SOL     OW20941   2.631   2.588   3.408  0.2938 -0.6006  0.0322
 3160SOL    HW120942   2.708   2.640   3.430 -0.0939 -0.5125  1.1839
 3160SOL    HW220943   2.565   2.640   3.455  1.4543  1.5103 -0.6723
 3161SOL     OW20944   0.190   2.891   4.563 -0.6677 -0.0026 -0.6723
 3161SOL    HW120945   0.115   2.862   4.511  0.0094 -2.9250 -0.0030
 3161SOL    HW220946   0.148   2.970   4.596  1.2099  0.1098  1.4143
 3162SOL     OW20947   0.687   0.459   5.529 -0.2744  0.6397 -0.9116
 3162SOL    HW120948   0.733   0.542   5.522 -0.9069  0.8683 -2.2669
 3162SOL    HW220949   0.603   0.480   5.488 -0.2280  0.3278 -1.1722
 3163SOL     OW20950   3.871   2.693   8.371 -0.0729  0.2143 -0.3710
 3163SOL    HW120951   3.910   2.622   8.422  0.6536  0.8283 -0.0713
 3163SOL    HW220952   3.854   2.759   8.438 -1.4516  1.4469 -1.9544
 3164SOL     OW20953   2.464   1.351  11.229 -0.2571  0.0997 -0.0236
 3164SOL    HW120954   2.406   1.275  11.227  0.3074 -0.3451  0.5471
 3164SOL    HW220955   2.424   1.404  11.298  2.3402 -0.9297  2.2463
 3165SOL     OW20956   1.220   4.359   9.791  0.4886  0.3079 -0.1162
 3165SOL    HW120957   1.299   4.395   9.831 -0.5975 -0.2919  2.5804
 3165SOL    HW220958   1.181   4.432   9.744  2.2040 -0.0657 -2.0924
 3166SOL     OW20959   0.080   1.938   6.753  0.0340 -0.0608 -0.5442
 3166SOL    HW120960   0.158   1.990   6.732  1.4815 -1.8343  0.4764
 3166SOL    HW220961   0.072   1.875   6.682 -2.0524  0.9468 -1.2040
 3167SOL     OW20962   3.335   1.403  15.788  0.4136 -0.1119 -0.1587
 3167SOL    HW120963   3.301   1.331  15.734 -3.3902  1.0793  0.6493
 3167SOL    HW220964   3.368   1.448  15.710  2.0676 -0.7957  0.1615
 3168SOL     OW20965   3.213   0.805   7.609 -0.0677  0.3310  0.5111
 3168SOL    HW120966   3.121   0.831   7.607  0.4089  1.9714 -0.5071
 3168SOL    HW220967   3.201   0.718   7.645 -0.8970  0.2384  0.0020
 3169SOL     OW20968   0.151   1.338   0.963  0.2174 -0.1308  0.1369
 3169SOL    HW120969   0.109   1.313   0.880 -0.9920 -0.1123  0.7444
 3169SOL    HW220970   0.123   1.429   0.966 -2.5271 -0.9233 -1.5975
 3170SOL     OW20971   3.404   3.211   3.042  0.5077  0.0216 -0.1620
 3170SOL    HW120972   3.478   3.191   3.099  0.7935  2.2390  0.2486
 3170SOL    HW220973   3.440   3.268   2.974 -0.9816  2.8319  1.4053
 3171SOL     OW20974   2.290   0.169  10.042  0.3988  0.4858 -0.0065
 3171SOL    HW120975   2.204   0.211  10.044 -0.1389 -0.4810 -3.0047
 3171SOL    HW220976   2.351   0.207  10.105 -0.8737  3.6137 -0.6365
 3172SOL     OW20977   3.265   2.684   2.047 -0.1215  0.1523 -0.3275
 3172SOL    HW120978   3.216   2.669   2.129  2.0204  0.9974  1.0947
 3172SOL    HW220979   3.345   2.700   2.097 -0.5159 -0.6878  0.5797
 3173SOL     OW20980   1.749   3.415   8.806 -0.7591  0.4450  0.7175
 3173SOL    HW120981   1.699   3.427   8.886  0.3785 -0.0693  1.5083
 3173SOL    HW220982   1.761   3.321   8.792 -2.0187  0.5046 -0.8802
 3174SOL     OW20983   0.399   2.115   7.080  0.2461  0.4104  0.0433
 3174SOL    HW120984   0.422   2.048   7.145  0.8559  1.0952  0.5358
 3174SOL    HW220985   0.305   2.127   7.092  0.1601 -1.0590  0.9115
 3175SOL     OW20986   1.495   0.539   4.712  0.2534 -0.0614  0.0410
 3175SOL    HW120987   1.580   0.541   4.668  0.3784  2.3569  0.4222
 3175SOL    HW220988   1.445   0.564   4.634 -1.9842  0.2642  1.5962
 3176SOL     OW20989   1.293   1.984   6.849  0.2174  0.3936  0.3706
 3176SOL    HW120990   1.233   2.019   6.914  0.0817 -0.7743  0.8854
 3176SOL    HW220991   1.370   2.013   6.899 -0.3178 -0.5605  1.7557
 3177SOL     OW20992   2.134   3.406   5.139  0.4410 -0.1132 -0.1350
 3177SOL    HW120993   2.039   3.403   5.126  0.6406 -1.5929 -1.2315
 3177SOL    HW220994   2.157   3.320   5.104  1.2815  0.0507  0.0179
 3178SOL     OW20995   4.334   3.032   7.351  0.4191 -0.2248 -0.0286
 3178SOL    HW120996   4.409   2.979   7.379 -0.3224 -1.0523  0.3970
 3178SOL    HW220997   4.381   3.099   7.302 -2.5903  1.3675 -0.7017
 3179SOL     OW20998   3.435   1.357   2.165 -0.0037  0.2468  0.1138
 3179SOL    HW120999   3.468   1.430   2.218  0.1481  0.0859  0.2383
 3179SOL    HW221000   3.344   1.348   2.193 -0.2367  1.4430 -0.2620
 3180SOL     OW21001   0.902   3.170   2.306 -0.5545 -0.0630 -0.0338
 3180SOL    HW121002   0.810   3.148   2.290 -0.0127 -2.6343  0.4453
 3180SOL    HW221003   0.933   3.087   2.340 -1.2871  0.4199  1.8152
 3181SOL     OW21004   1.277   1.494   6.711 -0.4987  0.0660 -0.4751
 3181SOL    HW121005   1.348   1.521   6.652 -1.4427  1.2222 -1.0824
 3181SOL    HW221006   1.205   1.510   6.650  0.2418  0.5637 -1.2170
 3182SOL     OW21007   2.940   0.766   1.484 -0.1383 -0.3650 -0.5504
 3182SOL    HW121008   2.880   0.720   1.542  0.7066 -1.9107 -0.8966
 3182SOL    HW221009   2.880   0.794   1.414 -0.9988  0.5691  0.5737
 3183SOL     OW21010   0.929   3.827   4.428  0.6056  0.2479 -0.2172
 3183SOL    HW121011   1.004   3.858   4.478  0.2874  0.0358  0.3953
 3183SOL    HW221012   0.967   3.785   4.352 -0.1720 -1.9762  0.6309
 3184SOL     OW21013   3.381   4.274   7.375  0.2986  1.0725 -0.4590
 3184SOL    HW121014   3.395   4.305   7.285  2.0391  3.6588  0.6762
 3184SOL    HW221015   3.400   4.184   7.348 -0.9444  0.6819  0.0091
 3185SOL     OW21016   2.780   3.385   6.170 -0.1109 -0.1676 -0.3074
 3185SOL    HW121017   2.743   3.322   6.108 -1.3569 -1.0621  1.3512
 3185SOL    HW221018   2.857   3.401   6.115  0.0245  0.3948  0.0426
 3186SOL     OW21019   0.378   1.042   2.184 -0.1063 -0.1245 -0.0441
 3186SOL    HW121020   0.412   0.976   2.124 -3.0748 -0.7958 -1.0001
 3186SOL    HW221021   0.395   1.117   2.127 -3.2610  1.3868  0.9969
 3187SOL     OW21022   4.028   2.472   8.345  0.0718 -0.1422  0.2304
 3187SOL    HW121023   4.003   2.431   8.262  0.8386  0.6151 -0.3754
 3187SOL    HW221024   4.124   2.465   8.349  0.0617 -0.1282  0.4574
 3188SOL     OW21025   2.853   1.522   4.254 -0.8453 -0.1540  0.6425
 3188SOL    HW121026   2.762   1.541   4.235 -0.6104 -0.8359 -1.1957
 3188SOL    HW221027   2.853   1.460   4.327 -1.3784 -0.0314  0.7450
 3189SOL     OW21028   3.638   1.175   9.366 -0.2724  0.3765  0.0295
 3189SOL    HW121029   3.711   1.236   9.376  0.8656 -0.8287 -0.9287
 3189SOL    HW221030   3.687   1.113   9.312 -1.2617 -1.2634  1.0502
 3190SOL     OW21031   2.898   3.099   8.558  0.1928 -0.2307  0.3023
 3190SOL    HW121032   2.902   3.191   8.535  1.9982 -1.0105 -2.4400
 3190SOL    HW221033   2.816   3.090   8.608 -0.0918  2.1615  0.2609
 3191SOL     OW21034   1.815   3.879   0.639 -0.0817  0.3410  0.0729
 3191SOL    HW121035   1.888   3.817   0.642  1.6841  2.2551 -2.8699
 3191SOL    HW221036   1.766   3.853   0.561 -1.1646 -1.9075  1.5236
 3192SOL     OW21037   3.586   2.982   8.277  0.2622  0.4746  0.2200
 3192SOL    HW121038   3.678   3.005   8.267  0.4885 -0.7702 -0.5516
 3192SOL    HW221039   3.548   3.052   8.224 -0.3694  0.5723  0.7989
 3193SOL     OW21040   3.622   0.777   5.992 -0.1399  0.0101  0.2528
 3193SOL    HW121041   3.531   0.755   6.013 -1.0160  0.0706 -3.4817
 3193SOL    HW221042   3.629   0.751   5.901 -3.7189  0.2103 -0.0742
 3194SOL     OW21043   4.360   3.202   7.762 -0.6166  0.4012  0.3279
 3194SOL    HW121044   4.416   3.138   7.804  0.9936  0.8778 -1.0588
 3194SOL    HW221045   4.358   3.274   7.825  2.2183 -0.3205  1.2274
 3195SOL     OW21046   0.454   1.056   5.324  0.2314  0.0737 -0.0364
 3195SOL    HW121047   0.449   1.152   5.320  0.1674 -0.0039 -1.7434
 3195SOL    HW221048   0.525   1.043   5.262 -0.0497  0.1293 -0.3706
 3196SOL     OW21049   0.491   0.698   7.858 -0.2874 -0.2732 -0.3093
 3196SOL    HW121050   0.453   0.777   7.896 -1.2798  0.8929 -3.6822
 3196SOL    HW221051   0.477   0.629   7.922  0.1635  0.3688  0.4783
 3197SOL     OW21052   3.494   2.489   5.199 -0.4211 -0.2244  0.2265
 3197SOL    HW121053   3.400   2.485   5.179 -0.8568  2.6655  1.7352
 3197SOL    HW221054   3.529   2.530   5.121  1.0050 -0.0938  0.9281
 3198SOL     OW21055   0.160   4.511  13.327 -0.0205 -0.4645  0.3711
 3198SOL    HW121056   0.212   4.570  13.381  0.6275 -1.0465  0.3842
 3198SOL    HW221057   0.140   4.552  13.243 -0.1713  1.2376  1.2312
 3199SOL     OW21058   1.277   1.025   6.119 -0.2273 -0.7019 -0.3928
 3199SOL    HW121059   1.199   0.981   6.153  0.2635 -0.3689  1.1645
 3199SOL    HW221060   1.301   1.088   6.187  2.8586 -1.6210 -0.6180
 3200SOL     OW21061   0.337   3.257  14.245 -0.7839 -0.0239  0.1089
 3200SOL    HW121062   0.426   3.226  14.264 -0.0554  1.3943 -0.9855
 3200SOL    HW221063   0.302   3.274  14.333 -1.8779  0.6081 -0.4536
 3201SOL     OW21064   2.508   4.358   4.821  0.0814 -0.2799 -0.3379
 3201SOL    HW121065   2.572   4.340   4.891 -0.4582  1.5884  0.6348
 3201SOL    HW221066   2.475   4.268   4.818 -3.1091  0.9258 -0.9109
 3202SOL     OW21067   1.703   1.397  16.786  0.2231 -0.1236  0.1710
 3202SOL    HW121068   1.656   1.441  16.716  1.6447 -1.1907 -1.4642
 3202SOL    HW221069   1.771   1.463  16.804  0.1147 -0.3463  1.4350
 3203SOL     OW21070   4.365   2.564   6.727 -0.3824  0.3246 -0.4207
 3203SOL    HW121071   4.346   2.486   6.779 -0.6208  0.9624  0.4439
 3203SOL    HW221072   4.395   2.620   6.799  0.8827  0.2574 -0.8966
 3204SOL     OW21073   2.123   0.491  11.445 -0.0799 -0.5138 -0.5226
 3204SOL    HW121074   2.066   0.454  11.377 -3.7277  0.6161  1.9352
 3204SOL    HW221075   2.196   0.525  11.394 -0.2421  0.3777 -0.1641
 3205SOL     OW21076   3.140   2.331  16.951 -0.1505 -0.9161  0.4211
 3205SOL    HW121077   3.103   2.244  16.939  1.4051 -1.6532  0.9043
 3205SOL    HW221078   3.222   2.310  16.996  0.7464  0.4333 -0.5719
 3206SOL     OW21079   2.977   3.445   6.913 -0.4137  0.1935  0.2995
 3206SOL    HW121080   2.988   3.538   6.894 -0.1087 -0.2780 -1.8247
 3206SOL    HW221081   3.057   3.414   6.871 -0.6996 -1.1736  0.7418
 3207SOL     OW21082   1.798   2.536   8.149 -0.0700 -1.0100 -0.2149
 3207SOL    HW121083   1.721   2.539   8.092  0.6368  0.6011 -1.0772
 3207SOL    HW221084   1.816   2.630   8.154 -0.5501 -0.9536  0.4060
 3208SOL     OW21085   0.144   3.153  16.871 -0.1623  0.1344 -0.1803
 3208SOL    HW121086   0.116   3.227  16.817  0.5635  1.2049  0.9199
 3208SOL    HW221087   0.129   3.197  16.954  0.2885  0.8681 -0.4817
 3209SOL     OW21088   4.213   0.189   7.861  0.4357 -0.8937 -0.2631
 3209SOL    HW121089   4.214   0.165   7.768 -0.9689 -1.0434 -0.2451
 3209SOL    HW221090   4.277   0.127   7.894  0.2776 -0.0264  1.6295
 3210SOL     OW21091   3.373   3.961   2.444  0.0784  0.6047 -0.2575
 3210SOL    HW121092   3.417   3.932   2.524  0.7006  0.2561 -0.7333
 3210SOL    HW221093   3.285   3.978   2.480 -0.1491 -0.6061 -0.2619
 3211SOL     OW21094   0.081   0.957   6.740 -0.1403  0.4554 -0.0674
 3211SOL    HW121095   0.014   0.943   6.807 -0.0149 -1.3076 -0.3161
 3211SOL    HW221096   0.027   0.996   6.672 -0.3319  1.1656  0.4951
 3212SOL     OW21097   4.604   1.997   5.382  0.1796  0.5866 -0.0550
 3212SOL    HW121098   4.695   2.022   5.370  0.7565 -0.5539  2.0321
 3212SOL    HW221099   4.567   2.054   5.450  0.8473 -1.0775  1.6823
 3213SOL     OW21100   4.552   0.146  17.433 -0.0109  0.2392  0.1890
 3213SOL    HW121101   4.478   0.092  17.461 -0.0139 -0.0802 -0.4236
 3213SOL    HW221102   4.582   0.085  17.366  0.3025  1.0436 -0.3948
 3214SOL     OW21103   3.014   1.414   3.420  0.2141 -0.0744  0.1549
 3214SOL    HW121104   2.973   1.432   3.504 -0.2707  2.6892 -0.6753
 3214SOL    HW221105   3.076   1.346   3.448  0.3379 -0.2261 -0.4844
 3215SOL     OW21106   2.311   1.089   1.740  0.0130  0.3039 -0.0559
 3215SOL    HW121107   2.337   1.090   1.832 -0.0785  0.8209 -0.0367
 3215SOL    HW221108   2.218   1.068   1.746  0.0610  0.4067  1.0130
 3216SOL     OW21109   1.494   1.360   6.072  0.1421 -0.0179 -0.0431
 3216SOL    HW121110   1.406   1.328   6.054 -0.1483  0.0474  1.3000
 3216SOL    HW221111   1.551   1.284   6.057  2.7008  1.9605 -0.4637
 3217SOL     OW21112   1.004   3.174   8.284 -0.1538 -0.0240 -0.4690
 3217SOL    HW121113   1.024   3.255   8.236  1.2123  0.2236  0.5260
 3217SOL    HW221114   0.912   3.188   8.308 -0.3500  1.0049 -1.8319
 3218SOL     OW21115   2.211   4.331   3.181  0.1330 -0.0947  0.3659
 3218SOL    HW121116   2.156   4.394   3.135 -0.3797 -2.8338 -2.7065
 3218SOL    HW221117   2.169   4.325   3.267  0.1010 -0.8888  0.2951
 3219SOL     OW21118   2.878   3.856   0.299  0.0611 -0.1563  0.4374
 3219SOL    HW121119   2.970   3.841   0.278  0.3161  2.0657 -0.0320
 3219SOL    HW221120   2.885   3.944   0.335  1.9946 -0.2303  0.2427
 3220SOL     OW21121   0.679   1.183   2.143  0.4142  0.0442  0.1807
 3220SOL    HW121122   0.587   1.194   2.118 -0.1487 -2.3510  1.1521
 3220SOL    HW221123   0.712   1.206   2.057  0.5076 -0.1113  0.1754
 3221SOL     OW21124   1.062   3.780  13.063 -0.1571 -0.1293 -0.0836
 3221SOL    HW121125   0.968   3.770  13.046 -0.4254  1.0304  0.6901
 3221SOL    HW221126   1.083   3.699  13.110 -1.7672 -0.2950  0.3818
 3222SOL     OW21127   0.727   3.456   8.396 -0.1403 -0.7711  0.2901
 3222SOL    HW121128   0.657   3.510   8.432  0.0705  0.7409 -1.6082
 3222SOL    HW221129   0.795   3.512   8.359 -0.7417  1.9796  3.3518
 3223SOL     OW21130   2.014   1.301   9.348 -0.4694  0.1546 -0.1014
 3223SOL    HW121131   2.069   1.378   9.336 -0.0319 -0.1881 -0.3000
 3223SOL    HW221132   1.929   1.345   9.346 -0.4713  0.1401 -0.4007
 3224SOL     OW21133   1.084   1.808   2.304  0.0217 -0.9155  0.1451
 3224SOL    HW121134   1.043   1.738   2.255  1.1995 -1.4410 -0.0964
 3224SOL    HW221135   1.028   1.882   2.283  0.1712 -1.4261 -2.0039
 3225SOL     OW21136   1.920   4.033   7.709  0.0431  0.4843 -0.1880
 3225SOL    HW121137   1.951   4.105   7.655 -2.6007  1.3246 -0.5501
 3225SOL    HW221138   1.927   4.080   7.792  1.0277 -0.5936  0.3507
 3226SOL     OW21139   3.669   2.220  13.253 -0.0443 -0.3597 -0.1479
 3226SOL    HW121140   3.701   2.250  13.168  0.2110  2.0585  0.7886
 3226SOL    HW221141   3.608   2.149  13.231 -0.2476  0.0371 -0.8584
 3227SOL     OW21142   2.312   0.953   8.334  0.4169  0.2924 -0.1331
 3227SOL    HW121143   2.403   0.939   8.359  0.4878 -1.2388 -1.2730
 3227SOL    HW221144   2.303   1.048   8.336  3.8461  0.6354 -2.0593
 3228SOL     OW21145   2.909   2.228  16.297  0.3178  0.5566  0.1712
 3228SOL    HW121146   2.879   2.229  16.206 -0.9324  2.1623  0.5867
 3228SOL    HW221147   2.895   2.319  16.325 -2.1408  0.2594 -0.0539
 3229SOL     OW21148   3.803   3.710   5.274  0.0864 -0.2170  0.2869
 3229SOL    HW121149   3.896   3.725   5.257  0.3124  1.5705  3.0197
 3229SOL    HW221150   3.779   3.692   5.184  1.7770 -1.2687  0.0532
 3230SOL     OW21151   1.971   2.891  10.906  0.2508  0.0583 -0.1829
 3230SOL    HW121152   1.926   2.954  10.849  1.3248 -0.1322 -1.2381
 3230SOL    HW221153   1.963   2.806  10.864  0.5005  0.5566 -1.2334
 3231SOL     OW21154   3.915   1.526   6.928  0.1185  0.2580  0.3246
 3231SOL    HW121155   3.985   1.592   6.923  0.1767  0.2892  1.5683
 3231SOL    HW221156   3.834   1.576   6.941 -0.4834 -0.4604 -0.6750
 3232SOL     OW21157   4.613   2.633  16.269 -0.3465 -0.1841 -1.1244
 3232SOL    HW121158   4.684   2.645  16.206 -0.2461  0.1192 -0.9545
 3232SOL    HW221159   4.604   2.538  16.270 -1.2752 -0.1196 -3.8272
 3233SOL     OW21160   3.880   2.305   2.104  0.0973  0.0570  0.4027
 3233SOL    HW121161   3.969   2.269   2.109 -0.2960 -1.1985 -1.4796
 3233SOL    HW221162   3.881   2.385   2.157  3.0772  0.7643 -0.7244
 3234SOL     OW21163   4.292   2.284   9.489  0.2006  0.3431  0.0288
 3234SOL    HW121164   4.309   2.256   9.399  1.0771 -1.2617  0.6828
 3234SOL    HW221165   4.210   2.240   9.510  0.2789 -0.0375 -0.4769
 3235SOL     OW21166   0.445   3.415   5.221  0.2358  0.4019  0.0285
 3235SOL    HW121167   0.531   3.447   5.250  0.6301  1.7527 -2.6379
 3235SOL    HW221168   0.465   3.331   5.179  0.6318  1.0336 -1.0365
 3236SOL     OW21169   4.335   4.088   4.868  0.1329  0.3166  0.4269
 3236SOL    HW121170   4.305   4.131   4.949 -0.7278  0.2707  0.1364
 3236SOL    HW221171   4.269   4.023   4.843  0.8882 -0.4046  0.3374
 3237SOL     OW21172   4.216   1.386   4.135 -0.6320 -0.4863 -0.0878
 3237SOL    HW121173   4.206   1.323   4.207  1.2060  1.3481  1.8116
 3237SOL    HW221174   4.123   1.402   4.119  0.0551  1.1339 -2.4713
 3238SOL     OW21175   1.908   0.492  12.752 -0.2379 -0.4155 -0.1130
 3238SOL    HW121176   1.953   0.408  12.765  2.6402  1.1315  0.0306
 3238SOL    HW221177   1.976   0.558  12.768 -1.0999  0.3738  0.2864
 3239SOL     OW21178   2.736   3.964   9.249 -0.3884 -0.4990  0.6309
 3239SOL    HW121179   2.767   3.892   9.194 -0.6563 -0.0929 -0.0514
 3239SOL    HW221180   2.787   3.950   9.329 -0.1293 -0.2699  0.5049
 3240SOL     OW21181   2.634   3.848   0.868 -0.0118  0.3730  0.4746
 3240SOL    HW121182   2.670   3.914   0.809 -1.1533 -0.1101 -0.7406
 3240SOL    HW221183   2.639   3.779   0.802  3.0959  0.9671  0.1137
 3241SOL     OW21184   2.327   2.677   3.958  0.6759 -0.1290  0.1877
 3241SOL    HW121185   2.245   2.654   4.003  0.9278  0.0420  0.7352
 3241SOL    HW221186   2.334   2.766   3.993 -1.3704 -0.4095  1.3164
 3242SOL     OW21187   0.962   0.290   4.222  0.3375 -0.0824 -0.2926
 3242SOL    HW121188   1.053   0.314   4.238  0.3727 -1.2027  1.1639
 3242SOL    HW221189   0.944   0.321   4.133 -1.0496 -1.0738 -0.3598
 3243SOL     OW21190   1.572   3.429  13.649  0.2928  0.0519 -0.1330
 3243SOL    HW121191   1.559   3.444  13.743 -0.5646 -1.2260 -0.0530
 3243SOL    HW221192   1.622   3.348  13.643  0.6172  0.2293  0.1215
 3244SOL     OW21193   0.660   1.423   7.551  0.3023 -0.2610  0.2397
 3244SOL    HW121194   0.712   1.376   7.616 -2.7277  0.4043  3.1773
 3244SOL    HW221195   0.633   1.346   7.502  1.8835 -0.5377 -0.1792
 3245SOL     OW21196   1.944   3.879   2.023 -0.0532  0.2304  1.0640
 3245SOL    HW121197   1.962   3.955   2.078  1.0316  0.6030  0.2021
 3245SOL    HW221198   1.969   3.808   2.083  1.2239 -0.0177  0.2420
 3246SOL     OW21199   0.092   4.380   8.492 -0.0996 -0.1684 -0.2015
 3246SOL    HW121200   0.135   4.338   8.566  1.5111  0.1419 -0.9716
 3246SOL    HW221201   0.002   4.390   8.523 -1.0270 -0.0396 -2.9176
 3247SOL     OW21202   0.074   0.180   8.520  0.1199  0.5915  0.2377
 3247SOL    HW121203   0.080   0.197   8.426  0.5281  0.3835  0.2256
 3247SOL    HW221204   0.068   0.267   8.559  0.5568  1.4332 -1.5760
 3248SOL     OW21205   4.096   3.121   7.923 -0.0914  0.5019  0.2506
 3248SOL    HW121206   4.046   3.157   7.850  1.5517  0.4871 -0.8679
 3248SOL    HW221207   4.182   3.163   7.913  0.7861 -0.7522  2.5422
 3249SOL     OW21208   3.452   4.140   0.263 -0.0205  0.2513 -0.4764
 3249SOL    HW121209   3.507   4.191   0.203  0.4911 -1.1108 -1.1491
 3249SOL    HW221210   3.524   4.104   0.314 -1.6369 -1.0883  0.8287
 3250SOL     OW21211   2.813   1.210   9.464 -0.0596  0.4511  0.7958
 3250SOL    HW121212   2.869   1.134   9.480 -1.2006 -0.7354 -0.7915
 3250SOL    HW221213   2.741   1.193   9.525  0.6842 -1.0785  1.2444
 3251SOL     OW21214   2.178   2.991   4.779 -0.1002  0.3697 -0.3823
 3251SOL    HW121215   2.269   2.996   4.749 -0.5783  0.9355 -1.7087
 3251SOL    HW221216   2.155   2.907   4.739  1.7926 -1.2352  1.8759
 3252SOL     OW21217   4.478   4.590   2.298 -0.1983 -0.0571 -0.5119
 3252SOL    HW121218   4.549   4.540   2.258 -1.1041  0.6740 -3.0028
 3252SOL    HW221219   4.406   4.549   2.252 -0.2094  0.0817 -0.6164
 3253SOL     OW21220   3.411   0.376  13.916  0.1112 -0.1281 -0.2142
 3253SOL    HW121221   3.421   0.471  13.915  1.7670 -0.2620  3.3080
 3253SOL    HW221222   3.334   0.367  13.860 -0.8632  1.9924  0.7874
 3254SOL     OW21223   4.618   3.177  10.729 -0.2880  0.2891 -0.1110
 3254SOL    HW121224   4.609   3.107  10.664  0.3242 -1.4060  1.6175
 3254SOL    HW221225   4.558   3.244  10.697 -0.7866 -1.0430 -2.0268
 3255SOL     OW21226   4.253   0.322   9.736  0.1832  0.9924 -0.2722
 3255SOL    HW121227   4.301   0.242   9.715 -0.4408  1.3965 -3.1279
 3255SOL    HW221228   4.168   0.308   9.694  0.3247  0.1133 -0.2489
 3256SOL     OW21229   0.361   3.495   0.360 -0.1211 -0.3704 -0.3999
 3256SOL    HW121230   0.383   3.579   0.320 -2.0342 -0.5221 -1.7778
 3256SOL    HW221231   0.445   3.469   0.397 -1.4385 -1.4345  1.8262
 3257SOL     OW21232   0.131   3.008   6.825  0.6519 -0.2419 -0.0837
 3257SOL    HW121233   0.180   2.933   6.790  1.2647  0.2328 -0.2322
 3257SOL    HW221234   0.176   3.080   6.783 -1.4393  0.5160 -1.0350
 3258SOL     OW21235   2.790   1.193   5.869  0.0369 -0.9046 -0.2300
 3258SOL    HW121236   2.859   1.254   5.894 -0.9293  0.6266 -1.2779
 3258SOL    HW221237   2.742   1.245   5.805 -0.9222 -1.8812 -0.2962
 3259SOL     OW21238   3.444   4.176   6.026 -0.4337  0.3340 -0.1710
 3259SOL    HW121239   3.390   4.116   5.974 -0.3614  0.7660 -0.7448
 3259SOL    HW221240   3.379   4.205   6.091 -0.7699  0.1151 -0.4090
 3260SOL     OW21241   2.004   4.068   1.728 -0.4470  0.0136 -0.2509
 3260SOL    HW121242   2.038   4.055   1.639 -0.0626  0.2561 -0.1367
 3260SOL    HW221243   1.988   4.162   1.726 -1.0185 -0.0906 -0.6234
 3261SOL     OW21244   3.642   0.178   4.970  0.2696  0.6415  0.0615
 3261SOL    HW121245   3.625   0.084   4.979  0.0866  0.6494 -0.1770
 3261SOL    HW221246   3.668   0.206   5.057  0.3329 -1.1010  0.5909
 3262SOL     OW21247   3.208   0.326   8.712  0.0420  0.6288 -0.2405
 3262SOL    HW121248   3.141   0.338   8.778  1.2480 -4.8515  1.9283
 3262SOL    HW221249   3.270   0.270   8.759 -1.3631 -0.5598  0.1853
 3263SOL     OW21250   4.408   4.677   6.576 -0.1370  0.3051 -0.3580
 3263SOL    HW121251   4.483   4.618   6.587 -1.3054 -0.7136  1.8876
 3263SOL    HW221252   4.431   0.004   6.497 -0.5118  1.3291  0.1888
 3264SOL     OW21253   1.827   1.469   0.473  0.5236 -0.2605  0.0627
 3264SOL    HW121254   1.778   1.540   0.431  2.1878  1.2625  0.6979
 3264SOL    HW221255   1.787   1.395   0.427 -0.2850 -0.1174  0.5322
 3265SOL     OW21256   4.252   4.045   8.205  0.1328 -0.2492 -0.1286
 3265SOL    HW121257   4.205   4.017   8.284 -0.7907  0.7466 -0.3209
 3265SOL    HW221258   4.327   4.096   8.237  1.0056 -0.6592 -1.5321
 3266SOL     OW21259   3.942   2.885   7.443 -0.3142 -0.0288  0.4146
 3266SOL    HW121260   3.904   2.854   7.361 -0.0515  0.6507  0.0329
 3266SOL    HW221261   3.858   2.901   7.486 -1.9512 -2.2285 -1.9404
 3267SOL     OW21262   4.719   3.558   5.530 -0.2989 -0.2989  0.7231
 3267SOL    HW121263   0.035   3.576   5.615  2.4673 -0.0373 -0.6030
 3267SOL    HW221264   0.046   3.481   5.505 -1.0108 -0.2541 -0.8465
 3268SOL     OW21265   0.214   3.897   6.814 -0.5034 -0.5958 -0.1001
 3268SOL    HW121266   0.275   3.910   6.742 -1.5603  0.7720 -0.7444
 3268SOL    HW221267   0.272   3.913   6.888  1.7033 -2.3230 -1.4774
 3269SOL     OW21268   1.246   2.317  15.672 -0.3445 -0.4977  0.5574
 3269SOL    HW121269   1.220   2.359  15.590 -1.5980 -0.6949  0.8418
 3269SOL    HW221270   1.206   2.230  15.662  1.9031 -1.7191  2.3132
 3270SOL     OW21271   0.896   3.426   3.585 -0.0032  0.3077  0.2691
 3270SOL    HW121272   0.910   3.473   3.667 -0.5892 -0.6601  0.9270
 3270SOL    HW221273   0.809   3.390   3.604  0.1500  1.4924  3.3502
 3271SOL     OW21274   0.023   0.684  17.199 -0.1063 -0.2051 -0.5184
 3271SOL    HW121275   4.655   0.676  17.226 -0.3989  1.3179 -1.0480
 3271SOL    HW221276   0.037   0.605  17.147  1.6034  0.9273 -1.7796
 3272SOL     OW21277   1.220   3.647   1.369 -0.7080  0.1419  0.1443
 3272SOL    HW121278   1.309   3.614   1.353 -1.3447 -1.7004  0.4101
 3272SOL    HW221279   1.233   3.742   1.372  0.5587 -0.0244  0.0996
 3273SOL     OW21280   4.275   2.532  10.605 -0.2956  0.2303 -0.2485
 3273SOL    HW121281   4.202   2.523  10.544 -0.2639  0.3404 -0.3039
 3273SOL    HW221282   4.229   2.500  10.683 -1.4731 -2.2140 -1.9554
 3274SOL     OW21283   2.309   3.628   5.144  0.4589 -0.1495 -0.2414
 3274SOL    HW121284   2.268   3.542   5.134 -1.0071  0.6312 -0.8144
 3274SOL    HW221285   2.229   3.672   5.173  2.0028  3.6610 -1.7594
 3275SOL     OW21286   2.206   3.063   2.371  0.1767 -0.1600 -0.1388
 3275SOL    HW121287   2.209   2.998   2.301  1.2402  0.4241 -0.6427
 3275SOL    HW221288   2.284   3.115   2.351  0.9607 -1.7737 -1.2602
 3276SOL     OW21289   2.261   4.166   3.564 -0.0557 -0.1955 -0.4534
 3276SOL    HW121290   2.334   4.155   3.503 -0.5672  0.7197 -1.2304
 3276SOL    HW221291   2.221   4.245   3.526  0.3124  0.6195  0.8703
 3277SOL     OW21292   2.610   3.862   0.198  0.2170 -0.5666 -0.2355
 3277SOL    HW121293   2.695   3.858   0.241 -0.7668  1.1821  1.8892
 3277SOL    HW221294   2.617   3.792   0.133 -0.3718  0.9861 -1.9885
 3278SOL     OW21295   1.325   4.367  11.861  0.1339 -0.8329  0.3422
 3278SOL    HW121296   1.342   4.452  11.821  0.5518 -0.6710  0.8677
 3278SOL    HW221297   1.400   4.316  11.831  0.6060 -0.3282  0.6774
 3279SOL     OW21298   0.669   2.665   6.754  0.0139 -0.3946  0.8924
 3279SOL    HW121299   0.723   2.595   6.791 -0.0037 -0.0093  1.6550
 3279SOL    HW221300   0.662   2.731   6.823  0.5918 -0.8838  1.4285
 3280SOL     OW21301   4.474   4.253  15.164  0.3646  0.6141 -0.1876
 3280SOL    HW121302   4.424   4.198  15.224 -0.3559 -0.0855 -1.4253
 3280SOL    HW221303   4.480   4.330  15.220 -1.1305  0.7045 -0.1480
 3281SOL     OW21304   0.621   3.736   1.092 -0.6542 -0.0239  0.5422
 3281SOL    HW121305   0.596   3.654   1.135  0.5279 -0.9773 -0.5585
 3281SOL    HW221306   0.716   3.737   1.100 -0.8244  0.4393  2.5039
 3282SOL     OW21307   0.034   0.739   0.930 -0.1485  0.1304  0.1985
 3282SOL    HW121308   4.689   0.805   0.936  2.0144  2.2555  1.3945
 3282SOL    HW221309   0.023   0.713   0.839 -1.4535  1.2689  0.0356
 3283SOL     OW21310   2.485   3.039   8.134  0.4947 -0.1510 -0.3916
 3283SOL    HW121311   2.575   3.008   8.122  0.0165 -0.6207 -2.6364
 3283SOL    HW221312   2.488   3.105   8.065  4.6904  0.0936  0.0162
 3284SOL     OW21313   0.421   0.492   3.671  0.1094 -0.6691  0.0406
 3284SOL    HW121314   0.327   0.477   3.669  0.1104 -0.6143 -0.4738
 3284SOL    HW221315   0.444   0.402   3.692  3.8727  0.1689 -0.5198
 3285SOL     OW21316   0.991   0.922  13.879 -0.2832  0.2613  0.3516
 3285SOL    HW121317   1.079   0.900  13.848  0.6623  0.7228  2.7257
 3285SOL    HW221318   0.963   0.959  13.795 -1.1995  0.8198  0.9154
 3286SOL     OW21319   4.723   1.234  13.379 -0.3843 -0.4315 -0.3830
 3286SOL    HW121320   4.650   1.190  13.423  0.6540 -0.7723  1.0023
 3286SOL    HW221321   0.038   1.294  13.442  1.2584  0.3403 -2.1139
 3287SOL     OW21322   3.722   1.421   8.310  0.1643  0.4416 -0.2725
 3287SOL    HW121323   3.766   1.402   8.227 -0.4193  1.3625 -0.7918
 3287SOL    HW221324   3.637   1.446   8.274 -0.4032 -1.4644 -0.2680
 3288SOL     OW21325   3.597   2.494  11.978  0.2906 -0.4944 -0.1221
 3288SOL    HW121326   3.523   2.459  12.028 -2.2329  1.8367 -2.1605
 3288SOL    HW221327   3.671   2.453  12.023  1.9180  0.2486 -2.1080
 3289SOL     OW21328   3.931   0.854  10.499 -0.1118  0.0379 -0.5075
 3289SOL    HW121329   3.905   0.839  10.590 -1.0506  0.6681 -0.6655
 3289SOL    HW221330   3.977   0.937  10.513 -0.5837  0.1481  0.3987
 3290SOL     OW21331   0.223   1.534   6.601 -0.0473  0.5630  0.5732
 3290SOL    HW121332   0.185   1.604   6.548  0.3560  1.0637  0.9525
 3290SOL    HW221333   0.248   1.576   6.683  1.1272  0.7823  0.1070
 3291SOL     OW21334   3.252   0.099  10.949 -0.0411 -0.2709 -0.0053
 3291SOL    HW121335   3.297   0.182  10.936  1.8282 -0.9885  1.9127
 3291SOL    HW221336   3.173   0.117  11.000 -0.9145  0.0306 -1.4681
 3292SOL     OW21337   3.207   1.095   5.217  0.2740  0.1380 -0.1466
 3292SOL    HW121338   3.250   1.031   5.161  0.6286  1.7267 -1.6644
 3292SOL    HW221339   3.176   1.159   5.154  0.7099 -1.1463 -1.6459
 3293SOL     OW21340   0.882   2.495   4.372 -0.6505  0.0516 -0.4285
 3293SOL    HW121341   0.864   2.406   4.399 -0.1017  0.1197  0.1578
 3293SOL    HW221342   0.933   2.517   4.450  1.8275 -0.0232 -2.0166
 3294SOL     OW21343   2.554   0.769  17.686  0.0769  0.2432  0.0385
 3294SOL    HW121344   2.591   0.740   0.074 -2.1233  1.5807  1.4575
 3294SOL    HW221345   2.635   0.803  17.647 -0.4871  0.4167 -0.9835
 3295SOL     OW21346   4.202   1.384  11.161  0.3530 -0.4697 -0.3440
 3295SOL    HW121347   4.243   1.470  11.156 -0.8846  0.2062  1.2773
 3295SOL    HW221348   4.198   1.363  11.067 -1.0473 -0.1393 -0.3509
 3296SOL     OW21349   2.987   3.014  13.027 -0.0205 -0.0047 -0.0953
 3296SOL    HW121350   3.062   2.989  12.973 -0.5318  0.2048 -0.9029
 3296SOL    HW221351   3.026   3.082  13.082 -0.4944  0.9907 -0.9980
 3297SOL     OW21352   4.468   1.330   9.103  0.1518  0.0423  0.2460
 3297SOL    HW121353   4.462   1.390   9.178  0.1069 -3.7924  3.3185
 3297SOL    HW221354   4.534   1.269   9.134  0.3706  0.5167  0.7170
 3298SOL     OW21355   1.837   3.786   5.186  0.0233  0.3968  0.2574
 3298SOL    HW121356   1.788   3.790   5.105 -0.0196  1.1813  0.3293
 3298SOL    HW221357   1.775   3.738   5.241  0.9927 -1.7674 -0.5445
 3299SOL     OW21358   3.219   3.047   6.488  0.0140  0.1578  0.2512
 3299SOL    HW121359   3.265   3.108   6.430 -2.6514  0.5131 -1.5137
 3299SOL    HW221360   3.144   3.098   6.520 -0.2196  0.5454 -0.9129
 3300SOL     OW21361   1.612   0.183   0.770 -0.4553 -0.0570  0.4018
 3300SOL    HW121362   1.569   0.112   0.722  0.1526  2.1524 -3.4735
 3300SOL    HW221363   1.577   0.162   0.857  0.0334 -0.1700  0.5659
 3301SOL     OW21364   0.446   0.646   6.306 -0.3066 -0.6694 -0.3270
 3301SOL    HW121365   0.457   0.581   6.375  3.0493  0.1112 -0.0977
 3301SOL    HW221366   0.475   0.729   6.344 -0.0911 -0.5639 -0.7191
 3302SOL     OW21367   4.484   0.310   2.779 -0.3799  0.5715  0.1293
 3302SOL    HW121368   4.488   0.405   2.768 -1.0132  0.5033 -0.7095
 3302SOL    HW221369   4.576   0.291   2.794  0.0299  4.0130  1.8042
 3303SOL     OW21370   2.404   3.260   5.202  0.2831 -0.0643 -0.0791
 3303SOL    HW121371   2.362   3.290   5.282 -2.1042 -2.9025 -0.3019
 3303SOL    HW221372   2.337   3.222   5.146  0.8818 -0.5802 -0.4506
 3304SOL     OW21373   1.835   3.314   1.904 -0.4751 -0.1983  0.4406
 3304SOL    HW121374   1.800   3.400   1.928  1.0657  0.8687 -1.1362
 3304SOL    HW221375   1.783   3.305   1.824  0.4205 -1.2077 -0.0208
 3305SOL     OW21376   3.115   0.213  17.617  0.7299 -0.1630  0.7739
 3305SOL    HW121377   3.121   0.155  17.692 -1.4635 -2.3890 -0.7594
 3305SOL    HW221378   3.040   0.270  17.635  0.3982 -0.5186  0.5445
 3306SOL     OW21379   4.454   1.729   4.558 -0.3055  0.1051 -0.2146
 3306SOL    HW121380   4.426   1.675   4.631  0.1746 -0.7854 -0.6949
 3306SOL    HW221381   4.483   1.810   4.601 -0.9107 -0.9360  2.1614
 3307SOL     OW21382   3.856   4.649  15.642 -0.4994 -0.0355  0.8107
 3307SOL    HW121383   3.889   4.721  15.696  2.3170 -1.3107  0.7767
 3307SOL    HW221384   3.794   4.695  15.585  0.3492 -2.0478 -1.7335
 3308SOL     OW21385   1.323   4.132   4.572 -0.7934 -0.5600 -0.4269
 3308SOL    HW121386   1.394   4.115   4.510 -0.6438 -1.7984  0.0711
 3308SOL    HW221387   1.306   4.048   4.616  0.2281 -0.6681 -0.2434
 3309SOL     OW21388   2.819   1.254   8.526  0.1568 -0.1394 -0.3485
 3309SOL    HW121389   2.909   1.249   8.559 -0.0449  2.9901  0.6618
 3309SOL    HW221390   2.789   1.336   8.565 -0.6933 -0.5661 -0.1140
 3310SOL     OW21391   1.126   3.291   9.903  0.4448  0.4941 -0.2634
 3310SOL    HW121392   1.217   3.317   9.888  1.4066 -1.9174  1.5618
 3310SOL    HW221393   1.109   3.219   9.843 -0.6571 -1.2156  2.0889
 3311SOL     OW21394   1.262   3.425   3.341 -0.1678  0.1033  0.0842
 3311SOL    HW121395   1.288   3.406   3.251 -1.9819  0.8118 -0.5799
 3311SOL    HW221396   1.176   3.464   3.327  0.9357  1.8027 -2.0171
 3312SOL     OW21397   4.650   4.071   3.200  0.0273 -0.3509 -0.1812
 3312SOL    HW121398   4.678   4.060   3.109  0.1729  0.2507 -0.2080
 3312SOL    HW221399   4.609   3.986   3.216 -0.7023 -0.0252 -0.3254
 3313SOL     OW21400   4.224   1.289  16.387  0.1846 -0.5543 -0.0174
 3313SOL    HW121401   4.202   1.224  16.320  0.6700 -0.4151 -0.3057
 3313SOL    HW221402   4.317   1.297  16.368  0.0089 -1.8271 -1.3954
 3314SOL     OW21403   2.487   3.784   9.292 -0.2923  0.3920 -0.0476
 3314SOL    HW121404   2.564   3.804   9.239 -1.5475  1.4347 -1.4825
 3314SOL    HW221405   2.436   3.727   9.234 -0.4876 -1.1439  1.6217
 3315SOL     OW21406   4.427   4.138   2.196 -0.0122 -0.3076  0.1116
 3315SOL    HW121407   4.341   4.166   2.226 -0.4780 -0.8812 -0.6950
 3315SOL    HW221408   4.414   4.115   2.105  0.7582 -1.0111  0.1794
 3316SOL     OW21409   0.582   0.329   1.194  0.3332  0.3091  0.0384
 3316SOL    HW121410   0.645   0.342   1.265 -0.3874 -0.7704  0.8811
 3316SOL    HW221411   0.635   0.344   1.116  0.9424 -1.6108  0.0809
 3317SOL     OW21412   4.290   3.274   0.306 -0.1895  0.0039 -0.1798
 3317SOL    HW121413   4.337   3.248   0.227 -0.1100 -0.9630  0.1795
 3317SOL    HW221414   4.346   3.234   0.373  0.4558  0.9733 -0.1485
 3318SOL     OW21415   0.588   2.251   5.771  0.1249 -0.0295  0.1404
 3318SOL    HW121416   0.608   2.255   5.864 -0.2317  0.2542  0.2041
 3318SOL    HW221417   0.498   2.218   5.771 -0.3936  1.4203  1.4377
 3319SOL     OW21418   0.667   2.837   3.583 -0.3685 -0.2140 -0.2829
 3319SOL    HW121419   0.650   2.857   3.491  0.7360  0.1796 -0.3999
 3319SOL    HW221420   0.650   2.925   3.617  1.6407  0.0908 -0.0314
 3320SOL     OW21421   2.998   3.745  10.325 -0.6368 -0.3442  1.0297
 3320SOL    HW121422   3.042   3.761  10.408 -0.9874 -3.2635  1.7481
 3320SOL    HW221423   3.072   3.741  10.265 -1.6414 -0.7628 -0.1953
 3321SOL     OW21424   0.555   0.797  17.367  0.0399  0.2122  0.5814
 3321SOL    HW121425   0.528   0.866  17.306  2.3668  1.5713  1.0783
 3321SOL    HW221426   0.545   0.719  17.313  1.3149 -2.2819  3.9875
 3322SOL     OW21427   2.010   1.806   1.541  0.3304  0.2520 -0.1534
 3322SOL    HW121428   2.103   1.789   1.529  0.5420  0.7951  0.6662
 3322SOL    HW221429   1.986   1.853   1.461 -0.3112  2.1036  1.1250
 3323SOL     OW21430   4.571   3.409   5.363 -0.2355  0.1105  0.9474
 3323SOL    HW121431   4.641   3.346   5.345  0.7228  1.1496  1.0561
 3323SOL    HW221432   4.618   3.459   5.428 -0.5203 -1.0584  2.0519
 3324SOL     OW21433   3.244   2.783  13.441  0.3608 -0.0075 -0.4423
 3324SOL    HW121434   3.224   2.726  13.367  1.6162  1.1213 -1.6687
 3324SOL    HW221435   3.166   2.838  13.448  0.4809 -0.0864  1.3687
 3325SOL     OW21436   4.235   2.284   8.624 -0.7070 -0.7915  0.1737
 3325SOL    HW121437   4.233   2.260   8.532  1.4491  1.8706 -0.5735
 3325SOL    HW221438   4.284   2.216   8.669 -0.0375 -0.5545 -0.1998
 3326SOL     OW21439   2.956   1.017   8.204  0.2470 -0.4574  0.7809
 3326SOL    HW121440   2.896   0.994   8.275 -1.7417 -2.2056 -1.4379
 3326SOL    HW221441   3.027   0.957   8.226 -1.4480 -1.7257  2.8195
 3327SOL     OW21442   3.602   2.119   9.179 -0.5803  0.2273  0.4362
 3327SOL    HW121443   3.617   2.205   9.219 -0.0682 -0.4147  1.6321
 3327SOL    HW221444   3.562   2.145   9.096  0.8678  1.0779  0.0007
 3328SOL     OW21445   0.006   0.223   6.939  0.1131 -0.3213 -0.0541
 3328SOL    HW121446   4.663   0.175   6.892 -1.7870  0.5578  1.7432
 3328SOL    HW221447   0.086   0.171   6.926  0.0035 -1.0214  2.0988
 3329SOL     OW21448   2.229   3.738   2.073  0.0323 -0.1604 -0.1613
 3329SOL    HW121449   2.219   3.788   2.154 -1.4308  1.3833 -1.2958
 3329SOL    HW221450   2.303   3.680   2.092 -0.0959 -0.4516 -0.5447
 3330SOL     OW21451   1.905   2.229   7.094 -0.5573 -0.1128 -0.3700
 3330SOL    HW121452   1.929   2.308   7.045 -2.5203  0.0099 -1.1401
 3330SOL    HW221453   1.833   2.264   7.147  0.7878  1.1057  0.6530
 3331SOL     OW21454   2.458   2.844  12.430  0.3333  0.4109  0.0121
 3331SOL    HW121455   2.429   2.887  12.510 -0.9015  1.4168 -0.9682
 3331SOL    HW221456   2.370   2.825  12.397  0.7676  0.1361 -1.0064
 3332SOL     OW21457   1.595   2.273  17.381  0.0715 -0.8042 -0.0823
 3332SOL    HW121458   1.637   2.294  17.464 -0.4543  0.6835 -0.1795
 3332SOL    HW221459   1.517   2.228  17.413  0.7649 -1.7859  0.2275
 3333SOL     OW21460   1.246   2.299   2.079  0.0798 -0.2136 -0.2078
 3333SOL    HW121461   1.232   2.371   2.018  2.2880 -2.5757 -3.4905
 3333SOL    HW221462   1.180   2.324   2.143  1.7082  0.8981  1.0423
 3334SOL     OW21463   2.647   3.775   3.499  0.1043  0.1515  0.2054
 3334SOL    HW121464   2.734   3.742   3.476  0.5080  1.4252 -0.0883
 3334SOL    HW221465   2.596   3.749   3.422 -1.0691  0.1789  0.9809
 3335SOL     OW21466   0.916   0.245  16.818  0.1120  0.1590 -0.2463
 3335SOL    HW121467   0.936   0.335  16.843  1.8444  0.0771 -1.3736
 3335SOL    HW221468   0.917   0.208  16.906  1.6439  0.0884 -0.3077
 3336SOL     OW21469   1.681   2.491   2.608  0.4712 -0.2662  0.2523
 3336SOL    HW121470   1.708   2.583   2.612 -2.2957  0.6624 -2.6225
 3336SOL    HW221471   1.656   2.485   2.516 -0.2036  1.9276  0.2935
 3337SOL     OW21472   4.562   0.514   5.991 -0.5729 -0.4675 -0.2141
 3337SOL    HW121473   4.509   0.561   5.927  1.3256  2.0824  0.0660
 3337SOL    HW221474   4.624   0.467   5.936 -0.2483  0.7592 -0.9031
 3338SOL     OW21475   1.885   3.050  17.105  0.0157 -0.5642  0.5277
 3338SOL    HW121476   1.898   3.120  17.169  1.5066 -0.8815  0.5596
 3338SOL    HW221477   1.949   2.984  17.129  1.7599  2.0799  3.0700
 3339SOL     OW21478   4.210   0.709  12.537  0.4080  0.3132  0.5938
 3339SOL    HW121479   4.144   0.769  12.573 -0.2458  0.1376 -0.2940
 3339SOL    HW221480   4.275   0.713  12.607  0.2098 -0.7275  0.8410
 3340SOL     OW21481   0.654   0.740   8.419 -0.5301 -0.3084 -0.3845
 3340SOL    HW121482   0.630   0.730   8.511 -1.3046 -0.3872 -0.5963
 3340SOL    HW221483   0.750   0.740   8.420 -0.5412  0.1821  1.0362
 3341SOL     OW21484   2.991   3.588   9.927  0.0171 -0.0330  0.0266
 3341SOL    HW121485   3.066   3.542   9.965 -2.6788 -2.2236  2.7060
 3341SOL    HW221486   2.923   3.569   9.992 -0.1396  1.9137  0.4135
 3342SOL     OW21487   1.994   1.777   3.482  0.0216 -0.3696  0.1162
 3342SOL    HW121488   1.951   1.765   3.566  0.0954  0.8601  0.3346
 3342SOL    HW221489   1.921   1.800   3.425  1.5109  0.8684 -1.3228
 3343SOL     OW21490   1.776   4.395  13.062  0.2693  0.4156  0.3246
 3343SOL    HW121491   1.721   4.469  13.036  0.4668  0.0611 -1.0984
 3343SOL    HW221492   1.720   4.356  13.129 -0.2575 -3.5343 -2.4431
 3344SOL     OW21493   4.305   0.671   2.923  0.2624 -0.0691 -0.7388
 3344SOL    HW121494   4.276   0.625   2.845  0.1226 -1.5478  0.2002
 3344SOL    HW221495   4.227   0.725   2.930 -0.3317 -1.1126  0.5376
 3345SOL     OW21496   3.733   4.589   6.207 -0.2315 -0.1369 -0.0067
 3345SOL    HW121497   3.732   4.672   6.256  0.1268  0.6987 -1.4126
 3345SOL    HW221498   3.758   4.532   6.280 -1.4292 -0.3719  0.2193
 3346SOL     OW21499   4.686   1.731   6.575 -0.1808  0.3130 -0.3840
 3346SOL    HW121500   4.624   1.672   6.617 -1.2249  1.3048 -0.5317
 3346SOL    HW221501   4.651   1.741   6.487 -2.3059 -0.4780  0.3722
 3347SOL     OW21502   2.473   2.027   2.757  0.1193 -0.2141  0.2632
 3347SOL    HW121503   2.505   2.105   2.711  2.6764 -1.9314 -0.8596
 3347SOL    HW221504   2.381   2.029   2.730  0.1645 -0.0681  0.1216
 3348SOL     OW21505   0.323   3.406  16.777 -0.3286  0.1950 -0.4404
 3348SOL    HW121506   0.253   3.446  16.725 -0.5837 -0.8765 -0.9298
 3348SOL    HW221507   0.288   3.437  16.860  0.1032  1.5172 -0.7505
 3349SOL     OW21508   3.740   0.839   2.110  0.4153  0.1855 -0.5786
 3349SOL    HW121509   3.783   0.754   2.109  0.8642  0.4164 -1.2098
 3349SOL    HW221510   3.798   0.892   2.166  1.5274 -1.6901  0.0453
 3350SOL     OW21511   0.793   3.609   9.264  0.3004  0.4646  0.4888
 3350SOL    HW121512   0.700   3.628   9.278 -0.6129 -2.8573 -1.0004
 3350SOL    HW221513   0.808   3.569   9.178 -1.8060 -0.3449  0.4797
 3351SOL     OW21514   1.267   1.883   7.473  0.1185 -0.6698 -0.6313
 3351SOL    HW121515   1.296   1.792   7.483  0.2763 -0.4944  0.5019
 3351SOL    HW221516   1.171   1.876   7.472  0.1527 -0.8874 -1.7338
 3352SOL     OW21517   1.155   1.576   3.733 -0.6145  0.0850 -0.0518
 3352SOL    HW121518   1.101   1.516   3.785  0.5154 -0.2828  0.6985
 3352SOL    HW221519   1.191   1.640   3.795 -1.7844  1.2305 -0.5663
 3353SOL     OW21520   3.118   2.500  11.657 -0.0833 -0.3253 -0.2159
 3353SOL    HW121521   3.176   2.559  11.608 -0.5875 -0.5433 -1.0753
 3353SOL    HW221522   3.131   2.538  11.744 -1.6989 -0.8774  0.2527
 3354SOL     OW21523   0.312   2.106   8.694  0.3025  0.1771  0.2571
 3354SOL    HW121524   0.265   2.056   8.628 -0.2444  1.8958 -0.6575
 3354SOL    HW221525   0.284   2.055   8.770 -2.0974 -0.4437 -1.0282
 3355SOL     OW21526   3.220   3.414   3.136  0.5084 -0.2729  0.1526
 3355SOL    HW121527   3.308   3.449   3.149  0.5801 -0.0947 -0.7563
 3355SOL    HW221528   3.228   3.331   3.183  0.6883  0.4204  1.3415
 3356SOL     OW21529   2.058   3.726   4.153  0.8251 -0.1141  0.4334
 3356SOL    HW121530   2.070   3.790   4.083 -2.3882  0.3891  0.3202
 3356SOL    HW221531   2.073   3.650   4.097 -1.0050 -1.1014  1.2736
 3357SOL     OW21532   4.116   0.936   6.270 -0.1641 -0.2485 -0.5570
 3357SOL    HW121533   4.156   0.852   6.246  1.3114 -0.3026  2.1122
 3357SOL    HW221534   4.184   0.969   6.328 -1.6256  0.4516  0.7596
 3358SOL     OW21535   2.840   0.235   0.214  0.1803  0.0674 -0.0062
 3358SOL    HW121536   2.890   0.248   0.133  1.2307  1.4650  0.8551
 3358SOL    HW221537   2.754   0.256   0.179  1.1646  0.0550 -2.4472
 3359SOL     OW21538   0.657   2.049   6.346  0.2870 -0.5709 -0.2743
 3359SOL    HW121539   0.642   1.969   6.296  3.0798 -1.9725  1.0999
 3359SOL    HW221540   0.590   2.043   6.415  0.1882 -3.3973 -0.5969
 3360SOL     OW21541   0.203   1.735   4.175  0.2287 -0.3108  0.0410
 3360SOL    HW121542   0.144   1.720   4.249  0.2790  1.9870  0.5608
 3360SOL    HW221543   0.210   1.646   4.141  0.6813 -0.3947  0.3571
 3361SOL     OW21544   1.032   1.171   7.977 -0.0972 -0.6387  0.6688
 3361SOL    HW121545   0.937   1.182   7.978  0.1384  1.4226  0.6782
 3361SOL    HW221546   1.055   1.213   7.894  0.3223 -1.1849  0.5123
 3362SOL     OW21547   1.688   2.068   6.702 -0.1789  0.1730 -0.3976
 3362SOL    HW121548   1.739   2.117   6.637  2.0334 -1.3846  0.1663
 3362SOL    HW221549   1.682   1.979   6.666  2.3425 -1.1173  2.4585
 3363SOL     OW21550   0.782   2.216   9.443  0.1172 -0.6410 -0.2320
 3363SOL    HW121551   0.796   2.140   9.386  1.6849 -1.8832  1.8034
 3363SOL    HW221552   0.777   2.170   9.527  1.2546 -3.6285 -1.7909
 3364SOL     OW21553   1.606   0.262   5.247  0.3881 -0.3118 -0.5925
 3364SOL    HW121554   1.539   0.323   5.277  2.5999  1.2784  1.0797
 3364SOL    HW221555   1.561   0.215   5.177 -0.5747 -0.2115 -0.0457
 3365SOL     OW21556   4.142   1.358  12.291  0.4980 -0.0994 -0.0619
 3365SOL    HW121557   4.150   1.271  12.253 -1.4460 -0.1649 -0.3408
 3365SOL    HW221558   4.116   1.333  12.380 -2.3115 -1.3470 -1.2305
 3366SOL     OW21559   0.403   1.908   8.112 -0.6893  0.2141 -0.4418
 3366SOL    HW121560   0.308   1.922   8.110 -0.7744  0.4751  5.8289
 3366SOL    HW221561   0.417   1.984   8.167 -2.4884  0.0296  0.2747
 3367SOL     OW21562   2.497   2.308   5.354 -0.7760 -0.0193  0.3904
 3367SOL    HW121563   2.529   2.240   5.413 -0.5449 -0.7196 -0.5578
 3367SOL    HW221564   2.469   2.376   5.416  0.4124  0.7690  0.0715
 3368SOL     OW21565   4.577   0.198   3.529  0.2107 -0.9635  0.3073
 3368SOL    HW121566   4.593   0.256   3.455 -1.0845 -1.2547 -0.2138
 3368SOL    HW221567   4.583   0.114   3.483  1.4930 -1.3939  1.2718
 3369SOL     OW21568   3.758   4.005   3.977 -0.1212 -0.7209 -0.0074
 3369SOL    HW121569   3.705   4.081   4.002  1.2780  0.2322  0.1036
 3369SOL    HW221570   3.837   4.057   3.958  0.8962 -1.3001  2.5895
 3370SOL     OW21571   3.004   2.781  13.206  0.0690  0.3129 -0.6028
 3370SOL    HW121572   3.076   2.719  13.210 -0.5497 -0.2424  2.3840
 3370SOL    HW221573   3.018   2.822  13.121 -0.4324 -1.4969 -1.5480
 3371SOL     OW21574   3.958   2.670   6.088  0.4080  0.0448  0.3211
 3371SOL    HW121575   4.049   2.661   6.117  0.3831  0.5592  0.5620
 3371SOL    HW221576   3.924   2.589   6.125  0.2485 -0.6900 -1.4369
 3372SOL     OW21577   3.773   3.309   6.229 -0.2829 -0.1531  0.0523
 3372SOL    HW121578   3.862   3.279   6.243 -0.3191  0.5211  1.7317
 3372SOL    HW221579   3.720   3.230   6.237 -0.7991  0.2701  0.7731
 3373SOL     OW21580   1.075   4.173   4.407 -0.4414 -0.1435  0.0816
 3373SOL    HW121581   1.133   4.125   4.347  0.1653  1.6946 -0.7895
 3373SOL    HW221582   1.125   4.161   4.488  1.5254 -0.3407 -1.1618
 3374SOL     OW21583   3.424   0.906  14.366  0.1096 -0.3661 -0.3871
 3374SOL    HW121584   3.445   0.846  14.294  0.9423 -0.9122  0.2979
 3374SOL    HW221585   3.462   0.861  14.442 -0.4968 -2.9327 -1.6024
 3375SOL     OW21586   4.003   2.005   1.588 -0.4867 -0.2579  0.0172
 3375SOL    HW121587   4.008   2.082   1.645 -0.1470 -1.4721  1.5962
 3375SOL    HW221588   4.098   1.993   1.583 -0.6299 -2.1981  2.2666
 3376SOL     OW21589   0.251   0.948   5.934 -0.2623 -0.0623 -0.7375
 3376SOL    HW121590   0.310   0.977   6.005  1.4021 -3.4386 -0.6931
 3376SOL    HW221591   0.184   1.014   5.948 -1.2660 -1.3204  0.3958
 3377SOL     OW21592   1.213   0.970  10.531  0.7029  0.1700  0.0385
 3377SOL    HW121593   1.119   0.977  10.515  0.3183  0.4860  2.3563
 3377SOL    HW221594   1.222   1.028  10.607 -1.4591 -3.0780  2.7269
 3378SOL     OW21595   0.409   4.648  12.994  0.2572  0.2397  0.1252
 3378SOL    HW121596   0.485   4.645  13.051 -2.3395 -2.0428  3.4693
 3378SOL    HW221597   0.440   4.582  12.931  1.9935 -0.5991  1.8821
 3379SOL     OW21598   2.763   2.234  11.756 -0.6405  0.2961  0.4260
 3379SOL    HW121599   2.681   2.266  11.794 -0.3816  1.7078 -0.2293
 3379SOL    HW221600   2.816   2.311  11.770  1.2273 -0.5719 -1.8563
 3380SOL     OW21601   1.879   0.441   4.634 -0.3036  0.2213 -0.1376
 3380SOL    HW121602   1.834   0.492   4.566 -1.3083 -0.0707  0.3288
 3380SOL    HW221603   1.956   0.498   4.637 -1.2933  1.5444 -0.0199
 3381SOL     OW21604   2.473   1.669   3.916  0.0427 -0.0318 -0.8462
 3381SOL    HW121605   2.545   1.731   3.923 -0.3212  0.2497  0.3656
 3381SOL    HW221606   2.431   1.668   4.002  0.3180  1.5742 -0.6963
 3382SOL     OW21607   0.155   1.639   5.716  0.4384  0.0112  0.2828
 3382SOL    HW121608   0.136   1.705   5.783  0.7658  0.1698  0.2201
 3382SOL    HW221609   0.204   1.689   5.650  0.4311 -0.5636 -0.1572
 3383SOL     OW21610   1.996   1.664  15.927  0.4142  0.1384 -0.5749
 3383SOL    HW121611   2.026   1.583  15.967 -0.5717  0.6891  1.2690
 3383SOL    HW221612   2.024   1.650  15.836 -1.8846 -0.2840 -1.2189
 3384SOL     OW21613   3.337   2.011   2.757  0.3820  0.5333 -0.1768
 3384SOL    HW121614   3.321   2.031   2.664 -1.7561 -0.3502  0.0008
 3384SOL    HW221615   3.433   2.012   2.763  0.2635 -0.7459  2.0794
 3385SOL     OW21616   0.353   3.469   4.646  0.3767  0.1262 -0.8010
 3385SOL    HW121617   0.403   3.545   4.675  1.1152 -0.2647 -1.0252
 3385SOL    HW221618   0.265   3.504   4.640  0.8388  1.3499 -0.4031
 3386SOL     OW21619   0.322   1.387   8.366 -0.7874 -0.0166  0.5036
 3386SOL    HW121620   0.312   1.474   8.327 -0.5981 -0.2344 -0.0324
 3386SOL    HW221621   0.244   1.392   8.421  0.2250 -1.7206  2.1148
 3387SOL     OW21622   0.449   3.555  10.519 -0.5953  0.0309  0.9163
 3387SOL    HW121623   0.428   3.560  10.612  0.5073  0.0533  1.1605
 3387SOL    HW221624   0.475   3.464  10.508 -0.3418  0.2866 -0.5887
 3388SOL     OW21625   1.106   4.360  10.728 -0.1381 -0.8163 -0.2035
 3388SOL    HW121626   1.054   4.348  10.807  0.4265 -1.4221  0.0767
 3388SOL    HW221627   1.176   4.420  10.755 -1.2630  0.0591  0.7911
 3389SOL     OW21628   3.128   4.227  16.963  0.3601 -0.3376 -0.1842
 3389SOL    HW121629   3.037   4.239  16.990  1.2428 -0.0054  2.6202
 3389SOL    HW221630   3.165   4.225  17.051 -0.9300  0.4144  0.3797
 3390SOL     OW21631   4.619   3.021   5.742  0.2211 -0.7410  0.6937
 3390SOL    HW121632   4.644   3.088   5.679 -1.5267  0.1724  0.9668
 3390SOL    HW221633   4.589   3.072   5.818  1.1915 -1.3381  1.4693
 3391SOL     OW21634   3.937   3.767   3.065 -0.9005  0.1721 -0.4701
 3391SOL    HW121635   3.886   3.780   2.985 -1.0595  2.0307 -0.0656
 3391SOL    HW221636   3.951   3.672   3.059 -1.0252  0.0773  0.9153
 3392SOL     OW21637   2.471   0.903  16.858 -0.5294 -0.0401  0.3172
 3392SOL    HW121638   2.521   0.827  16.888 -0.2152 -0.0274 -0.1853
 3392SOL    HW221639   2.390   0.865  16.825  0.9962 -0.0295 -3.3501
 3393SOL     OW21640   0.946   4.304   7.233 -0.0791  0.2506 -0.1604
 3393SOL    HW121641   0.886   4.240   7.273  0.5407  0.4500  1.1086
 3393SOL    HW221642   0.934   4.381   7.289  1.7526 -1.6388  2.8205
 3394SOL     OW21643   1.142   2.435  11.357 -0.3985  0.1209  0.0728
 3394SOL    HW121644   1.090   2.514  11.338 -0.3700 -0.0111 -0.5716
 3394SOL    HW221645   1.076   2.396  11.414 -0.2080 -1.0282 -0.4860
 3395SOL     OW21646   3.292   3.664   4.746  0.0607  0.1184  0.6357
 3395SOL    HW121647   3.257   3.662   4.657  0.9709  2.1274  0.2249
 3395SOL    HW221648   3.214   3.699   4.788 -1.4018  0.2623 -2.2075
 3396SOL     OW21649   3.237   0.526   7.623 -0.3532 -0.5350  0.4939
 3396SOL    HW121650   3.190   0.466   7.564 -0.0010  0.5039 -0.8475
 3396SOL    HW221651   3.326   0.516   7.590  0.1822 -0.4667  1.9146
 3397SOL     OW21652   1.553   1.597   8.157  0.6458 -0.3348 -0.0304
 3397SOL    HW121653   1.544   1.504   8.180  2.8741 -0.3422  0.8194
 3397SOL    HW221654   1.561   1.640   8.243  0.3185  0.4906 -0.4132
 3398SOL     OW21655   3.009   0.527   3.282 -0.1445  0.3841 -0.7167
 3398SOL    HW121656   2.919   0.516   3.251  0.3053 -1.5867 -1.3394
 3398SOL    HW221657   3.048   0.477   3.210 -3.0842 -2.3095 -0.4077
 3399SOL     OW21658   0.499   3.497   8.558 -0.5594  0.3242  0.0163
 3399SOL    HW121659   0.581   3.477   8.603 -1.0691  2.2378  1.7779
 3399SOL    HW221660   0.458   3.564   8.613 -1.8860 -0.3330 -0.1852
 3400SOL     OW21661   3.306   4.149   2.001 -0.4590 -0.0797  0.0107
 3400SOL    HW121662   3.338   4.226   2.048 -0.7331  0.9696 -1.5300
 3400SOL    HW221663   3.216   4.145   2.033 -0.4899 -0.3054 -0.1074
 3401SOL     OW21664   4.685   2.358   8.776  0.2403  0.3939  0.7055
 3401SOL    HW121665   0.051   2.386   8.761  0.1505  0.4840  0.3422
 3401SOL    HW221666   4.642   2.400   8.702  0.4077 -0.6247  0.0350
 3402SOL     OW21667   3.884   1.761   4.355 -0.3158 -0.5037  0.1178
 3402SOL    HW121668   3.843   1.715   4.281 -0.9132  0.7927 -0.3747
 3402SOL    HW221669   3.839   1.846   4.345 -1.7245 -1.2176  0.3456
 3403SOL     OW21670   0.483   0.011   2.292  0.3348 -0.4809  0.3820
 3403SOL    HW121671   0.424   4.666   2.262  1.8340 -1.3723 -0.5349
 3403SOL    HW221672   0.492   0.079   2.225  1.0087 -3.0827 -2.1691
 3404SOL     OW21673   2.723   0.280   2.138 -0.5034  0.1471 -0.5304
 3404SOL    HW121674   2.647   0.289   2.080 -0.6007  2.4601 -0.0430
 3404SOL    HW221675   2.763   0.367   2.132  0.2728 -0.2290 -0.8866
 3405SOL     OW21676   2.366   3.465   3.508  0.3359  0.5462 -0.0808
 3405SOL    HW121677   2.414   3.545   3.530 -2.0220  1.8693  0.2725
 3405SOL    HW221678   2.435   3.422   3.458 -1.3665 -3.4408  1.0324
 3406SOL     OW21679   1.784   3.930   2.669  0.2308 -0.0283  0.1329
 3406SOL    HW121680   1.762   3.840   2.692  1.0821 -0.1262  0.5921
 3406SOL    HW221681   1.790   3.930   2.573  1.3790  0.1146  0.2062
 3407SOL     OW21682   0.268   4.114  11.861  0.0042 -0.9837 -0.1795
 3407SOL    HW121683   0.207   4.051  11.823 -0.6719 -1.6922  2.1290
 3407SOL    HW221684   0.333   4.059  11.904  1.0862 -0.0245 -0.5833
 3408SOL     OW21685   0.499   0.851   6.475 -0.1884  0.5334  0.3783
 3408SOL    HW121686   0.528   0.846   6.567 -3.7120 -0.0949  1.4641
 3408SOL    HW221687   0.464   0.940   6.482 -0.8387  0.2807  0.2414
 3409SOL     OW21688   0.281   0.963   4.785  0.3893  0.9817  0.4945
 3409SOL    HW121689   0.269   0.934   4.694  0.9301 -0.2879  0.8430
 3409SOL    HW221690   0.199   1.014   4.790 -1.8035 -2.4327 -0.6909
 3410SOL     OW21691   2.051   3.395   8.841 -0.1747 -0.1962  0.3024
 3410SOL    HW121692   1.967   3.365   8.877 -0.0523  0.4780  1.1381
 3410SOL    HW221693   2.112   3.373   8.911  1.4344 -0.1773 -1.1129
 3411SOL     OW21694   2.159   4.183   1.060  0.3820 -0.4673  0.0290
 3411SOL    HW121695   2.137   4.102   1.014  1.2312 -2.1038  2.4873
 3411SOL    HW221696   2.099   4.189   1.134 -1.2008  0.7527 -1.3850
 3412SOL     OW21697   1.259   3.172   0.179  0.0163 -0.2063 -0.3038
 3412SOL    HW121698   1.341   3.177   0.129  0.3525 -1.0163  0.1748
 3412SOL    HW221699   1.256   3.077   0.179 -0.0967 -0.2088 -1.0451
 3413SOL     OW21700   3.332   2.054   1.946  0.9064  0.0015 -0.3466
 3413SOL    HW121701   3.379   1.979   1.981  0.0799 -1.5571 -2.6079
 3413SOL    HW221702   3.370   2.069   1.859  3.0510  0.3538  0.6718
 3414SOL     OW21703   1.571   1.235  14.767 -0.0751 -0.6361  0.1367
 3414SOL    HW121704   1.651   1.219  14.818 -0.2056  0.3113  0.6265
 3414SOL    HW221705   1.591   1.305  14.706 -0.8551 -0.6996 -0.1951
 3415SOL     OW21706   3.368   2.173   7.700 -0.0930  0.3765  0.3777
 3415SOL    HW121707   3.448   2.164   7.752 -0.6090  1.9441  1.4316
 3415SOL    HW221708   3.372   2.255   7.651 -1.4355  1.7827  2.6341
 3416SOL     OW21709   2.713   1.048   1.869 -0.0930 -0.3563  0.1332
 3416SOL    HW121710   2.778   1.046   1.940  0.8372 -0.9771 -0.7444
 3416SOL    HW221711   2.687   1.140   1.875  2.3667  0.2039  2.6162
 3417SOL     OW21712   0.139   3.708   7.374  0.0473  0.1477 -0.6431
 3417SOL    HW121713   0.099   3.669   7.451  0.9983  1.7212  0.6350
 3417SOL    HW221714   0.229   3.724   7.402 -0.5246  0.8341  0.7882
 3418SOL     OW21715   2.245   4.580  17.487 -0.3183  0.0554 -0.0963
 3418SOL    HW121716   2.203   4.599  17.571  0.4994 -0.2056  0.3718
 3418SOL    HW221717   2.315   4.644  17.503 -0.0925  0.2890 -2.0158
 3419SOL     OW21718   0.648   0.648  16.154 -0.2169  0.2691  0.0086
 3419SOL    HW121719   0.665   0.554  16.159  0.4854  0.3913 -0.0759
 3419SOL    HW221720   0.687   0.665  16.068  1.7720  2.0274  1.2452
 3420SOL     OW21721   3.630   3.037   5.005  0.1270  0.3020 -0.3789
 3420SOL    HW121722   3.566   3.090   5.053 -0.5164 -2.2930  1.6076
 3420SOL    HW221723   3.629   2.957   5.057  0.6677  0.4140 -0.1972
 3421SOL     OW21724   1.996   4.302   4.622  0.4472  0.0913 -0.2855
 3421SOL    HW121725   1.953   4.265   4.545  0.9333  2.3685 -1.6423
 3421SOL    HW221726   2.067   4.237   4.627 -0.0437 -0.4670 -0.4522
 3422SOL     OW21727   4.070   3.902  11.525 -0.2348 -0.6570 -0.3808
 3422SOL    HW121728   4.089   3.983  11.573 -0.1040 -1.0045  0.1560
 3422SOL    HW221729   4.124   3.836  11.569  0.3568 -1.5244 -2.4392
 3423SOL     OW21730   3.405   3.082   7.170 -0.3693  0.2404  0.4417
 3423SOL    HW121731   3.486   3.127   7.146 -1.3365  1.1795 -1.1169
 3423SOL    HW221732   3.394   3.049   7.081 -1.6861 -0.6781  0.9582
 3424SOL     OW21733   3.831   2.021  14.175 -0.1672  0.0538  0.4690
 3424SOL    HW121734   3.805   1.957  14.109 -0.3888  2.1430 -1.4860
 3424SOL    HW221735   3.874   1.967  14.242 -1.4263 -0.8517  0.5429
 3425SOL     OW21736   2.962   4.493   7.977  0.0490 -0.5064 -0.2847
 3425SOL    HW121737   2.967   4.558   8.047  1.4103 -1.3391  0.3808
 3425SOL    HW221738   2.873   4.499   7.942 -0.3196 -0.1873  0.6969
 3426SOL     OW21739   3.191   4.303   8.908 -0.2517 -0.5153  0.3277
 3426SOL    HW121740   3.270   4.332   8.952  1.2204 -0.2256 -2.5176
 3426SOL    HW221741   3.175   4.384   8.859 -0.2873 -0.8409 -0.2009
 3427SOL     OW21742   1.336   1.337  16.939 -0.2804 -0.2883  0.5854
 3427SOL    HW121743   1.348   1.352  16.845 -3.6046 -0.9923  0.0449
 3427SOL    HW221744   1.425   1.317  16.967 -0.9712  0.5103  3.3686
 3428SOL     OW21745   1.274   0.490   8.576 -0.3355  0.3184 -0.3988
 3428SOL    HW121746   1.262   0.420   8.639  0.1572 -0.6587 -1.3854
 3428SOL    HW221747   1.364   0.520   8.590 -0.0325 -0.5079 -0.6054
 3429SOL     OW21748   0.433   2.811   6.611  0.2743 -0.4503  0.7918
 3429SOL    HW121749   0.442   2.889   6.665 -3.6083  0.6769 -0.1537
 3429SOL    HW221750   0.510   2.758   6.630  2.2944  1.6449 -1.5369
 3430SOL     OW21751   0.984   0.714   6.957  0.2994 -0.5141 -0.6348
 3430SOL    HW121752   0.895   0.683   6.971  0.2020  0.2620  0.4845
 3430SOL    HW221753   0.975   0.785   6.892 -0.7698 -0.5509 -0.5264
 3431SOL     OW21754   1.397   1.070   2.038  0.0583 -0.0266 -0.4731
 3431SOL    HW121755   1.464   1.136   2.017 -1.3217  1.4920 -0.0958
 3431SOL    HW221756   1.428   1.048   2.126 -2.1051 -0.1448  0.2465
 3432SOL     OW21757   1.778   3.622   5.924  0.9083 -0.0943  0.1060
 3432SOL    HW121758   1.717   3.616   5.997  0.7341  1.2877  0.0809
 3432SOL    HW221759   1.795   3.716   5.913 -0.3208  0.2130  0.8072
 3433SOL     OW21760   1.492   1.640   0.122 -0.1019  0.4484 -0.3328
 3433SOL    HW121761   1.410   1.608   0.085 -0.0678  0.9825 -0.8648
 3433SOL    HW221762   1.522   1.705   0.059  2.9235 -1.7747 -1.1884
 3434SOL     OW21763   2.716   0.236   6.402  0.2063 -0.2413 -0.9909
 3434SOL    HW121764   2.756   0.287   6.331  1.0882  0.6921  0.1789
 3434SOL    HW221765   2.646   0.189   6.357 -1.8239 -0.6347  2.6102
 3435SOL     OW21766   1.249   1.900   9.144  0.5206  0.3663  0.0114
 3435SOL    HW121767   1.325   1.842   9.147  0.1025 -0.1344  0.9647
 3435SOL    HW221768   1.179   1.845   9.110 -1.0431  1.3020  1.7331
 3436SOL     OW21769   1.955   0.337   6.726  0.6829  0.5312 -0.1077
 3436SOL    HW121770   1.962   0.405   6.793 -0.0054  0.1565  0.3484
 3436SOL    HW221771   1.982   0.259   6.774  0.2911 -0.0876 -0.9025
 3437SOL     OW21772   2.722   2.779   0.495 -0.0177 -0.4187  0.6669
 3437SOL    HW121773   2.766   2.744   0.417 -0.1232 -1.4492  1.0746
 3437SOL    HW221774   2.800   2.796   0.548  0.7786  0.0550 -0.6495
 3438SOL     OW21775   1.510   3.400   1.546  0.3030  0.3026 -0.5386
 3438SOL    HW121776   1.499   3.485   1.504  0.8228 -0.8194 -2.9006
 3438SOL    HW221777   1.505   3.347   1.467 -0.4530  1.0287 -0.9712
 3439SOL     OW21778   0.843   1.441   3.330 -0.0780 -0.1163 -0.2843
 3439SOL    HW121779   0.925   1.420   3.285  2.3804  1.3803  3.4836
 3439SOL    HW221780   0.813   1.509   3.269  1.1639  1.0914  0.4486
 3440SOL     OW21781   4.219   0.078   5.404  0.1793  0.0007 -0.0014
 3440SOL    HW121782   4.277   0.113   5.336 -2.1128  1.5009 -1.1559
 3440SOL    HW221783   4.264   0.121   5.476 -0.9447  0.5694  0.3482
 3441SOL     OW21784   0.091   2.263  12.283  0.1017 -0.1092  0.0624
 3441SOL    HW121785   0.160   2.272  12.349  0.8460 -2.2091 -0.4160
 3441SOL    HW221786   0.014   2.284  12.335  0.0365 -0.0351 -0.0661
 3442SOL     OW21787   4.474   4.499   2.909 -0.0260 -0.2686 -0.0134
 3442SOL    HW121788   4.396   4.542   2.874 -0.6806  0.1600  1.9634
 3442SOL    HW221789   4.539   4.566   2.889 -0.7502 -0.1803 -2.1156
 3443SOL     OW21790   3.470   1.636  17.284  0.2439  0.4546  0.1217
 3443SOL    HW121791   3.429   1.560  17.326  0.0075  0.8539  0.6289
 3443SOL    HW221792   3.549   1.603  17.243  1.0976  2.6940 -0.0512
 3444SOL     OW21793   1.694   2.440   3.443 -0.0156  0.1026 -0.0461
 3444SOL    HW121794   1.743   2.395   3.511 -0.3721  2.7193  1.9357
 3444SOL    HW221795   1.748   2.515   3.416  0.0802  0.2281  0.5113
 3445SOL     OW21796   0.573   3.715   2.320 -0.3167  0.1088  0.1771
 3445SOL    HW121797   0.485   3.687   2.295 -0.9024  2.0312  0.0115
 3445SOL    HW221798   0.574   3.681   2.409 -2.8402 -0.2600  0.0538
 3446SOL     OW21799   0.334   0.680   3.254 -0.0545 -0.1553 -0.0008
 3446SOL    HW121800   0.275   0.752   3.232  0.4099 -0.4685 -2.1919
 3446SOL    HW221801   0.410   0.727   3.289 -1.3510  0.7306  1.6637
 3447SOL     OW21802   1.415   2.623   5.279  0.0667 -0.0069 -0.3059
 3447SOL    HW121803   1.389   2.672   5.357  0.1949 -0.6798  0.1507
 3447SOL    HW221804   1.388   2.534   5.300  0.4616 -0.2818 -0.9555
 3448SOL     OW21805   0.228   2.971  13.293  0.5437 -0.4448  0.0650
 3448SOL    HW121806   0.172   2.902  13.329 -0.6673 -0.3173 -1.5929
 3448SOL    HW221807   0.183   3.053  13.315  1.5207  0.0027  0.3767
 3449SOL     OW21808   0.976   3.241  12.833  0.1432 -1.1361 -0.2858
 3449SOL    HW121809   1.034   3.200  12.768  0.0777 -0.1189 -0.9802
 3449SOL    HW221810   0.988   3.335  12.822 -1.3585 -0.8343  0.6801
 3450SOL     OW21811   0.917   0.400   1.045  0.3561 -0.1994  0.0289
 3450SOL    HW121812   0.916   0.314   1.087 -1.4055 -0.1839  0.0189
 3450SOL    HW221813   0.955   0.380   0.959  2.2713 -0.4467  0.9294
 3451SOL     OW21814   2.461   2.873   6.585 -0.0719  0.6198 -0.5628
 3451SOL    HW121815   2.386   2.836   6.540 -0.5410 -0.2364  0.9195
 3451SOL    HW221816   2.430   2.849   6.672  0.0061 -2.1572 -1.2871
 3452SOL     OW21817   1.564   1.553   7.089 -0.4397  0.2989  0.0678
 3452SOL    HW121818   1.510   1.608   7.032 -1.2423  0.0419  0.5790
 3452SOL    HW221819   1.517   1.561   7.173  2.8479  0.2677  1.8949
 3453SOL     OW21820   1.994   2.033   4.704 -0.0695  0.2872  0.1409
 3453SOL    HW121821   2.076   2.028   4.754  0.9520  1.1298 -1.4674
 3453SOL    HW221822   1.938   2.046   4.781  0.3831  1.9283  0.1817
 3454SOL     OW21823   3.032   4.068  15.060  0.4711  0.1232 -0.2616
 3454SOL    HW121824   3.087   3.994  15.088  0.3739  0.2044  0.1358
 3454SOL    HW221825   3.096   4.126  15.020 -0.3890  0.7958 -0.6528
 3455SOL     OW21826   0.574   3.557   2.902  0.5450 -0.3627  0.3520
 3455SOL    HW121827   0.619   3.494   2.959 -2.5277 -0.5104  2.6707
 3455SOL    HW221828   0.648   3.614   2.882  0.4127 -0.2975  0.0542
 3456SOL     OW21829   2.830   1.535   7.617  0.5558 -0.1525  0.1467
 3456SOL    HW121830   2.923   1.529   7.593  0.3774 -0.3855 -0.4850
 3456SOL    HW221831   2.808   1.621   7.582 -1.2464 -0.0747  1.4645
 3457SOL     OW21832   3.997   2.825   6.613  0.2356 -0.1135 -0.0445
 3457SOL    HW121833   4.078   2.862   6.649 -0.7287  0.6983  1.2883
 3457SOL    HW221834   3.950   2.828   6.696  1.6697  0.4526  0.7468
 3458SOL     OW21835   1.100   4.111  16.104 -0.7199  0.1675  0.8452
 3458SOL    HW121836   1.181   4.069  16.076 -0.4053  1.1786  0.2602
 3458SOL    HW221837   1.063   4.136  16.019  2.4494  2.3808  0.1401
 3459SOL     OW21838   2.604   1.717   5.110  0.6738  0.1048 -0.2015
 3459SOL    HW121839   2.601   1.738   5.017 -2.1342  0.1285 -0.0887
 3459SOL    HW221840   2.551   1.790   5.143  0.8220  0.5226 -0.8942
 3460SOL     OW21841   3.190   0.249   5.899  0.8453  0.4211  0.4005
 3460SOL    HW121842   3.267   0.248   5.956  0.3067 -1.4473  1.1138
 3460SOL    HW221843   3.126   0.262   5.969  0.7951  0.2128  0.3951
 3461SOL     OW21844   3.069   0.168   5.360 -0.2578 -0.4596  0.2273
 3461SOL    HW121845   3.028   0.108   5.297 -0.7698  1.4069 -1.2237
 3461SOL    HW221846   3.163   0.150   5.357 -0.4524 -1.4206 -0.3232
 3462SOL     OW21847   1.597   2.480   2.353  0.1687 -0.4929  0.6015
 3462SOL    HW121848   1.570   2.532   2.277 -0.8249  0.3214  1.5204
 3462SOL    HW221849   1.645   2.414   2.302 -1.8070 -1.6792  0.2657
 3463SOL     OW21850   0.944   2.331   0.168  0.1844  0.4329  0.4239
 3463SOL    HW121851   0.870   2.355   0.223 -0.5584  0.3339 -0.5250
 3463SOL    HW221852   1.003   2.297   0.235 -0.1443  0.2190  0.6048
 3464SOL     OW21853   0.020   4.624   9.389  0.2553 -0.5378  0.6547
 3464SOL    HW121854   0.032   4.598   9.480 -0.2219 -1.0604  0.5746
 3464SOL    HW221855   0.097   4.676   9.367  0.8380 -1.1669  1.2087
 3465SOL     OW21856   1.878   1.352  17.283  0.0335 -0.3036 -0.1907
 3465SOL    HW121857   1.874   1.419  17.214  0.3903 -1.8119 -1.6779
 3465SOL    HW221858   1.912   1.409  17.352  0.8285  0.4270 -1.1891
 3466SOL     OW21859   0.731   3.063   6.635 -0.1685 -0.0874  0.2078
 3466SOL    HW121860   0.659   3.047   6.696 -0.8869  1.2591 -0.3000
 3466SOL    HW221861   0.789   2.995   6.669 -0.7634 -0.2734  0.8468
 3467SOL     OW21862   1.811   0.078   0.149  0.4273 -0.5115 -0.1562
 3467SOL    HW121863   1.788   0.082   0.056 -1.8273  0.9116  0.4708
 3467SOL    HW221864   1.824   0.170   0.172 -0.1711 -0.5701  0.4010
 3468SOL     OW21865   2.216   4.364   0.100 -0.2937 -0.1042 -0.6188
 3468SOL    HW121866   2.247   4.451   0.125 -1.3357  0.3718 -1.0047
 3468SOL    HW221867   2.123   4.388   0.097 -0.4452 -0.8758 -2.0331
 3469SOL     OW21868   1.731   2.032   1.463  0.4361  0.1479 -0.1038
 3469SOL    HW121869   1.685   1.991   1.536  0.6096  0.1519  0.0094
 3469SOL    HW221870   1.757   1.960   1.405  1.1574 -0.2151  0.6643
 3470SOL     OW21871   1.984   0.867   2.780 -0.0171  0.0800  0.2100
 3470SOL    HW121872   2.029   0.914   2.851 -0.9048  0.7069  0.3474
 3470SOL    HW221873   2.029   0.910   2.707 -0.7420  0.0247 -0.2628
 3471SOL     OW21874   2.105   4.355   1.936  0.7982  0.7038 -0.1331
 3471SOL    HW121875   2.023   4.391   1.969  0.2903  1.0189 -1.7429
 3471SOL    HW221876   2.117   4.397   1.851  1.1280 -0.3923 -0.6172
 3472SOL     OW21877   1.376   1.895   2.818 -1.0734  0.4738  0.4088
 3472SOL    HW121878   1.400   1.964   2.756  0.6737 -0.7826 -0.3002
 3472SOL    HW221879   1.286   1.870   2.799 -0.4606 -2.0350  0.7958
 3473SOL     OW21880   1.463   0.730   2.503 -0.0240  0.9083  0.4765
 3473SOL    HW121881   1.556   0.721   2.481 -0.0832  0.1168  0.5470
 3473SOL    HW221882   1.480   0.768   2.589 -1.3650  1.4400  0.5144
 3474SOL     OW21883   3.124   0.782   3.372 -0.2348  0.6120  0.2132
 3474SOL    HW121884   3.122   0.689   3.351  0.1524  0.5468  0.4741
 3474SOL    HW221885   3.044   0.808   3.327  0.2761  2.1783  0.2241
 3475SOL     OW21886   2.382   2.724  15.271  0.0683 -0.0878  0.5911
 3475SOL    HW121887   2.391   2.819  15.257 -1.7761 -0.1296 -0.7682
 3475SOL    HW221888   2.418   2.717  15.360 -1.2507  2.1938  1.2944
 3476SOL     OW21889   3.359   0.465   0.324 -0.1930  0.5744  0.5898
 3476SOL    HW121890   3.337   0.421   0.242 -0.5946 -0.5240  1.2910
 3476SOL    HW221891   3.323   0.400   0.383  0.4294  0.0669  0.4080
 3477SOL     OW21892   4.198   1.994   3.992 -0.5137 -0.0677 -0.2035
 3477SOL    HW121893   4.286   2.030   3.985 -0.5555  0.5318  2.2154
 3477SOL    HW221894   4.216   1.901   3.989  2.1525  0.4094  1.1572
 3478SOL     OW21895   1.600   4.328   0.730  0.3226 -0.2908  0.6988
 3478SOL    HW121896   1.654   4.249   0.735  2.4853  1.1213 -0.4911
 3478SOL    HW221897   1.665   4.393   0.754 -0.4744  1.4194 -1.7736
 3479SOL     OW21898   1.895   0.167   8.556 -0.1655  0.2863 -0.3461
 3479SOL    HW121899   1.985   0.187   8.583  1.3126 -3.6578 -2.2634
 3479SOL    HW221900   1.869   0.239   8.499 -0.5281  1.9022  1.8700
 3480SOL     OW21901   3.943   3.156   6.852 -0.0390 -0.1478 -0.2124
 3480SOL    HW121902   3.911   3.238   6.888 -0.3785  1.3268 -3.8820
 3480SOL    HW221903   3.973   3.169   6.762  1.5700 -0.1644  0.3202
 3481SOL     OW21904   0.645   0.886   9.741 -0.0424 -0.6127  0.2345
 3481SOL    HW121905   0.639   0.799   9.780 -2.4029 -0.1661  0.8782
 3481SOL    HW221906   0.681   0.940   9.811  0.3039  0.8642 -1.0992
 3482SOL     OW21907   2.808   0.395   0.808  0.1287 -0.0853 -0.1376
 3482SOL    HW121908   2.811   0.378   0.714 -0.6032  1.7058 -0.4943
 3482SOL    HW221909   2.814   0.491   0.813  0.8242 -0.1640  0.6158
 3483SOL     OW21910   1.975   4.440  15.677  0.1586 -0.1493  0.1743
 3483SOL    HW121911   1.905   4.492  15.637  0.3599  0.0006  0.0206
 3483SOL    HW221912   1.973   4.468  15.769  1.4274 -0.0627  0.1796
 3484SOL     OW21913   4.507   0.516   0.928  0.1420  0.1022 -0.2070
 3484SOL    HW121914   4.519   0.611   0.916 -1.1432  0.2750 -0.1589
 3484SOL    HW221915   4.586   0.478   0.890 -1.9841 -2.1045 -2.3987
 3485SOL     OW21916   2.265   1.468   5.960  0.5165  1.0705  0.1859
 3485SOL    HW121917   2.358   1.466   5.937  1.0662  1.1460  2.4498
 3485SOL    HW221918   2.263   1.416   6.040  2.0422 -1.1380 -1.2073
 3486SOL     OW21919   2.783   1.127   8.825 -0.1393  0.1249 -0.1840
 3486SOL    HW121920   2.792   1.087   8.739 -0.1182 -0.3691  0.0474
 3486SOL    HW221921   2.854   1.189   8.814 -1.6209  2.4147  3.1297
 3487SOL     OW21922   1.378   2.826  15.345  0.2305 -0.1224  0.3521
 3487SOL    HW121923   1.468   2.860  15.334  1.5115 -3.7201 -0.1329
 3487SOL    HW221924   1.331   2.909  15.337 -1.1099 -1.1711 -2.7188
 3488SOL     OW21925   0.463   0.048   4.864  0.4805 -0.1161 -0.5975
 3488SOL    HW121926   0.422   0.036   4.950  1.6868 -0.6848 -0.0939
 3488SOL    HW221927   0.387   0.012   4.818  0.2532 -1.5144  0.8415
 3489SOL     OW21928   4.013   4.232   8.058 -0.5754  0.1970  0.0414
 3489SOL    HW121929   4.078   4.202   7.994 -0.1835 -0.6358  0.8377
 3489SOL    HW221930   3.933   4.206   8.012 -2.1103  0.8454  2.3655
 3490SOL     OW21931   3.452   0.832   8.999 -0.3325 -0.4287  0.0085
 3490SOL    HW121932   3.430   0.915   9.041  0.9329 -0.9522  1.7331
 3490SOL    HW221933   3.412   0.773   9.063 -0.3052  0.1533  0.5603
 3491SOL     OW21934   4.341   0.485  11.444 -0.3384 -0.2675  0.4791
 3491SOL    HW121935   4.362   0.436  11.364 -0.2801 -0.9621  0.9228
 3491SOL    HW221936   4.332   0.576  11.415 -1.3083 -0.8477 -1.0412
 3492SOL     OW21937   1.648   1.725   7.938  0.3819 -0.1708 -0.1130
 3492SOL    HW121938   1.735   1.710   7.974  0.9683 -0.3294 -1.5629
 3492SOL    HW221939   1.608   1.681   8.012 -0.1779 -3.3291 -2.2934
 3493SOL     OW21940   3.375   0.701  16.228 -0.7396  0.1278  0.5932
 3493SOL    HW121941   3.457   0.652  16.233 -0.9347 -0.4065 -1.7670
 3493SOL    HW221942   3.382   0.741  16.315 -3.7804 -2.1829  1.9080
 3494SOL     OW21943   4.593   3.428   2.104 -0.5636 -0.4387  0.0917
 3494SOL    HW121944   4.564   3.501   2.158  1.4260  1.1724 -1.0054
 3494SOL    HW221945   4.636   3.370   2.167 -1.5254 -0.6840  0.5080
 3495SOL     OW21946   4.407   1.393   0.065  0.4660 -0.3436 -0.1773
 3495SOL    HW121947   4.490   1.427   0.033  1.0178 -0.2322  1.3888
 3495SOL    HW221948   4.359   1.461   0.017  1.9661  2.5124  2.3592
 3496SOL     OW21949   0.546   2.363   7.441 -0.3648  0.1455  0.5062
 3496SOL    HW121950   0.590   2.392   7.521 -0.2978  2.6101 -0.4233
 3496SOL    HW221951   0.462   2.334   7.476  0.3733 -0.6141  1.6533
 3497SOL     OW21952   4.467   1.153  13.695 -0.1144 -0.0154  0.1898
 3497SOL    HW121953   4.556   1.118  13.694 -0.7095 -1.5813  1.4524
 3497SOL    HW221954   4.442   1.117  13.780  0.3839 -1.7781 -0.4083
 3498SOL     OW21955   0.187   2.399  13.054  0.2128  0.4821 -0.2226
 3498SOL    HW121956   0.232   2.483  13.041 -0.0202  0.5573 -0.5542
 3498SOL    HW221957   0.098   2.427  13.071  0.4967  1.2529  0.0126
 3499SOL     OW21958   2.312   1.785   8.373  0.1438 -0.3839 -0.3616
 3499SOL    HW121959   2.368   1.724   8.421  0.1412  1.9106  2.5343
 3499SOL    HW221960   2.359   1.809   8.292  3.2303 -1.1319  1.2012
 3500SOL     OW21961   1.080   0.522   3.069  0.6239 -0.0779  0.3202
 3500SOL    HW121962   1.014   0.518   3.138 -2.1856 -1.4044 -2.4309
 3500SOL    HW221963   1.113   0.611   3.080  0.5042 -0.0912  0.7863
 3501SOL     OW21964   1.043   0.849  15.132 -0.2053 -0.1283  0.3841
 3501SOL    HW121965   1.054   0.817  15.222  0.2404  1.6999  0.9722
 3501SOL    HW221966   1.093   0.931  15.131  0.0961 -0.2982  1.6430
 3502SOL     OW21967   4.009   1.369   8.394  0.0438 -0.6069  0.3459
 3502SOL    HW121968   4.013   1.279   8.426 -0.6651 -0.2404  1.4722
 3502SOL    HW221969   3.920   1.397   8.416  1.6637  3.6911  1.5408
 3503SOL     OW21970   2.649   3.912   2.795  0.4409 -0.6328  0.0746
 3503SOL    HW121971   2.593   3.909   2.717  2.9042  1.5633 -1.7879
 3503SOL    HW221972   2.621   4.000   2.820  0.2660 -0.3159 -1.2647
 3504SOL     OW21973   2.434   3.238   8.825  0.3633  0.5540  0.2636
 3504SOL    HW121974   2.432   3.223   8.730 -1.0853  1.8337  0.0973
 3504SOL    HW221975   2.520   3.200   8.846  0.2846 -0.1471 -0.6627
 3505SOL     OW21976   3.668   1.760   6.999 -0.3530 -0.1242 -0.4385
 3505SOL    HW121977   3.602   1.773   6.931 -1.8281  3.1738  1.6291
 3505SOL    HW221978   3.716   1.840   6.977 -1.7642  0.7967 -0.1608
 3506SOL     OW21979   3.590   0.366   5.662  0.2151  0.6138 -0.0310
 3506SOL    HW121980   3.599   0.271   5.646 -0.8391  0.6380 -0.8003
 3506SOL    HW221981   3.648   0.383   5.736  2.1437  0.1741 -1.4336
 3507SOL     OW21982   1.538   3.096  15.185 -0.0770 -0.0392  0.1510
 3507SOL    HW121983   1.570   3.102  15.095  0.7126  1.9395  0.5625
 3507SOL    HW221984   1.445   3.114  15.173  0.0736 -1.0104 -2.3970
 3508SOL     OW21985   2.223   4.612   3.713  0.2491  0.0823 -0.7756
 3508SOL    HW121986   2.285   4.601   3.640  1.3316 -0.3237  0.2119
 3508SOL    HW221987   2.195   4.699   3.684 -0.9333 -0.0534 -0.0148
 3509SOL     OW21988   1.116   2.530   3.869  0.0962  0.1610 -0.3777
 3509SOL    HW121989   1.056   2.456   3.872 -1.0208  0.9861 -3.2319
 3509SOL    HW221990   1.074   2.609   3.835 -1.5208 -0.4358  0.2363
 3510SOL     OW21991   0.793   1.267   6.290 -0.0708  0.0160 -0.1058
 3510SOL    HW121992   0.865   1.213   6.324  1.9168  2.5627 -0.2806
 3510SOL    HW221993   0.794   1.247   6.196  0.7494 -2.1912  0.3595
 3511SOL     OW21994   1.002   1.986   1.834 -0.1862  0.2187  0.6722
 3511SOL    HW121995   0.925   1.977   1.778  1.0485 -1.3268 -0.8010
 3511SOL    HW221996   1.042   1.900   1.820  0.4176  0.3023  1.8628
 3512SOL     OW21997   3.237   1.101  14.300 -0.6008 -0.1543 -0.1225
 3512SOL    HW121998   3.280   1.029  14.346 -1.7519 -0.4288  0.5217
 3512SOL    HW221999   3.154   1.115  14.346 -0.7112 -1.7191  0.1653
 3513SOL     OW22000   4.578   0.941  12.740  0.0924  0.1898  0.0278
 3513SOL    HW122001   4.525   0.863  12.727 -1.3106  1.4646 -1.8565
 3513SOL    HW222002   4.518   1.012  12.714  0.6026  0.3367 -0.7361
 3514SOL     OW22003   3.507   3.327   2.774  0.1173 -0.0306 -0.5285
 3514SOL    HW122004   3.439   3.302   2.710 -2.7767  0.2134  2.4578
 3514SOL    HW222005   3.551   3.242   2.785  0.7362  0.2727 -0.6879
 3515SOL     OW22006   4.411   4.136   3.305 -0.0596  0.0288 -0.1245
 3515SOL    HW122007   4.503   4.121   3.281 -0.2391 -1.9643  0.4674
 3515SOL    HW222008   4.396   4.211   3.247 -0.6309 -0.7511 -0.9929
 3516SOL     OW22009   3.862   3.474   4.449  0.2526  0.6925 -0.0236
 3516SOL    HW122010   3.950   3.493   4.482 -0.4425  0.9648  1.6784
 3516SOL    HW222011   3.858   3.380   4.464  0.6525  0.6947  0.1205
 3517SOL     OW22012   0.616   1.108  10.281 -0.2691  0.6338  0.6133
 3517SOL    HW122013   0.630   1.084  10.373 -1.4533  1.1975  0.9331
 3517SOL    HW222014   0.684   1.065  10.229 -0.5095 -1.0247  1.6701
 3518SOL     OW22015   3.268   0.782  14.767 -0.2404  0.1013 -0.2961
 3518SOL    HW122016   3.286   0.704  14.715 -0.5183 -1.3106  1.7280
 3518SOL    HW222017   3.191   0.757  14.819 -0.0529  0.5953  0.2234
 3519SOL     OW22018   0.604   1.815   7.507  0.3262  0.3557  0.2385
 3519SOL    HW122019   0.576   1.884   7.446  2.6426  1.1024  0.0173
 3519SOL    HW222020   0.560   1.831   7.591 -4.2313 -1.2395 -1.8657
 3520SOL     OW22021   2.158   3.872   7.483 -0.5366  0.0038  0.2870
 3520SOL    HW122022   2.187   3.929   7.555 -0.1339  0.1648 -0.0044
 3520SOL    HW222023   2.160   3.928   7.406 -0.9802  0.9051  0.9373
 3521SOL     OW22024   3.913   2.690  15.191 -0.7988 -0.5733 -0.4168
 3521SOL    HW122025   3.904   2.610  15.138  4.2045  0.3828 -2.7242
 3521SOL    HW222026   3.873   2.746  15.124 -0.6192  0.0197 -0.0259
 3522SOL     OW22027   2.856   1.991  13.706  0.7446 -0.0661  0.3543
 3522SOL    HW122028   2.847   1.896  13.701 -2.6190  0.2027  1.5776
 3522SOL    HW222029   2.847   2.004  13.800  0.5553 -1.7149  0.5546
 3523SOL     OW22030   0.919   3.393   1.205 -0.0286  0.2079  0.4363
 3523SOL    HW122031   0.901   3.343   1.126  0.8148  2.5893 -1.2504
 3523SOL    HW222032   0.981   3.451   1.161 -1.4324 -0.1222 -1.9527
 3524SOL     OW22033   3.052   3.710   4.829  0.3778 -0.3996 -0.1044
 3524SOL    HW122034   3.000   3.691   4.751 -0.1445 -0.7718  0.3315
 3524SOL    HW222035   2.983   3.725   4.895 -0.6898 -0.5337 -1.1805
 3525SOL     OW22036   3.893   1.321   4.865  0.0260  0.3340  0.1817
 3525SOL    HW122037   3.820   1.358   4.815  0.4229 -0.7903 -1.2267
 3525SOL    HW222038   3.919   1.390   4.926 -1.4984  0.5475  0.5815
 3526SOL     OW22039   1.004   1.519   6.880  0.3574  1.2120 -0.7338
 3526SOL    HW122040   1.044   1.604   6.864  1.9409  0.3634 -1.3018
 3526SOL    HW222041   0.969   1.519   6.791  1.0022  0.3959 -0.9920
 3527SOL     OW22042   2.026   0.459   6.985 -0.6782  0.1243  0.4726
 3527SOL    HW122043   2.057   0.373   7.012  1.5191  1.2801  1.6107
 3527SOL    HW222044   2.110   0.506   6.988 -0.3803 -0.3287 -0.8242
 3528SOL     OW22045   1.061   4.203   1.578  0.4875 -0.2949  0.0970
 3528SOL    HW122046   1.003   4.162   1.515  0.9904 -1.6148  0.5057
 3528SOL    HW222047   1.083   4.285   1.532 -0.3879 -1.6639 -2.7695
 3529SOL     OW22048   2.652   0.703   7.332 -0.4032  0.0842 -0.4548
 3529SOL    HW122049   2.718   0.753   7.284 -0.6807 -0.7549 -1.7088
 3529SOL    HW222050   2.581   0.760   7.359 -1.2371 -2.4173  2.7003
 3530SOL     OW22051   4.309   1.995   8.979 -0.3678  0.4783  0.5662
 3530SOL    HW122052   4.323   1.950   9.062 -0.4928  1.4379  1.1087
 3530SOL    HW222053   4.216   2.011   8.993 -0.5647  2.0537 -2.6116
 3531SOL     OW22054   0.169   1.726   2.247  0.4462  0.1779 -0.0212
 3531SOL    HW122055   0.218   1.759   2.171 -1.9580  0.2088 -1.5682
 3531SOL    HW222056   0.241   1.709   2.308  0.5847  0.7821 -0.0090
 3532SOL     OW22057   2.799   1.015  11.861 -0.1826  0.2778 -0.5114
 3532SOL    HW122058   2.787   1.065  11.942 -0.7041 -1.5130  0.5300
 3532SOL    HW222059   2.724   1.048  11.812 -0.0847  0.7775 -0.3258
 3533SOL     OW22060   2.813   0.330   2.864 -0.0962  0.7243  0.4242
 3533SOL    HW122061   2.722   0.310   2.885 -0.3059 -0.3852 -1.6114
 3533SOL    HW222062   2.813   0.290   2.777 -1.4934  0.2256  0.6554
 3534SOL     OW22063   1.495   2.371  17.140  0.7338 -0.1652  0.0871
 3534SOL    HW122064   1.402   2.355  17.154  0.1988  3.4192  0.8401
 3534SOL    HW222065   1.536   2.323  17.212 -0.4825 -2.1656 -0.5578
 3535SOL     OW22066   3.155   1.963   0.500 -0.0704 -0.0879  0.0445
 3535SOL    HW122067   3.156   1.891   0.437  0.2634  0.4065 -0.5213
 3535SOL    HW222068   3.133   2.037   0.444  1.3049 -0.3409 -0.8491
 3536SOL     OW22069   2.336   4.151   2.382  0.0279 -0.1634  0.2040
 3536SOL    HW122070   2.352   4.192   2.467  2.4794 -0.3129 -0.1884
 3536SOL    HW222071   2.297   4.224   2.334  0.8255 -0.5350 -0.9920
 3537SOL     OW22072   0.683   2.920   7.701  0.1484  0.1076  0.0176
 3537SOL    HW122073   0.721   2.950   7.783  0.8645 -1.9145  0.4228
 3537SOL    HW222074   0.590   2.937   7.716  0.1923  0.6345 -0.3325
 3538SOL     OW22075   3.806   2.389   3.246  0.3104  0.3877  0.1571
 3538SOL    HW122076   3.760   2.418   3.325 -0.5320  2.0342 -0.9217
 3538SOL    HW222077   3.734   2.348   3.199  1.7955 -1.2165 -0.6969
 3539SOL     OW22078   0.245   1.199  12.820  0.0415 -0.3220 -0.5808
 3539SOL    HW122079   0.233   1.222  12.913  0.3569  1.0961 -0.8830
 3539SOL    HW222080   0.226   1.106  12.832  1.0626 -0.8630 -3.2096
 3540SOL     OW22081   3.652   3.161   6.594 -0.2877  0.4203  0.2160
 3540SOL    HW122082   3.697   3.245   6.597  0.6171 -0.0442 -0.1719
 3540SOL    HW222083   3.650   3.134   6.502 -0.5494 -1.3398  0.7245
 3541SOL     OW22084   1.226   0.752   7.771 -0.5608 -0.0400 -0.0360
 3541SOL    HW122085   1.200   0.732   7.681  0.4289  0.4909 -0.4519
 3541SOL    HW222086   1.146   0.729   7.817 -0.9620  1.4265 -0.0070
 3542SOL     OW22087   4.492   0.824   3.588  0.7812  0.3762 -0.1280
 3542SOL    HW122088   4.428   0.889   3.559 -2.3421 -1.5856  2.3498
 3542SOL    HW222089   4.456   0.792   3.671  3.5713 -2.0693  0.1466
 3543SOL     OW22090   3.732   1.760   7.467 -0.0378  0.6737 -0.3580
 3543SOL    HW122091   3.707   1.844   7.429 -1.0711 -0.4610 -2.1546
 3543SOL    HW222092   3.664   1.710   7.423 -0.4046  0.8980 -0.0505
 3544SOL     OW22093   3.208   3.193   7.875  0.1731  0.3982 -0.1197
 3544SOL    HW122094   3.159   3.125   7.922 -1.4680  1.3510 -0.4330
 3544SOL    HW222095   3.139   3.260   7.876  1.2320  1.4848 -0.3511
 3545SOL     OW22096   2.307   3.843   7.727  0.2866  0.5026  0.0030
 3545SOL    HW122097   2.262   3.853   7.812 -0.3498 -0.7727 -0.1910
 3545SOL    HW222098   2.305   3.749   7.709  0.4142  0.4496  0.2695
 3546SOL     OW22099   1.256   1.224   2.365 -0.4736  0.4004 -0.1236
 3546SOL    HW122100   1.320   1.186   2.305 -0.5156 -1.4857  1.0415
 3546SOL    HW222101   1.202   1.272   2.302 -0.3358 -2.5674 -2.5007
 3547SOL     OW22102   4.218   0.607   3.644 -0.1190  0.6150  0.1923
 3547SOL    HW122103   4.252   0.526   3.607  0.4015  1.4932 -1.2600
 3547SOL    HW222104   4.292   0.649   3.687  1.5637  0.1415 -2.2907
 3548SOL     OW22105   3.766   1.637   4.127 -0.0311 -0.8913  0.5194
 3548SOL    HW122106   3.686   1.646   4.178  1.8452  0.5585  3.2028
 3548SOL    HW222107   3.733   1.647   4.038 -1.4098 -0.1065  1.1303
 3549SOL     OW22108   1.524   1.845  17.600  0.4597 -0.0787 -0.2492
 3549SOL    HW122109   1.431   1.834  17.617  1.0456 -1.1864  2.2720
 3549SOL    HW222110   1.533   1.937  17.627 -0.3385  0.2784 -1.2104
 3550SOL     OW22111   2.024   2.454  15.221 -0.5894  0.7848 -0.1691
 3550SOL    HW122112   1.988   2.375  15.180 -0.8342 -0.4812  2.4839
 3550SOL    HW222113   2.111   2.464  15.184  0.4725 -1.2697  1.7459
 3551SOL     OW22114   4.533   1.201   5.543 -0.5503 -0.2547 -0.1513
 3551SOL    HW122115   4.491   1.243   5.469 -1.4794  0.4371  0.7657
 3551SOL    HW222116   4.469   1.226   5.609 -0.9251 -2.8448  0.4702
 3552SOL     OW22117   0.284   2.983   3.323 -0.0347 -0.9505 -0.5158
 3552SOL    HW122118   0.296   2.960   3.231 -1.1539 -1.7365 -0.4640
 3552SOL    HW222119   0.193   3.012   3.333  0.1378 -0.1524 -1.3003
 3553SOL     OW22120   4.543   0.296  15.586 -0.5362 -0.3155  0.3616
 3553SOL    HW122121   4.610   0.228  15.576 -0.8857 -0.5656 -0.2757
 3553SOL    HW222122   4.590   0.349  15.650  1.1602  0.3338 -1.4531
 3554SOL     OW22123   3.388   0.497   7.079  0.1560  0.5415  0.1500
 3554SOL    HW122124   3.483   0.485   7.075  0.2003  0.4011  1.7601
 3554SOL    HW222125   3.359   0.417   7.035 -2.7292  1.9048 -0.3672
 3555SOL     OW22126   1.915   0.572   3.994 -0.2912  0.1479  0.0863
 3555SOL    HW122127   1.820   0.571   3.984 -0.3315  2.3404  0.2705
 3555SOL    HW222128   1.937   0.647   3.940 -0.7407  1.6079  1.9193
 3556SOL     OW22129   0.204   0.286   3.945 -0.0662  0.4868 -0.0003
 3556SOL    HW122130   0.215   0.257   3.854 -0.9757  0.3279 -0.0700
 3556SOL    HW222131   0.211   0.380   3.934 -0.7133  0.6536  1.0459
 3557SOL     OW22132   3.668   4.240  16.201 -0.0159  0.2462 -0.6197
 3557SOL    HW122133   3.650   4.154  16.163  0.6839 -0.0903 -0.1876
 3557SOL    HW222134   3.617   4.304  16.151  0.9531  0.8496 -0.8338
 3558SOL     OW22135   4.336   4.165   4.495  0.0462 -0.4424 -0.0009
 3558SOL    HW122136   4.388   4.194   4.570 -0.8846 -0.5381  0.6822
 3558SOL    HW222137   4.277   4.240   4.497 -0.4028 -0.8435  2.7969
 3559SOL     OW22138   3.960   2.434   4.899 -0.0121 -0.0142  0.5077
 3559SOL    HW122139   3.908   2.489   4.841  0.8649  1.5258  1.1726
 3559SOL    HW222140   3.901   2.361   4.919 -0.5049 -0.2899 -1.9697
 3560SOL     OW22141   3.170   4.431   7.790 -0.1378  0.3475 -0.2067
 3560SOL    HW122142   3.089   4.450   7.837 -0.1848 -0.1690 -0.0722
 3560SOL    HW222143   3.238   4.474   7.842  0.4934  1.3334 -1.8354
 3561SOL     OW22144   0.063   0.300   0.176  0.0846  0.0204 -0.2849
 3561SOL    HW122145   0.098   0.385   0.148  0.7186 -0.2330 -0.2450
 3561SOL    HW222146   0.149   0.258   0.177 -0.6152 -1.3844  0.3571
 3562SOL     OW22147   4.623   1.443   2.763 -0.3668  0.4009 -0.1932
 3562SOL    HW122148   4.597   1.526   2.804 -0.5141 -0.1380  0.8286
 3562SOL    HW222149   4.625   1.383   2.838 -2.7943  2.5046  1.5773
 3563SOL     OW22150   3.649   4.537  15.428 -0.3917 -0.7127 -0.8350
 3563SOL    HW122151   3.664   4.628  15.453 -0.3880  0.0619 -3.6018
 3563SOL    HW222152   3.601   4.507  15.505 -0.1486 -0.8195 -0.7244
 3564SOL     OW22153   1.316   2.745   7.813 -0.6327  0.4375 -0.5687
 3564SOL    HW122154   1.355   2.817   7.764  0.3906  0.1689 -0.1545
 3564SOL    HW222155   1.377   2.674   7.789 -1.6278 -0.3291 -0.8622
 3565SOL     OW22156   1.652   4.569   4.006 -0.3796  0.0419 -0.2944
 3565SOL    HW122157   1.612   4.549   4.090  0.5301 -3.3554 -0.6524
 3565SOL    HW222158   1.735   4.599   4.043 -1.3579  1.1657  1.0117
 3566SOL     OW22159   0.798   2.891   9.673 -0.4468 -0.2072  0.5359
 3566SOL    HW122160   0.756   2.977   9.678  0.4016  0.2405 -0.0974
 3566SOL    HW222161   0.842   2.912   9.591  2.0844 -0.7592  1.7444
 3567SOL     OW22162   0.686   3.499   3.224  0.2891  0.2586  0.7641
 3567SOL    HW122163   0.624   3.546   3.280  0.3036 -0.3067  1.2515
 3567SOL    HW222164   0.768   3.535   3.256  0.2690  1.5995 -0.6869
 3568SOL     OW22165   1.529   4.443   2.557 -0.4363  0.2645 -0.9315
 3568SOL    HW122166   1.511   4.349   2.553  0.9011 -0.1514  2.9362
 3568SOL    HW222167   1.604   4.446   2.497 -0.5167  1.0149 -0.9987
 3569SOL     OW22168   2.270   0.039  12.064  0.1078  0.3154 -0.6928
 3569SOL    HW122169   2.284   0.009  12.154 -0.7394  2.7479  0.2301
 3569SOL    HW222170   2.320   0.120  12.057  1.7515 -0.4463  1.8537
 3570SOL     OW22171   0.555   3.508  10.214 -0.4301 -0.2191 -0.5430
 3570SOL    HW122172   0.642   3.470  10.218 -0.1304  0.8783  3.5226
 3570SOL    HW222173   0.578   3.594  10.180  0.2113 -0.6411 -1.1528
 3571SOL     OW22174   0.478   0.785   7.259  0.2428  0.0009  0.3283
 3571SOL    HW122175   0.447   0.862   7.306 -0.1440  2.3212 -3.7272
 3571SOL    HW222176   0.398   0.734   7.245  1.5792 -2.1150  0.4244
 3572SOL     OW22177   0.580   2.268   6.964  0.1530  0.1579 -0.2884
 3572SOL    HW122178   0.528   2.347   6.975  0.0283  0.0569 -0.1415
 3572SOL    HW222179   0.535   2.208   7.023  1.8820  0.0444  0.8913
 3573SOL     OW22180   3.167   1.749   3.588 -0.2065  0.5526  0.0059
 3573SOL    HW122181   3.123   1.761   3.504  0.9747 -0.6765 -0.7900
 3573SOL    HW222182   3.140   1.660   3.607  3.0579 -0.3925  0.1704
 3574SOL     OW22183   1.672   4.001   4.225 -0.2390  0.0707 -0.0970
 3574SOL    HW122184   1.710   3.913   4.224 -0.3873 -0.0021  0.8102
 3574SOL    HW222185   1.734   4.051   4.172 -1.0163 -1.3518 -2.3620
 3575SOL     OW22186   2.956   3.786   5.589 -0.0747  0.0032 -0.0986
 3575SOL    HW122187   2.986   3.761   5.676 -2.7533  0.9016  1.0930
 3575SOL    HW222188   2.866   3.815   5.608 -1.2541 -2.9867 -1.1245
 3576SOL     OW22189   1.037   4.410   6.113  0.6386 -0.5438 -0.1686
 3576SOL    HW122190   0.959   4.374   6.070 -0.6815  0.4854  1.3793
 3576SOL    HW222191   1.092   4.447   6.044 -0.2492 -1.7619 -1.5258
 3577SOL     OW22192   4.076   3.412  14.599 -0.1981 -0.3114 -0.0706
 3577SOL    HW122193   4.133   3.488  14.606 -1.3282  0.5779 -0.6187
 3577SOL    HW222194   4.060   3.390  14.691 -2.1320 -1.3740 -0.6602
 3578SOL     OW22195   2.842   4.488  10.105  0.8172  0.4368  0.3965
 3578SOL    HW122196   2.934   4.514  10.099  0.9716 -0.6116 -1.9000
 3578SOL    HW222197   2.825   4.449  10.019 -0.9245 -0.2234  1.0305
 3579SOL     OW22198   0.573   2.262   1.961 -0.1104  0.5385 -0.2066
 3579SOL    HW122199   0.519   2.338   1.942 -1.1084  0.1750  1.2294
 3579SOL    HW222200   0.652   2.285   1.912  1.0191 -2.4481  0.1609
 3580SOL     OW22201   3.888   1.024   8.213 -0.9810  0.6188 -0.4501
 3580SOL    HW122202   3.936   1.083   8.155 -1.9285  1.2685 -0.5784
 3580SOL    HW222203   3.927   1.057   8.293  0.8517  0.2104 -1.1628
 3581SOL     OW22204   1.008   4.524   8.748 -0.1284 -0.5936  0.8587
 3581SOL    HW122205   0.963   4.502   8.830 -1.6179 -0.5633  0.0487
 3581SOL    HW222206   0.955   4.594   8.710  1.2575  0.4062  0.7994
 3582SOL     OW22207   4.168   3.633   4.597  0.1607  0.1634  0.6936
 3582SOL    HW122208   4.177   3.560   4.534 -0.6013 -0.1770  0.9817
 3582SOL    HW222209   4.182   3.714   4.548 -0.8217  0.4015  0.8199
 3583SOL     OW22210   1.771   0.330  13.695 -0.6132 -0.2714 -0.6070
 3583SOL    HW122211   1.731   0.406  13.654 -1.9802  0.3230  1.8507
 3583SOL    HW222212   1.851   0.375  13.722 -0.6485  0.2642 -1.4233
 3584SOL     OW22213   0.248   3.165   2.819 -0.9077  0.4907 -0.2863
 3584SOL    HW122214   0.205   3.187   2.736 -1.6468 -0.7113 -0.2229
 3584SOL    HW222215   0.205   3.083   2.841 -0.7387 -0.4157 -3.3092
 3585SOL     OW22216   2.901   2.050  11.917 -0.4342  0.2148  0.0043
 3585SOL    HW122217   2.978   2.080  11.965 -0.6426 -1.4858  1.3705
 3585SOL    HW222218   2.897   2.124  11.855  0.9498  0.9197  0.7575
 3586SOL     OW22219   4.610   2.971   6.952  0.0486  0.4173 -0.4974
 3586SOL    HW122220   4.690   2.996   6.907  0.3478  0.2634 -0.0461
 3586SOL    HW222221   4.620   3.012   7.038 -1.2088 -0.3566  0.0130
 3587SOL     OW22222   3.813   1.951   2.164  0.0840  0.3353  1.0619
 3587SOL    HW122223   3.868   1.983   2.236  0.5093  1.9701  0.0121
 3587SOL    HW222224   3.741   2.015   2.169 -0.5202 -0.4071  1.9666
 3588SOL     OW22225   2.501   2.473   6.387 -0.0396 -0.0040 -0.3061
 3588SOL    HW122226   2.427   2.413   6.396  0.7213 -0.9190 -0.1777
 3588SOL    HW222227   2.512   2.446   6.296 -0.3766  0.9416 -0.6346
 3589SOL     OW22228   4.417   4.125  14.494 -0.1958 -0.2027  0.2070
 3589SOL    HW122229   4.365   4.068  14.438  0.7170 -1.0352  0.2064
 3589SOL    HW222230   4.501   4.079  14.499 -0.5928 -1.2375 -2.7314
 3590SOL     OW22231   1.842   2.458   7.247 -0.8556 -0.1394 -0.0446
 3590SOL    HW122232   1.902   2.438   7.319  2.1396 -1.3349 -2.9118
 3590SOL    HW222233   1.778   2.387   7.257 -0.8685  0.0066  1.0001
 3591SOL     OW22234   1.372   2.767  11.857 -0.0469 -0.0844  0.4911
 3591SOL    HW122235   1.424   2.743  11.934 -1.3548 -1.2058  1.0071
 3591SOL    HW222236   1.323   2.687  11.837 -2.0162  1.3626 -0.5173
 3592SOL     OW22237   3.711   3.192   8.829 -0.4240 -0.4248 -0.3191
 3592SOL    HW122238   3.806   3.187   8.842 -0.1728  0.1442 -2.0327
 3592SOL    HW222239   3.666   3.163   8.909 -0.3972 -0.6908 -0.3992
 3593SOL     OW22240   3.845   4.376   0.235 -1.2970  0.1423 -0.3352
 3593SOL    HW122241   3.852   4.395   0.329  1.0662 -2.3957 -0.0015
 3593SOL    HW222242   3.935   4.374   0.204 -0.6029  0.6775  1.6244
 3594SOL     OW22243   0.844   4.628   6.680  0.2449  0.2223  0.3967
 3594SOL    HW122244   0.791   4.680   6.741 -1.3548  2.6609 -3.0971
 3594SOL    HW222245   0.915   4.687   6.655 -2.1406  1.4330 -3.5750
 3595SOL     OW22246   0.789   2.429   6.881  0.1417  0.0990  0.5791
 3595SOL    HW122247   0.736   2.361   6.921 -0.5700  0.4780  0.2667
 3595SOL    HW222248   0.872   2.418   6.928  0.5367 -0.8741 -0.3551
 3596SOL     OW22249   4.169   2.198   5.651  0.2807 -0.3355  0.6864
 3596SOL    HW122250   4.245   2.252   5.676 -0.0025  0.8173 -0.9529
 3596SOL    HW222251   4.191   2.181   5.560  1.3829  0.0457  0.8828
 3597SOL     OW22252   1.726   0.155  16.527 -0.2676  0.2696  0.1888
 3597SOL    HW122253   1.638   0.183  16.553 -1.2759 -1.7810 -0.9916
 3597SOL    HW222254   1.718   0.191  16.439  1.6079  0.6535  0.1715
 3598SOL     OW22255   2.122   2.868   8.440 -0.5130  0.7527 -0.2287
 3598SOL    HW122256   2.205   2.837   8.404 -1.5196 -1.2380 -0.8400
 3598SOL    HW222257   2.151   2.953   8.472 -1.4250  0.5996  1.0013
 3599SOL     OW22258   2.773   0.526   3.131  0.6866  0.1506  0.2347
 3599SOL    HW122259   2.684   0.525   3.165  0.2041  2.5804 -0.9992
 3599SOL    HW222260   2.772   0.434   3.102  0.0340 -0.1340  1.1850
 3600SOL     OW22261   3.702   2.477   9.058  0.3623  0.0656 -0.0088
 3600SOL    HW122262   3.617   2.520   9.054  0.1684 -0.6049 -2.9509
 3600SOL    HW222263   3.702   2.456   9.151 -0.2072  0.9758  0.1884
 3601SOL     OW22264   0.196   2.599   2.658  0.1453  0.0255 -0.2665
 3601SOL    HW122265   0.213   2.585   2.564  0.3431  1.7444 -0.4944
 3601SOL    HW222266   0.237   2.685   2.668  1.4537 -0.3800 -1.9999
 3602SOL     OW22267   3.735   2.590   5.073 -0.2302  0.0370  0.8011
 3602SOL    HW122268   3.665   2.643   5.035  2.7647  2.7188 -1.0494
 3602SOL    HW222269   3.760   2.547   4.991 -1.8177  0.5705  0.0418
 3603SOL     OW22270   1.433   2.180  14.467  0.6086  0.0362  1.0510
 3603SOL    HW122271   1.348   2.222  14.475  0.2806  0.2611 -3.5116
 3603SOL    HW222272   1.482   2.243  14.414  0.2694  0.2560  0.9993
 3604SOL     OW22273   4.062   0.846   5.800 -0.2153 -0.4140  0.5866
 3604SOL    HW122274   4.016   0.770   5.764 -1.5343  1.7670 -2.3111
 3604SOL    HW222275   4.033   0.914   5.739 -0.3863 -0.8994  0.1331
 3605SOL     OW22276   0.657   1.783  16.793 -0.6928  0.3681 -0.1217
 3605SOL    HW122277   0.605   1.758  16.717 -1.3439 -1.7545  1.0166
 3605SOL    HW222278   0.746   1.751  16.778 -0.5417  0.0054  1.4764
 3606SOL     OW22279   3.011   4.037   0.712  0.2101  0.8544 -0.0315
 3606SOL    HW122280   2.980   4.121   0.746 -0.9030  0.9940 -1.4308
 3606SOL    HW222281   3.106   4.046   0.710  0.0912  1.9175 -0.5954
 3607SOL     OW22282   3.782   3.699   3.290 -0.3368 -0.0479  0.7637
 3607SOL    HW122283   3.862   3.735   3.253  1.8576 -2.1896  3.4580
 3607SOL    HW222284   3.731   3.780   3.289  1.8922  1.3436  0.0919
 3608SOL     OW22285   0.436   3.603  12.998 -0.2635 -0.9459 -0.1919
 3608SOL    HW122286   0.495   3.538  12.960  0.6025  0.1750 -0.7676
 3608SOL    HW222287   0.492   3.662  13.049 -0.9846 -0.2583 -0.1947
 3609SOL     OW22288   4.162   1.822  10.492  0.3015  0.0443  0.0942
 3609SOL    HW122289   4.226   1.805  10.423 -0.6134  2.2801 -1.3282
 3609SOL    HW222290   4.186   1.773  10.570 -0.6161  0.9523  0.9499
 3610SOL     OW22291   1.335   2.422  11.583 -0.3058  0.3222  0.5987
 3610SOL    HW122292   1.372   2.354  11.527 -0.0279 -0.1725  1.3716
 3610SOL    HW222293   1.248   2.422  11.543  0.1993 -1.3277 -0.4868
 3611SOL     OW22294   2.036   4.518   1.134 -0.0756 -0.1457  0.2677
 3611SOL    HW122295   2.032   4.543   1.226 -1.2934 -0.6800  0.3512
 3611SOL    HW222296   1.958   4.569   1.112  0.4549  0.1634 -0.9369
 3612SOL     OW22297   4.716   3.270   0.279  0.3157 -0.5090  0.1772
 3612SOL    HW122298   4.708   3.364   0.295 -1.9686 -0.8332  0.9839
 3612SOL    HW222299   4.629   3.250   0.243  1.5764 -1.1115 -2.5247
 3613SOL     OW22300   2.268   2.898  15.832 -0.6839 -0.1795 -0.0434
 3613SOL    HW122301   2.298   2.939  15.913 -1.3192  0.3853 -0.0911
 3613SOL    HW222302   2.321   2.819  15.822 -1.1697 -0.1068 -3.1041
 3614SOL     OW22303   0.121   0.947  12.806 -0.1204 -0.0709  0.2512
 3614SOL    HW122304   0.030   0.949  12.775 -0.8203  1.2449  2.3558
 3614SOL    HW222305   0.099   0.979  12.894  0.8426 -0.1855  0.5345
 3615SOL     OW22306   0.823   3.811  12.886 -0.0198 -0.5031 -0.6083
 3615SOL    HW122307   0.762   3.873  12.926  1.3915  1.6674 -1.8303
 3615SOL    HW222308   0.784   3.792  12.801 -0.1606  0.5238 -0.7709
 3616SOL     OW22309   1.390   0.834   7.034 -0.1509 -0.0173  0.3487
 3616SOL    HW122310   1.421   0.759   6.984 -1.6312 -0.3372 -0.0899
 3616SOL    HW222311   1.469   0.878   7.065 -0.4343  1.5321 -1.1256
 3617SOL     OW22312   0.812   4.379   7.536  0.0671  0.9125  0.5876
 3617SOL    HW122313   0.799   4.413   7.625  2.3888  1.1713  0.8194
 3617SOL    HW222314   0.747   4.309   7.529  0.1593  0.9079 -0.2704
 3618SOL     OW22315   2.114   0.058   1.890  0.6309  0.6921 -0.0570
 3618SOL    HW122316   2.063   0.070   1.810  2.7926 -0.0044 -1.5540
 3618SOL    HW222317   2.060   0.100   1.956 -1.1484  0.1610 -1.1837
 3619SOL     OW22318   2.360   4.057   6.610  0.1933  0.3228  0.6362
 3619SOL    HW122319   2.320   3.977   6.645  1.7713 -0.8099 -0.1408
 3619SOL    HW222320   2.325   4.057   6.521  0.5083 -0.8482  0.5023
 3620SOL     OW22321   2.833   3.579   1.655  0.0162  0.1273 -0.3724
 3620SOL    HW122322   2.879   3.498   1.631 -1.2597 -0.2264 -1.6171
 3620SOL    HW222323   2.743   3.552   1.674  0.5287 -2.1315 -1.1241
 3621SOL     OW22324   2.486   3.137   0.965 -0.3491  0.7552 -0.2884
 3621SOL    HW122325   2.394   3.139   0.940 -0.3254  0.4408 -0.3944
 3621SOL    HW222326   2.525   3.215   0.926 -0.2045  1.4811  1.2782
 3622SOL     OW22327   1.878   1.824  13.019 -0.2463 -0.0917  0.4045
 3622SOL    HW122328   1.880   1.920  13.026 -3.9909  0.0965 -1.0710
 3622SOL    HW222329   1.799   1.807  12.967 -0.0678  0.9420 -0.2081
 3623SOL     OW22330   0.390   1.819   9.753  0.0138 -0.3003 -0.3731
 3623SOL    HW122331   0.358   1.730   9.771 -0.1165  0.2500  2.0843
 3623SOL    HW222332   0.444   1.801   9.676  0.7763 -1.3667  0.4157
 3624SOL     OW22333   1.042   0.663   0.133 -0.3530  0.5377 -0.2166
 3624SOL    HW122334   1.124   0.654   0.181 -0.0566  1.2325 -0.5966
 3624SOL    HW222335   1.036   0.751   0.096 -1.2347 -0.0722 -1.5090
 3625SOL     OW22336   1.310   2.693   0.621 -0.7228  0.0608  0.0425
 3625SOL    HW122337   1.333   2.784   0.601  0.2618 -0.0402  0.7268
 3625SOL    HW222338   1.392   2.645   0.628 -0.3695  0.9929  2.3868
 3626SOL     OW22339   0.665   4.605  16.823 -0.0632 -0.1025 -0.4052
 3626SOL    HW122340   0.700   4.516  16.831  2.3935  0.6948 -2.1361
 3626SOL    HW222341   0.683   4.626  16.731  2.1821  1.5093  0.3898
 3627SOL     OW22342   1.464   2.464   1.233  0.2025 -0.1296  0.0710
 3627SOL    HW122343   1.532   2.452   1.167  1.5965  2.0888  1.0866
 3627SOL    HW222344   1.505   2.531   1.287  0.2462  0.4748 -0.7215
 3628SOL     OW22345   2.832   0.652  17.588  0.1468  0.3634  0.3261
 3628SOL    HW122346   2.890   0.686  17.656  0.8251  0.8597 -0.5054
 3628SOL    HW222347   2.881   0.660  17.506 -1.3764  2.5653 -0.3507
 3629SOL     OW22348   2.469   1.969   3.194 -0.3655 -0.6043 -0.1017
 3629SOL    HW122349   2.407   2.025   3.147  0.8277 -0.6592 -1.7515
 3629SOL    HW222350   2.419   1.903   3.243 -0.1382 -1.3767 -0.9082
 3630SOL     OW22351   2.449   4.108   6.902  0.5317 -0.2033 -0.3153
 3630SOL    HW122352   2.469   4.015   6.891 -0.0669 -0.1621 -1.8389
 3630SOL    HW222353   2.457   4.141   6.812 -1.2186  0.4351 -0.2322
 3631SOL     OW22354   4.526   2.594   8.393  0.3411 -0.3302  0.2069
 3631SOL    HW122355   4.441   2.562   8.425  1.1600 -1.8995  0.8107
 3631SOL    HW222356   4.549   2.661   8.456  0.2543 -0.9033  0.8519
 3632SOL     OW22357   3.820   1.942   8.447  0.3195  0.3627 -0.0381
 3632SOL    HW122358   3.853   1.855   8.468  0.5753  0.7175  1.0008
 3632SOL    HW222359   3.859   2.000   8.512  0.6462  0.2770 -0.1586
 3633SOL     OW22360   2.369   3.746   3.889 -0.5461 -0.2581  0.2331
 3633SOL    HW122361   2.412   3.721   3.807 -1.9849 -0.2326 -0.5243
 3633SOL    HW222362   2.281   3.755   3.852 -0.5219  0.0266  0.2398
 3634SOL     OW22363   0.980   2.953   3.283 -0.7220 -0.6379  0.0072
 3634SOL    HW122364   1.069   2.947   3.319 -0.6230  1.8783  0.1828
 3634SOL    HW222365   0.993   2.980   3.192 -1.3199  0.2433  0.1840
 3635SOL     OW22366   4.047   2.122  16.013  0.8026  0.4169  0.6953
 3635SOL    HW122367   4.119   2.146  16.072 -0.3629  1.6928  1.6151
 3635SOL    HW222368   4.078   2.169  15.936 -0.8913 -1.7393 -1.3020
 3636SOL     OW22369   0.051   1.465   2.511  0.7526 -0.1817  0.1312
 3636SOL    HW122370   0.101   1.388   2.540  1.1965  0.5322  1.2492
 3636SOL    HW222371   0.006   1.489   2.592  3.1298 -0.7353  1.6219
 3637SOL     OW22372   2.478   0.661   1.296 -0.0773 -0.1836  0.1196
 3637SOL    HW122373   2.549   0.673   1.233  1.1806  0.1213  1.5977
 3637SOL    HW222374   2.517   0.627   1.376  0.5655  1.2637  0.4359
 3638SOL     OW22375   3.603   4.120   6.898 -0.1808 -0.4353 -0.2111
 3638SOL    HW122376   3.678   4.124   6.839  0.8316  1.3377  1.2012
 3638SOL    HW222377   3.583   4.214   6.899 -0.1811 -0.4273 -0.7458
 3639SOL     OW22378   1.377   3.391   3.094  0.3543  0.0984 -0.1478
 3639SOL    HW122379   1.315   3.331   3.054  0.0871  1.2687 -1.4656
 3639SOL    HW222380   1.459   3.348   3.067 -0.3957 -0.1582 -1.9735
 3640SOL     OW22381   1.576   2.563   4.238  0.2334  0.1760 -0.4755
 3640SOL    HW122382   1.668   2.539   4.228 -0.2722 -0.8756 -2.6228
 3640SOL    HW222383   1.540   2.477   4.216 -0.1428  0.5354 -1.2878
 3641SOL     OW22384   1.017   0.292   7.355 -0.7197 -0.2009  0.4994
 3641SOL    HW122385   0.946   0.320   7.298  0.5990  0.4377 -0.8053
 3641SOL    HW222386   1.025   0.363   7.418  0.4120 -0.1711  0.3213
 3642SOL     OW22387   2.368   1.559   8.580  0.5890 -0.0761  0.2371
 3642SOL    HW122388   2.443   1.581   8.636  0.3197 -0.2623  0.6656
 3642SOL    HW222389   2.321   1.502   8.640 -0.0396 -0.2760 -0.4383
 3643SOL     OW22390   4.679   1.949  11.969 -0.7401  0.0642 -0.1139
 3643SOL    HW122391   4.645   1.878  11.916 -0.0657 -1.8219  2.0071
 3643SOL    HW222392   4.597   1.972  12.013 -0.4373  2.7948 -0.9265
 3644SOL     OW22393   3.199   2.825  10.509  0.3856  1.0295 -0.2318
 3644SOL    HW122394   3.178   2.888  10.577 -1.0136 -0.0162  0.3022
 3644SOL    HW222395   3.210   2.739  10.549 -1.5828  0.2043 -1.4301
 3645SOL     OW22396   3.874   0.589   2.539 -0.3331 -0.1213 -0.3955
 3645SOL    HW122397   3.907   0.513   2.587  0.0443 -0.4518 -1.1778
 3645SOL    HW222398   3.949   0.612   2.485 -0.7585 -0.2582 -1.0454
 3646SOL     OW22399   1.657   3.718   4.556  0.2120 -0.5366  0.3638
 3646SOL    HW122400   1.653   3.648   4.491 -0.1940 -0.6926  0.5604
 3646SOL    HW222401   1.648   3.672   4.639 -1.5652 -0.6209  0.1331
 3647SOL     OW22402   3.262   1.699   6.809  0.2412  0.3229 -0.5816
 3647SOL    HW122403   3.235   1.767   6.872 -3.7244 -0.3068 -1.6052
 3647SOL    HW222404   3.357   1.712   6.806  0.3168  0.4408  2.1713
 3648SOL     OW22405   4.041   0.677   9.222 -0.0702  0.5443  0.1370
 3648SOL    HW122406   3.994   0.615   9.167 -1.9693  1.7141  0.4117
 3648SOL    HW222407   4.069   0.620   9.294 -2.8789  0.3290  1.0624
 3649SOL     OW22408   4.235   0.243  12.807  0.4489  0.0282  0.3156
 3649SOL    HW122409   4.191   0.165  12.841  0.4758 -1.0959 -2.2236
 3649SOL    HW222410   4.193   0.310  12.861 -0.6334  0.1843 -0.7185
 3650SOL     OW22411   2.860   1.103  15.377 -0.2859 -0.4134  0.3826
 3650SOL    HW122412   2.848   1.192  15.345 -2.0265 -0.2483  1.5513
 3650SOL    HW222413   2.906   1.065  15.302  0.5382 -2.8045  2.0925
 3651SOL     OW22414   3.119   1.392  14.235  0.2765 -0.2736  0.1747
 3651SOL    HW122415   3.025   1.407  14.234  0.0516 -1.6485  4.1471
 3651SOL    HW222416   3.129   1.309  14.282 -2.2358 -0.4007  0.4404
 3652SOL     OW22417   3.742   4.018   2.941  0.1285 -0.3863 -0.4181
 3652SOL    HW122418   3.787   4.090   2.896 -1.9652  1.4118  0.3315
 3652SOL    HW222419   3.758   3.946   2.879  0.9775 -1.3562  0.9407
 3653SOL     OW22420   0.969   3.340   8.662 -0.2235 -0.0267 -0.3456
 3653SOL    HW122421   1.060   3.335   8.692 -0.1919 -1.1880 -0.6515
 3653SOL    HW222422   0.939   3.251   8.678  1.2956 -0.3555  0.6576
 3654SOL     OW22423   2.038   3.895   4.369 -0.5824  0.5284 -0.1153
 3654SOL    HW122424   2.005   3.845   4.443  0.9982  1.5852  1.2917
 3654SOL    HW222425   2.058   3.816   4.319  0.4649  1.2660 -0.8626
 3655SOL     OW22426   1.887   2.770  13.270 -0.1288 -0.2798  0.0012
 3655SOL    HW122427   1.977   2.750  13.245  1.0959  2.5656  2.1337
 3655SOL    HW222428   1.883   2.863  13.248 -2.0306 -0.6979 -1.4620
 3656SOL     OW22429   2.622   1.964   8.930  0.4551  0.1006 -0.0714
 3656SOL    HW122430   2.657   1.907   8.861 -0.4661 -1.3303  0.6345
 3656SOL    HW222431   2.704   1.970   8.979  1.1039 -0.8676 -1.0426
 3657SOL     OW22432   3.230   2.601   5.149 -0.2473 -0.6325  0.3856
 3657SOL    HW122433   3.168   2.564   5.211  0.0865 -1.0900  0.4474
 3657SOL    HW222434   3.294   2.640   5.208  1.6927 -0.5611 -1.7596
 3658SOL     OW22435   2.240   2.631   3.449 -0.6283  0.6235 -0.0498
 3658SOL    HW122436   2.191   2.662   3.525 -1.1664 -1.4953  0.4646
 3658SOL    HW222437   2.282   2.716   3.435  0.9169  0.1539  1.7585
 3659SOL     OW22438   4.378   0.534   9.637  0.2925  0.1746 -0.1499
 3659SOL    HW122439   4.453   0.536   9.697  1.6481 -0.8581 -1.7975
 3659SOL    HW222440   4.317   0.483   9.690  0.0883  0.4840 -0.0912
 3660SOL     OW22441   0.375   1.182   8.767 -0.1454 -0.4442 -0.3182
 3660SOL    HW122442   0.282   1.193   8.750 -0.0515 -0.0132 -0.5692
 3660SOL    HW222443   0.383   1.172   8.862 -1.7001  0.6021 -0.0927
 3661SOL     OW22444   0.217   0.155  16.824 -0.3496  0.2727 -0.1985
 3661SOL    HW122445   0.183   0.128  16.739 -2.3243  0.1920  0.6159
 3661SOL    HW222446   0.262   0.240  16.817  0.7299  0.0520  3.9580
 3662SOL     OW22447   4.177   3.952   5.284  0.7584 -0.5140 -0.3505
 3662SOL    HW122448   4.145   3.902   5.209 -0.9969 -1.5391  1.0782
 3662SOL    HW222449   4.135   3.911   5.360 -0.4842  2.4390  0.5797
 3663SOL     OW22450   1.426   3.675   7.380  0.4398 -0.4947  0.4574
 3663SOL    HW122451   1.459   3.756   7.418  0.3339 -0.4728  0.5040
 3663SOL    HW222452   1.493   3.633   7.328 -1.2998 -3.1867  0.4154
 3664SOL     OW22453   3.231   4.221   2.825 -0.4298 -0.4231  0.1019
 3664SOL    HW122454   3.289   4.295   2.808  1.2202 -1.6609  0.4642
 3664SOL    HW222455   3.247   4.173   2.744 -0.4987 -0.2156 -0.0340
 3665SOL     OW22456   2.165   3.347   6.852  0.8144 -0.2710  0.2955
 3665SOL    HW122457   2.150   3.329   6.945 -1.5183  0.7124  0.0802
 3665SOL    HW222458   2.198   3.260   6.827  0.5825  0.2159 -1.7462
 3666SOL     OW22459   1.018   2.771  10.164 -0.4448  0.5657  0.4623
 3666SOL    HW122460   1.108   2.791  10.188 -0.7715  1.6680  0.7778
 3666SOL    HW222461   1.033   2.801  10.074  3.1145  1.7855  1.4985
 3667SOL     OW22462   4.453   1.698   8.164 -0.0758  0.0890 -0.6920
 3667SOL    HW122463   4.449   1.786   8.201 -2.5668  0.1694 -1.1440
 3667SOL    HW222464   4.524   1.720   8.103  0.6441  2.0631  0.8606
 3668SOL     OW22465   0.729   4.501  14.984  0.0648  1.1263  0.1868
 3668SOL    HW122466   0.705   4.436  15.049 -0.1976 -0.1638 -1.1876
 3668SOL    HW222467   0.739   4.573  15.046 -0.6422 -0.3980  2.0749
 3669SOL     OW22468   2.103   2.590  10.713  0.3963  0.5014 -0.2140
 3669SOL    HW122469   2.140   2.637  10.788  1.2267 -0.6878  0.1183
 3669SOL    HW222470   2.009   2.595  10.730  0.4997  0.3476  0.4007
 3670SOL     OW22471   1.831   3.230   4.271  0.4756 -0.1487 -0.8602
 3670SOL    HW122472   1.868   3.155   4.225 -0.1477 -2.8275  2.9132
 3670SOL    HW222473   1.755   3.253   4.218  0.6413  0.0362 -1.0128
 3671SOL     OW22474   1.126   0.935   8.783 -0.0753  0.1889 -0.4461
 3671SOL    HW122475   1.035   0.914   8.766 -0.3677 -0.3077  1.7233
 3671SOL    HW222476   1.149   0.848   8.816 -0.9601  0.1850  0.1467
 3672SOL     OW22477   3.517   2.407   2.244 -0.6643  0.0245 -0.2253
 3672SOL    HW122478   3.553   2.437   2.328  0.5203 -2.5220  0.1719
 3672SOL    HW222479   3.500   2.493   2.204 -2.3310 -0.5919 -0.8223
 3673SOL     OW22480   3.708   1.457   7.736  0.4822  0.5945 -0.0068
 3673SOL    HW122481   3.654   1.423   7.808  1.0309  0.0195  0.1380
 3673SOL    HW222482   3.706   1.552   7.749 -0.2516  0.2818  2.1308
 3674SOL     OW22483   0.435   3.313   8.224 -0.3953 -0.1589  0.1330
 3674SOL    HW122484   0.389   3.396   8.212  2.4340  1.7040  2.2759
 3674SOL    HW222485   0.518   3.340   8.263  0.2371 -0.0685 -1.2867
 3675SOL     OW22486   3.949   3.520   1.232 -0.0452 -0.1243 -0.5535
 3675SOL    HW122487   3.977   3.548   1.145 -0.5001 -1.0937 -1.0191
 3675SOL    HW222488   3.854   3.522   1.223  0.0588  1.7906 -1.0946
 3676SOL     OW22489   3.655   0.174   5.403 -0.2638  0.4784  0.5771
 3676SOL    HW122490   3.694   0.087   5.390  0.4951  0.6543  1.6497
 3676SOL    HW222491   3.691   0.218   5.326  0.8120  2.1380  2.0382
 3677SOL     OW22492   0.840   1.425  14.345  0.1663  0.5679  0.4645
 3677SOL    HW122493   0.799   1.506  14.376 -2.7691 -0.1741 -1.5273
 3677SOL    HW222494   0.855   1.364  14.418 -0.6385 -0.1879 -0.0074
 3678SOL     OW22495   3.841   2.286   3.967  0.0812 -0.1134 -0.3615
 3678SOL    HW122496   3.753   2.277   4.003  0.2224  0.6719  0.1703
 3678SOL    HW222497   3.873   2.196   3.981  1.3108  0.5069  0.8364
 3679SOL     OW22498   3.629   4.289   0.125  0.1344  0.1856  0.2946
 3679SOL    HW122499   3.592   4.376   0.118  1.8713  0.7202 -2.3660
 3679SOL    HW222500   3.710   4.306   0.174 -0.6945  1.9088  1.0390
 3680SOL     OW22501   0.123   0.453   8.601  0.0163  0.1830 -0.4854
 3680SOL    HW122502   0.200   0.489   8.557  1.1739 -1.0423  0.5425
 3680SOL    HW222503   0.061   0.467   8.529 -1.4847  1.9416  1.1404
 3681SOL     OW22504   0.930   4.336   5.712  0.0206 -0.0080 -0.0707
 3681SOL    HW122505   0.859   4.399   5.724  1.5231  1.7139 -0.1330
 3681SOL    HW222506   0.918   4.301   5.624  0.3842 -2.5656  0.8964
 3682SOL     OW22507   2.723   0.255   1.036 -0.0671  0.3563  0.2978
 3682SOL    HW122508   2.815   0.236   1.054 -0.3733 -2.5169 -1.2368
 3682SOL    HW222509   2.733   0.294   0.949  0.3497  0.2909  0.3203
 3683SOL     OW22510   3.943   0.350  14.971 -0.3239 -0.6173  0.0870
 3683SOL    HW122511   4.002   0.405  14.919 -0.3645  0.4363  1.1722
 3683SOL    HW222512   3.890   0.416  15.015  2.4130  0.3327  1.9048
 3684SOL     OW22513   0.807   3.208   4.277 -0.4202  0.5069 -0.2160
 3684SOL    HW122514   0.758   3.264   4.337  1.0185 -0.0900  1.5277
 3684SOL    HW222515   0.805   3.266   4.201 -0.8103  0.8228  0.0306
 3685SOL     OW22516   1.229   3.649   4.027  0.0156 -0.2929  0.0705
 3685SOL    HW122517   1.207   3.638   3.935  2.9092 -1.3400 -0.4736
 3685SOL    HW222518   1.268   3.736   4.016  2.0338 -1.2147  0.0220
 3686SOL     OW22519   0.973   4.216   2.878 -0.3661  0.1591  0.4680
 3686SOL    HW122520   0.910   4.266   2.825  1.3059 -0.6067 -2.2763
 3686SOL    HW222521   0.928   4.208   2.962  0.2874  2.9159  1.0690
 3687SOL     OW22522   3.097   1.214   8.725 -0.5719 -0.3226 -0.5823
 3687SOL    HW122523   3.133   1.158   8.793  0.2748 -0.0092 -0.7675
 3687SOL    HW222524   3.101   1.300   8.767 -1.1611 -0.9524  0.7366
 3688SOL     OW22525   1.071   0.962   6.613  0.2892 -0.1166  0.4496
 3688SOL    HW122526   1.018   0.944   6.692  1.0143 -0.1535  0.9268
 3688SOL    HW222527   1.159   0.976   6.647 -0.3618  2.3383  1.1823
 3689SOL     OW22528   1.625   1.054   2.888 -0.3684  0.6023  0.5216
 3689SOL    HW122529   1.572   1.051   2.968  1.0695  0.8314  1.4659
 3689SOL    HW222530   1.607   1.147   2.878  3.5933  1.2941 -0.0402
 3690SOL     OW22531   3.815   0.893   7.554  0.0668  0.2274 -0.5913
 3690SOL    HW122532   3.776   0.929   7.474  1.5828  1.2200 -0.8854
 3690SOL    HW222533   3.744   0.907   7.616 -0.4333 -0.6460 -0.9594
 3691SOL     OW22534   2.123   3.845   2.534 -0.5284  0.5360  0.2962
 3691SOL    HW122535   2.111   3.796   2.615 -3.0047  1.5746  0.5591
 3691SOL    HW222536   2.057   3.914   2.538 -1.3043 -0.1340 -0.7246
 3692SOL     OW22537   2.301   2.603   6.180  0.5147 -0.6165  0.6574
 3692SOL    HW122538   2.390   2.637   6.182  1.1785 -2.1961 -2.4112
 3692SOL    HW222539   2.252   2.655   6.244 -1.0293  1.3006 -2.0192
 3693SOL     OW22540   0.714   2.528   4.769  0.4130  0.3700 -0.2584
 3693SOL    HW122541   0.751   2.536   4.681  1.8530  2.4142  0.5213
 3693SOL    HW222542   0.677   2.440   4.767  2.0943 -0.3741  1.4321
 3694SOL     OW22543   3.101   4.466   0.149 -0.1705 -0.4234 -0.2885
 3694SOL    HW122544   3.098   4.455   0.054  3.0107 -2.4682 -0.1849
 3694SOL    HW222545   3.013   4.439   0.175  0.4224 -1.5230  0.6063
 3695SOL     OW22546   1.124   2.601   5.904  0.1053 -0.3906 -0.7982
 3695SOL    HW122547   1.176   2.658   5.848  1.0542 -0.4746 -0.0029
 3695SOL    HW222548   1.138   2.628   5.995 -0.2962 -0.8444 -0.6012
 3696SOL     OW22549   2.637   3.544   1.973 -0.0688 -0.4765  0.3250
 3696SOL    HW122550   2.651   3.501   1.889  0.2269 -0.4497  0.3600
 3696SOL    HW222551   2.695   3.620   1.974 -2.4960  1.3739 -0.5630
 3697SOL     OW22552   1.882   3.097   6.179 -0.5902  0.4055  0.3761
 3697SOL    HW122553   1.919   3.121   6.264  0.9024 -3.4479  0.7928
 3697SOL    HW222554   1.788   3.103   6.194 -0.5193 -0.3980  1.1123
 3698SOL     OW22555   1.371   2.675   0.078  0.4776  0.6510 -0.6067
 3698SOL    HW122556   1.345   2.602   0.136  0.2050  0.1048 -1.4200
 3698SOL    HW222557   1.393   2.618   0.004 -0.0139  1.9213 -1.7282
 3699SOL     OW22558   3.860   1.949   6.929 -0.0555  0.4030 -0.2541
 3699SOL    HW122559   3.917   1.871   6.934  1.4210  1.5762  1.3556
 3699SOL    HW222560   3.927   2.015   6.911 -0.1523  0.4056 -0.6131
 3700SOL     OW22561   4.618   0.300  13.572  0.2654 -0.0005  0.1283
 3700SOL    HW122562   4.692   0.360  13.585  0.2181 -0.2014  1.3863
 3700SOL    HW222563   4.622   0.250  13.654 -1.0012  1.7072  1.2474
 3701SOL     OW22564   1.363   2.560   4.504 -0.5340 -0.1562  0.0720
 3701SOL    HW122565   1.436   2.499   4.518 -3.6065 -3.9535 -0.4145
 3701SOL    HW222566   1.295   2.504   4.467  1.0079 -0.8153 -1.7738
 3702SOL     OW22567   3.037   4.216   3.252  0.0231  0.3080  0.3270
 3702SOL    HW122568   3.077   4.185   3.333 -0.9459  0.8571  1.0154
 3702SOL    HW222569   3.115   4.251   3.210 -0.7025  0.7242 -0.6853
 3703SOL     OW22570   1.513   0.349   5.975 -0.1857  0.0183 -0.3918
 3703SOL    HW122571   1.505   0.441   5.998  1.7411  0.3261 -0.9756
 3703SOL    HW222572   1.557   0.356   5.891  1.7006  2.9809  0.8585
 3704SOL     OW22573   1.106   3.293   6.973 -0.7390  0.3623 -1.1080
 3704SOL    HW122574   1.049   3.370   6.976  2.1606  2.4258  0.6584
 3704SOL    HW222575   1.041   3.223   6.984  1.8567 -1.9141 -0.1875
 3705SOL     OW22576   1.057   3.409   7.569 -0.0953 -0.8961 -0.3634
 3705SOL    HW122577   1.111   3.365   7.503 -0.2669 -2.4774  0.5780
 3705SOL    HW222578   1.122   3.413   7.638 -2.1044 -2.1900  1.5957
 3706SOL     OW22579   2.362   1.749   1.551 -0.0627  0.6294  0.1606
 3706SOL    HW122580   2.428   1.818   1.557 -0.1604  0.8969 -1.6225
 3706SOL    HW222581   2.369   1.719   1.460  1.5394  0.7577  0.2400
 3707SOL     OW22582   3.979   2.055  11.131  0.3464 -0.4605  0.5822
 3707SOL    HW122583   3.925   1.976  11.122 -1.6926  1.3283 -2.4535
 3707SOL    HW222584   3.929   2.115  11.187  0.1191  0.2614 -0.4065
 3708SOL     OW22585   3.383   3.039   8.544  0.6921 -0.3549 -0.6470
 3708SOL    HW122586   3.343   3.092   8.613  1.0675  0.6867 -1.2267
 3708SOL    HW222587   3.306   3.015   8.493  0.6664  1.3852 -1.4382
 3709SOL     OW22588   4.683   3.248   8.960  0.5083  0.0820 -0.1807
 3709SOL    HW122589   4.651   3.297   8.884  0.8018  0.4245 -0.0835
 3709SOL    HW222590   4.632   3.302   9.021 -1.4707 -2.4887  0.4378
 3710SOL     OW22591   1.922   2.868   2.037 -0.1336 -0.4710 -0.7654
 3710SOL    HW122592   1.854   2.815   2.079 -0.3709 -0.6073 -1.3204
 3710SOL    HW222593   1.915   2.960   2.062 -0.1070 -1.0221  1.2789
 3711SOL     OW22594   4.482   1.549   4.370 -0.2518  0.3247 -0.1850
 3711SOL    HW122595   4.423   1.580   4.301 -0.6570  1.3973  0.6345
 3711SOL    HW222596   4.462   1.617   4.434 -0.7020 -1.6371  1.7665
 3712SOL     OW22597   1.363   0.014   4.259 -0.4027 -0.3526  0.2015
 3712SOL    HW122598   1.370   0.042   4.168  1.6979 -2.0986 -0.1723
 3712SOL    HW222599   1.405   0.087   4.306 -2.6958  0.1722  1.4741
 3713SOL     OW22600   4.089   4.205   6.270 -0.0550  0.1481 -0.8179
 3713SOL    HW122601   4.081   4.109   6.265 -2.8354  0.3802 -0.6326
 3713SOL    HW222602   3.999   4.236   6.262  0.3622  1.4513 -0.4438
 3714SOL     OW22603   0.091   1.297   7.710 -0.3260 -0.1996 -0.0012
 3714SOL    HW122604   0.063   1.213   7.745  0.6868 -1.0793 -1.2980
 3714SOL    HW222605   0.123   1.342   7.788 -2.5541  2.1612 -0.4500
 3715SOL     OW22606   2.679   2.544   5.290 -0.3389  0.1365  0.5034
 3715SOL    HW122607   2.671   2.457   5.249  1.0363  0.5068 -0.5679
 3715SOL    HW222608   2.625   2.605   5.240  3.2983  0.2550 -3.2866
 3716SOL     OW22609   2.877   1.098   2.973 -0.1867 -0.5018  0.7330
 3716SOL    HW122610   2.917   1.140   2.897 -2.9399  1.1723  0.2059
 3716SOL    HW222611   2.844   1.016   2.937  1.7457 -0.8601 -0.2386
 3717SOL     OW22612   2.507   2.792   5.423  0.0044 -0.2987  0.3677
 3717SOL    HW122613   2.494   2.885   5.438  2.0083  0.1208 -0.5248
 3717SOL    HW222614   2.563   2.771   5.497 -0.4729 -0.0158  0.8030
 3718SOL     OW22615   4.138   3.311  13.048  0.3744  0.4257 -0.2897
 3718SOL    HW122616   4.144   3.259  12.968  0.5024 -1.7084  1.1222
 3718SOL    HW222617   4.228   3.344  13.054  0.8939 -1.0346  0.0425
 3719SOL     OW22618   3.473   0.066   2.484 -0.0698 -0.1482  0.1174
 3719SOL    HW122619   3.519   0.011   2.547 -0.1738  0.7307  0.9673
 3719SOL    HW222620   3.466   0.010   2.407 -0.7154  0.0028  0.0663
 3720SOL     OW22621   0.846   2.754   6.549 -0.0218  0.2597  0.6472
 3720SOL    HW122622   0.933   2.751   6.590  0.9084  0.1783 -1.3298
 3720SOL    HW222623   0.805   2.717   6.627 -0.3305 -0.6519  0.0642
 3721SOL     OW22624   3.733   2.749   9.224 -0.2240 -0.0927  0.1454
 3721SOL    HW122625   3.790   2.733   9.149 -0.1984 -0.5170  0.2584
 3721SOL    HW222626   3.651   2.759   9.175 -0.4545 -3.0391 -0.0607
 3722SOL     OW22627   1.149   2.353   3.593 -0.0335 -0.3723  0.1421
 3722SOL    HW122628   1.063   2.387   3.569 -1.6471 -2.1740  3.4352
 3722SOL    HW222629   1.201   2.434   3.587 -2.9446  1.4080 -0.9938
 3723SOL     OW22630   2.196   0.604   4.181  0.1583  0.1659 -0.5978
 3723SOL    HW122631   2.185   0.652   4.098 -2.4896  0.2667 -0.2038
 3723SOL    HW222632   2.286   0.576   4.171  0.0561  0.0910 -1.3178
 3724SOL     OW22633   3.599   0.968   6.629 -0.3449 -0.0373  0.2243
 3724SOL    HW122634   3.672   0.952   6.689  0.1570 -2.1009 -0.9382
 3724SOL    HW222635   3.530   0.972   6.695  1.3122  0.1359  1.9488
 3725SOL     OW22636   4.632   3.986   3.486  0.1181 -0.3708  0.1081
 3725SOL    HW122637   4.694   4.053   3.457  0.0669  0.7157  2.4954
 3725SOL    HW222638   4.625   3.920   3.418 -0.9066 -0.6806  0.5166
 3726SOL     OW22639   3.426   0.955   6.368  0.1500  0.2753 -0.7392
 3726SOL    HW122640   3.387   1.036   6.400  1.0104  1.0546 -1.6641
 3726SOL    HW222641   3.472   0.994   6.294  2.3048 -1.1545 -0.1415
 3727SOL     OW22642   2.039   0.700   5.801  0.2641 -0.1284 -0.0548
 3727SOL    HW122643   2.115   0.646   5.777  0.5708  0.0423  0.5447
 3727SOL    HW222644   2.043   0.710   5.896  1.9577  1.3054 -0.2617
 3728SOL     OW22645   3.055   3.273   1.762 -0.0929 -0.5563 -0.1345
 3728SOL    HW122646   3.030   3.320   1.683  1.9391 -2.4076 -1.8709
 3728SOL    HW222647   3.147   3.296   1.771 -0.0911 -0.5031 -0.2836
 3729SOL     OW22648   1.610   3.152   6.164  0.1250 -0.0387  0.6901
 3729SOL    HW122649   1.585   3.179   6.076  0.9968 -0.4783  0.3055
 3729SOL    HW222650   1.548   3.081   6.182 -0.5939  0.7425  1.2995
 3730SOL     OW22651   4.581   2.512  16.902  0.3916  0.1715  0.4929
 3730SOL    HW122652   4.637   2.436  16.913 -0.5537 -0.8031 -1.5246
 3730SOL    HW222653   4.578   2.540  16.994 -1.6193  3.6922 -0.6305
 3731SOL     OW22654   2.576   3.453   6.760  0.5064 -0.5815 -0.5602
 3731SOL    HW122655   2.489   3.480   6.732  0.6305 -1.6662 -2.0437
 3731SOL    HW222656   2.625   3.502   6.694  1.2748 -0.2358  0.2755
 3732SOL     OW22657   2.331   3.614   4.847 -0.1946  0.0004  0.5259
 3732SOL    HW122658   2.299   3.622   4.937 -0.1174  1.2803  0.4337
 3732SOL    HW222659   2.264   3.669   4.806  0.6227  0.7558  0.2133
 3733SOL     OW22660   3.980   0.612   3.343 -0.4644  0.2881 -0.0323
 3733SOL    HW122661   3.979   0.698   3.301  2.6616  0.5198  0.3736
 3733SOL    HW222662   3.978   0.634   3.436  0.5362  0.4746 -0.0493
 3734SOL     OW22663   1.686   3.784  10.204  0.4433  0.2204  0.3646
 3734SOL    HW122664   1.653   3.820  10.121  0.5322 -0.6584 -0.0474
 3734SOL    HW222665   1.776   3.812  10.190  1.6121 -3.7652  0.1339
 3735SOL     OW22666   0.581   4.042   8.795  0.3093  0.1458 -0.7151
 3735SOL    HW122667   0.559   4.116   8.852  2.0354  0.8290 -0.9438
 3735SOL    HW222668   0.583   4.088   8.711  0.4905 -1.3360 -1.5071
 3736SOL     OW22669   2.949   0.847   3.737  0.0368  0.0483 -0.1423
 3736SOL    HW122670   2.962   0.928   3.687 -3.4421  0.1271 -0.9357
 3736SOL    HW222671   2.913   0.793   3.667 -2.3878  0.5713  0.6888
 3737SOL     OW22672   4.691   3.985  17.247  0.3104  0.1609  0.3588
 3737SOL    HW122673   0.034   4.045  17.214 -1.2120  1.5131 -0.2852
 3737SOL    HW222674   4.613   4.041  17.244 -0.0651 -0.2394  2.8958
 3738SOL     OW22675   0.372   0.464  11.781 -0.0978  0.5476 -0.0933
 3738SOL    HW122676   0.377   0.399  11.852 -1.0100  1.1360  0.5116
 3738SOL    HW222677   0.356   0.405  11.707  1.1518 -1.1599  1.0098
 3739SOL     OW22678   2.617   3.613   7.869  0.2273 -0.2786  0.4614
 3739SOL    HW122679   2.546   3.665   7.908 -0.6597 -0.1076 -1.3733
 3739SOL    HW222680   2.678   3.684   7.846 -0.5156  0.2997  0.2816
 3740SOL     OW22681   3.076   2.657   6.855 -0.6077 -0.0598 -0.9133
 3740SOL    HW122682   3.027   2.737   6.834 -0.5065  0.2192 -0.0858
 3740SOL    HW222683   3.098   2.621   6.769 -1.9081  1.4506 -1.8953
 3741SOL     OW22684   3.732   1.440   7.355 -0.3028 -0.6805  0.3460
 3741SOL    HW122685   3.669   1.397   7.412 -0.0038 -1.3495  0.1714
 3741SOL    HW222686   3.683   1.499   7.297  2.0629  0.4963 -0.4684
 3742SOL     OW22687   1.909   0.028   5.380 -0.1631  0.5947 -0.0281
 3742SOL    HW122688   1.832   0.054   5.430  0.0245 -1.9534  1.5832
 3742SOL    HW222689   1.980   0.046   5.442 -0.0999 -0.9925  0.3639
 3743SOL     OW22690   3.651   4.008   8.301  0.6500 -0.9323 -0.3557
 3743SOL    HW122691   3.558   4.021   8.319  1.5070 -0.5911  3.8002
 3743SOL    HW222692   3.677   3.963   8.381 -1.5893  0.8089  1.3570
 3744SOL     OW22693   0.356   4.039   2.516  0.1921  0.1353 -0.4071
 3744SOL    HW122694   0.428   4.022   2.455 -1.0543 -0.4223 -1.7372
 3744SOL    HW222695   0.278   4.043   2.460 -0.4008 -1.6218  0.3013
 3745SOL     OW22696   3.223   4.296   3.430  0.5467 -0.3552  0.4587
 3745SOL    HW122697   3.298   4.341   3.468  0.5763 -0.0642  0.0560
 3745SOL    HW222698   3.173   4.375   3.409 -0.1821 -0.7402  0.7179
 3746SOL     OW22699   2.900   3.933   9.482 -0.0086  0.0507  0.1268
 3746SOL    HW122700   2.879   3.998   9.548  0.9488  2.6719 -2.1568
 3746SOL    HW222701   2.923   3.865   9.545 -1.4025  0.7977  1.4301
 3747SOL     OW22702   0.712   0.865   6.985 -0.1205 -0.7171  0.2548
 3747SOL    HW122703   0.677   0.820   7.062  0.5513 -1.3765  0.1698
 3747SOL    HW222704   0.649   0.834   6.919 -0.3373  1.4028 -0.5417
 3748SOL     OW22705   2.050   2.016  11.908  0.1420 -0.5038 -0.0161
 3748SOL    HW122706   2.056   1.951  11.839 -1.8947 -1.5048  0.7620
 3748SOL    HW222707   2.140   2.008  11.941 -0.6507  0.6578  2.4485
 3749SOL     OW22708   1.626   0.953   4.015  0.1524  0.1983 -0.3284
 3749SOL    HW122709   1.648   1.038   4.052  0.8281 -0.7579  1.4625
 3749SOL    HW222710   1.540   0.975   3.980  0.5931  1.6788 -0.4841
 3750SOL     OW22711   0.829   0.357   8.044 -0.4668 -0.7472  0.5532
 3750SOL    HW122712   0.778   0.377   7.965  1.0039 -1.5632 -0.5943
 3750SOL    HW222713   0.831   0.439   8.094  3.1772 -0.2282 -0.4335
 3751SOL     OW22714   3.277   1.115   7.212 -0.1328 -0.3755  0.1827
 3751SOL    HW122715   3.225   1.196   7.212  0.8188  0.2333  0.4523
 3751SOL    HW222716   3.304   1.115   7.304  0.9708  0.4393 -0.1400
 3752SOL     OW22717   1.375   1.251   4.508  0.0599  0.0454  0.1155
 3752SOL    HW122718   1.466   1.226   4.528  0.5697  0.5989 -1.5356
 3752SOL    HW222719   1.314   1.188   4.546  0.1478 -0.7235 -0.9929
 3753SOL     OW22720   0.192   4.277   4.273  0.4524  0.4119  0.0149
 3753SOL    HW122721   0.159   4.316   4.192 -0.7937 -0.2019  0.2304
 3753SOL    HW222722   0.284   4.283   4.248  0.7548  1.6374  1.4374
 3754SOL     OW22723   0.597   1.416   8.308 -0.1600 -0.1956 -0.0718
 3754SOL    HW122724   0.503   1.412   8.326 -0.8480  1.0621 -3.3672
 3754SOL    HW222725   0.609   1.502   8.349  1.6450 -0.9717  1.0442
 3755SOL     OW22726   2.088   3.923   6.163  0.6170  0.0992  0.0206
 3755SOL    HW122727   2.038   3.842   6.157  0.0927  0.6803 -3.1442
 3755SOL    HW222728   2.020   3.983   6.132 -1.4241 -0.6687  2.9565
 3756SOL     OW22729   2.671   0.048   8.106 -0.1601 -0.1629 -0.4137
 3756SOL    HW122730   2.640   0.115   8.166  1.7554  0.7945 -0.4972
 3756SOL    HW222731   2.705   4.704   8.165  0.8506  0.3564 -0.4048
 3757SOL     OW22732   2.943   2.311  15.371 -0.4320  0.1502  0.6551
 3757SOL    HW122733   3.026   2.356  15.390  0.3110 -0.6186 -0.7204
 3757SOL    HW222734   2.951   2.306  15.275 -0.2312  0.3427  0.6614
 3758SOL     OW22735   2.815   4.508   2.263  0.4633  0.5292  0.3496
 3758SOL    HW122736   2.770   4.430   2.232 -1.2039  1.1559  1.2195
 3758SOL    HW222737   2.745   4.573   2.253  0.1515  0.0403 -0.7039
 3759SOL     OW22738   3.806   4.464   4.236  0.5825  0.0157 -0.2010
 3759SOL    HW122739   3.859   4.457   4.315 -0.9779  1.9205  1.0137
 3759SOL    HW222740   3.721   4.503   4.258  0.6322  0.3167 -0.5575
 3760SOL     OW22741   1.235   4.503   8.234 -0.3896 -0.7595  0.0272
 3760SOL    HW122742   1.174   4.529   8.304 -0.3394 -1.3255  0.2861
 3760SOL    HW222743   1.169   4.501   8.164  1.0077  1.8051 -1.3595
 3761SOL     OW22744   2.810   2.695   6.319  0.1254  0.0202  0.3817
 3761SOL    HW122745   2.904   2.704   6.309 -0.3118  0.1987 -3.7541
 3761SOL    HW222746   2.779   2.759   6.255  0.0023  2.3171  2.7136
 3762SOL     OW22747   0.114   1.173   9.410  0.2013  0.0160 -0.2113
 3762SOL    HW122748   0.175   1.125   9.354  1.1320  1.3600 -0.3450
 3762SOL    HW222749   0.172   1.238   9.450  0.8747 -0.4238 -0.4834
 3763SOL     OW22750   1.199   3.636   2.061 -0.1610  0.3900 -0.1392
 3763SOL    HW122751   1.188   3.568   2.128  2.0972 -2.5518 -2.7567
 3763SOL    HW222752   1.117   3.638   2.013  0.4146 -1.1361 -1.1983
 3764SOL     OW22753   0.747   2.857   0.773  0.4089  0.7659 -0.4683
 3764SOL    HW122754   0.698   2.831   0.851 -1.4237  3.3074 -0.7733
 3764SOL    HW222755   0.792   2.774   0.759  1.7679  1.5044 -0.5290
 3765SOL     OW22756   3.933   4.529   2.080  0.4676 -0.9120  0.0910
 3765SOL    HW122757   3.885   4.510   1.999 -0.8468  0.2954  0.5841
 3765SOL    HW222758   4.024   4.530   2.050  0.4272 -1.7264 -0.0639
 3766SOL     OW22759   0.668   0.206   6.732 -0.1450  0.0402  0.6551
 3766SOL    HW122760   0.634   0.139   6.791 -1.2455  0.4992  0.5400
 3766SOL    HW222761   0.590   0.238   6.687  1.8427  0.4780 -2.4884
 3767SOL     OW22762   0.207   3.743   5.174  0.2450  0.9674  0.0759
 3767SOL    HW122763   0.123   3.750   5.218  1.8476 -0.2671  3.3429
 3767SOL    HW222764   0.216   3.650   5.156  1.5207  0.9404  0.7998
 3768SOL     OW22765   3.177   1.567   7.695 -0.8299  0.0028  0.6591
 3768SOL    HW122766   3.150   1.582   7.604  4.6999  0.4122 -0.8656
 3768SOL    HW222767   3.214   1.479   7.697  1.7914  1.1283  0.5807
 3769SOL     OW22768   0.335   1.533   5.283 -0.0279 -0.7425 -0.7517
 3769SOL    HW122769   0.370   1.456   5.329  2.1003 -0.5869 -2.1077
 3769SOL    HW222770   0.391   1.603   5.317  0.7658 -0.5653 -2.4263
 3770SOL     OW22771   1.438   0.305   6.742  0.2983 -0.4949 -0.3547
 3770SOL    HW122772   1.364   0.355   6.778  1.6306  1.9475 -0.9745
 3770SOL    HW222773   1.388   0.274   6.667  0.1144 -0.5635 -0.2050
 3771SOL     OW22774   3.035   1.302   2.446  0.1584  0.6016 -0.5553
 3771SOL    HW122775   2.991   1.223   2.479 -0.9065  1.8553  1.0465
 3771SOL    HW222776   2.993   1.373   2.495  2.5488  2.3013 -0.9495
 3772SOL     OW22777   3.331   1.992   3.104 -0.2265  0.0076  0.7207
 3772SOL    HW122778   3.368   2.057   3.164 -1.2668  2.0405 -0.8362
 3772SOL    HW222779   3.387   1.917   3.123 -0.3344 -0.1261  0.5092
 3773SOL     OW22780   1.012   3.060   1.124  0.0270 -0.6226 -0.1901
 3773SOL    HW122781   1.061   3.106   1.057 -0.5714  1.0501  0.5127
 3773SOL    HW222782   1.030   2.966   1.119 -0.3664 -0.7593  0.9357
 3774SOL     OW22783   1.099   1.645  10.693 -0.0183  0.3313 -0.4155
 3774SOL    HW122784   1.022   1.647  10.749  1.1603 -0.4507  1.2348
 3774SOL    HW222785   1.118   1.738  10.700  2.4979 -0.2134  0.0175
 3775SOL     OW22786   1.565   1.008  11.339  0.8345  0.4338 -0.4652
 3775SOL    HW122787   1.590   1.073  11.273  0.8121 -1.8522 -2.7143
 3775SOL    HW222788   1.472   0.988  11.328  0.4457  2.2553 -0.6248
 3776SOL     OW22789   0.326   0.586   8.443  0.1448  0.1733 -0.1531
 3776SOL    HW122790   0.310   0.578   8.349  0.3972 -0.7359 -0.1193
 3776SOL    HW222791   0.297   0.677   8.449  2.0974  0.7886 -0.1771
 3777SOL     OW22792   3.810   0.235   2.992 -0.4918 -0.0871  0.3201
 3777SOL    HW122793   3.746   0.199   3.053  0.4198 -2.6665 -0.2250
 3777SOL    HW222794   3.867   0.284   3.051  0.7522 -0.0897 -0.8734
 3778SOL     OW22795   1.206   2.550   1.115 -0.3057  0.4239 -0.2939
 3778SOL    HW122796   1.295   2.515   1.109 -0.4269  0.6489 -3.7542
 3778SOL    HW222797   1.214   2.624   1.176 -1.0963  2.0129 -2.0992
 3779SOL     OW22798   2.539   1.000   6.643  0.2555  0.4181  0.4040
 3779SOL    HW122799   2.559   1.053   6.565  1.1602 -0.3850  0.0869
 3779SOL    HW222800   2.591   0.922   6.620  0.7518  1.0915 -0.7712
 3780SOL     OW22801   1.135   4.038   2.483 -0.3899  0.0207  0.1323
 3780SOL    HW122802   1.201   3.994   2.537  0.6202 -0.1803 -1.2672
 3780SOL    HW222803   1.182   4.110   2.441  1.8279 -1.2976  0.3074
 3781SOL     OW22804   2.859   1.453   1.683 -0.1995 -0.1332 -0.6808
 3781SOL    HW122805   2.922   1.389   1.716 -1.4687  0.1338  2.3050
 3781SOL    HW222806   2.901   1.478   1.602  0.0004 -0.0670 -0.5567
 3782SOL     OW22807   1.353   4.685   3.777  0.4534  0.1293  0.2914
 3782SOL    HW122808   1.274   4.709   3.826 -0.4835 -0.6564 -0.8475
 3782SOL    HW222809   1.337   4.591   3.771  3.5583 -0.4664  1.0968
 3783SOL     OW22810   3.386   2.349  12.109  0.0704 -0.2481  0.0374
 3783SOL    HW122811   3.366   2.273  12.055  1.5535  0.2529 -1.2093
 3783SOL    HW222812   3.389   2.300  12.192  0.1389 -0.8119 -0.2929
 3784SOL     OW22813   1.879   3.396   6.169  0.1806 -0.4167  0.2078
 3784SOL    HW122814   1.850   3.332   6.104 -0.3903 -0.9544  0.9917
 3784SOL    HW222815   1.923   3.340   6.233  0.7707  1.1978  1.2098
 3785SOL     OW22816   1.965   1.845   4.492 -0.8569 -0.3969  0.7476
 3785SOL    HW122817   1.941   1.901   4.566  1.5938 -1.4044  2.3022
 3785SOL    HW222818   2.018   1.777   4.534  0.6607  0.8356  0.7950
 3786SOL     OW22819   1.165   3.325   6.723  0.2299  0.2715  0.0680
 3786SOL    HW122820   1.090   3.282   6.681  0.3907  0.6297 -0.5894
 3786SOL    HW222821   1.150   3.324   6.817 -1.3620  0.4959 -0.1886
 3787SOL     OW22822   0.159   3.577  12.425 -0.3345 -0.0970  0.1906
 3787SOL    HW122823   0.079   3.612  12.464  0.1739  0.5992  0.6046
 3787SOL    HW222824   0.128   3.510  12.363 -0.1036  0.0026 -0.0340
 3788SOL     OW22825   1.900   3.925   8.723  0.3560  0.2920 -1.0631
 3788SOL    HW122826   1.824   3.929   8.665 -0.8555 -0.6023  0.4647
 3788SOL    HW222827   1.877   3.846   8.772 -1.6186  1.4620 -0.1009
 3789SOL     OW22828   2.825   1.113   7.147  0.5159  0.2930  0.2179
 3789SOL    HW122829   2.827   1.152   7.060  1.8877 -0.0791  0.0869
 3789SOL    HW222830   2.799   1.191   7.197 -0.1737  0.4057 -0.3157
 3790SOL     OW22831   0.021   3.038   3.831 -0.6292 -0.5487  0.2354
 3790SOL    HW122832   0.053   2.971   3.770 -1.7550 -0.6302 -0.2591
 3790SOL    HW222833   4.653   3.012   3.836 -0.6659 -0.9443 -2.7333
 3791SOL     OW22834   0.492   0.039   2.924 -0.3353  0.1110 -0.1129
 3791SOL    HW122835   0.545   4.685   2.942 -0.3715 -0.2774 -1.6815
 3791SOL    HW222836   0.560   0.091   2.880 -0.9310  0.4669 -0.6249
 3792SOL     OW22837   4.141   4.433   8.207  0.5897  0.3866  0.3575
 3792SOL    HW122838   4.052   4.469   8.202 -0.4689 -2.2907 -0.2604
 3792SOL    HW222839   4.119   4.357   8.153  0.1444  0.2571  0.7247
 3793SOL     OW22840   4.094   4.030  12.364  0.5906 -0.0920  0.2408
 3793SOL    HW122841   4.019   4.062  12.314 -0.1899  0.7047  1.9127
 3793SOL    HW222842   4.162   4.097  12.369 -0.2515  0.4324  4.9821
 3794SOL     OW22843   1.570   1.321   5.370 -0.2088 -0.1516 -0.4049
 3794SOL    HW122844   1.529   1.407   5.356 -0.4930 -0.0285  1.1706
 3794SOL    HW222845   1.492   1.275   5.402 -0.1917  0.3041  0.2969
 3795SOL     OW22846   0.177   4.332  10.559 -0.5237  0.2126  0.0161
 3795SOL    HW122847   0.083   4.340  10.544 -0.8053  0.5390  1.9551
 3795SOL    HW222848   0.178   4.290  10.645  1.0543 -1.5770 -0.8660
 3796SOL     OW22849   2.074   1.044  12.145 -0.5559  0.0010  0.2615
 3796SOL    HW122850   1.981   1.028  12.128 -0.3776 -1.4928  0.6831
 3796SOL    HW222851   2.117   0.988  12.080  0.0747  1.3428 -0.4756
 3797SOL     OW22852   2.251   0.590   8.020  0.8538 -0.5357 -0.1905
 3797SOL    HW122853   2.301   0.630   7.948  1.7724 -1.8016 -0.2602
 3797SOL    HW222854   2.288   0.501   8.018 -0.0426 -0.9555  2.9849
 3798SOL     OW22855   3.952   1.580   7.418 -0.5745  0.6640 -0.2882
 3798SOL    HW122856   3.907   1.643   7.475 -0.1351  0.5840  0.1414
 3798SOL    HW222857   3.881   1.522   7.391 -0.6460  0.3017  0.6836
 3799SOL     OW22858   2.488   3.269   2.744  0.0928  0.2523 -0.0870
 3799SOL    HW122859   2.536   3.296   2.822 -1.0269 -1.4086  1.1814
 3799SOL    HW222860   2.526   3.326   2.676  1.7905 -0.6184  0.1241
 3800SOL     OW22861   4.594   3.105   3.227 -0.1514  0.0842  0.1600
 3800SOL    HW122862   4.586   3.129   3.135 -0.2440 -0.1386  0.1102
 3800SOL    HW222863   4.507   3.115   3.265 -0.3895 -0.6917 -0.1857
 3801SOL     OW22864   4.279   0.147   2.650  0.0413 -0.6291  0.2609
 3801SOL    HW122865   4.329   0.096   2.586  0.3952  0.4630 -0.3444
 3801SOL    HW222866   4.345   0.215   2.666 -1.0537  0.7811 -1.2927
 3802SOL     OW22867   1.939   2.380   5.177  0.1466  0.7846  0.0552
 3802SOL    HW122868   1.929   2.459   5.231  0.5341  1.3535 -0.6994
 3802SOL    HW222869   1.992   2.318   5.227 -0.7806  2.1324  2.7480
 3803SOL     OW22870   2.670   3.822   3.084 -0.4363  0.6013  0.4357
 3803SOL    HW122871   2.627   3.823   2.998 -0.9115  0.4408  0.6686
 3803SOL    HW222872   2.690   3.915   3.094  1.0971  0.5260 -1.8121
 3804SOL     OW22873   2.587   2.967   8.650 -0.5518 -0.2777 -0.7982
 3804SOL    HW122874   2.665   2.919   8.679 -1.0676 -0.5861  0.0759
 3804SOL    HW222875   2.592   2.949   8.556 -0.4000 -0.5222 -0.7433
 3805SOL     OW22876   4.117   0.851  15.847  0.2475 -0.3574  0.1054
 3805SOL    HW122877   4.062   0.773  15.849  1.2253 -1.0645 -0.9543
 3805SOL    HW222878   4.091   0.891  15.930  0.0207 -1.1057  0.3957
 3806SOL     OW22879   1.728   3.835   4.930 -0.6580  0.4497  0.4169
 3806SOL    HW122880   1.714   3.925   4.899 -2.8434 -0.2942 -0.7655
 3806SOL    HW222881   1.806   3.818   4.878 -1.7861  0.1989 -1.1949
 3807SOL     OW22882   2.724   0.384   4.608  0.8794 -0.3287 -0.4194
 3807SOL    HW122883   2.785   0.362   4.679  0.1229 -1.0072  0.0157
 3807SOL    HW222884   2.737   0.309   4.549  2.6928 -1.1547  1.0153
 3808SOL     OW22885   0.373   1.144   8.207 -0.1681  0.4900  0.1267
 3808SOL    HW122886   0.296   1.089   8.219  0.5371 -0.4231  0.4870
 3808SOL    HW222887   0.350   1.214   8.268 -0.8994 -0.6401  1.1450
 3809SOL     OW22888   3.584   0.058   9.596 -0.4376 -0.6073 -0.2967
 3809SOL    HW122889   3.544   4.699   9.567 -0.2371 -0.4599 -1.0021
 3809SOL    HW222890   3.511   0.120   9.592 -0.4083 -0.6037 -0.8063
 3810SOL     OW22891   2.942   1.150  16.161 -0.6470 -0.6679 -0.1485
 3810SOL    HW122892   3.003   1.143  16.087  0.4495  0.1731  0.6653
 3810SOL    HW222893   2.924   1.244  16.160 -0.8939 -0.7102  1.2056
 3811SOL     OW22894   3.201   4.052   6.973  0.2040  0.0399 -0.2014
 3811SOL    HW122895   3.221   4.135   6.931 -1.1709  1.5497  2.1201
 3811SOL    HW222896   3.252   3.993   6.918  0.2586  0.0563 -0.1684
 3812SOL     OW22897   0.997   4.308  10.958  0.2384 -0.0519 -0.1011
 3812SOL    HW122898   1.087   4.332  10.980 -0.1162 -0.3808  1.7317
 3812SOL    HW222899   0.955   4.305  11.044  0.9254 -0.2978  0.2295
 3813SOL     OW22900   0.572   1.146  10.549  0.3567  0.2840 -0.5232
 3813SOL    HW122901   0.582   1.177  10.639  0.3405  0.4637 -0.5832
 3813SOL    HW222902   0.548   1.225  10.499 -1.6851 -0.3576 -0.5789
 3814SOL     OW22903   3.862   1.276   2.618 -0.0212 -0.1596  0.0806
 3814SOL    HW122904   3.865   1.366   2.585  4.1697 -0.5220 -0.4571
 3814SOL    HW222905   3.771   1.251   2.598  0.2752 -1.9750  1.0343
 3815SOL     OW22906   2.995   1.251   7.440 -0.1248 -0.2627 -0.4217
 3815SOL    HW122907   2.918   1.267   7.386  0.2426  2.7163 -0.0879
 3815SOL    HW222908   3.041   1.329   7.408  0.7194 -0.9130 -0.7883
 3816SOL     OW22909   3.555   0.064   5.690 -0.3243 -0.4181 -0.1826
 3816SOL    HW122910   3.541   0.050   5.783  0.1782  1.4887  0.1733
 3816SOL    HW222911   3.589   4.705   5.657  1.6137  0.5043 -0.5256
 3817SOL     OW22912   4.208   4.269  13.376 -0.0577 -0.2751 -0.6705
 3817SOL    HW122913   4.175   4.288  13.288  1.3836  1.4966 -0.8383
 3817SOL    HW222914   4.199   4.174  13.383  0.8215 -0.2020  1.4656
 3818SOL     OW22915   0.566   0.058   0.211 -0.1905  0.5502  0.1113
 3818SOL    HW122916   0.562   0.137   0.264 -1.5083  0.6333 -0.1154
 3818SOL    HW222917   0.610   0.084   0.130  0.3257 -2.1335 -0.4959
 3819SOL     OW22918   2.528   2.199   7.979 -0.0534  0.5511 -0.4055
 3819SOL    HW122919   2.484   2.198   8.064  2.3121  0.5575  0.8346
 3819SOL    HW222920   2.546   2.293   7.993  0.3245  0.3198  0.7183
 3820SOL     OW22921   1.819   1.672  12.688  0.4583  0.0092  0.8400
 3820SOL    HW122922   1.832   1.585  12.651 -0.0449 -0.8736  2.7233
 3820SOL    HW222923   1.875   1.679  12.766  0.8277  0.2911  0.5478
 3821SOL     OW22924   1.467   2.049  15.605  0.0396 -0.2164  1.1248
 3821SOL    HW122925   1.458   2.129  15.553 -1.0138 -0.8461  0.3211
 3821SOL    HW222926   1.558   2.048  15.632  1.1289  1.9209 -2.4097
 3822SOL     OW22927   0.378   0.452   8.814  0.4719  0.1026 -0.9638
 3822SOL    HW122928   0.393   0.542   8.842 -0.1789  0.2430 -1.0575
 3822SOL    HW222929   0.284   0.435   8.823  1.0507 -2.6920 -0.0081
 3823SOL     OW22930   1.488   4.187   0.261 -0.3943 -0.2488 -0.3071
 3823SOL    HW122931   1.431   4.253   0.221 -0.0313 -0.1313 -0.6271
 3823SOL    HW222932   1.454   4.107   0.219 -2.5680  0.6291 -0.2068
 3824SOL     OW22933   1.055   2.640   7.246  0.1548 -0.1302  0.7670
 3824SOL    HW122934   1.100   2.556   7.243  1.1938  0.2654  4.7832
 3824SOL    HW222935   0.967   2.621   7.279 -0.0542  2.2139  1.5269
 3825SOL     OW22936   2.200   2.111  15.435 -0.4708 -0.9403  0.5112
 3825SOL    HW122937   2.213   2.138  15.526  2.5531  3.5166 -1.2262
 3825SOL    HW222938   2.124   2.165  15.412 -0.2808 -1.2254 -0.7578
 3826SOL     OW22939   0.569   1.615   5.399  0.1698 -0.0647  0.1463
 3826SOL    HW122940   0.660   1.643   5.394  0.6549 -1.4768  1.0917
 3826SOL    HW222941   0.559   1.591   5.491  1.4902  1.4798  0.6952
 3827SOL     OW22942   1.009   0.417   7.046  0.0640 -0.1418 -0.6019
 3827SOL    HW122943   0.922   0.409   7.008 -0.4442 -1.1623  0.7684
 3827SOL    HW222944   1.024   0.504   7.008 -0.5230  0.5120  0.6662
 3828SOL     OW22945   4.467   1.981   6.533 -0.0668  0.8844 -0.0849
 3828SOL    HW122946   4.433   1.920   6.598  2.5773  1.1174  1.4893
 3828SOL    HW222947   4.429   1.939   6.456 -3.1906 -0.6780  2.3036
 3829SOL     OW22948   3.472   4.478  15.201 -0.5283  0.2393  0.0119
 3829SOL    HW122949   3.439   4.388  15.211 -0.1298  0.2058  0.9915
 3829SOL    HW222950   3.528   4.484  15.278 -2.6647  1.8739  1.4214
 3830SOL     OW22951   2.641   0.099  16.856 -0.1414  0.0171 -0.2730
 3830SOL    HW122952   2.641   0.007  16.829  2.5204 -0.0416 -0.0973
 3830SOL    HW222953   2.615   0.145  16.777  0.3170 -1.2362 -1.1533
 3831SOL     OW22954   3.478   1.174   9.045 -0.2837  0.4677  0.8032
 3831SOL    HW122955   3.554   1.162   8.988 -1.7806 -0.9568 -0.9069
 3831SOL    HW222956   3.501   1.244   9.106 -1.9060  1.2206  0.5521
 3832SOL     OW22957   1.459   0.951   3.638 -0.4421  0.4197 -0.1217
 3832SOL    HW122958   1.403   1.019   3.675 -0.9401  0.1734 -0.4154
 3832SOL    HW222959   1.475   0.884   3.705 -2.9094  1.7529  1.8096
 3833SOL     OW22960   3.658   3.061   5.381 -0.9284 -0.1586  0.3607
 3833SOL    HW122961   3.581   3.038   5.433 -2.2555  0.5142 -1.3232
 3833SOL    HW222962   3.689   2.974   5.354  1.3970  1.0484 -0.9441
 3834SOL     OW22963   2.617   2.094   2.406 -0.1128 -0.7451  0.0704
 3834SOL    HW122964   2.671   2.046   2.468  0.4755 -0.0185  0.1263
 3834SOL    HW222965   2.552   2.142   2.457 -0.6174 -1.8234  0.4248
 3835SOL     OW22966   2.619   2.571  16.133  0.4048  0.1688  0.1853
 3835SOL    HW122967   2.524   2.583  16.133  0.2315 -1.1588 -1.2169
 3835SOL    HW222968   2.621   2.572  16.229  4.1843 -0.6085  0.0935
 3836SOL     OW22969   3.007   3.425   3.694 -0.2858 -0.0073  0.2242
 3836SOL    HW122970   3.047   3.475   3.766  3.8190 -3.4824  0.3894
 3836SOL    HW222971   3.013   3.497   3.631 -3.5803  0.8468  0.9213
 3837SOL     OW22972   3.183   4.229  17.232  0.0002  0.2696 -0.2140
 3837SOL    HW122973   3.205   4.186  17.315 -0.8035  0.6076  0.1759
 3837SOL    HW222974   3.153   4.311  17.273  2.6581  1.0370  0.2362
 3838SOL     OW22975   0.321   0.354  12.206 -0.4592  0.4550  0.0653
 3838SOL    HW122976   0.322   0.330  12.299  0.6778  0.7843  0.1404
 3838SOL    HW222977   0.347   0.270  12.170  0.8268  0.9576 -0.1737
 3839SOL     OW22978   1.578   4.147  12.423  0.8321  0.2225 -0.4242
 3839SOL    HW122979   1.542   4.235  12.412 -0.9377  0.0950  4.5372
 3839SOL    HW222980   1.671   4.168  12.426  1.1434 -1.1329 -0.6646
 3840SOL     OW22981   2.229   4.556   5.464 -0.0962 -0.2946 -0.1500
 3840SOL    HW122982   2.264   4.471   5.493 -2.2148 -1.5483 -1.2453
 3840SOL    HW222983   2.307   4.599   5.429  1.2013 -1.2324  1.5964
 3841SOL     OW22984   1.023   3.271   6.111  0.1587  0.1659 -0.1058
 3841SOL    HW122985   1.104   3.318   6.091 -1.4535  2.4216 -1.2559
 3841SOL    HW222986   1.019   3.205   6.042 -0.3160 -1.2707  1.2872
 3842SOL     OW22987   1.924   2.419   3.893 -0.1819 -0.0651 -0.4202
 3842SOL    HW122988   1.868   2.344   3.872 -0.1901 -0.3056  0.4620
 3842SOL    HW222989   1.952   2.392   3.980  0.0686 -3.4662 -1.5505
 3843SOL     OW22990   3.762   0.407   2.115 -0.3012  0.0208 -0.0258
 3843SOL    HW122991   3.809   0.476   2.067  1.5210 -0.6159  0.8572
 3843SOL    HW222992   3.826   0.368   2.174  1.1910  1.4074 -0.7338
 3844SOL     OW22993   3.507   0.589   4.561  0.2924  0.4671  0.0442
 3844SOL    HW122994   3.439   0.532   4.595  1.3069  0.7082  2.4829
 3844SOL    HW222995   3.574   0.582   4.629  0.0176 -3.3965 -0.1132
 3845SOL     OW22996   2.969   2.069   7.180 -0.3364 -0.5490 -0.0284
 3845SOL    HW122997   2.881   2.105   7.196  0.6668  1.6231  0.6854
 3845SOL    HW222998   3.019   2.151   7.184  3.8553 -3.0821 -0.9678
 3846SOL     OW22999   0.342   1.147  11.277 -0.7105  0.0111  0.0500
 3846SOL    HW123000   0.346   1.104  11.363  1.9440 -0.1129 -0.1583
 3846SOL    HW223001   0.291   1.084  11.226 -0.1533  0.3105 -0.8681
 3847SOL     OW23002   0.704   3.303   5.580  0.4681  0.1285  0.1060
 3847SOL    HW123003   0.639   3.268   5.519  3.9265 -2.2255 -2.2900
 3847SOL    HW223004   0.779   3.307   5.520 -1.0626 -0.0054 -1.8053
 3848SOL     OW23005   3.094   4.117   2.173 -0.1578 -0.7758  0.3200
 3848SOL    HW123006   3.141   4.164   2.241 -0.2963 -0.2075  0.0210
 3848SOL    HW223007   3.018   4.083   2.219 -0.9491 -1.4044 -1.4222
 3849SOL     OW23008   4.163   0.359   8.765 -0.4700  0.2843 -0.4593
 3849SOL    HW123009   4.089   0.380   8.821 -0.6951 -1.6025 -0.0465
 3849SOL    HW223010   4.123   0.314   8.690  1.1855  1.2216 -1.9253
 3850SOL     OW23011   1.723   1.452   3.143 -0.1918 -0.3465  0.3944
 3850SOL    HW123012   1.783   1.517   3.179 -0.5753 -0.4563  1.2331
 3850SOL    HW223013   1.782   1.398   3.089 -0.9726 -1.6093  0.8015
 3851SOL     OW23014   0.374   3.932   3.383 -0.0032 -0.2019  0.4196
 3851SOL    HW123015   0.342   3.941   3.473 -1.5238  3.3358 -0.4794
 3851SOL    HW223016   0.359   4.018   3.345 -0.0409  0.4753  1.9655
 3852SOL     OW23017   1.488   2.521   9.624 -0.0295  0.1511  0.2623
 3852SOL    HW123018   1.448   2.595   9.669  0.2467 -0.1689  1.0375
 3852SOL    HW223019   1.418   2.497   9.564 -0.3315  0.8864  0.3202
 3853SOL     OW23020   0.575   1.319   3.377  0.3494  0.0560 -0.1416
 3853SOL    HW123021   0.516   1.289   3.309 -0.2538  0.3031  0.2748
 3853SOL    HW223022   0.643   1.369   3.331 -1.1281  1.9004 -0.3044
 3854SOL     OW23023   2.505   1.122   5.535 -0.1541 -0.6067 -0.9107
 3854SOL    HW123024   2.599   1.137   5.525 -0.4807  1.1106 -1.4062
 3854SOL    HW223025   2.491   1.050   5.474  2.2129 -0.6686 -1.3766
 3855SOL     OW23026   2.873   3.653  14.731 -0.8009  0.3385  0.5666
 3855SOL    HW123027   2.938   3.719  14.706 -2.1211  1.3247 -0.2582
 3855SOL    HW223028   2.881   3.644  14.826 -1.0961  1.0513  0.6563
 3856SOL     OW23029   0.448   3.246   5.854  0.5464 -0.2928  0.5301
 3856SOL    HW123030   0.538   3.219   5.837  0.3928  0.0408 -0.7807
 3856SOL    HW223031   0.409   3.159   5.869  0.4793  0.1080  2.7701
 3857SOL     OW23032   3.915   2.751   5.828 -0.0405  0.0975  0.4343
 3857SOL    HW123033   3.938   2.691   5.757 -0.2228 -0.3075  0.7188
 3857SOL    HW223034   3.927   2.700   5.908  1.6141  0.5631  0.4847
 3858SOL     OW23035   2.185   3.553   2.377  0.2474  0.7540 -0.6861
 3858SOL    HW123036   2.208   3.469   2.418 -2.6248  0.5964  0.6353
 3858SOL    HW223037   2.225   3.552   2.290  2.1009 -2.5516  0.1892
 3859SOL     OW23038   2.035   1.015  14.732  0.1416 -0.8752 -0.1933
 3859SOL    HW123039   1.988   0.932  14.741  0.5563 -0.8725  1.9578
 3859SOL    HW223040   2.122   0.976  14.740  0.2887 -0.3964  0.6016
 3860SOL     OW23041   4.575   0.869  17.025 -0.2892  0.1949  0.1761
 3860SOL    HW123042   4.604   0.917  17.103  1.9670 -0.3607 -0.3004
 3860SOL    HW223043   4.548   0.948  16.979 -0.2576 -0.8181 -1.5985
 3861SOL     OW23044   2.637   4.274   5.049  0.4667  0.3643  0.4538
 3861SOL    HW123045   2.565   4.215   5.069  1.5834 -0.0793  3.2189
 3861SOL    HW223046   2.644   4.328   5.128  1.1948  3.0698 -1.4241
 3862SOL     OW23047   1.480   1.782   4.745  0.0800 -0.0360  0.3487
 3862SOL    HW123048   1.415   1.733   4.795  2.1552 -1.3702  1.7772
 3862SOL    HW223049   1.545   1.712   4.746  0.9945  0.8086 -0.3629
 3863SOL     OW23050   3.465   3.434   7.626 -0.0105 -0.5833 -0.4386
 3863SOL    HW123051   3.479   3.462   7.717 -0.3372  1.2589 -0.9538
 3863SOL    HW223052   3.381   3.476   7.609 -1.0239 -1.0231  3.4865
 3864SOL     OW23053   2.734   4.490  13.672  0.7170  0.3592 -0.1795
 3864SOL    HW123054   2.796   4.523  13.736  0.9510 -0.5483  0.0557
 3864SOL    HW223055   2.781   4.416  13.634  1.0410  0.8839 -0.8035
 3865SOL     OW23056   2.595   0.814   1.952 -0.0846 -0.4392  0.5154
 3865SOL    HW123057   2.544   0.798   1.873 -0.3344  1.8482  0.2327
 3865SOL    HW223058   2.627   0.900   1.925  0.7167 -1.5356 -2.0075
 3866SOL     OW23059   1.366   2.199   4.981  0.2830  0.1776  0.6898
 3866SOL    HW123060   1.455   2.184   4.949 -0.7092 -1.1923 -1.4795
 3866SOL    HW223061   1.325   2.245   4.907 -2.2730 -3.0883  0.0540
 3867SOL     OW23062   0.847   4.105  15.560  0.4334 -0.3703 -0.1674
 3867SOL    HW123063   0.771   4.092  15.503  0.2917  0.4521 -0.1709
 3867SOL    HW223064   0.834   4.196  15.586  3.6988  0.8548 -2.8267
 3868SOL     OW23065   3.653   2.299   5.267  0.7397 -0.9351 -0.0962
 3868SOL    HW123066   3.684   2.273   5.180  2.6893 -0.7922  0.5522
 3868SOL    HW223067   3.605   2.378   5.244 -0.1402 -0.6659  2.7173
 3869SOL     OW23068   4.274   3.461   5.024  0.1570  0.1161  0.0738
 3869SOL    HW123069   4.222   3.471   5.104  0.9370 -0.2674  0.6381
 3869SOL    HW223070   4.304   3.370   5.035 -1.8357 -0.5604 -0.1428
 3870SOL     OW23071   2.873   4.553   2.516 -0.1459 -0.5023 -0.2125
 3870SOL    HW123072   2.797   4.532   2.571 -0.0273 -2.8006 -0.9339
 3870SOL    HW223073   2.849   4.535   2.425  2.5169  1.3284 -1.2710
 3871SOL     OW23074   0.213   2.533  10.036 -0.2085  0.0590  0.1264
 3871SOL    HW123075   0.158   2.553  10.112  1.7072  2.7095  0.8416
 3871SOL    HW223076   0.295   2.504  10.076 -1.4173 -0.0748  2.4888
 3872SOL     OW23077   0.906   1.961   6.803 -0.9634  0.0328 -0.6123
 3872SOL    HW123078   0.955   2.008   6.871 -0.1448  0.2329 -1.3273
 3872SOL    HW223079   0.905   1.876   6.847  2.6841  0.0880 -0.3584
 3873SOL     OW23080   1.160   3.450   2.555 -0.0595  0.2375  0.3130
 3873SOL    HW123081   1.093   3.451   2.624  0.4917  3.1235  0.8371
 3873SOL    HW223082   1.217   3.385   2.596  0.0534  0.3342  0.3118
 3874SOL     OW23083   3.805   3.618   4.719 -0.2944 -0.4697 -0.3795
 3874SOL    HW123084   3.780   3.607   4.627 -0.9575  0.4131 -0.3058
 3874SOL    HW223085   3.836   3.528   4.729  2.0759  0.4885  0.6982
 3875SOL     OW23086   0.140   3.113   8.049  0.2471 -0.0340 -0.0700
 3875SOL    HW123087   0.143   3.027   8.006  2.8115  0.0254 -0.0225
 3875SOL    HW223088   0.193   3.098   8.127  1.2311 -0.5632 -0.8391
 3876SOL     OW23089   4.010   1.250   7.255 -0.3529 -0.0997 -0.2720
 3876SOL    HW123090   3.915   1.237   7.260 -0.3088 -1.0935 -1.9497
 3876SOL    HW223091   4.039   1.227   7.343  1.6709  0.6197 -0.7618
 3877SOL     OW23092   2.413   2.138   8.944  0.1632  0.4031 -0.3914
 3877SOL    HW123093   2.481   2.070   8.936 -2.0342 -1.8901  0.6883
 3877SOL    HW223094   2.395   2.137   8.850  0.0887  2.4074 -0.4011
 3878SOL     OW23095   1.440   0.890   3.350 -0.6698  0.3090 -0.2145
 3878SOL    HW123096   1.506   0.821   3.339  0.4307  1.2985  0.2191
 3878SOL    HW223097   1.453   0.914   3.441 -3.0487  0.7301  0.0148
 3879SOL     OW23098   0.161   1.385   7.938 -0.4539 -0.4095  0.4107
 3879SOL    HW123099   0.256   1.391   7.940 -0.3612 -1.3571 -1.3589
 3879SOL    HW223100   0.148   1.323   8.009  1.5341 -0.5007  0.6957
 3880SOL     OW23101   4.017   3.806  14.044  0.5407  0.6068  0.6409
 3880SOL    HW123102   3.926   3.785  14.021  1.2928  0.4231 -2.1581
 3880SOL    HW223103   4.019   3.898  14.069  0.4322  0.4980  1.0440
 3881SOL     OW23104   3.169   1.378   8.381  0.4264 -0.3915 -0.1445
 3881SOL    HW123105   3.192   1.286   8.399 -0.6300 -0.6879 -0.3185
 3881SOL    HW223106   3.112   1.370   8.305 -0.8443  2.4297  0.5333
 3882SOL     OW23107   0.010   2.568   8.210  0.4737 -0.2575 -0.3806
 3882SOL    HW123108   0.063   2.521   8.275 -0.5223 -0.7760  0.0596
 3882SOL    HW223109   4.656   2.598   8.257  2.9972  2.3587  2.0861
 3883SOL     OW23110   1.996   1.349   6.300 -0.3516 -0.3499 -0.1136
 3883SOL    HW123111   2.005   1.329   6.393  1.1523  0.0117 -0.1776
 3883SOL    HW223112   2.090   1.348   6.279 -0.1420  1.8712  0.6580
 3884SOL     OW23113   0.960   3.115   5.870 -0.3639  0.7211 -0.9441
 3884SOL    HW123114   0.958   3.130   5.775  1.7100 -1.2951 -1.3024
 3884SOL    HW223115   0.958   3.019   5.865 -3.2377  0.7461 -0.4073
 3885SOL     OW23116   3.076   0.231   6.155 -0.0273  0.6506  1.3726
 3885SOL    HW123117   3.119   0.178   6.223  1.5474 -0.6734 -0.6669
 3885SOL    HW223118   3.072   0.313   6.204 -0.1558  1.2682  0.3161
 3886SOL     OW23119   2.057   4.096   2.174 -0.2039 -0.0279  0.0255
 3886SOL    HW123120   2.050   4.069   2.266 -0.4638  0.6400  0.2023
 3886SOL    HW223121   2.033   4.189   2.173  0.0667  0.0459  0.3039
 3887SOL     OW23122   2.516   4.624  15.259 -0.3631  0.1770 -0.3532
 3887SOL    HW123123   2.465   4.631  15.178  0.4667  2.5853 -0.6539
 3887SOL    HW223124   2.451   4.565  15.299  0.4002  0.7871  1.8249
 3888SOL     OW23125   0.797   1.234  14.522 -0.3539 -0.0189  0.3749
 3888SOL    HW123126   0.722   1.214  14.577  1.1235 -0.0253  2.4033
 3888SOL    HW223127   0.865   1.232  14.590 -0.1289  2.1946  0.2024
 3889SOL     OW23128   0.742   3.259   3.738 -0.2989 -0.0646 -1.0419
 3889SOL    HW123129   0.809   3.294   3.798 -1.7322 -0.1905  0.6466
 3889SOL    HW223130   0.669   3.267   3.799  0.4791  0.9713 -0.2242
 3890SOL     OW23131   2.080   0.038   8.157 -0.2146 -0.2663 -0.1186
 3890SOL    HW123132   2.123   0.123   8.165 -0.8997  0.1751 -1.0501
 3890SOL    HW223133   1.988   0.064   8.158 -0.3247 -0.5402 -1.7749
 3891SOL     OW23134   0.554   3.480   1.162 -0.0474  0.4488  0.0102
 3891SOL    HW123135   0.604   3.398   1.163  0.7199  0.8775 -3.5550
 3891SOL    HW223136   0.465   3.445   1.156  1.0029 -2.0072 -1.4350
 3892SOL     OW23137   2.674   1.426   6.174 -0.0869 -0.2426 -0.0123
 3892SOL    HW123138   2.679   1.511   6.130  0.8810 -0.6945 -0.7841
 3892SOL    HW223139   2.749   1.411   6.232 -0.0867 -0.2236 -0.0077
 3893SOL     OW23140   1.101   0.030   7.334 -0.0348  0.3418 -0.3642
 3893SOL    HW123141   1.054   0.113   7.322  1.2434  1.1042 -0.1425
 3893SOL    HW223142   1.112   0.027   7.429 -1.7290 -0.8670 -0.2070
 3894SOL     OW23143   3.133   2.552   6.598  0.8241  0.2243  0.1257
 3894SOL    HW123144   3.116   2.524   6.508 -2.0329 -2.0194  1.3424
 3894SOL    HW223145   3.191   2.624   6.574  0.1745 -0.0908 -2.3494
 3895SOL     OW23146   4.591   1.124   6.662 -0.2869  0.2118 -0.1683
 3895SOL    HW123147   4.498   1.105   6.675 -0.0874  0.4129  1.4979
 3895SOL    HW223148   4.605   1.204   6.712  0.8646 -0.9239  1.3346
 3896SOL     OW23149   4.652   2.039   8.258 -0.2598 -0.1014  0.5475
 3896SOL    HW123150   4.580   1.994   8.302  0.2235 -0.1559  1.2870
 3896SOL    HW223151   4.604   2.107   8.212  0.3600 -0.3764 -0.4928
 3897SOL     OW23152   1.316   0.107   7.653 -0.2452 -0.0545  0.4263
 3897SOL    HW123153   1.329   0.062   7.737 -1.1354  1.0483  1.1515
 3897SOL    HW223154   1.240   0.062   7.617  1.2328  1.5668 -4.6657
 3898SOL     OW23155   3.686   3.870   8.799  0.5769  0.3723  0.4742
 3898SOL    HW123156   3.665   3.946   8.854 -0.4631 -0.6664  1.4843
 3898SOL    HW223157   3.618   3.809   8.826 -0.6243  1.4990 -0.0335
 3899SOL     OW23158   3.981   0.147   5.024  0.2458  0.2775 -0.3025
 3899SOL    HW123159   3.996   0.060   5.063  0.2950  0.4196 -0.0069
 3899SOL    HW223160   4.054   0.205   5.040  0.4101 -0.4325  1.5212
 3900SOL     OW23161   0.102   3.929   5.462  0.3208 -0.6062  0.4445
 3900SOL    HW123162   0.104   4.004   5.402 -0.6735 -2.0428 -1.4101
 3900SOL    HW223163   0.196   3.911   5.468  1.1430  3.8574  0.7098
 3901SOL     OW23164   2.311   2.954   5.215  0.6394 -0.2349 -0.2598
 3901SOL    HW123165   2.354   2.873   5.186 -2.6054 -1.4837 -1.6009
 3901SOL    HW223166   2.384   2.989   5.266  0.1918  2.5381 -1.5205
 3902SOL     OW23167   0.191   3.861   2.129 -0.1513  0.5428  0.3731
 3902SOL    HW123168   0.162   3.831   2.042  1.2588  2.6517 -0.8387
 3902SOL    HW223169   0.271   3.908   2.105 -1.2153  2.2046  0.0146
 3903SOL     OW23170   2.700   4.499  16.845  0.0054  0.3849  0.1674
 3903SOL    HW123171   2.693   4.453  16.929 -0.4957 -0.7453 -0.4876
 3903SOL    HW223172   2.613   4.485  16.808  1.4310 -0.9856 -2.6797
 3904SOL     OW23173   4.428   1.128   3.004 -0.5430  0.7196  0.6191
 3904SOL    HW123174   4.520   1.135   2.978 -0.1820  2.4823  2.3648
 3904SOL    HW223175   4.391   1.190   2.940  0.6740 -2.0179 -2.7440
 3905SOL     OW23176   1.773   2.472  11.112  0.9623  0.2151  0.2718
 3905SOL    HW123177   1.758   2.566  11.105 -1.2397 -0.2020 -0.7273
 3905SOL    HW223178   1.863   2.471  11.145  0.7949 -1.8861  0.7035
 3906SOL     OW23179   1.179   1.854  17.635 -0.1062  0.1843  0.2197
 3906SOL    HW123180   1.092   1.858  17.595 -0.3496  2.4766  0.9981
 3906SOL    HW223181   1.183   1.944  17.668  0.8568 -0.3175  1.4672
 3907SOL     OW23182   1.440   3.965   1.760 -0.3714 -0.5337 -0.0084
 3907SOL    HW123183   1.385   4.024   1.811 -0.3781 -1.7936  1.4168
 3907SOL    HW223184   1.361   3.931   1.718  0.1894 -0.7659 -0.8825
 3908SOL     OW23185   4.717   3.736   6.832  0.1289  0.0405 -0.5537
 3908SOL    HW123186   4.676   3.763   6.750 -0.5571 -0.0852 -0.2519
 3908SOL    HW223187   0.055   3.807   6.848  1.0227 -0.4649 -1.7987
 3909SOL     OW23188   3.960   1.146   3.416 -0.2769  0.1312  0.0664
 3909SOL    HW123189   4.038   1.095   3.393 -1.5952 -1.5529 -0.6656
 3909SOL    HW223190   3.968   1.181   3.505  1.3277 -0.0979  0.0225
 3910SOL     OW23191   3.024   0.295   8.922 -0.1300  0.0282 -0.1430
 3910SOL    HW123192   3.084   0.220   8.927  0.4672  0.4047 -1.9159
 3910SOL    HW223193   3.013   0.309   9.016 -1.0202  0.3657 -0.3002
 3911SOL     OW23194   3.474   0.806   7.596 -0.0890 -0.4695 -0.8755
 3911SOL    HW123195   3.379   0.795   7.600 -0.2059  1.2683  0.7072
 3911SOL    HW223196   3.483   0.894   7.560  2.0557  0.2137  1.3864
 3912SOL     OW23197   4.570   3.163   7.562  0.4339 -0.3956  0.0648
 3912SOL    HW123198   4.483   3.165   7.601  0.9798 -0.9894  1.3171
 3912SOL    HW223199   4.569   3.251   7.526  1.5493  0.2185  1.5491
 3913SOL     OW23200   2.886   4.441  17.524 -0.4488  0.3236 -0.1189
 3913SOL    HW123201   2.803   4.467  17.563 -1.3440 -0.4842 -1.4858
 3913SOL    HW223202   2.930   4.388  17.590  1.3592  1.0418 -0.7400
 3914SOL     OW23203   1.758   0.211   7.788 -0.4676  0.4570  0.0898
 3914SOL    HW123204   1.765   0.171   7.875 -2.6770 -2.8772 -1.2695
 3914SOL    HW223205   1.703   0.288   7.802  0.9402  1.2487  1.3108
 3915SOL     OW23206   2.377   1.750  13.349  0.3900  0.2913 -0.2948
 3915SOL    HW123207   2.415   1.829  13.310 -0.3903  0.5723 -0.4861
 3915SOL    HW223208   2.361   1.771  13.441  0.3047  0.2089 -0.2918
 3916SOL     OW23209   4.384   3.198  10.470  0.3395  0.1628 -0.2238
 3916SOL    HW123210   4.370   3.293  10.460  1.5160  0.4311  0.7030
 3916SOL    HW223211   4.335   3.184  10.551 -0.0080  0.6456 -0.3431
 3917SOL     OW23212   2.075   3.426  12.078  0.9854 -0.2882 -0.6837
 3917SOL    HW123213   2.098   3.437  11.986 -1.1005  0.8301 -1.0589
 3917SOL    HW223214   1.981   3.443  12.076  1.2990  1.6039  0.6091
 3918SOL     OW23215   2.921   4.606   2.024 -1.0112  0.1398  0.0542
 3918SOL    HW123216   3.008   4.566   2.019 -0.6355  0.8469  1.0561
 3918SOL    HW223217   2.888   4.556   2.099  0.1217  0.0088  0.4746
 3919SOL     OW23218   1.818   3.867  11.565  0.4104  0.1913 -0.4167
 3919SOL    HW123219   1.792   3.786  11.609  0.5880 -0.3903 -1.3776
 3919SOL    HW223220   1.879   3.831  11.501 -2.0908 -0.7945 -2.2446
 3920SOL     OW23221   1.654   1.868   2.433  0.0461  0.3597 -0.2162
 3920SOL    HW123222   1.608   1.898   2.355 -0.3766  0.3734  0.0382
 3920SOL    HW223223   1.609   1.916   2.502  0.0181  0.3438 -0.2232
 3921SOL     OW23224   2.672   0.334   5.535  0.4891 -0.5240 -0.3720
 3921SOL    HW123225   2.749   0.290   5.500  0.8389 -0.4508  0.3082
 3921SOL    HW223226   2.714   0.413   5.570 -2.1981  0.6443  0.2325
 3922SOL     OW23227   4.517   0.256   8.089  0.0643 -0.0065  0.1566
 3922SOL    HW123228   4.507   0.209   8.172 -1.6459  0.9729  0.5219
 3922SOL    HW223229   4.456   0.328   8.105  0.1087  0.2793 -1.0070
 3923SOL     OW23230   3.856   1.504   6.429  0.3894 -1.2307 -0.7291
 3923SOL    HW123231   3.944   1.467   6.435  0.2195 -1.6743 -1.0157
 3923SOL    HW223232   3.813   1.452   6.497 -1.1880 -1.1675 -1.6893
 3924SOL     OW23233   3.792   3.864  11.498  0.3125 -0.0647  0.3109
 3924SOL    HW123234   3.887   3.870  11.494  0.0992  2.5087 -0.6802
 3924SOL    HW223235   3.766   3.955  11.485 -0.9098  0.0428  3.5514
 3925SOL     OW23236   2.635   1.761  15.658  0.6285  0.5308  0.0382
 3925SOL    HW123237   2.716   1.780  15.612  0.1577  0.5789 -0.7747
 3925SOL    HW223238   2.590   1.733  15.578  1.3835 -0.6183  0.0110
 3926SOL     OW23239   3.824   3.657   5.002  0.1856 -0.1932  0.0636
 3926SOL    HW123240   3.812   3.563   4.998  0.8817 -0.3577  1.8053
 3926SOL    HW223241   3.863   3.671   4.915 -1.3647  0.2962 -0.5406
 3927SOL     OW23242   2.792   3.762  15.967  0.1339  0.0856  0.2699
 3927SOL    HW123243   2.767   3.806  15.885 -2.4191 -2.4620 -0.3435
 3927SOL    HW223244   2.730   3.689  15.962  0.1009  0.0271  1.6804
 3928SOL     OW23245   0.514   1.283   7.297  0.2067 -0.3422  0.3921
 3928SOL    HW123246   0.473   1.223   7.234  0.5091  1.1457 -1.2332
 3928SOL    HW223247   0.516   1.237   7.381 -0.4675  0.1533  0.6883
 3929SOL     OW23248   3.845   2.251   5.681 -0.2930 -0.1780  0.5612
 3929SOL    HW123249   3.920   2.310   5.690 -0.8809  1.1676 -3.3142
 3929SOL    HW223250   3.850   2.221   5.772 -1.2580  0.2931  0.7696
 3930SOL     OW23251   1.988   1.935   1.276  0.1603 -0.3930 -0.0343
 3930SOL    HW123252   2.025   2.020   1.299 -0.0681 -0.0622 -0.8842
 3930SOL    HW223253   1.970   1.942   1.182 -2.6689  1.5450  0.6754
 3931SOL     OW23254   2.794   4.055   3.209 -0.1284 -0.1213  0.1412
 3931SOL    HW123255   2.826   4.008   3.286 -1.2025  0.2643  0.8217
 3931SOL    HW223256   2.855   4.129   3.201 -0.0577 -0.3371 -1.2579
 3932SOL     OW23257   4.446   1.962   7.077  0.3111  0.5717 -0.0849
 3932SOL    HW123258   4.529   1.941   7.035 -0.2443 -0.7972 -0.4900
 3932SOL    HW223259   4.460   1.933   7.167 -0.7730  1.8561  0.4995
 3933SOL     OW23260   3.132   0.578   5.744  0.0723 -0.2520  0.0976
 3933SOL    HW123261   3.137   0.672   5.765 -0.0495  0.0459 -1.1806
 3933SOL    HW223262   3.225   0.558   5.748  0.0342 -0.0569  1.7711
 3934SOL     OW23263   3.956   1.804  10.325  0.2304  0.4813 -0.0725
 3934SOL    HW123264   4.032   1.824  10.380  0.0220 -0.2206  0.4720
 3934SOL    HW223265   3.938   1.713  10.348 -0.1085  0.4891 -0.3179
 3935SOL     OW23266   4.491   1.471   5.054 -0.0584 -0.4568 -0.8395
 3935SOL    HW123267   4.572   1.515   5.027  0.1410  0.3257  1.0234
 3935SOL    HW223268   4.524   1.399   5.107 -2.8457 -0.9712  0.1849
 3936SOL     OW23269   1.615   1.657   2.041  1.0093 -0.1855  0.4232
 3936SOL    HW123270   1.532   1.637   1.998  0.5253  1.1775  0.7241
 3936SOL    HW223271   1.598   1.628   2.130 -0.8792  0.3284  0.2407
 3937SOL     OW23272   4.077   2.126   9.578  0.3404 -0.8021 -0.2582
 3937SOL    HW123273   4.082   2.127   9.674 -0.1223 -0.3824 -0.2432
 3937SOL    HW223274   4.125   2.045   9.561  3.8075  1.1325  0.2412
 3938SOL     OW23275   2.715   4.034   8.751  0.3489  0.1672  0.0727
 3938SOL    HW123276   2.775   4.085   8.805 -0.5362  0.1938  1.0534
 3938SOL    HW223277   2.701   4.098   8.680 -0.6702  0.0250  0.1357
 3939SOL     OW23278   0.497   1.567  13.816  0.3465 -0.4679 -0.6117
 3939SOL    HW123279   0.440   1.509  13.866 -0.7998  1.2929  0.0887
 3939SOL    HW223280   0.571   1.573  13.876  2.0049 -3.6285 -2.3499
 3940SOL     OW23281   0.473   2.107  12.948  0.1464  0.1507 -0.3757
 3940SOL    HW123282   0.432   2.050  13.013  0.6729  1.8325  1.4150
 3940SOL    HW223283   0.398   2.153  12.909 -0.6755  0.9621  2.1843
 3941SOL     OW23284   2.710   2.984   6.581 -0.1564 -0.4855  0.0466
 3941SOL    HW123285   2.626   2.939   6.593  0.7878 -1.9569  1.1480
 3941SOL    HW223286   2.683   3.055   6.638 -1.1756 -0.7842 -0.0630
 3942SOL     OW23287   2.573   4.153  12.276 -0.4909 -0.3203 -0.1775
 3942SOL    HW123288   2.663   4.121  12.278  0.2498  1.7786  0.5554
 3942SOL    HW223289   2.559   4.172  12.369  0.1699 -2.8601  0.4528
 3943SOL     OW23290   4.708   1.462   6.241 -0.5819 -0.3139  0.5796
 3943SOL    HW123291   0.059   1.437   6.187 -1.5697  2.3934 -2.0567
 3943SOL    HW223292   4.693   1.374   6.278  0.8092 -0.6002  0.4561
 3944SOL     OW23293   1.858   2.471  13.320  0.6895 -0.0370  0.2266
 3944SOL    HW123294   1.767   2.443  13.312  0.6319  0.5297 -1.0494
 3944SOL    HW223295   1.852   2.567  13.317  0.3330  0.0353  2.6261
 3945SOL     OW23296   1.944   4.383   0.136 -0.2316  0.3132 -0.0204
 3945SOL    HW123297   1.930   4.303   0.085  1.4190 -1.6226  2.5296
 3945SOL    HW223298   1.899   4.453   0.088  0.9359  0.5854 -0.7108
 3946SOL     OW23299   1.133   0.544   7.246 -0.0521  0.2569  0.4427
 3946SOL    HW123300   1.066   0.479   7.224 -0.4951  0.6274  0.6934
 3946SOL    HW223301   1.090   0.629   7.260  1.5267  1.1870 -0.3072
 3947SOL     OW23302   1.518   2.771   4.416 -0.0829  0.1911 -0.6649
 3947SOL    HW123303   1.443   2.722   4.449 -0.0393  1.2292  0.9852
 3947SOL    HW223304   1.550   2.703   4.356 -0.0925  0.7366 -1.2984
 3948SOL     OW23305   1.420   1.849   4.236 -0.4154  0.0531 -0.0307
 3948SOL    HW123306   1.483   1.902   4.186  0.7879 -0.3516  1.0579
 3948SOL    HW223307   1.352   1.910   4.267 -0.5682 -0.2428  0.2184
 3949SOL     OW23308   3.349   1.995   0.190  0.1043 -0.0398 -0.2974
 3949SOL    HW123309   3.311   1.928   0.248  1.4028 -2.2313 -1.9948
 3949SOL    HW223310   3.439   2.009   0.219 -0.2626 -0.3460  0.9834
 3950SOL     OW23311   4.170   2.132  16.874  0.1877  0.3151  0.5358
 3950SOL    HW123312   4.250   2.183  16.887  0.4529  0.0453 -0.0316
 3950SOL    HW223313   4.202   2.042  16.887  1.1025  0.4911 -0.5168
 3951SOL     OW23314   0.350   0.108  17.632 -0.0715  0.5339  0.3252
 3951SOL    HW123315   0.350   0.013  17.648  1.0694  0.4340 -0.2639
 3951SOL    HW223316   0.413   0.103  17.559 -0.9996  1.8254 -0.5726
 3952SOL     OW23317   4.131   4.538   6.454 -0.1522  0.4519 -0.2834
 3952SOL    HW123318   4.037   4.528   6.441 -0.6290  3.2802  0.9824
 3952SOL    HW223319   4.154   4.450   6.486 -1.3472 -0.9215 -3.2048
 3953SOL     OW23320   1.880   1.880   9.914  0.2842  0.5211  0.1159
 3953SOL    HW123321   1.827   1.911   9.988 -0.7422  1.2029 -0.9083
 3953SOL    HW223322   1.952   1.835   9.957 -1.8533 -2.2539  0.8445
 3954SOL     OW23323   2.013   4.220   4.893 -0.1225 -0.0705 -0.1262
 3954SOL    HW123324   2.001   4.234   4.799  1.2704 -2.1050 -0.6018
 3954SOL    HW223325   2.106   4.237   4.908 -1.1056  2.4241  3.1117
 3955SOL     OW23326   2.846   1.830  15.458  0.5469 -0.4377  0.1254
 3955SOL    HW123327   2.907   1.860  15.526 -1.9412  1.2624  1.5871
 3955SOL    HW223328   2.823   1.919  15.433 -1.2686 -1.1566 -0.7277
 3956SOL     OW23329   2.044   4.198   2.660  0.4179  0.5624 -0.0838
 3956SOL    HW123330   1.968   4.171   2.712  1.2955 -1.7294 -0.0165
 3956SOL    HW223331   2.012   4.173   2.573  0.4178 -0.3347  0.1761
 3957SOL     OW23332   3.686   2.121   6.746  0.1386 -0.1916  0.3691
 3957SOL    HW123333   3.736   2.083   6.818 -1.3842 -0.2914  1.3955
 3957SOL    HW223334   3.732   2.203   6.729 -0.2728  0.1335  0.8243
 3958SOL     OW23335   3.026   1.236  10.827  0.2663  0.5738  0.0749
 3958SOL    HW123336   2.966   1.284  10.770 -0.3092  0.3537  0.4881
 3958SOL    HW223337   3.038   1.159  10.772  2.3246  1.1304 -0.2575
 3959SOL     OW23338   4.019   1.174   2.364  0.3982 -0.7075  0.4069
 3959SOL    HW123339   4.084   1.243   2.351 -1.3020  0.5050 -1.6235
 3959SOL    HW223340   3.972   1.206   2.441  0.6640 -0.6760  0.5574
 3960SOL     OW23341   0.321   1.118  10.290  0.1205 -0.9436 -0.3671
 3960SOL    HW123342   0.391   1.064  10.325  1.3612  0.4218 -0.7281
 3960SOL    HW223343   0.354   1.121  10.200  0.0631 -1.6083 -0.4141
 3961SOL     OW23344   1.761   1.103   5.364 -0.4619  0.1322  0.1717
 3961SOL    HW123345   1.687   1.163   5.355 -0.6263 -0.1621 -0.4244
 3961SOL    HW223346   1.824   1.160   5.408 -1.1057  0.9306  0.0766
 3962SOL     OW23347   3.226   3.364  10.497 -0.9378  0.0812 -0.3507
 3962SOL    HW123348   3.142   3.319  10.512 -0.8153  0.3819  1.2510
 3962SOL    HW223349   3.251   3.388  10.586  3.1739 -1.5012 -1.0579
 3963SOL     OW23350   1.858   2.784   6.704 -0.3278  0.5181 -0.5222
 3963SOL    HW123351   1.806   2.708   6.678  0.4253  0.0849 -0.7453
 3963SOL    HW223352   1.864   2.833   6.622  0.0119  3.5931  1.3521
 3964SOL     OW23353   3.767   3.403   3.150  0.0933  0.1605  0.0420
 3964SOL    HW123354   3.725   3.317   3.156  1.7403 -0.8249 -2.8413
 3964SOL    HW223355   3.804   3.409   3.238 -2.8457  0.7967  1.2450
 3965SOL     OW23356   0.639   4.360   1.520  0.0374  0.4304 -0.2135
 3965SOL    HW123357   0.669   4.269   1.518 -0.8212  0.1494 -0.4427
 3965SOL    HW223358   0.619   4.382   1.429 -1.5706  1.3882  0.3557
 3966SOL     OW23359   0.901   1.816  17.534  0.0565 -0.2857 -0.5733
 3966SOL    HW123360   0.871   1.728  17.559 -1.8325  0.3510 -0.5486
 3966SOL    HW223361   0.881   1.863  17.615  1.4836 -1.3012  0.3707
 3967SOL     OW23362   4.112   2.935   8.343  0.2348 -0.3686  0.1131
 3967SOL    HW123363   4.135   2.842   8.345  2.1704  0.0861 -0.7727
 3967SOL    HW223364   4.019   2.928   8.323  0.0091 -2.2166  1.8520
 3968SOL     OW23365   1.029   2.272   6.286  0.2799 -0.0920  0.0621
 3968SOL    HW123366   1.116   2.276   6.325  0.1515  2.5431  0.0951
 3968SOL    HW223367   1.001   2.191   6.328  0.2022 -0.7140 -1.1834
 3969SOL     OW23368   1.537   1.173   5.789 -0.4028  0.4098 -0.5415
 3969SOL    HW123369   1.537   1.090   5.742 -0.5948  0.4217 -0.5632
 3969SOL    HW223370   1.590   1.156   5.866 -0.1766 -1.0085 -1.0072
 3970SOL     OW23371   1.508   4.680   7.221 -0.6619 -0.2281  0.2196
 3970SOL    HW123372   1.467   4.637   7.296 -2.3847 -0.0436 -0.6100
 3970SOL    HW223373   1.596   4.646   7.236 -0.5338  0.4152  0.9614
 3971SOL     OW23374   0.557   1.349  10.365 -0.1744 -0.3292 -0.3679
 3971SOL    HW123375   0.587   1.388  10.283  0.4309 -1.8831 -0.8987
 3971SOL    HW223376   0.589   1.261  10.342 -0.2495 -0.4414 -0.0446
 3972SOL     OW23377   4.257   0.827   9.194  0.0990 -0.6370 -0.5171
 3972SOL    HW123378   4.179   0.772   9.205  0.2358 -1.0009 -1.3671
 3972SOL    HW223379   4.325   0.760   9.202 -1.1062 -2.0900 -2.3469
 3973SOL     OW23380   2.193   4.644   7.030  0.1455  0.0108  0.5911
 3973SOL    HW123381   2.172   4.720   6.976 -0.6751 -0.5640  0.1133
 3973SOL    HW223382   2.157   4.580   6.969  0.8279 -1.4745  1.7593
 3974SOL     OW23383   4.036   0.825  10.058 -0.6078  0.1882 -0.3258
 3974SOL    HW123384   4.102   0.799   9.994  0.2686 -0.1825  0.7071
 3974SOL    HW223385   3.965   0.765  10.035  1.5878 -2.6687  0.3505
 3975SOL     OW23386   2.810   4.355   4.625  0.2886 -0.6653  0.2678
 3975SOL    HW123387   2.834   4.290   4.559  2.4488 -0.0802  0.4745
 3975SOL    HW223388   2.736   4.404   4.590  0.5805 -1.6158 -1.6993
 3976SOL     OW23389   2.720   2.605   8.369 -0.3889 -0.5659 -0.2692
 3976SOL    HW123390   2.672   2.554   8.303  0.6358  1.1891 -2.3700
 3976SOL    HW223391   2.717   2.549   8.447  0.5300  1.1486  0.9773
 3977SOL     OW23392   2.139   0.774   8.716  0.2493  0.4725  0.0666
 3977SOL    HW123393   2.213   0.789   8.658  0.5817 -0.5599  0.2268
 3977SOL    HW223394   2.179   0.798   8.800 -1.8513 -2.2262  1.8471
 3978SOL     OW23395   3.984   1.311   5.581  0.7194 -0.3564 -0.1203
 3978SOL    HW123396   4.020   1.364   5.653  0.1114 -3.0263  2.1338
 3978SOL    HW223397   4.019   1.366   5.510 -0.5624 -0.3419 -0.7263
 3979SOL     OW23398   3.025   4.250  17.663 -0.3910  0.5906 -0.1892
 3979SOL    HW123399   3.077   4.214   0.039  0.1505  0.0515 -0.8517
 3979SOL    HW223400   2.941   4.220   0.001 -0.5056  0.3172 -0.7087
 3980SOL     OW23401   1.889   2.635   0.386 -0.1121  0.7600  0.0289
 3980SOL    HW123402   1.980   2.651   0.412  0.4621 -1.3943 -0.6462
 3980SOL    HW223403   1.862   2.723   0.363  1.7861  0.8968 -1.7321
 3981SOL     OW23404   1.911   4.399  17.096 -0.0039  0.1291 -0.3202
 3981SOL    HW123405   1.919   4.465  17.027  0.2914  1.1187  0.6633
 3981SOL    HW223406   1.864   4.329  17.051 -2.5589 -0.6950  3.6583
 3982SOL     OW23407   3.236   4.309   6.155 -0.2223 -0.1843  0.0380
 3982SOL    HW123408   3.190   4.352   6.227 -1.7960  1.4484 -1.9508
 3982SOL    HW223409   3.302   4.376   6.137  3.8924 -3.3050  3.4155
 3983SOL     OW23410   1.729   3.812   9.242  0.2927 -0.0021 -0.0017
 3983SOL    HW123411   1.804   3.759   9.268 -0.8980 -1.4391  0.5367
 3983SOL    HW223412   1.692   3.853   9.321  1.8333  1.5593 -0.1089
 3984SOL     OW23413   3.654   3.458   3.561  0.4536 -0.5033 -0.0170
 3984SOL    HW123414   3.707   3.469   3.482  1.7020  0.1970  0.9224
 3984SOL    HW223415   3.724   3.480   3.623 -0.2617 -0.6369  0.8209
 3985SOL     OW23416   0.416   4.540  17.668  0.7622  0.1517  0.2744
 3985SOL    HW123417   0.347   4.474  17.663 -0.4155  1.6157 -2.2767
 3985SOL    HW223418   0.451   4.525   0.060 -0.7120  0.9050  0.9836
 3986SOL     OW23419   1.816   0.729   4.848 -0.4971 -0.4879  0.4959
 3986SOL    HW123420   1.774   0.810   4.876 -1.7307 -1.2767  0.9266
 3986SOL    HW223421   1.866   0.752   4.770 -1.6820  0.9579  0.1655
 3987SOL     OW23422   1.248   0.172  15.280 -0.4816 -0.1938 -0.1858
 3987SOL    HW123423   1.243   0.228  15.357 -0.4613 -0.1477 -0.2181
 3987SOL    HW223424   1.338   0.140  15.277  0.1975  1.8616 -2.1760
 3988SOL     OW23425   4.390   4.438  15.353  0.5837  0.0783 -0.4447
 3988SOL    HW123426   4.305   4.455  15.394  0.6919 -0.3759 -0.0312
 3988SOL    HW223427   4.428   4.378  15.417  0.4818 -2.3809 -2.6720
 3989SOL     OW23428   4.448   1.313   2.575  0.0845 -0.0847 -0.0427
 3989SOL    HW123429   4.501   1.292   2.499  0.1923  1.2575 -0.3473
 3989SOL    HW223430   4.501   1.385   2.609  0.1814  0.6714 -1.8305
 3990SOL     OW23431   4.653   0.078   3.795 -0.7479  0.4034 -0.2317
 3990SOL    HW123432   4.591   0.123   3.738 -0.0168 -0.6110 -1.8353
 3990SOL    HW223433   4.706   0.155   3.818 -1.4070  0.6716  0.3766
 3991SOL     OW23434   1.668   0.875   5.871 -0.4899 -0.0616 -0.2616
 3991SOL    HW123435   1.632   0.948   5.922  1.3916  0.1363  0.7670
 3991SOL    HW223436   1.758   0.900   5.850 -0.8986  0.7718 -1.0445
 3992SOL     OW23437   3.744   1.359   6.643 -0.2141  0.0181 -0.7092
 3992SOL    HW123438   3.747   1.276   6.595  0.4005 -0.6024  0.3946
 3992SOL    HW223439   3.776   1.327   6.727 -0.4514 -0.8726 -0.9554
 3993SOL     OW23440   3.288   1.841  17.294  0.5836 -0.0625 -0.1268
 3993SOL    HW123441   3.339   1.760  17.291  1.1165  0.2571  0.2454
 3993SOL    HW223442   3.302   1.887  17.212  0.7306 -1.2155 -0.7428
 3994SOL     OW23443   4.489   2.107   4.803 -0.3535  0.5194  0.4986
 3994SOL    HW123444   4.513   2.072   4.889 -3.0502 -2.3680  0.1174
 3994SOL    HW223445   4.491   2.030   4.745 -0.6891 -0.0081  1.1851
 3995SOL     OW23446   1.486   4.496  15.455 -0.0736  0.1366  0.7316
 3995SOL    HW123447   1.469   4.425  15.517  1.0116 -2.6942 -2.2294
 3995SOL    HW223448   1.535   4.451  15.386 -1.6047 -1.1629  0.4857
 3996SOL     OW23449   2.982   3.789  15.644  0.5315  0.3969  0.2578
 3996SOL    HW123450   2.968   3.712  15.589 -0.8531  1.2654 -0.6016
 3996SOL    HW223451   3.022   3.746  15.720 -0.0215 -0.4532  0.0706
 3997SOL     OW23452   2.583   4.040   3.560  0.3463  0.2218 -0.1851
 3997SOL    HW123453   2.605   3.947   3.564 -0.4575  0.0472  0.1989
 3997SOL    HW223454   2.571   4.037   3.465 -2.7137  3.2272  0.0938
 3998SOL     OW23455   3.422   1.398   6.912  0.0224  0.2942  0.1569
 3998SOL    HW123456   3.334   1.414   6.948 -0.3089  0.8842 -0.9339
 3998SOL    HW223457   3.426   1.483   6.868 -0.5593  1.6935  2.8046
 3999SOL     OW23458   0.949   2.984   3.016  0.0850 -0.4866 -0.1339
 3999SOL    HW123459   0.998   2.939   2.948 -0.1303 -1.2331  0.2120
 3999SOL    HW223460   0.861   3.004   2.985 -0.2504 -0.5704  0.7513
 4000SOL     OW23461   3.973   1.435  17.527 -0.0494  0.3765 -0.1345
 4000SOL    HW123462   3.938   1.520  17.500  1.1563  1.1626  0.8060
 4000SOL    HW223463   3.929   1.412  17.609 -1.3900 -2.1726 -1.5634
 4001SOL     OW23464   2.232   0.357   3.331  0.3750  0.3622 -0.5037
 4001SOL    HW123465   2.210   0.450   3.334 -0.3759  0.2558 -2.3087
 4001SOL    HW223466   2.147   0.330   3.298  0.2109 -0.8012  0.8670
 4002SOL     OW23467   3.541   0.214   4.088 -0.4859 -0.0101 -0.1926
 4002SOL    HW123468   3.536   0.263   4.170 -0.9173  0.4320 -0.4869
 4002SOL    HW223469   3.450   0.185   4.083  0.2470 -2.0645 -1.6839
 4003SOL     OW23470   0.215   4.037   8.570  0.7804 -0.3682 -0.7009
 4003SOL    HW123471   0.221   4.103   8.639 -3.2734 -0.4766 -0.2582
 4003SOL    HW223472   0.310   4.023   8.566  0.5713 -1.7725 -0.8180
 4004SOL     OW23473   4.533   0.355   4.874 -0.2396  0.1324 -0.8664
 4004SOL    HW123474   4.620   0.380   4.840 -0.4410 -0.5385 -1.8784
 4004SOL    HW223475   4.547   0.378   4.966  0.2933  1.5402 -1.2932
 4005SOL     OW23476   2.974   4.437   4.279 -0.3646  0.0522  0.8177
 4005SOL    HW123477   2.882   4.425   4.255 -0.0511 -0.7068 -0.0385
 4005SOL    HW223478   2.997   4.349   4.309  1.4197 -0.0453 -0.8297
 4006SOL     OW23479   3.395   4.708   6.607 -0.6398 -0.6246 -0.4144
 4006SOL    HW123480   3.399   4.688   6.701 -0.8937  2.3724  0.2448
 4006SOL    HW223481   3.459   4.646   6.573  0.6035 -0.0759  0.9157
 4007SOL     OW23482   0.278   0.067   2.726  0.5305  0.1884  0.0089
 4007SOL    HW123483   0.357   0.102   2.766  0.0155  2.1470 -0.6742
 4007SOL    HW223484   0.327   0.042   2.648  1.0258  1.4861 -0.0933
 4008SOL     OW23485   0.928   3.385   8.087 -0.2615 -0.0155  0.1712
 4008SOL    HW123486   0.855   3.323   8.083 -1.2839  1.2431 -0.6985
 4008SOL    HW223487   0.887   3.468   8.113  1.3963  0.8472  0.0334
 4009SOL     OW23488   1.932   2.466   2.373 -0.1581  0.4589 -0.1724
 4009SOL    HW123489   1.873   2.409   2.323  2.1378 -2.3666  0.3606
 4009SOL    HW223490   1.911   2.438   2.462  0.2251  0.6076 -0.0354
 4010SOL     OW23491   2.366   2.642  13.726  0.8595 -0.0219 -0.4194
 4010SOL    HW123492   2.316   2.657  13.806  0.1619 -0.6592 -0.7368
 4010SOL    HW223493   2.295   2.649  13.662  0.0326 -1.0007  0.3987
 4011SOL     OW23494   0.267   3.601   3.447  0.1177  0.1964 -0.1915
 4011SOL    HW123495   0.308   3.645   3.372 -0.5991 -0.7635 -1.1625
 4011SOL    HW223496   0.254   3.518   3.400  1.5243 -1.6332  2.6250
 4012SOL     OW23497   0.023   1.863   1.000 -0.0812 -0.3090  0.1098
 4012SOL    HW123498   4.664   1.906   1.021 -0.4355 -1.8572  1.7952
 4012SOL    HW223499   0.059   1.925   0.936  1.2994 -0.7687  0.4421
 4013SOL     OW23500   1.986   0.397   8.095  0.4598 -0.4338 -0.5824
 4013SOL    HW123501   1.987   0.482   8.051  1.3477  0.3044  0.8976
 4013SOL    HW223502   2.028   0.423   8.177 -1.4239 -0.7447  0.4862
 4014SOL     OW23503   1.122   0.525   3.584 -0.1049  0.4836 -0.0216
 4014SOL    HW123504   1.058   0.506   3.515  0.3889 -2.7517  0.3854
 4014SOL    HW223505   1.202   0.491   3.545 -0.6933  2.3619 -2.8611
 4015SOL     OW23506   3.107   4.224   7.465  0.5959 -0.0652 -0.1517
 4015SOL    HW123507   3.202   4.216   7.460  0.7481  2.7486 -1.9103
 4015SOL    HW223508   3.100   4.233   7.370  0.4780  0.7384 -0.0621
 4016SOL     OW23509   1.903   0.771   7.072  0.4346 -0.2482 -0.1392
 4016SOL    HW123510   1.887   0.695   7.016  0.3001 -0.1749 -0.2027
 4016SOL    HW223511   1.955   0.823   7.010 -2.2550  0.7132 -1.5865
 4017SOL     OW23512   3.835   3.480   0.216 -0.2171  0.0983 -0.0015
 4017SOL    HW123513   3.907   3.426   0.249  1.0770  1.3941 -0.7117
 4017SOL    HW223514   3.831   3.461   0.123  1.1108  1.7763 -0.4079
 4018SOL     OW23515   3.634   0.013   1.160  0.3066  0.1630 -0.3704
 4018SOL    HW123516   3.592   0.093   1.193 -0.1649  0.5164 -1.8214
 4018SOL    HW223517   3.721   0.042   1.133  0.8694  0.8322  2.1175
 4019SOL     OW23518   4.377   0.868   4.407  0.0236  0.1650  0.0096
 4019SOL    HW123519   4.335   0.792   4.447  0.8428  0.9417  2.3101
 4019SOL    HW223520   4.467   0.835   4.403 -0.1897 -0.4490  0.2956
 4020SOL     OW23521   3.099   1.817   4.102 -0.0205  0.0287 -0.0269
 4020SOL    HW123522   3.016   1.791   4.062 -1.2072  2.5537  0.8059
 4020SOL    HW223523   3.155   1.798   4.027  1.5471 -1.1759  1.4243
 4021SOL     OW23524   0.784   1.069   9.954 -0.0753  0.0801  0.0511
 4021SOL    HW123525   0.789   1.144  10.013 -0.1606 -0.5117  0.8049
 4021SOL    HW223526   0.787   1.113   9.869  0.8926 -2.4863 -1.2384
 4022SOL     OW23527   2.502   0.775   4.294 -0.1578  0.2332 -0.6096
 4022SOL    HW123528   2.594   0.749   4.284  0.4698  1.8267  0.9374
 4022SOL    HW223529   2.457   0.703   4.250 -1.0512  0.4918 -0.1077
 4023SOL     OW23530   2.452   0.198   2.370 -0.1493 -0.3539  0.2872
 4023SOL    HW123531   2.367   0.179   2.329 -0.8694  2.7116  0.3355
 4023SOL    HW223532   2.462   0.293   2.361  0.5550 -0.3288  1.3215
 4024SOL     OW23533   1.932   3.491   3.238 -0.4273 -0.2199 -0.2043
 4024SOL    HW123534   1.995   3.497   3.310 -2.2847 -1.6642  1.5289
 4024SOL    HW223535   1.951   3.398   3.226  0.7589  0.1408 -1.0811
 4025SOL     OW23536   3.509   0.630   3.474  0.0268  0.6821  0.3329
 4025SOL    HW123537   3.528   0.722   3.490  2.4164  0.3544 -0.6728
 4025SOL    HW223538   3.576   0.590   3.530  1.8120  1.3039 -1.3640
 4026SOL     OW23539   2.528   2.426   6.104  0.1296  0.3983 -0.4800
 4026SOL    HW123540   2.441   2.393   6.128 -0.5228  1.9839 -0.6342
 4026SOL    HW223541   2.510   2.519   6.086 -1.0879 -0.0988 -1.8077
 4027SOL     OW23542   2.903   0.390   5.385  0.5482  0.3835  0.4916
 4027SOL    HW123543   2.851   0.389   5.304  1.3225  1.8521 -0.0349
 4027SOL    HW223544   2.968   0.320   5.382 -0.1699 -0.2482 -0.2143
 4028SOL     OW23545   3.369   1.499   2.430  0.2494  0.1137  0.4143
 4028SOL    HW123546   3.309   1.516   2.357  1.5899 -2.4484 -1.2967
 4028SOL    HW223547   3.390   1.588   2.459 -2.3780  0.6848  0.5569
 4029SOL     OW23548   3.603   0.267   9.137 -0.0555 -0.3153 -0.2648
 4029SOL    HW123549   3.677   0.207   9.147  0.3742  0.3074  0.2756
 4029SOL    HW223550   3.538   0.207   9.173 -2.2042  2.4827  0.5360
 4030SOL     OW23551   4.315   0.182   2.970 -0.6783 -0.3665 -0.4662
 4030SOL    HW123552   4.385   0.147   3.025 -0.6228  0.5710  0.0587
 4030SOL    HW223553   4.370   0.222   2.903 -0.8466 -0.9996 -0.9909
 4031SOL     OW23554   1.406   0.253   9.095  0.1495  0.0554 -0.0100
 4031SOL    HW123555   1.414   0.182   9.159  1.1648 -1.9713 -2.3605
 4031SOL    HW223556   1.445   0.329   9.139 -0.3470  1.3570 -1.8166
 4032SOL     OW23557   2.281   3.325   5.445  0.3104  0.2303  0.3236
 4032SOL    HW123558   2.211   3.384   5.471  0.7495  2.3066 -3.1851
 4032SOL    HW223559   2.304   3.279   5.525  1.0797  1.5628  0.8789
 4033SOL     OW23560   2.376   3.436   7.456  0.5626  0.0679  0.4183
 4033SOL    HW123561   2.366   3.352   7.410 -1.9767  1.5752 -1.7699
 4033SOL    HW223562   2.471   3.437   7.467  0.5618  0.5594  0.3705
 4034SOL     OW23563   4.026   1.518   3.435 -0.4574 -0.0909 -0.1770
 4034SOL    HW123564   4.085   1.488   3.366 -0.8606 -1.1689 -0.0532
 4034SOL    HW223565   3.993   1.599   3.395 -2.0543 -0.9991 -0.6834
 4035SOL     OW23566   0.025   0.842  13.416  0.0956  0.0517 -0.7599
 4035SOL    HW123567   4.665   0.814  13.380 -0.4994  1.0338 -0.1463
 4035SOL    HW223568   0.050   0.758  13.455  4.2753  1.9502  0.6790
 4036SOL     OW23569   0.305   3.369   1.715 -0.1691  0.3039 -0.1304
 4036SOL    HW123570   0.347   3.361   1.630  0.5368 -0.4573  0.2851
 4036SOL    HW223571   0.349   3.302   1.768 -0.6273 -1.3499 -1.8540
 4037SOL     OW23572   3.830   2.063   9.907 -0.2537  0.3148 -0.1244
 4037SOL    HW123573   3.851   1.992   9.967  0.2928 -1.1809 -2.1052
 4037SOL    HW223574   3.792   2.136   9.956  2.0416  1.7661 -0.5365
 4038SOL     OW23575   2.990   4.013   7.588  0.1046 -0.2072  0.2225
 4038SOL    HW123576   2.907   4.058   7.572 -0.3559 -0.7523  1.0556
 4038SOL    HW223577   3.054   4.084   7.584  0.5064 -0.4917  1.5894
 4039SOL     OW23578   0.499   4.567   3.640  0.8291  0.3594 -0.3470
 4039SOL    HW123579   0.462   4.561   3.552  1.0588  0.2569 -0.4345
 4039SOL    HW223580   0.564   4.636   3.624  0.3901  0.6372 -0.9178
 4040SOL     OW23581   4.216   4.698   0.048 -0.0880  0.5839 -0.1802
 4040SOL    HW123582   4.205   0.041   0.116  0.0065  0.8445 -0.4174
 4040SOL    HW223583   4.282   4.641   0.086  0.7707  0.5321 -1.7834
 4041SOL     OW23584   3.715   0.330   1.793  0.4497  0.4379  0.5590
 4041SOL    HW123585   3.708   0.306   1.885 -2.1637  0.7999  0.4510
 4041SOL    HW223586   3.801   0.295   1.770  0.4247 -0.5212  1.9430
 4042SOL     OW23587   1.881   0.957   1.442 -0.0102  0.2774  0.0601
 4042SOL    HW123588   1.819   0.924   1.507 -0.6075 -2.4648 -1.8985
 4042SOL    HW223589   1.913   1.042   1.472 -0.8593  0.3188  0.8499
 4043SOL     OW23590   2.914   4.718   4.810  0.0773  0.0652  0.0913
 4043SOL    HW123591   2.970   4.647   4.779  1.9172  1.7613 -0.4919
 4043SOL    HW223592   2.987   0.054   4.829 -0.8110  0.3211  2.7151
 4044SOL     OW23593   1.290   0.849  12.004 -0.2989 -0.5412 -0.4197
 4044SOL    HW123594   1.292   0.893  12.089  2.4944 -0.7731 -0.3766
 4044SOL    HW223595   1.326   0.769  12.041  1.9768  0.6381 -0.0547
 4045SOL     OW23596   0.645   2.418  12.461  0.5007 -0.5613  0.2645
 4045SOL    HW123597   0.730   2.456  12.485  0.2234  0.2239  0.0036
 4045SOL    HW223598   0.597   2.395  12.541  0.9373 -1.2973  0.3207
 4046SOL     OW23599   4.227   2.862   4.565  0.1326 -0.2441 -0.2551
 4046SOL    HW123600   4.292   2.794   4.544 -0.0721 -0.6549  0.4525
 4046SOL    HW223601   4.150   2.814   4.594 -0.7463 -0.5743 -3.1804
 4047SOL     OW23602   3.672   1.762   7.746  0.1507  0.1791  0.0180
 4047SOL    HW123603   3.725   1.759   7.666  0.8701  0.5013  0.4826
 4047SOL    HW223604   3.674   1.857   7.756  0.7220  0.2098 -0.3792
 4048SOL     OW23605   4.081   0.462   1.763 -0.2164  0.5557 -0.2348
 4048SOL    HW123606   4.048   0.373   1.769 -1.6342  1.1107  0.2343
 4048SOL    HW223607   4.008   0.522   1.777  1.0042  2.8205 -3.4430
 4049SOL     OW23608   3.921   0.283   3.933 -0.2270 -0.2140 -0.0344
 4049SOL    HW123609   3.951   0.360   3.885  0.2316 -0.8519 -0.7659
 4049SOL    HW223610   3.847   0.257   3.877  0.0113 -1.4344  0.2047
 4050SOL     OW23611   3.009   2.814  16.687 -0.3681  0.1443  0.4260
 4050SOL    HW123612   2.933   2.755  16.683  0.5672 -1.2367  2.9374
 4050SOL    HW223613   3.041   2.805  16.777 -3.5579  0.4170  1.6003
 4051SOL     OW23614   4.227   0.433   7.380  0.2759 -0.0071 -0.0464
 4051SOL    HW123615   4.311   0.437   7.425  1.3276  0.6549 -2.0323
 4051SOL    HW223616   4.255   0.424   7.289  0.7999 -0.7923  0.1923
 4052SOL     OW23617   1.195   4.044  13.092  0.3618 -0.4944  0.0904
 4052SOL    HW123618   1.246   4.018  13.015  0.1364  0.3221 -0.3317
 4052SOL    HW223619   1.128   3.977  13.077 -0.9162  1.2770 -2.0826
 4053SOL     OW23620   4.182   4.628   7.356 -0.0521 -0.1545 -0.1895
 4053SOL    HW123621   4.096   4.591   7.338 -0.0133  0.2253 -1.1482
 4053SOL    HW223622   4.164   4.717   7.324  1.0563  0.1841  0.1341
 4054SOL     OW23623   0.500   2.876  12.944  0.7389  0.0304  0.4672
 4054SOL    HW123624   0.592   2.849  12.949  0.3182 -1.3343  0.7232
 4054SOL    HW223625   0.473   2.872  13.035 -0.6720  1.1761  0.1013
 4055SOL     OW23626   0.321   0.414  16.765 -0.0750 -0.6779  0.1806
 4055SOL    HW123627   0.292   0.460  16.686 -0.3433  0.5689  1.0064
 4055SOL    HW223628   0.416   0.404  16.752  0.2215  2.4022 -0.0448
 4056SOL     OW23629   2.675   1.994   7.421  0.0092  0.4468  1.1280
 4056SOL    HW123630   2.695   2.058   7.353 -0.8301 -0.5351 -0.0217
 4056SOL    HW223631   2.649   2.057   7.488 -0.2721  2.4654 -0.8966
 4057SOL     OW23632   1.959   0.950   4.145 -0.6081  0.0041 -0.0288
 4057SOL    HW123633   1.886   0.902   4.104  0.2844 -0.0192 -1.5822
 4057SOL    HW223634   2.033   0.924   4.091  0.1143  1.8277  0.1105
 4058SOL     OW23635   1.107   0.198  11.702  0.1096 -0.4949  0.5529
 4058SOL    HW123636   1.193   0.223  11.666 -0.7016  1.2693 -0.1450
 4058SOL    HW223637   1.073   0.135  11.638 -2.0759  0.9744  0.2768
 4059SOL     OW23638   1.534   1.716   3.691 -0.2174 -0.3436 -0.0753
 4059SOL    HW123639   1.584   1.797   3.703 -0.2586 -0.0760 -1.6351
 4059SOL    HW223640   1.580   1.688   3.612 -1.4232 -0.5995 -0.6834
 4060SOL     OW23641   0.321   2.434   2.866 -0.0984 -0.1504 -0.3844
 4060SOL    HW123642   0.299   2.500   2.800 -0.8523 -0.0908 -0.0728
 4060SOL    HW223643   0.397   2.404   2.816  0.4229 -1.0836  0.9662
 4061SOL     OW23644   3.122   1.516   1.165 -0.0130  0.1042 -0.4323
 4061SOL    HW123645   3.153   1.606   1.157  0.1057  0.3821  3.4132
 4061SOL    HW223646   3.178   1.485   1.235 -1.6854  0.7597  1.1900
 4062SOL     OW23647   2.657   1.461  16.917  0.6373  1.0411 -0.0579
 4062SOL    HW123648   2.586   1.459  16.981  1.6932  0.7359  1.0753
 4062SOL    HW223649   2.617   1.429  16.836 -0.3456 -2.8022  1.9155
 4063SOL     OW23650   3.209   0.759   7.987 -0.0782 -0.0330  0.6565
 4063SOL    HW123651   3.222   0.669   7.957  2.2754  0.6255 -0.3244
 4063SOL    HW223652   3.193   0.746   8.080 -3.1503 -1.2347 -0.0288
 4064SOL     OW23653   3.701   0.504  15.438  0.2310  0.0351  0.5069
 4064SOL    HW123654   3.778   0.497  15.494 -0.8858 -0.7818  1.9274
 4064SOL    HW223655   3.669   0.417  15.460  0.2661  0.4436  2.1149
 4065SOL     OW23656   2.818   0.972   6.414 -0.0002 -0.1170  0.0349
 4065SOL    HW123657   2.783   1.058   6.391 -0.6287 -0.3093  0.2673
 4065SOL    HW223658   2.785   0.925   6.338  1.4377  0.9586 -1.2460
 4066SOL     OW23659   2.799   1.986   4.564 -0.6322  0.4573  0.3955
 4066SOL    HW123660   2.879   1.999   4.514  0.9455 -1.0622  2.5086
 4066SOL    HW223661   2.840   1.931   4.632 -0.0187 -0.0721 -0.4067
 4067SOL     OW23662   1.127   3.429   5.258  0.2950  0.0252  0.1490
 4067SOL    HW123663   1.218   3.401   5.263  1.0353  3.2470  4.4701
 4067SOL    HW223664   1.107   3.419   5.165  1.6006  1.8437 -0.3316
 4068SOL     OW23665   0.982   0.312   0.794 -0.0737 -0.4534 -0.0558
 4068SOL    HW123666   1.068   0.273   0.809 -0.4517 -1.5185 -0.6872
 4068SOL    HW223667   0.976   0.306   0.699  1.6919  0.2736 -0.2263
 4069SOL     OW23668   4.562   0.259  12.626  0.2847 -0.0238 -0.0202
 4069SOL    HW123669   4.575   0.344  12.585  1.8942  0.3551  1.2721
 4069SOL    HW223670   4.499   0.217  12.567  0.7552 -1.4324  0.4601
 4070SOL     OW23671   0.604   4.239   2.212 -0.4109 -0.2686  0.4765
 4070SOL    HW123672   0.590   4.314   2.155 -1.4270  0.5304  1.7683
 4070SOL    HW223673   0.668   4.187   2.164 -0.4561 -1.2882  1.5182
 4071SOL     OW23674   1.899   4.487   7.928  0.3159 -0.3331  0.3728
 4071SOL    HW123675   1.828   4.543   7.959  0.4330  0.9915 -1.6843
 4071SOL    HW223676   1.858   4.436   7.858  1.0668  0.2760 -0.5075
 4072SOL     OW23677   1.557   3.371  10.567  0.4734  0.2601  0.0508
 4072SOL    HW123678   1.625   3.319  10.610 -0.8607 -0.2886  1.4869
 4072SOL    HW223679   1.582   3.365  10.475  0.6363 -1.3222  0.2001
 4073SOL     OW23680   0.730   0.965   3.405 -0.1950 -0.0387 -0.5158
 4073SOL    HW123681   0.822   0.941   3.422  0.0499  2.3663  1.4746
 4073SOL    HW223682   0.746   1.054   3.436 -0.8043  0.2793 -1.1081
 4074SOL     OW23683   1.511   2.768   1.674 -0.3996  0.2078 -0.7503
 4074SOL    HW123684   1.547   2.857   1.669 -1.8947  0.9664  1.7308
 4074SOL    HW223685   1.553   2.736   1.753 -0.3038 -0.0624 -0.9125
 4075SOL     OW23686   0.111   3.566   5.800 -0.5149  0.0452 -0.2672
 4075SOL    HW123687   0.110   3.520   5.884  0.0226  1.5118  0.5430
 4075SOL    HW223688   0.102   3.656   5.830 -2.6791 -0.7916  1.6634
 4076SOL     OW23689   3.389   3.801   3.104 -0.0884  0.4000  0.2583
 4076SOL    HW123690   3.415   3.876   3.050 -1.6151  0.9227  0.2470
 4076SOL    HW223691   3.464   3.787   3.163  0.3384 -2.1530 -0.8950
 4077SOL     OW23692   2.380   0.258  11.288 -0.4668 -0.4416 -0.3122
 4077SOL    HW123693   2.340   0.341  11.264  0.8228 -0.1057 -1.2987
 4077SOL    HW223694   2.332   0.196  11.233 -0.4266  0.0399 -0.8762
 4078SOL     OW23695   3.416   0.593   5.727  0.2339 -0.4088  0.3440
 4078SOL    HW123696   3.470   0.516   5.712  0.7249 -0.0328  0.1926
 4078SOL    HW223697   3.444   0.649   5.655 -0.7940  1.4323  1.3595
 4079SOL     OW23698   4.015   3.044   4.264  0.4067 -0.8047  0.3773
 4079SOL    HW123699   4.057   2.967   4.302 -1.1373 -1.2835  1.1111
 4079SOL    HW223700   4.092   3.074   4.217  0.8865  0.5745  2.0716
 4080SOL     OW23701   1.791   3.231  13.607 -0.4856 -0.0997 -0.6530
 4080SOL    HW123702   1.820   3.321  13.590 -0.3928  0.3185  1.8104
 4080SOL    HW223703   1.851   3.179  13.553 -0.0852 -1.5386  1.1813
 4081SOL     OW23704   3.641   3.608   9.898 -0.0349 -0.1517 -0.0269
 4081SOL    HW123705   3.570   3.596   9.961  2.1334  0.2745  2.5103
 4081SOL    HW223706   3.705   3.559   9.950  0.1084  0.0222 -0.0419
 4082SOL     OW23707   1.400   1.686   6.913 -0.3787  0.6378 -0.1520
 4082SOL    HW123708   1.326   1.669   6.854 -0.4596 -0.3848  0.2524
 4082SOL    HW223709   1.468   1.713   6.852  3.5330 -2.4245  2.8973
 4083SOL     OW23710   0.016   2.786   4.353 -0.3086  0.5956  0.0488
 4083SOL    HW123711   4.676   2.857   4.343 -1.2314 -0.4555 -1.5599
 4083SOL    HW223712   0.062   2.808   4.271  1.4089  1.0545  1.1307
 4084SOL     OW23713   2.992   3.448   5.922  0.4302 -0.1079  0.2903
 4084SOL    HW123714   2.909   3.477   5.883  0.4371 -0.9695 -0.3514
 4084SOL    HW223715   3.041   3.426   5.843  1.7584 -0.2317  1.1404
 4085SOL     OW23716   1.203   4.499   0.704  0.1847 -0.0792 -0.4561
 4085SOL    HW123717   1.276   4.485   0.644  0.5478  1.2234 -0.3060
 4085SOL    HW223718   1.133   4.526   0.644  0.0179 -1.8986 -1.0792
 4086SOL     OW23719   3.846   2.015   9.279 -0.2627 -0.6205 -0.4521
 4086SOL    HW123720   3.761   2.047   9.250 -0.1029  0.7390  0.5683
 4086SOL    HW223721   3.887   2.101   9.286  2.3871 -1.6807 -2.7816
 4087SOL     OW23722   3.373   0.128   1.890 -0.2377  0.0806  0.0787
 4087SOL    HW123723   3.435   0.145   1.961 -1.4792 -0.5584  1.3178
 4087SOL    HW223724   3.364   0.216   1.854  1.6435 -0.3192 -1.3586
 4088SOL     OW23725   2.662   2.372  13.412  0.0380 -0.4166 -0.2895
 4088SOL    HW123726   2.716   2.449  13.431  1.2557 -1.5828  1.0438
 4088SOL    HW223727   2.574   2.407  13.415  0.4164  0.3235  2.9731
 4089SOL     OW23728   0.096   2.975   2.999  0.5737  0.0307  0.2946
 4089SOL    HW123729   0.048   2.895   3.021  2.2859 -1.0203  0.2451
 4089SOL    HW223730   0.028   3.035   2.969 -0.8108 -1.4905  0.3935
 4090SOL     OW23731   3.457   2.946   3.945  0.7986  0.3418 -0.5238
 4090SOL    HW123732   3.476   2.998   3.866 -4.5231 -0.4670 -2.3131
 4090SOL    HW223733   3.502   2.999   4.011  1.0524  0.8198 -1.0799
 4091SOL     OW23734   0.451   2.260   1.521  0.2905 -0.0596 -0.4897
 4091SOL    HW123735   0.383   2.245   1.456 -0.6082  2.0323 -0.0153
 4091SOL    HW223736   0.528   2.271   1.465  1.5809  0.5475  1.4085
 4092SOL     OW23737   2.581   3.629   8.247  0.1324  0.1636  0.3343
 4092SOL    HW123738   2.640   3.569   8.202 -1.8587 -2.7461  1.6055
 4092SOL    HW223739   2.524   3.568   8.294 -0.8146  2.2444  1.9170
 4093SOL     OW23740   0.137   1.680   7.060 -0.2478 -0.5983 -0.0528
 4093SOL    HW123741   0.200   1.666   6.989  3.4723  2.2596  2.7234
 4093SOL    HW223742   0.190   1.703   7.136 -1.8290  1.6842  0.3578
 4094SOL     OW23743   1.444   2.532  17.534  0.1228  0.2948  0.2305
 4094SOL    HW123744   1.355   2.564  17.519  0.1611 -0.0361 -0.6761
 4094SOL    HW223745   1.431   2.440  17.510 -2.2960  0.8256 -0.5389
 4095SOL     OW23746   3.924   2.049   4.046  0.0418 -0.0071 -0.3342
 4095SOL    HW123747   4.017   2.027   4.043 -0.0864 -0.1956 -2.9242
 4095SOL    HW223748   3.902   1.973   4.099 -1.2564 -0.9528 -2.2154
 4096SOL     OW23749   3.038   2.532   5.324 -0.1470  0.3019  0.4090
 4096SOL    HW123750   3.054   2.478   5.402  0.1331  2.8259  2.0936
 4096SOL    HW223751   2.978   2.479   5.271  2.4196 -1.1831 -0.9942
 4097SOL     OW23752   0.553   2.052   9.848 -0.0754  0.3586  0.5837
 4097SOL    HW123753   0.491   1.998   9.799  0.9707 -0.5017  0.2132
 4097SOL    HW223754   0.510   2.050   9.933 -0.2700 -1.7975  0.4321
 4098SOL     OW23755   3.907   3.314   4.176  0.0993 -0.1212  0.4623
 4098SOL    HW123756   3.880   3.258   4.104  0.7347 -0.6499  0.6364
 4098SOL    HW223757   4.002   3.311   4.170 -0.0045 -1.8362 -0.4696
 4099SOL     OW23758   0.279   0.936  14.194  0.3534  0.3914 -0.0794
 4099SOL    HW123759   0.323   0.856  14.222 -3.1349 -0.9091  1.6304
 4099SOL    HW223760   0.327   0.994  14.254  0.5587  3.2297 -3.0090
 4100SOL     OW23761   4.409   3.081  10.244  0.0111  0.0528 -0.3857
 4100SOL    HW123762   4.392   3.126  10.327 -0.4058  1.7476 -1.3912
 4100SOL    HW223763   4.388   2.992  10.274 -0.0632  0.0101 -0.5628
 4101SOL     OW23764   0.468   0.118   2.550  0.4541  0.2193 -0.2172
 4101SOL    HW123765   0.468   0.097   2.456 -0.1874 -0.6385 -0.0328
 4101SOL    HW223766   0.563   0.117   2.560  0.4350 -2.4023 -0.2933
 4102SOL     OW23767   3.296   1.637  13.328 -0.0456 -0.0571 -0.3745
 4102SOL    HW123768   3.286   1.700  13.399  1.2799 -0.9917  0.6648
 4102SOL    HW223769   3.385   1.611  13.355 -0.3948  0.0809  0.9432
 4103SOL     OW23770   2.026   0.149   0.500  0.3015  0.1574  0.6045
 4103SOL    HW123771   2.014   0.208   0.426 -0.4303  0.9591  1.3569
 4103SOL    HW223772   2.103   0.197   0.528 -0.2500  1.6051 -0.3342
 4104SOL     OW23773   4.612   0.167   5.906 -0.1990  0.2456  0.1192
 4104SOL    HW123774   4.580   0.111   5.977  1.6401 -0.5532  0.3226
 4104SOL    HW223775   4.576   0.119   5.832 -0.4299 -2.2459  1.8316
 4105SOL     OW23776   4.530   2.235   3.723  0.3022 -0.5706  0.0073
 4105SOL    HW123777   4.563   2.191   3.645  0.6726 -1.9370  0.9491
 4105SOL    HW223778   4.474   2.298   3.676 -2.0751 -0.9450  2.3300
 4106SOL     OW23779   1.789   4.105  10.255  0.5123  0.1368 -0.3280
 4106SOL    HW123780   1.737   4.053  10.317  1.3005  2.4929  2.2954
 4106SOL    HW223781   1.826   4.168  10.316 -1.8913  0.2035  1.0600
 4107SOL     OW23782   0.964   0.591  16.189  0.0302 -0.2797  1.0850
 4107SOL    HW123783   0.953   0.682  16.217 -0.9500 -0.2772  0.7018
 4107SOL    HW223784   0.893   0.545  16.234 -0.6000 -1.1134 -0.7682
 4108SOL     OW23785   0.029   4.691   7.173 -0.1578 -0.3065 -0.1359
 4108SOL    HW123786   0.063   4.602   7.162 -1.7135 -0.8165 -0.7426
 4108SOL    HW223787   4.666   4.686   7.134  0.2449 -1.7553 -0.8431
 4109SOL     OW23788   3.821   0.176   7.544  0.2458  0.4362 -0.4938
 4109SOL    HW123789   3.774   0.113   7.489 -1.8759  0.8554  0.8060
 4109SOL    HW223790   3.783   0.147   7.627  1.3637  2.5273  0.7427
 4110SOL     OW23791   4.619   4.487   6.555  0.6976  0.2480  0.4648
 4110SOL    HW123792   4.630   4.420   6.622  1.3994  1.3337  1.4423
 4110SOL    HW223793   4.688   4.460   6.494 -1.1175  1.1684 -2.0038
 4111SOL     OW23794   2.788   1.334  15.270 -0.0654 -0.5063 -0.0637
 4111SOL    HW123795   2.780   1.429  15.276 -1.8647 -0.4662 -3.4030
 4111SOL    HW223796   2.755   1.334  15.180 -0.2390 -2.0713  0.0056
 4112SOL     OW23797   1.779   1.573   6.338  0.1100  0.1698  0.1620
 4112SOL    HW123798   1.696   1.600   6.299  1.6646  1.0031 -2.5833
 4112SOL    HW223799   1.790   1.494   6.286 -0.5910 -1.2745  2.2214
 4113SOL     OW23800   2.271   4.003  17.104 -0.1827  0.4922  0.0706
 4113SOL    HW123801   2.177   3.987  17.096 -0.0554 -0.0751 -0.2654
 4113SOL    HW223802   2.255   4.097  17.117 -0.7162  0.6348 -1.6445
 4114SOL     OW23803   3.155   4.670  17.088  0.0532 -0.4451  0.5139
 4114SOL    HW123804   3.157   4.664  17.183  0.1072  0.3667  0.5656
 4114SOL    HW223805   3.248   4.671  17.061  0.6924 -0.5279  2.7510
 4115SOL     OW23806   1.345   2.775   5.483  0.1466  0.1990 -0.0456
 4115SOL    HW123807   1.323   2.842   5.417  0.3999  1.3146  1.0114
 4115SOL    HW223808   1.260   2.750   5.521 -0.2866  0.2544 -0.9713
 4116SOL     OW23809   1.207   0.707  13.255 -0.3238 -0.1321 -0.1985
 4116SOL    HW123810   1.260   0.640  13.298  1.9879  1.6100 -0.2951
 4116SOL    HW223811   1.152   0.746  13.323 -0.0564 -0.0610 -0.0219
 4117SOL     OW23812   0.878   3.266  11.949 -0.8878 -0.0925  0.5609
 4117SOL    HW123813   0.945   3.329  11.921  0.7858 -0.8882  2.8012
 4117SOL    HW223814   0.849   3.234  11.864  0.6951  0.2257 -0.1044
 4118SOL     OW23815   0.807   4.397  15.592 -0.0146 -0.3505 -0.1986
 4118SOL    HW123816   0.900   4.376  15.595 -0.4394 -1.6637  3.0230
 4118SOL    HW223817   0.800   4.460  15.520  2.3895 -1.1906 -1.1623
 4119SOL     OW23818   0.714   2.322   6.241 -0.4193 -0.2022 -0.3153
 4119SOL    HW123819   0.733   2.229   6.254 -0.5681 -0.4797 -2.0329
 4119SOL    HW223820   0.680   2.345   6.328 -0.2361  0.1572 -0.3378
 4120SOL     OW23821   1.006   1.306   4.671  0.2554 -0.1489 -0.3236
 4120SOL    HW123822   1.016   1.214   4.695  0.5127 -0.5126 -1.7912
 4120SOL    HW223823   1.037   1.295   4.581  2.2295  0.4841  0.2973
 4121SOL     OW23824   1.312   1.093  11.014 -0.3774  0.0781 -0.1510
 4121SOL    HW123825   1.380   1.148  10.975 -0.7796  0.0343 -0.9081
 4121SOL    HW223826   1.242   1.087  10.949 -2.0021  1.6215  1.4704
 4122SOL     OW23827   2.555   0.161   8.946 -0.5656 -0.0433 -0.0510
 4122SOL    HW123828   2.643   0.160   8.982 -0.6416 -0.7867  0.1115
 4122SOL    HW223829   2.562   0.239   8.891  0.2222 -0.9529 -1.2302
 4123SOL     OW23830   1.402   4.414   8.528 -0.3898  0.0613  0.1156
 4123SOL    HW123831   1.465   4.469   8.481 -0.1379 -1.2992 -1.1245
 4123SOL    HW223832   1.366   4.462   8.602 -0.7507  1.0069 -0.6680
 4124SOL     OW23833   2.137   3.064   9.018 -0.2914 -0.2886 -0.5954
 4124SOL    HW123834   2.224   3.091   9.045  0.5506 -2.0359 -1.5511
 4124SOL    HW223835   2.091   3.055   9.101 -1.6911 -0.1599 -1.3537
 4125SOL     OW23836   0.137   3.489   2.070  0.2803 -0.3443 -0.2871
 4125SOL    HW123837   0.069   3.546   2.034  0.7037 -0.1367 -0.7512
 4125SOL    HW223838   0.085   3.408   2.068  0.7429 -0.6641  0.4673
 4126SOL     OW23839   3.994   1.778   5.106  0.2310  0.6288 -0.5195
 4126SOL    HW123840   3.976   1.685   5.087 -1.2020  0.8724 -0.3978
 4126SOL    HW223841   4.083   1.768   5.138  0.1453 -0.1099 -0.4907
 4127SOL     OW23842   4.129   0.176   4.515 -0.0196  0.6311  0.1010
 4127SOL    HW123843   4.116   0.081   4.506  2.0238  0.5230 -1.7243
 4127SOL    HW223844   4.180   0.190   4.595 -0.0128 -0.5623  0.3128
 4128SOL     OW23845   2.932   1.020   2.059  0.2788  0.5285  0.0687
 4128SOL    HW123846   2.989   1.095   2.042  1.6265 -0.5559 -0.1458
 4128SOL    HW223847   2.998   0.952   2.069 -0.3727 -0.0724  0.2723
 4129SOL     OW23848   0.916   1.812  15.286  0.7705 -0.0859 -0.0662
 4129SOL    HW123849   0.844   1.839  15.343 -0.5268  0.6371 -2.0079
 4129SOL    HW223850   0.906   1.717  15.286 -1.6016  0.1547  2.0932
 4130SOL     OW23851   4.291   0.202   4.746  0.8174  0.1421 -0.0735
 4130SOL    HW123852   4.212   0.249   4.773  1.8712  2.6867 -1.4336
 4130SOL    HW223853   4.357   0.253   4.793  1.8330 -1.0939 -0.1547
 4131SOL     OW23854   2.988   3.468  14.422 -0.3689 -0.3415  0.3366
 4131SOL    HW123855   2.972   3.551  14.377  1.8885 -0.7802 -1.2433
 4131SOL    HW223856   3.078   3.496  14.435  0.5040 -1.8046 -2.7154
 4132SOL     OW23857   3.780   2.308  14.488 -0.4293  0.5466 -0.4821
 4132SOL    HW123858   3.860   2.261  14.513 -1.5897  0.0720  2.3716
 4132SOL    HW223859   3.748   2.338  14.574 -0.5559  0.6710 -0.5718
 4133SOL     OW23860   4.235   2.476   2.591 -0.5910  0.5127  0.3194
 4133SOL    HW123861   4.185   2.421   2.532 -1.8165  1.0528  0.8530
 4133SOL    HW223862   4.322   2.470   2.552 -0.3105  1.7971  0.7481
 4134SOL     OW23863   3.897   3.929   4.243 -0.4744  0.3174 -0.2952
 4134SOL    HW123864   3.986   3.895   4.253 -0.8661  0.2948  3.1714
 4134SOL    HW223865   3.859   3.888   4.165 -0.0615  0.2068 -0.4404
 4135SOL     OW23866   3.798   1.734   9.439 -0.3287  0.0177 -0.2358
 4135SOL    HW123867   3.855   1.760   9.511 -0.0926  1.0440 -0.7912
 4135SOL    HW223868   3.776   1.815   9.393  3.2992  0.7376 -0.6998
 4136SOL     OW23869   0.173   1.692   0.673  0.0912  0.1871 -0.1154
 4136SOL    HW123870   0.158   1.723   0.584 -0.4559  0.0711 -0.0657
 4136SOL    HW223871   0.260   1.731   0.685 -0.1822  1.0192 -0.8928
 4137SOL     OW23872   3.670   1.735  16.452 -0.3228  0.4936  0.3843
 4137SOL    HW123873   3.724   1.732  16.373  0.0874 -3.0952  0.8408
 4137SOL    HW223874   3.631   1.822  16.460  0.2866  1.0295 -2.4621
 4138SOL     OW23875   1.516   2.959  13.038  0.0482  0.0281  0.0972
 4138SOL    HW123876   1.446   2.893  13.040 -1.3500  1.5529  1.5006
 4138SOL    HW223877   1.474   3.023  13.095 -0.1843  1.5189 -1.7248
 4139SOL     OW23878   1.403   3.132   4.150 -0.2400  0.2787  0.0409
 4139SOL    HW123879   1.412   3.223   4.120 -1.0904  0.6687  0.9681
 4139SOL    HW223880   1.312   3.135   4.179 -0.1752 -0.9355  0.3498
 4140SOL     OW23881   2.526   2.829   2.398  0.6636  0.3152 -1.2620
 4140SOL    HW123882   2.586   2.885   2.446  0.4190  0.2340 -0.8616
 4140SOL    HW223883   2.533   2.857   2.306  1.5501 -0.2956 -1.3823
 4141SOL     OW23884   4.447   2.681  17.529 -0.5448  0.4606 -0.0147
 4141SOL    HW123885   4.530   2.668  17.483 -0.1120  1.6899  0.4236
 4141SOL    HW223886   4.451   2.609  17.591 -1.0902 -0.7175 -1.3447
 4142SOL     OW23887   3.441   4.499  12.120 -0.5135  0.1521 -0.3067
 4142SOL    HW123888   3.459   4.408  12.142 -1.2369 -0.1365 -0.8973
 4142SOL    HW223889   3.482   4.551  12.188 -0.3340  1.4894 -1.4363
 4143SOL     OW23890   1.328   3.964   5.203  0.2372 -0.4140 -0.4551
 4143SOL    HW123891   1.378   3.936   5.126 -0.4073  1.0093 -1.3944
 4143SOL    HW223892   1.256   3.902   5.206 -1.0832  1.1328 -0.2646
 4144SOL     OW23893   3.006   1.619   7.949  0.1503 -0.4366  0.0818
 4144SOL    HW123894   3.031   1.706   7.981 -0.1442 -0.0699 -0.6788
 4144SOL    HW223895   3.018   1.624   7.854  1.6333  2.0395  0.3979
 4145SOL     OW23896   0.693   2.656   8.087 -0.3387  0.0567  0.5057
 4145SOL    HW123897   0.667   2.747   8.102 -0.3718 -0.1865  1.9533
 4145SOL    HW223898   0.757   2.664   8.158  1.5247  0.3932 -1.2299
 4146SOL     OW23899   1.487   3.901   4.427 -1.1316 -0.5273  0.3825
 4146SOL    HW123900   1.570   3.866   4.459 -0.2573  0.5658 -0.6747
 4146SOL    HW223901   1.523   3.965   4.366  0.0944 -0.1531  1.5017
 4147SOL     OW23902   3.464   4.588   1.856 -0.2130 -0.2146  0.5198
 4147SOL    HW123903   3.401   4.529   1.815  1.3818 -2.7150  1.6997
 4147SOL    HW223904   3.426   4.671   1.830  0.0450 -0.1197  0.4469
 4148SOL     OW23905   0.003   3.273   9.751 -0.2649 -0.1240  0.9621
 4148SOL    HW123906   4.697   3.235   9.668 -0.3468  0.9799  0.4827
 4148SOL    HW223907   0.042   3.200   9.800 -1.8100  0.0653  2.4871
 4149SOL     OW23908   1.269   4.553   0.953  0.5996  0.9747  0.2547
 4149SOL    HW123909   1.240   4.534   0.863  0.9559  1.0373  0.1278
 4149SOL    HW223910   1.179   4.562   0.986  0.5015 -0.9423  0.5075
 4150SOL     OW23911   0.232   4.168  10.347  1.0739 -0.6004 -0.0925
 4150SOL    HW123912   0.207   4.226  10.419 -0.0494  0.0312 -0.9745
 4150SOL    HW223913   0.302   4.119  10.388 -0.5693 -2.5966  0.3379
 4151SOL     OW23914   4.664   0.106   2.547 -0.3786  0.2424 -0.0755
 4151SOL    HW123915   4.679   0.178   2.486 -1.2201  1.0882  0.7121
 4151SOL    HW223916   0.024   0.076   2.583 -1.2541  0.3196  2.0474
 4152SOL     OW23917   1.758   3.332  16.251  0.1978 -0.8798  0.2191
 4152SOL    HW123918   1.830   3.283  16.290  0.9256 -1.0808 -1.3803
 4152SOL    HW223919   1.721   3.381  16.324  0.2043 -2.0677  1.0127
 4153SOL     OW23920   0.144   3.076   9.294  0.2256  0.3013  0.1114
 4153SOL    HW123921   0.069   3.018   9.280  0.3689  0.0374  0.4431
 4153SOL    HW223922   0.203   3.033   9.356 -0.7439  1.0558  1.5530
 4154SOL     OW23923   3.215   0.924   3.931 -0.0467  0.9220  0.5909
 4154SOL    HW123924   3.127   0.951   3.903 -0.3073 -1.1816 -0.6015
 4154SOL    HW223925   3.195   0.840   3.973  1.3217  0.6918  0.7953
 4155SOL     OW23926   1.556   2.436   6.305  0.0021 -0.2655  0.2046
 4155SOL    HW123927   1.583   2.427   6.214  1.1707 -1.7587  0.7127
 4155SOL    HW223928   1.630   2.402   6.355  1.6137  1.9261 -0.6997
 4156SOL     OW23929   3.277   2.376   4.058 -0.0615  0.6343  0.2842
 4156SOL    HW123930   3.251   2.438   4.125  1.5878  1.8166 -0.1587
 4156SOL    HW223931   3.238   2.297   4.095  3.3330 -0.5566  1.3646
 4157SOL     OW23932   2.369   4.487   0.473  0.2261 -0.0238 -0.1481
 4157SOL    HW123933   2.357   4.401   0.434  2.3645  0.5628 -2.0904
 4157SOL    HW223934   2.403   4.462   0.560 -0.6022 -0.2974  0.0958
 4158SOL     OW23935   3.904   0.927  11.693 -0.3894  0.0241 -0.4445
 4158SOL    HW123936   3.857   0.887  11.766  0.7023 -2.6843 -1.2459
 4158SOL    HW223937   3.829   0.934  11.633 -0.9024  1.1051  0.3151
 4159SOL     OW23938   4.482   0.861   3.141  0.4695  0.5144  0.4052
 4159SOL    HW123939   4.453   0.942   3.099 -2.6071 -0.8742 -0.0895
 4159SOL    HW223940   4.568   0.881   3.180 -0.8924  0.9788  3.1813
 4160SOL     OW23941   2.440   3.209   0.070 -0.3290  0.2687 -0.5943
 4160SOL    HW123942   2.522   3.223   0.118 -1.3773  2.4044  0.5563
 4160SOL    HW223943   2.406   3.127   0.106  0.4035 -0.0717 -0.6861
 4161SOL     OW23944   4.555   1.447  10.102 -0.0860  0.0471  0.4638
 4161SOL    HW123945   4.649   1.443  10.122  0.0468 -0.3405 -0.2325
 4161SOL    HW223946   4.548   1.364  10.055  2.2138 -0.7891  1.5659
 4162SOL     OW23947   1.209   2.042   2.003 -0.4426  0.3949  0.1988
 4162SOL    HW123948   1.122   2.032   1.963 -0.2603 -2.7663  0.5950
 4162SOL    HW223949   1.206   2.131   2.038  2.4454  0.1653  1.0036
 4163SOL     OW23950   3.185   2.470  15.384  0.3630  0.0082  0.0423
 4163SOL    HW123951   3.234   2.497  15.462  1.7606  1.2973 -1.2983
 4163SOL    HW223952   3.245   2.406  15.345 -0.9808 -0.6682 -0.8838
 4164SOL     OW23953   2.672   0.122  10.047  0.0686 -0.5050 -0.3269
 4164SOL    HW123954   2.585   0.083  10.040 -0.8717  1.5015  0.1845
 4164SOL    HW223955   2.677   0.174   9.967 -0.9008  1.1897  0.7207
 4165SOL     OW23956   0.203   3.036   5.528 -0.4179  0.0973  0.1255
 4165SOL    HW123957   0.199   3.078   5.614 -0.0791 -2.2430  1.2817
 4165SOL    HW223958   0.191   2.943   5.545  1.1019  0.0769  1.1519
 4166SOL     OW23959   2.095   0.447   8.474 -0.4554 -0.0160  0.5551
 4166SOL    HW123960   2.055   0.460   8.560  0.8447  2.3764  0.7868
 4166SOL    HW223961   2.099   0.538   8.443  0.1107 -0.1998  0.0815
 4167SOL     OW23962   2.696   0.422  16.157 -0.2141 -0.8742  0.3498
 4167SOL    HW123963   2.660   0.505  16.124  1.3305  0.4030  1.8589
 4167SOL    HW223964   2.666   0.410  16.247 -1.9901 -0.5101 -0.1860
 4168SOL     OW23965   2.360   0.642   8.261  0.0395  0.1665  0.1199
 4168SOL    HW123966   2.402   0.707   8.205 -0.6610  1.0325  0.6020
 4168SOL    HW223967   2.283   0.628   8.206  0.0718  0.2952  0.0423
 4169SOL     OW23968   4.121   0.667   8.623  0.1409  0.5071 -0.0775
 4169SOL    HW123969   4.212   0.682   8.599  0.3805 -0.1512  0.4109
 4169SOL    HW223970   4.125   0.674   8.719 -1.0554 -0.1954  0.0251
 4170SOL     OW23971   2.454   0.182   1.001 -0.8961  0.3032 -0.3511
 4170SOL    HW123972   2.443   0.167   0.907 -0.4790  2.7962 -0.7879
 4170SOL    HW223973   2.549   0.195   1.002 -0.8835  0.0788  4.1562
 4171SOL     OW23974   2.890   0.079  14.537 -0.0027  0.4638  0.0186
 4171SOL    HW123975   2.882   0.173  14.516  1.6469  0.2827 -1.3850
 4171SOL    HW223976   2.938   0.088  14.620 -0.1993  0.2520  0.1569
 4172SOL     OW23977   0.786   3.931   5.229 -0.4606  0.6559 -0.8460
 4172SOL    HW123978   0.746   3.933   5.316  0.8137 -3.8344 -0.1442
 4172SOL    HW223979   0.758   3.843   5.203 -1.6754  0.8488 -0.1391
 4173SOL     OW23980   1.679   3.991   1.854 -0.3223 -0.4314 -0.0664
 4173SOL    HW123981   1.588   3.984   1.826 -0.9903  0.7139  1.7986
 4173SOL    HW223982   1.658   4.022   1.942 -1.5656  1.2110 -0.9454
 4174SOL     OW23983   4.344   2.201   7.853 -0.2044 -0.3536 -0.4846
 4174SOL    HW123984   4.253   2.210   7.879 -0.5644 -1.6559 -1.3371
 4174SOL    HW223985   4.341   2.145   7.776 -0.5274  1.4134 -1.7661
 4175SOL     OW23986   3.464   0.563   1.694  0.2900 -0.1269 -0.9093
 4175SOL    HW123987   3.420   0.539   1.775 -1.5432  1.7607 -1.3334
 4175SOL    HW223988   3.381   0.601   1.666 -0.5222 -2.8845 -2.2114
 4176SOL     OW23989   1.583   0.333   3.678  0.6491  0.2519 -0.2597
 4176SOL    HW123990   1.662   0.370   3.636 -0.5599  2.8002 -0.2989
 4176SOL    HW223991   1.596   0.255   3.623  0.2736 -0.1683  0.2587
 4177SOL     OW23992   1.202   2.618   2.154 -0.4265 -0.3766 -0.0366
 4177SOL    HW123993   1.143   2.601   2.227 -0.4686  0.9274  0.2317
 4177SOL    HW223994   1.149   2.604   2.075 -2.6500  0.7157  1.2642
 4178SOL     OW23995   3.616   2.468   6.417  0.5200  0.0262  0.3581
 4178SOL    HW123996   3.525   2.495   6.434 -0.2431 -1.4742 -1.3623
 4178SOL    HW223997   3.656   2.486   6.502 -0.6941  1.8396  0.5436
 4179SOL     OW23998   0.310   4.528  16.386 -0.1374 -0.2441 -0.2236
 4179SOL    HW123999   0.360   4.447  16.377 -1.5607 -0.8748 -2.4962
 4179SOL    HW224000   0.364   4.568  16.455 -0.4403  2.8192 -1.7433
 4180SOL     OW24001   0.903   1.229   8.684 -0.0413  0.3480  0.0574
 4180SOL    HW124002   0.929   1.315   8.718 -0.4718 -0.1940  1.7664
 4180SOL    HW224003   0.817   1.204   8.718 -0.0926  0.9380  0.3664
 4181SOL     OW24004   0.750   0.221   4.380  0.1403  0.2449  0.3054
 4181SOL    HW124005   0.800   0.203   4.460 -0.9431  2.3586  1.4707
 4181SOL    HW224006   0.815   0.265   4.325 -1.2716 -0.2598 -1.7261
 4182SOL     OW24007   0.897   3.166  11.244  0.0095 -0.0300  0.1818
 4182SOL    HW124008   0.936   3.220  11.314  2.7540 -1.8201  0.0332
 4182SOL    HW224009   0.837   3.230  11.205  0.1334 -0.8045 -1.2677
 4183SOL     OW24010   4.556   3.420  14.434  0.7188 -0.0042 -0.3953
 4183SOL    HW124011   4.525   3.432  14.524 -0.5591  0.1900 -0.8645
 4183SOL    HW224012   4.622   3.484  14.407  0.8699 -0.2637 -0.6366
 4184SOL     OW24013   2.797   4.693  15.201 -0.2781  1.2397 -0.0924
 4184SOL    HW124014   2.703   4.673  15.203  0.5111 -2.7541 -2.3478
 4184SOL    HW224015   2.819   4.702  15.293 -2.0267 -1.8611  0.6481
 4185SOL     OW24016   3.641   2.832   5.744  0.2873 -0.7849 -0.3507
 4185SOL    HW124017   3.624   2.748   5.787 -1.0473  0.3058  1.2634
 4185SOL    HW224018   3.723   2.855   5.788  0.8423 -0.7756 -1.3806
 4186SOL     OW24019   2.372   1.422   2.717 -0.1336 -0.5787 -0.2914
 4186SOL    HW124020   2.430   1.372   2.774 -0.7568 -1.5002 -0.4567
 4186SOL    HW224021   2.416   1.506   2.715  0.6970 -0.9905  0.8758
 4187SOL     OW24022   3.968   3.533  13.565 -0.8277 -0.0937 -0.3681
 4187SOL    HW124023   3.910   3.567  13.633 -1.6859 -1.9791 -0.1525
 4187SOL    HW224024   4.042   3.590  13.585  0.4554 -1.5286 -0.9999
 4188SOL     OW24025   2.568   1.679   2.736  0.0557 -0.5855 -0.7445
 4188SOL    HW124026   2.548   1.724   2.818  0.2797  0.0633 -1.0432
 4188SOL    HW224027   2.650   1.642   2.767  0.1619 -0.3709 -0.7706
 4189SOL     OW24028   4.046   3.881   2.138  0.2141 -0.3668 -0.0964
 4189SOL    HW124029   4.073   3.868   2.047  1.8102  0.3529  0.2860
 4189SOL    HW224030   4.129   3.868   2.184 -0.8679 -3.7696  0.8958
 4190SOL     OW24031   2.533   3.378   7.733  0.1812  0.3501  0.5457
 4190SOL    HW124032   2.564   3.402   7.646  1.1964 -0.1415  0.7638
 4190SOL    HW224033   2.551   3.463   7.775  1.2731  0.6408 -0.5242
 4191SOL     OW24034   3.538   0.249  10.359  0.0165 -0.2333 -0.3619
 4191SOL    HW124035   3.619   0.209  10.389  0.1659  1.0312  0.9244
 4191SOL    HW224036   3.586   0.318  10.313  1.2468 -0.6492  0.2971
 4192SOL     OW24037   2.176   3.966   0.079  0.2528  0.5880 -0.2662
 4192SOL    HW124038   2.091   4.011   0.080 -0.9747 -1.6995 -0.9215
 4192SOL    HW224039   2.173   3.931  17.687 -0.7211 -0.9156  0.3611
 4193SOL     OW24040   1.054   1.881   7.770 -0.0445 -0.2975 -0.3051
 4193SOL    HW124041   1.117   1.811   7.789  2.1867  1.9537  0.4876
 4193SOL    HW224042   0.993   1.877   7.844 -0.0500  1.2333 -0.2395
 4194SOL     OW24043   2.386   1.351   3.838 -0.2839  0.3947 -0.0963
 4194SOL    HW124044   2.470   1.365   3.795  0.2440 -0.1093  0.7635
 4194SOL    HW224045   2.313   1.343   3.777  1.2280 -1.5583 -1.6543
 4195SOL     OW24046   2.621   4.304   4.376  0.2059  0.1364 -1.1001
 4195SOL    HW124047   2.683   4.233   4.397 -0.4126  0.4944  1.9624
 4195SOL    HW224048   2.596   4.282   4.286  0.2747  1.3266 -1.4097
 4196SOL     OW24049   3.938   4.099   4.808  0.2723  0.1474 -0.1664
 4196SOL    HW124050   4.003   4.033   4.831  0.5856 -0.0299 -1.5637
 4196SOL    HW224051   3.864   4.044   4.783  1.7925 -1.1212 -1.8662
 4197SOL     OW24052   2.136   1.622   4.287 -0.4225  0.2415 -0.0113
 4197SOL    HW124053   2.162   1.555   4.224  0.5387  0.0549  0.5876
 4197SOL    HW224054   2.101   1.565   4.356  0.7204 -0.0299  0.3381
 4198SOL     OW24055   4.354   0.090   9.589  0.2767 -0.3313 -0.0794
 4198SOL    HW124056   4.352   0.010   9.537 -0.2911 -0.8728  0.7858
 4198SOL    HW224057   4.361   0.158   9.521  1.1223  1.9587  2.2697
 4199SOL     OW24058   4.105   1.398   7.755  0.4994 -0.4762  0.1890
 4199SOL    HW124059   4.081   1.331   7.819  1.0982  0.1308  1.0586
 4199SOL    HW224060   4.201   1.391   7.752  0.4299 -1.1214 -0.5695
 4200SOL     OW24061   0.037   0.448  11.996 -0.0373  0.5846  0.1740
 4200SOL    HW124062   0.018   0.436  12.089 -2.0878  0.0644 -0.2990
 4200SOL    HW224063   0.102   0.517  12.010  1.0133 -0.4708  0.5340
 4201SOL     OW24064   0.747   3.433   2.466  0.1153 -0.7286  0.6896
 4201SOL    HW124065   0.834   3.448   2.431  0.5183  2.2434  2.9439
 4201SOL    HW224066   0.707   3.380   2.397  1.6340 -2.0612  0.8205
 4202SOL     OW24067   2.130   4.378   4.229 -0.0627 -0.0918  0.1844
 4202SOL    HW124068   2.067   4.310   4.209 -0.4211 -0.1291  1.4628
 4202SOL    HW224069   2.150   4.412   4.142  1.4408  1.5175  1.1465
 4203SOL     OW24070   3.137   3.272   8.697 -0.4224 -0.7070 -0.1871
 4203SOL    HW124071   3.100   3.184   8.695 -1.4275 -0.3029  0.8835
 4203SOL    HW224072   3.067   3.331   8.725  0.3425  0.9225 -1.7046
 4204SOL     OW24073   4.603   0.117   5.011  0.3008 -0.4662  0.1578
 4204SOL    HW124074   4.563   0.087   5.092 -0.7957  0.7600  0.0747
 4204SOL    HW224075   4.692   0.129   5.046  0.1447  0.3466  0.2858
 4205SOL     OW24076   0.032   4.109   8.978 -0.2912  0.5494  0.0249
 4205SOL    HW124077   0.024   4.157   9.061 -1.7435 -1.0494  0.8166
 4205SOL    HW224078   4.717   4.169   8.914 -0.5518  0.2444 -0.1053
 4206SOL     OW24079   1.283   3.205   6.401  0.0351  0.0695 -0.2542
 4206SOL    HW124080   1.317   3.284   6.358  1.2490 -0.4417 -0.2105
 4206SOL    HW224081   1.356   3.145   6.413  1.1719  1.3476 -0.7991
 4207SOL     OW24082   3.465   1.181   5.458  0.0568  0.0724  0.6779
 4207SOL    HW124083   3.402   1.207   5.390  0.6564  2.0009  0.8591
 4207SOL    HW224084   3.542   1.236   5.444  0.0846 -0.0015  0.5388
 4208SOL     OW24085   4.715   2.299   0.998  0.7297  0.4143  0.2431
 4208SOL    HW124086   4.641   2.276   0.942 -1.6158  2.8251  2.3634
 4208SOL    HW224087   0.011   2.389   0.973  1.8718 -0.1599 -0.8724
 4209SOL     OW24088   4.222   2.801   0.909  0.5043  0.3781 -0.6743
 4209SOL    HW124089   4.165   2.869   0.874  0.6291  0.3278 -0.9740
 4209SOL    HW224090   4.171   2.726   0.879 -1.5348  1.1141  0.9379
 4210SOL     OW24091   0.929   1.059   2.591 -0.6345  0.1667 -0.1927
 4210SOL    HW124092   0.894   1.104   2.514  0.0978  1.2666  0.1237
 4210SOL    HW224093   0.917   1.129   2.655 -1.7534 -0.0731 -0.1404
 4211SOL     OW24094   3.303   1.453   4.180 -0.3716 -0.0604  0.2693
 4211SOL    HW124095   3.216   1.444   4.140  0.5420  0.1059 -1.7243
 4211SOL    HW224096   3.353   1.463   4.100  0.5416 -1.8667  0.6088
 4212SOL     OW24097   3.207   0.706   6.921 -0.0368 -0.0044  0.2752
 4212SOL    HW124098   3.194   0.683   6.829 -3.3791 -0.3414  0.8615
 4212SOL    HW224099   3.292   0.665   6.936 -0.1727 -0.1740  0.5846
 4213SOL     OW24100   3.477   1.217   3.996  0.5238 -0.8495 -0.3884
 4213SOL    HW124101   3.481   1.240   4.089  0.5030  0.5575 -0.7317
 4213SOL    HW224102   3.507   1.128   4.015  0.2785 -0.3857  2.2011
 4214SOL     OW24103   4.155   3.406   4.423 -0.1893  0.2797 -0.5232
 4214SOL    HW124104   4.176   3.385   4.332  2.0444 -0.0796  0.0624
 4214SOL    HW224105   4.192   3.328   4.466  0.0998 -0.0283 -1.3382
 4215SOL     OW24106   1.598   0.653   3.408  0.2491  0.4770 -0.0606
 4215SOL    HW124107   1.691   0.629   3.410  0.1999  0.2784 -0.1513
 4215SOL    HW224108   1.573   0.607   3.328  1.4651 -0.3853  0.0491
 4216SOL     OW24109   3.422   4.639   6.875 -0.1521 -0.3365  0.2536
 4216SOL    HW124110   3.330   4.664   6.863  0.6922  2.2682 -0.8029
 4216SOL    HW224111   3.457   4.689   6.949  3.0198  0.5659 -1.8391
 4217SOL     OW24112   3.426   0.506  10.772 -0.4535 -0.0242 -0.2380
 4217SOL    HW124113   3.379   0.561  10.709 -0.6441  1.8727  1.5581
 4217SOL    HW224114   3.487   0.572  10.806 -0.8251  0.0380  0.3184
 4218SOL     OW24115   1.159   0.271   4.916  0.3094  0.0644 -0.2525
 4218SOL    HW124116   1.113   0.344   4.960 -1.0743  1.8918 -4.7688
 4218SOL    HW224117   1.186   0.321   4.839  0.0318  0.4677 -0.0933
 4219SOL     OW24118   3.047   1.926   7.576 -0.3803  0.2681 -0.5944
 4219SOL    HW124119   2.985   1.994   7.603 -1.1495 -1.0398  0.9649
 4219SOL    HW224120   2.990   1.849   7.583 -0.0746  0.1799  0.9026
 4220SOL     OW24121   2.212   3.688  11.914  0.0538  0.0657 -0.3282
 4220SOL    HW124122   2.170   3.701  11.999  1.4837  1.3185  0.1948
 4220SOL    HW224123   2.271   3.615  11.929  1.1489  0.9921 -0.1296
 4221SOL     OW24124   0.166   1.622   2.948 -0.0037 -0.0806 -0.2622
 4221SOL    HW124125   0.245   1.674   2.962  0.0301 -0.6879  1.7835
 4221SOL    HW224126   0.150   1.644   2.856 -2.4004  1.4501  0.5180
 4222SOL     OW24127   2.472   1.029   5.797 -0.4874 -0.1713 -0.3863
 4222SOL    HW124128   2.496   1.069   5.714 -3.0421 -0.6801 -1.3688
 4222SOL    HW224129   2.380   1.004   5.786 -0.7259  1.4991 -2.0982
 4223SOL     OW24130   2.326   0.713   8.952  0.0080  0.1178 -0.3159
 4223SOL    HW124131   2.400   0.664   8.916  0.0899  0.0580 -0.0632
 4223SOL    HW224132   2.299   0.672   9.034  1.1255  0.8328  0.4139
 4224SOL     OW24133   1.861   1.270  12.337 -0.5006  0.3222  0.7516
 4224SOL    HW124134   1.948   1.244  12.308 -0.9742  0.8377 -1.1614
 4224SOL    HW224135   1.833   1.321  12.261  1.1466  0.1138 -0.0081
 4225SOL     OW24136   4.388   4.433   3.788  0.1274 -0.7101 -0.7455
 4225SOL    HW124137   4.462   4.466   3.839 -0.6709  1.2257 -0.8177
 4225SOL    HW224138   4.358   4.519   3.757 -1.6844 -1.1883 -0.3002
 4226SOL     OW24139   1.439   3.616   0.697 -0.2443  0.4182  0.3629
 4226SOL    HW124140   1.423   3.524   0.719  0.0821  0.3451  0.3013
 4226SOL    HW224141   1.523   3.601   0.654  0.0661  3.3099 -0.0448
 4227SOL     OW24142   3.775   4.493   6.731 -0.0445 -0.3012  0.2764
 4227SOL    HW124143   3.804   4.413   6.775 -0.8221 -0.9545 -0.3978
 4227SOL    HW224144   3.827   4.557   6.778  0.9071 -1.6795  1.1188
 4228SOL     OW24145   0.282   3.949   6.564 -0.4063 -1.2983  0.0921
 4228SOL    HW124146   0.320   4.036   6.551 -2.0714 -0.7610 -1.2354
 4228SOL    HW224147   0.326   3.899   6.495  0.5620  0.2764 -0.4123
 4229SOL     OW24148   0.725   3.874  16.620 -0.0264 -0.3364  0.0859
 4229SOL    HW124149   0.787   3.807  16.590  0.2240  0.2224 -0.6289
 4229SOL    HW224150   0.661   3.815  16.660  0.5046 -0.2872  1.0218
 4230SOL     OW24151   3.076   1.117   6.422 -0.1924 -0.0501  0.3789
 4230SOL    HW124152   2.980   1.115   6.427 -0.2000 -0.2514  0.1116
 4230SOL    HW224153   3.086   1.103   6.328  0.3726 -0.1462  0.4524
 4231SOL     OW24154   4.009   1.118   8.450 -0.3719  0.3876 -0.1443
 4231SOL    HW124155   4.096   1.095   8.483 -1.1060 -1.8391  0.2396
 4231SOL    HW224156   3.970   1.034   8.473 -1.2620  1.7713  3.3362
 4232SOL     OW24157   3.127   2.422   8.147  0.2427  0.4567 -0.1865
 4232SOL    HW124158   3.190   2.481   8.104 -0.2039  0.3604 -0.9740
 4232SOL    HW224159   3.136   2.447   8.239  0.3693 -0.4799  0.0464
 4233SOL     OW24160   0.050   1.183   7.245  0.1230 -0.1630 -0.6622
 4233SOL    HW124161   0.006   1.166   7.328 -0.1906  0.0243 -0.7899
 4233SOL    HW224162   0.141   1.208   7.260 -0.6067  1.0324  1.7439
 4234SOL     OW24163   3.057   1.536   7.450  0.2495  0.4555 -0.0870
 4234SOL    HW124164   2.995   1.593   7.404  1.2144  1.6579  0.1055
 4234SOL    HW224165   3.108   1.513   7.372 -0.2079  0.2419 -0.3259
 4235SOL     OW24166   2.680   3.479  13.015  0.7946 -0.1810  0.2830
 4235SOL    HW124167   2.736   3.477  13.092 -1.5112 -1.0124  1.9422
 4235SOL    HW224168   2.600   3.530  13.028 -1.8607 -3.5250 -2.7977
 4236SOL     OW24169   4.515   4.264   5.216  0.2396  0.3889  0.1639
 4236SOL    HW124170   4.534   4.176   5.183 -0.7671 -0.0279  0.7061
 4236SOL    HW224171   4.573   4.315   5.159  0.1596 -1.2193 -1.3456
 4237SOL     OW24172   4.038   4.588   8.496  0.2027  0.1658 -0.1734
 4237SOL    HW124173   3.973   4.590   8.426  0.6322 -0.4372 -0.5871
 4237SOL    HW224174   4.000   4.528   8.560  0.8371  2.3122  2.2165
 4238SOL     OW24175   1.619   3.698   8.312 -0.2942 -0.0040  0.2267
 4238SOL    HW124176   1.552   3.654   8.259 -1.2817 -1.1139  2.4046
 4238SOL    HW224177   1.618   3.642   8.389  1.3486  1.6997  1.4793
 4239SOL     OW24178   1.070   4.004   6.534 -0.4003 -0.3923 -0.5429
 4239SOL    HW124179   1.134   3.939   6.504 -1.3298 -1.0373 -1.1421
 4239SOL    HW224180   1.101   4.081   6.487  1.4978 -2.2020 -2.3209
 4240SOL     OW24181   3.991   2.308   6.111  0.5359  0.2255 -0.1148
 4240SOL    HW124182   4.050   2.360   6.165 -1.1843 -0.7685  2.6848
 4240SOL    HW224183   3.911   2.360   6.121 -1.5549 -2.8163 -0.9257
 4241SOL     OW24184   2.258   0.654  11.697  0.3865  0.3625  0.4037
 4241SOL    HW124185   2.306   0.578  11.663  1.0983  0.9562  0.0795
 4241SOL    HW224186   2.310   0.671  11.775  2.4682 -4.5599  0.1086
 4242SOL     OW24187   4.651   3.805   3.679 -0.0426  0.4025  0.4853
 4242SOL    HW124188   4.582   3.738   3.673  0.0990  0.2362  0.7157
 4242SOL    HW224189   4.616   3.875   3.624 -0.8574  0.4148  1.0239
 4243SOL     OW24190   3.463   4.009   2.952 -0.0153 -0.0674 -0.2049
 4243SOL    HW124191   3.477   4.081   3.014  0.1213  1.1426 -1.6369
 4243SOL    HW224192   3.557   4.006   2.933  0.2422 -1.0280  1.2014
 4244SOL     OW24193   0.319   3.009   5.880 -0.1328 -0.2728 -0.0836
 4244SOL    HW124194   0.346   2.928   5.924  1.8695  1.0956  1.2289
 4244SOL    HW224195   0.237   3.028   5.927 -0.5040 -2.2750  0.0665
 4245SOL     OW24196   0.401   4.029   2.124 -0.2039 -0.2719  0.5022
 4245SOL    HW124197   0.468   4.062   2.064  0.3352 -2.8332 -0.2961
 4245SOL    HW224198   0.446   4.046   2.207 -0.8372 -2.5696  1.3102
 4246SOL     OW24199   0.347   1.029  17.520 -0.1914 -0.0604 -0.0906
 4246SOL    HW124200   0.276   0.970  17.495  1.1059 -1.1467 -1.1522
 4246SOL    HW224201   0.422   1.008  17.465  0.3793 -1.2398  1.1599
 4247SOL     OW24202   0.683   0.394   6.469  0.5185 -0.0840  0.3476
 4247SOL    HW124203   0.596   0.358   6.484 -0.0960  0.4820 -1.7856
 4247SOL    HW224204   0.738   0.316   6.459  0.8188 -0.0056  1.3943
 4248SOL     OW24205   3.226   1.549   5.753  0.2888 -0.2324  0.3102
 4248SOL    HW124206   3.284   1.473   5.759  0.0212 -0.5978 -1.8533
 4248SOL    HW224207   3.169   1.509   5.687  0.9601  1.6345 -1.4128
 4249SOL     OW24208   0.865   1.703   4.789  0.0470 -0.1290 -0.1322
 4249SOL    HW124209   0.823   1.638   4.732 -0.0215 -2.1004  2.1659
 4249SOL    HW224210   0.899   1.646   4.858  3.0745 -0.6452 -2.0728
 4250SOL     OW24211   1.260   0.214   0.691 -0.1664 -0.3089 -0.4652
 4250SOL    HW124212   1.341   0.258   0.665 -0.0426 -0.1883  0.1304
 4250SOL    HW224213   1.283   0.191   0.781  1.1104  2.6398 -0.0289
 4251SOL     OW24214   1.214   3.476  16.994  0.6728  0.1054 -0.0560
 4251SOL    HW124215   1.277   3.413  17.030  1.0013 -0.1734 -1.0997
 4251SOL    HW224216   1.184   3.521  17.073 -0.6359  1.1225 -1.1253
 4252SOL     OW24217   1.769   2.607   4.946 -0.4400 -0.2008  0.6607
 4252SOL    HW124218   1.779   2.581   5.038 -1.0574 -0.5896  0.6114
 4252SOL    HW224219   1.816   2.691   4.946 -0.0901 -0.3893  1.5989
 4253SOL     OW24220   0.027   4.463   2.728  0.1344  0.5267  0.1665
 4253SOL    HW124221   4.682   4.444   2.792  0.6014 -1.7918 -0.0011
 4253SOL    HW224222   4.698   4.493   2.655 -1.7684  2.6635  2.4286
 4254SOL     OW24223   1.166   4.670   9.277  0.1593 -0.0858 -0.0844
 4254SOL    HW124224   1.261   4.684   9.275 -0.1302  1.8599 -0.2687
 4254SOL    HW224225   1.158   4.587   9.323  1.0809  0.0864  0.3982
 4255SOL     OW24226   3.206   1.964  17.512  0.0636  0.1620 -0.7296
 4255SOL    HW124227   3.264   1.925  17.446  0.7058  0.9991 -0.6595
 4255SOL    HW224228   3.168   1.882  17.544  0.0571  0.6054  0.3938
 4256SOL     OW24229   0.391   2.767   5.011  0.1096 -0.6303 -0.3783
 4256SOL    HW124230   0.349   2.758   4.925  0.2794  0.1369 -0.5406
 4256SOL    HW224231   0.379   2.861   5.016 -0.3387 -0.6577 -0.8844
 4257SOL     OW24232   0.592   1.313   8.663  0.2878  0.4737  1.2262
 4257SOL    HW124233   0.605   1.246   8.596 -1.6659  3.0849 -1.7330
 4257SOL    HW224234   0.511   1.283   8.703  0.5733  0.1922  1.5949
 4258SOL     OW24235   1.436   1.125  11.803 -0.1956 -0.8925 -0.0151
 4258SOL    HW124236   1.369   1.067  11.765 -0.6709 -0.7785  0.6593
 4258SOL    HW224237   1.496   1.117  11.728  2.2770  3.0150  1.5884
 4259SOL     OW24238   0.798   3.899   3.151  0.0128 -0.4051  0.9071
 4259SOL    HW124239   0.831   3.813   3.124 -0.2466 -0.7926  1.8541
 4259SOL    HW224240   0.740   3.885   3.226  0.0776  0.6930  1.1634
 4260SOL     OW24241   4.253   1.120   6.547  0.1506 -0.1609 -0.0679
 4260SOL    HW124242   4.320   1.054   6.563 -2.5290 -2.9379 -0.1229
 4260SOL    HW224243   4.293   1.205   6.527  1.3733 -1.0170 -1.2705
 4261SOL     OW24244   2.470   3.826   5.164 -0.0761 -0.2038  0.0422
 4261SOL    HW124245   2.415   3.749   5.155 -0.1974 -0.0591 -0.4194
 4261SOL    HW224246   2.524   3.814   5.086  1.3672  1.2144  0.8181
 4262SOL     OW24247   0.757   2.060   7.312 -0.1497  0.0410 -0.1042
 4262SOL    HW124248   0.753   2.146   7.272  0.7576  1.1416  2.1358
 4262SOL    HW224249   0.809   2.074   7.391 -2.4956  1.5999  1.1540
 4263SOL     OW24250   0.735   2.066  12.901  0.1552 -0.3451  0.0083
 4263SOL    HW124251   0.730   1.977  12.866  0.8615 -0.2036 -0.4512
 4263SOL    HW224252   0.648   2.075  12.940  0.2174 -2.6001  0.6755
 4264SOL     OW24253   1.339   1.781   3.524  0.0547  0.0967  0.6905
 4264SOL    HW124254   1.290   1.845   3.575 -1.8647  0.1809 -1.2492
 4264SOL    HW224255   1.402   1.737   3.582 -0.0402  0.3454  0.9808
 4265SOL     OW24256   3.752   0.930  15.171 -0.3861 -0.0401 -0.2290
 4265SOL    HW124257   3.827   0.903  15.223 -0.1854 -1.3793 -1.2197
 4265SOL    HW224258   3.686   0.866  15.196 -1.6439  1.3773  0.0772
 4266SOL     OW24259   1.083   3.352   4.233  0.3401  0.5246  0.0966
 4266SOL    HW124260   1.082   3.256   4.242  0.3657  0.7595  2.7910
 4266SOL    HW224261   1.122   3.366   4.147 -0.8077  1.3265 -0.2920
 4267SOL     OW24262   1.702   1.293   8.102  0.5222 -0.1902 -1.0091
 4267SOL    HW124263   1.691   1.295   8.198  1.1460 -2.7627 -0.8858
 4267SOL    HW224264   1.796   1.309   8.094  0.4855  0.5793 -0.0237
 4268SOL     OW24265   2.788   1.035   4.943  0.0139  0.7476  0.2462
 4268SOL    HW124266   2.747   1.122   4.939 -2.6662 -0.5741 -1.0332
 4268SOL    HW224267   2.719   0.973   4.919  0.4990  0.5451 -0.6607
 4269SOL     OW24268   2.460   2.324   1.895  0.6584  0.4908 -0.2160
 4269SOL    HW124269   2.447   2.406   1.943  1.1107 -0.3505  1.3523
 4269SOL    HW224270   2.555   2.323   1.883  0.4879 -1.0488 -1.3443
 4270SOL     OW24271   3.243   4.142  17.478  0.9327  0.0006 -0.3978
 4270SOL    HW124272   3.310   4.112  17.540  1.7426  0.4293 -1.0598
 4270SOL    HW224273   3.160   4.149  17.524  2.7300  0.6649  2.7208
 4271SOL     OW24274   4.602   2.581   7.287  0.0536  0.3962  0.2619
 4271SOL    HW124275   4.511   2.567   7.316  1.0501 -1.5505  2.4008
 4271SOL    HW224276   4.649   2.537   7.357 -0.5140 -0.5009  0.0731
 4272SOL     OW24277   2.578   4.548   4.658  0.0874 -0.2326 -0.2085
 4272SOL    HW124278   2.508   4.515   4.601 -1.3579  0.4716  1.1741
 4272SOL    HW224279   2.560   4.486   4.728  1.6845  1.5413  1.7414
 4273SOL     OW24280   1.519   0.091   3.970 -0.3799  0.2154  0.1789
 4273SOL    HW124281   1.589   0.028   3.985 -0.3795  0.2556  0.3476
 4273SOL    HW224282   1.455   0.037   3.923  2.2206 -2.7801  0.0590
 4274SOL     OW24283   0.714   4.238  16.403  0.0434 -0.2832 -0.5474
 4274SOL    HW124284   0.782   4.243  16.337  0.4194 -0.5497 -0.1844
 4274SOL    HW224285   0.744   4.162  16.454  2.2853  1.4999  0.7649
 4275SOL     OW24286   1.988   2.180   2.094  0.3969  0.2242 -0.5462
 4275SOL    HW124287   2.024   2.268   2.099 -1.1792  0.8378  0.2626
 4275SOL    HW224288   2.069   2.131   2.085  2.5239  3.2167  1.9852
 4276SOL     OW24289   3.524   4.234  12.107 -0.4095  0.4068 -0.0379
 4276SOL    HW124290   3.509   4.206  12.017 -0.1899 -0.4741  0.2070
 4276SOL    HW224291   3.619   4.244  12.101 -0.2039 -0.4648  2.0196
 4277SOL     OW24292   1.885   1.678   2.024 -0.0001  0.0772 -0.5271
 4277SOL    HW124293   1.856   1.711   2.109  0.3939  0.2856 -0.4712
 4277SOL    HW224294   1.797   1.660   1.992 -0.2299  2.4829 -1.3029
 4278SOL     OW24295   2.042   2.473  11.825  0.4401 -0.0701 -0.2663
 4278SOL    HW124296   2.132   2.448  11.803  0.6058  0.1329  0.1878
 4278SOL    HW224297   1.994   2.500  11.746  0.4642  0.5074 -0.0817
 4279SOL     OW24298   4.556   1.574  17.181 -0.0485 -0.0967  0.0431
 4279SOL    HW124299   4.651   1.578  17.190 -0.1380  0.6491  0.6026
 4279SOL    HW224300   4.534   1.643  17.243 -1.4131 -1.7801  1.4487
 4280SOL     OW24301   3.516   1.990   8.487  0.3246  0.2166  0.3792
 4280SOL    HW124302   3.542   2.081   8.470  0.5047  0.3279  1.2897
 4280SOL    HW224303   3.589   1.946   8.444  0.1254 -1.4531  1.7635
 4281SOL     OW24304   2.348   2.284   0.615 -0.1868 -0.2051  0.1913
 4281SOL    HW124305   2.443   2.293   0.604 -0.0810 -0.0394  1.2356
 4281SOL    HW224306   2.326   2.206   0.564 -0.6935  1.4323 -2.0990
 4282SOL     OW24307   3.495   2.661   4.978  0.5565 -0.0010 -0.2803
 4282SOL    HW124308   3.458   2.749   4.972 -0.1338 -0.1685  1.4633
 4282SOL    HW224309   3.484   2.624   4.890  0.2058  1.7548 -0.9906
 4283SOL     OW24310   1.062   3.291  13.245  0.2964  0.0886 -0.6649
 4283SOL    HW124311   1.077   3.207  13.202 -1.4828 -1.3754  1.5269
 4283SOL    HW224312   1.027   3.274  13.333  1.7078 -0.6685 -0.2477
 4284SOL     OW24313   1.850   4.696   4.283 -0.2836 -0.1847  0.3203
 4284SOL    HW124314   1.830   0.050   4.335  0.9150  0.5932 -0.3499
 4284SOL    HW224315   1.908   4.652   4.345 -0.0576  0.1627  0.3566
 4285SOL     OW24316   2.814   0.054   5.861 -0.5011 -0.0848 -0.4240
 4285SOL    HW124317   2.748   0.123   5.872  0.6363  0.8427  0.4764
 4285SOL    HW224318   2.823   0.041   5.766  2.6130  0.2137 -0.1569
 4286SOL     OW24319   2.897   3.227  15.335  0.1639 -0.3590  0.0855
 4286SOL    HW124320   2.835   3.180  15.279  1.6536 -4.1355  1.5956
 4286SOL    HW224321   2.878   3.198  15.425 -0.8539  0.7265  0.2200
 4287SOL     OW24322   1.839   2.960   8.043 -0.2506 -0.5062 -0.4115
 4287SOL    HW124323   1.871   2.882   7.998 -0.0366  1.0520 -2.9151
 4287SOL    HW224324   1.747   2.967   8.019  0.1788  0.4395 -1.7664
 4288SOL     OW24325   2.219   4.365   5.988 -0.6880  0.2874 -0.7560
 4288SOL    HW124326   2.159   4.413   5.931 -2.0180 -1.4158 -0.7959
 4288SOL    HW224327   2.156   4.314   6.040 -0.1761 -0.1124 -0.5282
 4289SOL     OW24328   3.706   0.481   3.635 -0.6275 -0.4866  0.1140
 4289SOL    HW124329   3.801   0.474   3.629 -0.5584  2.6444 -1.9214
 4289SOL    HW224330   3.689   0.420   3.707  0.3088 -2.9455 -1.7596
 4290SOL     OW24331   2.886   3.713  14.324  0.1789 -0.0070 -0.2261
 4290SOL    HW124332   2.795   3.744  14.324  0.6541  1.4147 -0.9869
 4290SOL    HW224333   2.926   3.785  14.372  2.1695 -1.4595  0.2882
 4291SOL     OW24334   3.657   1.717   2.102  0.2274 -0.1789  0.2094
 4291SOL    HW124335   3.708   1.675   2.034  0.2994  0.6165 -0.2278
 4291SOL    HW224336   3.714   1.791   2.124  0.3395  0.4898 -2.3620
 4292SOL     OW24337   4.056   2.806   0.572  0.3586 -0.2682  0.0002
 4292SOL    HW124338   4.135   2.853   0.547 -0.6700 -0.3036 -3.3370
 4292SOL    HW224339   4.023   2.767   0.491 -0.8961  1.7215 -0.4417
 4293SOL     OW24340   3.637   0.649   6.641 -0.1136 -0.3695 -0.5078
 4293SOL    HW124341   3.724   0.637   6.680  0.8825  0.9058 -2.3313
 4293SOL    HW224342   3.605   0.559   6.643  0.4792 -0.5921 -1.0075
 4294SOL     OW24343   3.519   4.179   3.140  0.4292  0.4381 -0.1064
 4294SOL    HW124344   3.565   4.263   3.136 -0.2532  0.8793  1.0906
 4294SOL    HW224345   3.431   4.217   3.141 -0.1596 -0.8965 -2.4257
 4295SOL     OW24346   2.896   0.086   9.327  0.0345  0.0416 -0.3023
 4295SOL    HW124347   2.814   0.088   9.375  0.6408  0.6993  0.6924
 4295SOL    HW224348   2.958   0.058   9.394 -0.0916 -1.8869 -0.9912
 4296SOL     OW24349   2.817   2.362   3.732  0.4430 -0.3932 -0.2404
 4296SOL    HW124350   2.892   2.385   3.677 -0.3675  3.6617  0.3605
 4296SOL    HW224351   2.853   2.391   3.816  1.2479  1.6419 -1.2718
 4297SOL     OW24352   1.125   0.321  11.050  0.1979  0.2743 -0.0433
 4297SOL    HW124353   1.105   0.414  11.059  2.6448  1.0985 -3.0290
 4297SOL    HW224354   1.039   0.282  11.066 -0.4722  1.4055 -0.9110
 4298SOL     OW24355   0.369   1.538  15.377  0.0937  0.1640  0.1271
 4298SOL    HW124356   0.330   1.593  15.445 -0.3405 -0.9003  0.7288
 4298SOL    HW224357   0.304   1.468  15.383 -1.8044  1.7475 -1.6916
 4299SOL     OW24358   2.486   3.067   0.321 -0.3495 -0.0948 -0.1523
 4299SOL    HW124359   2.471   3.132   0.390  0.0024 -0.0797 -0.0896
 4299SOL    HW224360   2.580   3.057   0.307 -0.0575 -1.8844  3.0007
 4300SOL     OW24361   0.180   1.391   4.700 -0.0252  0.4600  0.1612
 4300SOL    HW124362   0.099   1.433   4.671 -0.6688 -0.7743  0.1730
 4300SOL    HW224363   0.156   1.299   4.714 -0.1234  0.3241 -0.8775
 4301SOL     OW24364   2.560   3.642   4.561 -0.0130 -0.1177 -0.3523
 4301SOL    HW124365   2.486   3.695   4.590 -0.6355 -1.9040  1.2971
 4301SOL    HW224366   2.567   3.681   4.473  1.2724 -0.6984 -0.5035
 4302SOL     OW24367   2.146   3.754   5.717  0.1822  0.2015  0.2400
 4302SOL    HW124368   2.112   3.713   5.797 -1.8920  1.0153 -0.2338
 4302SOL    HW224369   2.170   3.841   5.747  0.8533 -0.8101  2.7166
 4303SOL     OW24370   2.885   2.657   3.458 -0.0057  0.0383 -0.3880
 4303SOL    HW124371   2.923   2.576   3.425  3.0369  1.3413 -0.1021
 4303SOL    HW224372   2.929   2.653   3.543 -3.1518  0.5051  1.2781
 4304SOL     OW24373   0.614   4.690   6.898  0.8375 -0.4440 -0.3898
 4304SOL    HW124374   0.655   4.612   6.933  0.5813  0.1244  1.1699
 4304SOL    HW224375   0.524   4.663   6.880  0.8860 -1.6182  1.2044
 4305SOL     OW24376   1.364   4.263   7.972 -0.0270  0.4832  0.0633
 4305SOL    HW124377   1.345   4.332   7.907 -0.8600  1.1820  1.0444
 4305SOL    HW224378   1.459   4.270   7.977 -0.0014  0.0153  0.2212
 4306SOL     OW24379   2.145   0.971   2.578 -0.0441  0.0076  0.0768
 4306SOL    HW124380   2.131   0.906   2.509 -0.2160  0.2236 -0.0918
 4306SOL    HW224381   2.232   1.002   2.554 -0.0788 -1.1103 -1.5150
 4307SOL     OW24382   1.296   1.979   6.348  0.4044  0.0048 -0.0671
 4307SOL    HW124383   1.372   1.972   6.405  1.4026 -0.5129 -1.4556
 4307SOL    HW224384   1.274   2.071   6.339 -2.3545 -0.4284  2.1207
 4308SOL     OW24385   0.297   0.083  14.694 -0.0576  0.2204  0.1713
 4308SOL    HW124386   0.241   0.148  14.652 -0.5896 -0.6924 -0.5505
 4308SOL    HW224387   0.276   0.094  14.787 -1.3534 -1.9010  0.1598
 4309SOL     OW24388   1.327   0.494   7.436  0.2135  0.3948  0.3565
 4309SOL    HW124389   1.287   0.506   7.350 -1.6986 -1.6975  0.9644
 4309SOL    HW224390   1.350   0.401   7.434 -0.9850  0.0769  2.0349
 4310SOL     OW24391   1.311   2.869  12.518 -0.4964  0.9853  0.0403
 4310SOL    HW124392   1.319   2.939  12.583  2.9796 -1.3961  2.1867
 4310SOL    HW224393   1.320   2.922  12.439  1.6023  2.3961  1.1956
 4311SOL     OW24394   1.764   1.394   7.187 -0.0862  0.5428  0.1141
 4311SOL    HW124395   1.691   1.450   7.158  0.9855  0.6767 -2.3082
 4311SOL    HW224396   1.727   1.307   7.169  2.0514 -1.0632  3.4812
 4312SOL     OW24397   0.454   0.197   8.387  0.1983  0.8228 -0.2274
 4312SOL    HW124398   0.548   0.180   8.393 -0.0042  0.1614  1.1511
 4312SOL    HW224399   0.445   0.284   8.427 -0.1220  0.3171  0.8230
 4313SOL     OW24400   2.144   3.609   7.378 -0.3342  0.2870 -0.4820
 4313SOL    HW124401   2.160   3.697   7.411  3.0504 -0.8395  0.9281
 4313SOL    HW224402   2.220   3.563   7.414 -1.3148 -0.7303  0.2784
 4314SOL     OW24403   2.644   1.963   8.201 -0.0737 -0.2133 -0.2394
 4314SOL    HW124404   2.704   2.012   8.145  0.3165 -0.7968 -0.3310
 4314SOL    HW224405   2.704   1.944   8.273  2.0579  0.2956 -1.9058
 4315SOL     OW24406   0.362   0.117   1.014  0.3875  0.1611 -0.2944
 4315SOL    HW124407   0.438   0.135   1.069 -0.1002  0.3094  0.3223
 4315SOL    HW224408   0.305   0.067   1.072 -0.0957  0.7821 -0.2409
 4316SOL     OW24409   2.361   3.128   1.840  0.8852  0.5044 -0.9264
 4316SOL    HW124410   2.338   3.125   1.747  0.4552  2.0193 -0.8761
 4316SOL    HW224411   2.275   3.144   1.878  0.6374 -0.7826 -0.9752
 4317SOL     OW24412   4.436   4.598   9.425 -0.7273 -0.0452  0.8728
 4317SOL    HW124413   4.485   4.524   9.460  0.4061  0.4213  0.2868
 4317SOL    HW224414   4.486   4.618   9.346  0.3357  1.3142  1.8783
 4318SOL     OW24415   0.025   3.276  15.412  0.1449  0.2564  0.0883
 4318SOL    HW124416   0.076   3.353  15.385 -1.3850  0.8365 -1.1440
 4318SOL    HW224417   4.720   3.252  15.324 -2.1775  0.9509  0.6651
 4319SOL     OW24418   3.630   0.325   3.845  0.1280 -0.3423  0.0376
 4319SOL    HW124419   3.632   0.291   3.935 -0.6139  1.1839  0.6303
 4319SOL    HW224420   3.537   0.318   3.822  0.6584 -0.1509 -2.1333
 4320SOL     OW24421   3.797   4.131  11.420  0.2574 -0.2813  0.2979
 4320SOL    HW124422   3.854   4.200  11.454 -0.6691  0.4931  0.2726
 4320SOL    HW224423   3.773   4.154  11.331  1.5137 -0.8692 -0.1964
 4321SOL     OW24424   1.053   1.488   6.037  0.3230 -0.7566  0.1640
 4321SOL    HW124425   1.068   1.401   5.999 -2.1627  0.0606 -2.7121
 4321SOL    HW224426   1.086   1.464   6.124  0.3535  2.3869  1.0110
 4322SOL     OW24427   3.287   4.613   5.921  0.3152 -0.0223 -0.3861
 4322SOL    HW124428   3.201   4.640   5.955  0.1672  0.6228 -1.2459
 4322SOL    HW224429   3.265   4.568   5.839  2.8311 -2.0711  0.0711
 4323SOL     OW24430   1.552   0.634   6.018 -0.0138  0.3575  0.2915
 4323SOL    HW124431   1.457   0.648   6.009  0.0856  1.1136  0.4826
 4323SOL    HW224432   1.583   0.722   5.999  0.7224  0.1753  0.6897
 4324SOL     OW24433   3.394   2.313   5.417  0.4536  1.1003 -0.1890
 4324SOL    HW124434   3.438   2.327   5.333  0.6860 -0.1370 -0.2635
 4324SOL    HW224435   3.468   2.300   5.477 -0.6128 -0.2523  0.8104
 4325SOL     OW24436   0.298   2.425  15.217  0.1452 -0.3212  0.1170
 4325SOL    HW124437   0.266   2.395  15.302  3.1607  0.4862  1.5494
 4325SOL    HW224438   0.307   2.337  15.181  1.3934 -0.4462  0.7298
 4326SOL     OW24439   2.093   3.665   3.030 -0.0002  0.6108  0.1499
 4326SOL    HW124440   2.040   3.735   3.069  0.3155  0.9353 -0.0073
 4326SOL    HW224441   2.061   3.601   3.094  0.8055  0.7535  0.6931
 4327SOL     OW24442   1.562   1.275   1.954 -0.2874  0.5415 -0.3665
 4327SOL    HW124443   1.535   1.332   2.025 -0.0448  1.0614 -0.6912
 4327SOL    HW224444   1.658   1.274   1.963 -0.3285  0.4317  0.0361
 4328SOL     OW24445   0.211   2.471  13.808  0.3773  0.3220  0.0707
 4328SOL    HW124446   0.188   2.384  13.840  2.2252 -0.7443 -1.5102
 4328SOL    HW224447   0.174   2.522  13.880 -2.1643 -0.6754 -0.5278
 4329SOL     OW24448   2.506   1.730   6.836  0.2087  0.2197 -0.1068
 4329SOL    HW124449   2.569   1.694   6.898 -0.8937 -2.1657 -0.3817
 4329SOL    HW224450   2.551   1.723   6.752  0.6058  0.8926  0.0458
 4330SOL     OW24451   0.311   4.156  17.458  0.2099  0.0450 -0.4707
 4330SOL    HW124452   0.391   4.182  17.504 -0.4311 -1.1869  1.3505
 4330SOL    HW224453   0.240   4.154  17.523  0.9824  0.0711  0.3810
 4331SOL     OW24454   1.297   3.396   7.735 -0.0827 -0.1476  0.1027
 4331SOL    HW124455   1.327   3.417   7.647 -0.7772  1.0635  0.1494
 4331SOL    HW224456   1.373   3.433   7.779  0.0327  0.8478 -0.9425
 4332SOL     OW24457   4.480   3.262  10.062  0.0638  0.2952 -0.2393
 4332SOL    HW124458   4.562   3.214  10.050 -1.0386 -1.7582  0.4243
 4332SOL    HW224459   4.442   3.208  10.132  1.6206  0.8905  1.0738
 4333SOL     OW24460   3.974   0.098  16.172  0.0917 -0.1149 -0.3664
 4333SOL    HW124461   3.930   0.179  16.195 -0.8374 -0.1036 -2.2893
 4333SOL    HW224462   4.051   0.139  16.131 -0.3251  0.2923 -0.7326
 4334SOL     OW24463   2.137   3.510   0.759 -0.4529 -0.3646  0.0648
 4334SOL    HW124464   2.138   3.438   0.697 -0.2092 -0.4664  0.1855
 4334SOL    HW224465   2.198   3.472   0.822 -1.3614 -2.2750 -0.2254
 4335SOL     OW24466   0.538   2.168   2.594 -0.0033 -0.3260 -0.0463
 4335SOL    HW124467   0.552   2.259   2.622 -0.3726 -0.4179  0.4523
 4335SOL    HW224468   0.595   2.131   2.662 -0.0721 -0.4144 -0.0364
 4336SOL     OW24469   3.667   2.591  17.554  0.0371 -0.2488 -0.1186
 4336SOL    HW124470   3.727   2.605  17.481 -0.0602  3.0740  0.4246
 4336SOL    HW224471   3.704   2.510  17.588  0.3071  0.5002  1.3376
 4337SOL     OW24472   4.149   3.765  15.744 -0.4236 -0.2213 -0.3730
 4337SOL    HW124473   4.141   3.838  15.683 -2.3503 -0.7620 -0.7644
 4337SOL    HW224474   4.092   3.792  15.816  1.2830  0.6576  0.6507
 4338SOL     OW24475   4.378   1.447   8.593  0.5305  0.2325 -0.3966
 4338SOL    HW124476   4.409   1.357   8.585  0.8285  0.2112  1.0964
 4338SOL    HW224477   4.425   1.479   8.670  0.4249 -0.4997 -0.0352
 4339SOL     OW24478   3.710   0.741   8.787  0.0552 -0.0157 -0.1076
 4339SOL    HW124479   3.776   0.680   8.753 -1.9184 -1.0959 -2.0716
 4339SOL    HW224480   3.660   0.738   8.705  1.1329  0.8462 -0.8008
 4340SOL     OW24481   1.383   1.497  17.379  0.0086 -0.2779  0.4985
 4340SOL    HW124482   1.428   1.434  17.436 -1.8060  0.3215  2.5763
 4340SOL    HW224483   1.354   1.565  17.440 -0.1092  1.7773 -1.8890
 4341SOL     OW24484   1.509   2.821  15.733  0.1421  0.6898  0.3137
 4341SOL    HW124485   1.442   2.803  15.799  1.0236 -0.9501  0.7470
 4341SOL    HW224486   1.460   2.895  15.698 -0.9561  0.7084  1.8578
 4342SOL     OW24487   0.123   2.310   0.696 -0.3346  0.6071 -0.1400
 4342SOL    HW124488   0.218   2.314   0.686 -0.4883  0.0694 -1.7901
 4342SOL    HW224489   0.112   2.223   0.734 -0.4509  0.6851  0.0037
 4343SOL     OW24490   3.007   4.642   8.304  0.2625  0.2279  0.5596
 4343SOL    HW124491   2.924   4.594   8.301  2.3913 -3.2826 -1.8315
 4343SOL    HW224492   2.989   0.006   8.270 -0.2304  0.7359  2.0999
 4344SOL     OW24493   3.569   1.976  11.887 -0.3455  0.0831 -0.3603
 4344SOL    HW124494   3.600   2.067  11.893 -0.2122 -0.1520  2.5329
 4344SOL    HW224495   3.612   1.948  11.968 -1.6335 -0.8735 -0.0076
 4345SOL     OW24496   4.632   2.720   0.110 -0.1735  0.3221  0.0610
 4345SOL    HW124497   4.598   2.645   0.061  1.7829  0.8234 -2.0390
 4345SOL    HW224498   4.673   2.664   0.177 -1.7808 -1.8330 -0.7514
 4346SOL     OW24499   2.600   0.856   1.520  0.3082 -0.0374  0.0526
 4346SOL    HW124500   2.634   0.844   1.432 -1.1310 -0.4349 -0.4567
 4346SOL    HW224501   2.540   0.931   1.517  2.3838  1.6536  0.1875
 4347SOL     OW24502   0.302   4.470   5.033  0.9404 -0.3708  0.2721
 4347SOL    HW124503   0.352   4.549   5.055 -0.0564 -0.4455  2.7956
 4347SOL    HW224504   0.356   4.437   4.961 -1.6714 -1.9291 -0.9774
 4348SOL     OW24505   3.202   1.473   3.663  0.3227  0.4124 -0.1162
 4348SOL    HW124506   3.232   1.398   3.611 -2.0185  0.4577 -1.5600
 4348SOL    HW224507   3.134   1.437   3.720  0.0728  2.0330  0.6111
 4349SOL     OW24508   4.386   2.664   3.813 -0.7911  0.2344  0.2189
 4349SOL    HW124509   4.399   2.755   3.786  0.1663  0.6450  2.1137
 4349SOL    HW224510   4.385   2.629   3.724 -1.7246  1.6827 -0.3410
 4350SOL     OW24511   0.714   1.453   8.066 -0.3986 -0.3950 -0.0631
 4350SOL    HW124512   0.674   1.413   8.143  0.4327  1.3072  1.2457
 4350SOL    HW224513   0.660   1.532   8.063  1.3052  0.8319  1.6229
 4351SOL     OW24514   4.483   0.598   2.043 -0.3249  0.1675 -0.1906
 4351SOL    HW124515   4.526   0.540   1.979  0.2673 -0.6820  0.9835
 4351SOL    HW224516   4.564   0.625   2.086  0.5609 -0.6653 -1.3285
 4352SOL     OW24517   3.920   1.796  15.496  0.3238  0.0618  0.1599
 4352SOL    HW124518   3.830   1.763  15.498  0.0336  0.8447 -0.0564
 4352SOL    HW224519   3.956   1.742  15.426  1.5951  0.7863  0.2467
 4353SOL     OW24520   1.138   3.771   6.443  0.4306  0.5818 -0.1540
 4353SOL    HW124521   1.216   3.786   6.390 -0.8255 -1.9721 -2.7017
 4353SOL    HW224522   1.163   3.683   6.471  0.3567  1.0437  1.3796
 4354SOL     OW24523   2.280   2.836   1.867  0.3017  0.0617  0.3339
 4354SOL    HW124524   2.234   2.782   1.804  1.6887  1.6604 -2.0433
 4354SOL    HW224525   2.370   2.802   1.867  0.9679  1.8252  2.0804
 4355SOL     OW24526   2.817   1.177   6.241  0.6368  0.2403  0.1353
 4355SOL    HW124527   2.867   1.256   6.262  0.6774  0.9981 -2.7985
 4355SOL    HW224528   2.868   1.136   6.171  0.2801 -0.5727  0.3438
 4356SOL     OW24529   1.475   1.016   6.471  0.2775 -0.2011  0.0265
 4356SOL    HW124530   1.487   1.041   6.562  1.8290 -0.0586 -0.2017
 4356SOL    HW224531   1.565   0.993   6.447  0.1946  1.4629 -1.9260
 4357SOL     OW24532   0.741   0.639   6.558  0.3372 -0.4122  0.0067
 4357SOL    HW124533   0.729   0.551   6.523  0.0512  0.5772 -2.4328
 4357SOL    HW224534   0.830   0.658   6.527 -0.6546  1.8533 -1.5662
 4358SOL     OW24535   3.130   0.833   2.215 -0.0116 -0.3139 -0.2797
 4358SOL    HW124536   3.095   0.849   2.302  0.3996  2.7667 -0.6730
 4358SOL    HW224537   3.179   0.753   2.233  0.5440 -0.0005 -0.4008
 4359SOL     OW24538   3.507   2.675   0.895 -0.4110 -0.0693  0.0500
 4359SOL    HW124539   3.508   2.713   0.983 -1.3240  1.0493 -0.4211
 4359SOL    HW224540   3.541   2.587   0.912 -0.1408  0.5146  2.5861
 4360SOL     OW24541   2.783   3.562   5.834 -0.4746 -0.2668  0.0068
 4360SOL    HW124542   2.713   3.595   5.891 -0.5798 -2.4406  1.1196
 4360SOL    HW224543   2.740   3.543   5.751 -0.8905 -1.6727  0.5504
 4361SOL     OW24544   0.044   2.219   2.937 -0.4547  0.3951  0.0367
 4361SOL    HW124545   0.090   2.193   3.017 -0.1821 -1.6040 -0.7679
 4361SOL    HW224546   0.034   2.313   2.947 -1.4272  0.5649 -2.5096
 4362SOL     OW24547   3.395   3.350   5.869  0.0542 -0.3334  1.0021
 4362SOL    HW124548   3.437   3.322   5.788 -0.3092 -1.0597  1.0596
 4362SOL    HW224549   3.308   3.375   5.838  0.1910 -1.9568 -0.6892
 4363SOL     OW24550   2.124   0.427   2.183  0.1619  0.2604 -0.0684
 4363SOL    HW124551   2.038   0.389   2.167  0.9609 -1.2939 -0.6648
 4363SOL    HW224552   2.106   0.498   2.245  1.6433 -0.5235  1.2739
 4364SOL     OW24553   0.882   2.405  11.173 -0.2258  0.5701  0.5631
 4364SOL    HW124554   0.920   2.469  11.233  1.9540  0.1012 -0.3113
 4364SOL    HW224555   0.943   2.404  11.100  0.2149  0.4621  0.9291
 4365SOL     OW24556   3.465   2.961   3.449  0.5778  0.4027 -0.1042
 4365SOL    HW124557   3.536   2.905   3.479 -0.0822 -1.9207 -2.8825
 4365SOL    HW224558   3.483   2.955   3.355 -2.1702 -0.3778 -0.6027
 4366SOL     OW24559   1.489   3.735  13.307 -0.0701  0.0768  0.2902
 4366SOL    HW124560   1.581   3.748  13.287 -0.2178 -1.1616 -1.1448
 4366SOL    HW224561   1.477   3.641  13.320 -0.3002  0.0155 -0.3723
 4367SOL     OW24562   4.713   4.293   4.500 -0.0429  0.3915 -0.2874
 4367SOL    HW124563   4.625   4.264   4.524  0.0280 -1.2405 -2.0125
 4367SOL    HW224564   0.021   4.221   4.446  1.2665 -0.5812  1.8214
 4368SOL     OW24565   3.813   1.222   7.588 -0.4598 -0.2308 -0.3035
 4368SOL    HW124566   3.801   1.313   7.615 -1.5570 -0.0113 -1.5054
 4368SOL    HW224567   3.785   1.177   7.668  1.0594  2.9011  1.9381
 4369SOL     OW24568   2.350   4.595  15.038 -0.3045 -0.2523 -0.7015
 4369SOL    HW124569   2.310   4.670  14.995  0.8295  0.5069 -0.4004
 4369SOL    HW224570   2.301   4.522  14.999 -0.1137 -0.2581 -0.9255
 4370SOL     OW24571   2.023   0.545  11.824 -0.2726 -0.1391 -0.0617
 4370SOL    HW124572   2.091   0.562  11.759 -1.1463  0.4549 -0.8243
 4370SOL    HW224573   1.952   0.522  11.764 -1.0321 -0.7217  1.0728
 4371SOL     OW24574   1.297   1.009   6.781 -0.2452  0.2179  0.3148
 4371SOL    HW124575   1.294   1.047   6.869  0.3392 -0.4664  0.6227
 4371SOL    HW224576   1.285   0.915   6.788  1.6972 -0.1196 -1.0618
 4372SOL     OW24577   0.929   2.075   5.504 -0.5413  0.2047 -0.1321
 4372SOL    HW124578   0.906   2.069   5.596  1.4538  0.0401  0.3618
 4372SOL    HW224579   0.852   2.126   5.479 -0.7511  0.5049  1.1472
 4373SOL     OW24580   4.275   1.847   4.337 -0.8325  1.0100  0.5010
 4373SOL    HW124581   4.288   1.816   4.427 -1.0068  0.5488  0.3635
 4373SOL    HW224582   4.273   1.772   4.279  2.5401  2.1295 -1.0572
 4374SOL     OW24583   1.055   3.547   5.897 -0.2616  0.6396  0.4950
 4374SOL    HW124584   1.014   3.593   5.970 -1.5538 -0.1077  0.2447
 4374SOL    HW224585   1.120   3.497   5.945  1.3751  2.2660 -0.0427
 4375SOL     OW24586   2.960   3.536   5.423 -0.2225 -0.3282  0.6890
 4375SOL    HW124587   2.911   3.539   5.341  1.0380  0.1106 -0.0388
 4375SOL    HW224588   2.951   3.621   5.465 -1.1102  0.3218 -0.8396
 4376SOL     OW24589   0.311   2.378   7.739 -0.0220  0.2152 -0.2946
 4376SOL    HW124590   0.271   2.443   7.681  1.8074 -0.0630 -1.8569
 4376SOL    HW224591   0.404   2.393   7.724 -0.6972  0.3445 -4.2689
 4377SOL     OW24592   2.384   2.621   9.883  0.0007  0.1775 -0.1880
 4377SOL    HW124593   2.462   2.656   9.926 -0.3358  1.2971 -0.4950
 4377SOL    HW224594   2.421   2.550   9.830 -0.7831 -1.0563  0.8930
 4378SOL     OW24595   2.119   0.919   1.866 -0.7782  0.4250  0.0814
 4378SOL    HW124596   2.194   0.958   1.911 -0.8325 -0.3110  0.8228
 4378SOL    HW224597   2.064   0.905   1.943  0.1968 -0.2843  0.6455
 4379SOL     OW24598   0.253   3.609   0.777 -0.7397  0.2712 -0.7577
 4379SOL    HW124599   0.235   3.667   0.851 -0.9040 -1.1052  0.2962
 4379SOL    HW224600   0.182   3.635   0.720  0.2970 -1.0434 -2.6579
 4380SOL     OW24601   3.481   0.822   1.959 -0.6316 -0.2323  0.4679
 4380SOL    HW124602   3.475   0.729   1.940  1.0526 -0.3697  0.6099
 4380SOL    HW224603   3.567   0.829   1.999  0.4084 -1.2044 -1.6238
 4381SOL     OW24604   0.488   3.614   1.546  0.0862 -0.1879  0.0186
 4381SOL    HW124605   0.562   3.674   1.553 -0.1148  0.0567  0.0569
 4381SOL    HW224606   0.533   3.532   1.524  0.1220 -0.7184  2.0310
 4382SOL     OW24607   4.392   4.333  15.987 -0.0771  0.2450 -0.1847
 4382SOL    HW124608   4.476   4.288  15.987  0.6249  1.5512  2.4965
 4382SOL    HW224609   4.375   4.331  16.081 -0.7150  1.7905 -0.2604
 4383SOL     OW24610   2.563   4.717   1.610 -0.0393 -0.0014  0.0871
 4383SOL    HW124611   2.537   0.085   1.601  0.2214 -0.0437 -1.0614
 4383SOL    HW224612   2.621   4.721   1.686  0.9353  0.5359 -0.6851
 4384SOL     OW24613   2.035   0.328   2.740 -0.4470 -0.6537  0.3687
 4384SOL    HW124614   2.099   0.332   2.668  0.2798  1.7392  1.1557
 4384SOL    HW224615   2.036   0.418   2.772  0.5313 -0.8579  0.9114
 4385SOL     OW24616   1.457   1.791   8.384  0.1053  0.7965  0.1990
 4385SOL    HW124617   1.508   1.774   8.463 -0.8863 -1.4636  0.3614
 4385SOL    HW224618   1.484   1.880   8.363 -1.3765  1.0805 -0.5151
 4386SOL     OW24619   1.260   0.824   5.791  0.0461  0.0279 -0.5169
 4386SOL    HW124620   1.273   0.781   5.875  1.4353 -1.0154 -1.2661
 4386SOL    HW224621   1.178   0.869   5.809 -0.4426 -0.3707 -1.7134
 4387SOL     OW24622   1.459   1.022  10.382  0.1581 -0.5105  0.5076
 4387SOL    HW124623   1.525   1.059  10.441  1.3161 -0.5296 -0.7696
 4387SOL    HW224624   1.436   0.944  10.433  2.6351 -1.9917 -0.6434
 4388SOL     OW24625   4.206   4.710  15.634  0.0635 -0.0627  0.2655
 4388SOL    HW124626   4.129   4.681  15.684  0.1052  2.3619  1.7322
 4388SOL    HW224627   4.229   4.627  15.592  0.3582  0.0364  0.2276
 4389SOL     OW24628   2.153   1.592   8.100 -0.0762 -0.1573 -0.4088
 4389SOL    HW124629   2.180   1.610   8.191 -0.0915 -0.2762 -0.3809
 4389SOL    HW224630   2.195   1.662   8.049  1.8945 -1.5588 -0.6874
 4390SOL     OW24631   1.974   0.685   6.611  0.3083 -0.7722 -0.1758
 4390SOL    HW124632   1.896   0.677   6.556 -1.7910 -1.2906  2.8960
 4390SOL    HW224633   2.027   0.611   6.583 -0.4304 -2.0164  1.7503
 4391SOL     OW24634   3.437   4.403   8.652 -0.2202  0.2560 -0.1799
 4391SOL    HW124635   3.357   4.439   8.689  0.6434 -1.0525  2.9698
 4391SOL    HW224636   3.403   4.317   8.628  0.7725 -0.1855 -0.0304
 4392SOL     OW24637   3.683   1.410   4.713 -1.0955 -0.4075 -0.0422
 4392SOL    HW124638   3.608   1.354   4.697 -0.6260 -0.4514 -2.0809
 4392SOL    HW224639   3.636   1.492   4.730  1.4204  0.6104  2.0894
 4393SOL     OW24640   2.066   2.001   8.234 -0.2834 -0.3808 -0.6370
 4393SOL    HW124641   2.115   1.956   8.166  0.9578 -1.1824  0.7902
 4393SOL    HW224642   2.003   2.045   8.178  0.7069  1.2321 -0.4781
 4394SOL     OW24643   0.974   1.329   0.275  0.5534 -0.2836  0.1561
 4394SOL    HW124644   0.884   1.299   0.260  0.3948  0.3650 -0.1560
 4394SOL    HW224645   0.973   1.324   0.371 -0.3277  0.6798  0.1959
 4395SOL     OW24646   3.325   1.052  14.797  0.0819  0.3976 -0.3726
 4395SOL    HW124647   3.293   0.965  14.771 -0.7554  0.9321 -1.1296
 4395SOL    HW224648   3.396   1.065  14.733  0.5389  1.1475  0.2944
 4396SOL     OW24649   2.269   3.735   8.372 -0.3252 -0.1769  0.1804
 4396SOL    HW124650   2.220   3.656   8.393  0.1322 -0.5919 -0.3401
 4396SOL    HW224651   2.360   3.706   8.375  0.3470  1.8975  0.3009
 4397SOL     OW24652   2.892   3.982   2.338  0.2582  0.4853 -0.3027
 4397SOL    HW124653   2.913   3.902   2.387  0.1802  0.6717  0.0359
 4397SOL    HW224654   2.813   4.002   2.388 -0.5119  0.6699 -1.5999
 4398SOL     OW24655   0.020   0.383   5.842 -0.1988 -0.4439 -0.4452
 4398SOL    HW124656   0.115   0.371   5.847 -0.0587  0.8548  0.2238
 4398SOL    HW224657   4.706   0.297   5.860  0.0128 -0.3831  0.3309
 4399SOL     OW24658   3.528   4.305   5.795 -0.0726  0.2227  0.0264
 4399SOL    HW124659   3.475   4.252   5.854 -0.9678 -1.4820 -2.3489
 4399SOL    HW224660   3.537   4.372   5.863  0.8473 -0.2986  0.4217
 4400SOL     OW24661   3.789   2.221  13.761  0.8190 -0.1575  0.4081
 4400SOL    HW124662   3.867   2.169  13.780 -1.9558 -4.0868  1.0175
 4400SOL    HW224663   3.826   2.309  13.770  0.6846  0.0558 -1.0566
 4401SOL     OW24664   0.952   2.680   3.387 -0.2364  0.2891  0.7214
 4401SOL    HW124665   0.925   2.758   3.339 -2.1522 -0.8253 -0.0158
 4401SOL    HW224666   1.023   2.647   3.332  0.9570  4.5973 -0.3148
 4402SOL     OW24667   2.137   1.089   3.692  0.7629 -0.3439  0.2475
 4402SOL    HW124668   2.065   1.084   3.755 -0.3160 -2.5531 -1.1939
 4402SOL    HW224669   2.143   1.185   3.695  2.4714 -0.4140 -0.8829
 4403SOL     OW24670   3.754   0.317   1.156 -0.2706  0.2006 -0.4454
 4403SOL    HW124671   3.689   0.304   1.226  0.9524 -2.2440  0.2237
 4403SOL    HW224672   3.718   0.392   1.109 -1.3472 -0.8344 -1.2999
 4404SOL     OW24673   0.104   2.760   8.057 -0.0506 -0.0774 -0.1670
 4404SOL    HW124674   0.188   2.729   8.023 -0.8985 -0.5720 -1.8213
 4404SOL    HW224675   0.079   2.707   8.133  1.2742 -1.9511 -1.0492
 4405SOL     OW24676   2.959   4.492   8.684  0.4638 -0.5201 -0.2230
 4405SOL    HW124677   2.998   4.425   8.628  0.9262 -0.6919  0.3020
 4405SOL    HW224678   2.970   4.568   8.627  0.7388 -1.8231 -1.9153
 4406SOL     OW24679   4.581   2.287   6.068  0.4489 -0.4507 -0.1219
 4406SOL    HW124680   4.668   2.268   6.103 -0.1450  0.6432  1.9533
 4406SOL    HW224681   4.550   2.355   6.128  0.0960  0.6312 -1.5472
 4407SOL     OW24682   1.172   0.269   1.276  0.1373  0.0678  0.2536
 4407SOL    HW124683   1.196   0.342   1.219  0.9660 -0.9362 -0.6849
 4407SOL    HW224684   1.251   0.217   1.258 -0.2231 -0.1644 -0.6704
 4408SOL     OW24685   4.647   3.767   5.959 -0.2356 -0.1983 -0.4719
 4408SOL    HW124686   4.698   3.819   5.898  2.8839 -1.5973  0.9213
 4408SOL    HW224687   4.696   3.777   6.041 -4.9539  0.9568  2.1872
 4409SOL     OW24688   2.300   3.905  10.704  0.1129  0.2740 -0.0052
 4409SOL    HW124689   2.316   3.970  10.635  1.7936  0.6973  0.7827
 4409SOL    HW224690   2.255   3.830  10.665 -0.1295  0.2542  0.3116
 4410SOL     OW24691   4.100   2.156  14.270 -0.6224 -0.4883 -0.0269
 4410SOL    HW124692   4.084   2.194  14.356  1.5369 -2.0211  1.0403
 4410SOL    HW224693   4.059   2.071  14.284  1.9286 -1.6415  0.4297
 4411SOL     OW24694   4.101   1.849  13.866  0.3002  0.2892 -0.0824
 4411SOL    HW124695   4.059   1.817  13.946  1.6141 -0.8976  0.1308
 4411SOL    HW224696   4.148   1.770  13.839  0.6611  0.5159 -0.1108
 4412SOL     OW24697   4.657   0.481   0.572 -0.1268 -0.3821  0.2421
 4412SOL    HW124698   4.668   0.392   0.540 -2.4887 -0.9929  1.1519
 4412SOL    HW224699   0.023   0.506   0.596  0.8225 -2.8482 -0.8116
 4413SOL     OW24700   0.293   4.220   7.135 -0.1567 -0.0523  0.2268
 4413SOL    HW124701   0.327   4.171   7.210 -1.1219 -0.6547  0.2621
 4413SOL    HW224702   0.378   4.247   7.099 -0.2728 -1.1065 -0.8022
 4414SOL     OW24703   1.487   3.589   6.337 -0.1548  0.5589  0.2780
 4414SOL    HW124704   1.416   3.538   6.299 -0.0927 -0.1121  1.0667
 4414SOL    HW224705   1.448   3.676   6.346  1.1719  1.0678  1.1045
 4415SOL     OW24706   3.033   2.109   3.599  0.9699  0.0184  0.2593
 4415SOL    HW124707   3.109   2.166   3.600  0.6808  0.3945  0.5818
 4415SOL    HW224708   3.008   2.118   3.507  1.1861 -0.6795  0.1283
 4416SOL     OW24709   4.015   1.910   2.840  1.0895 -0.1287 -0.1073
 4416SOL    HW124710   4.063   1.860   2.906  1.3694 -0.3719 -0.4944
 4416SOL    HW224711   3.977   1.983   2.890  2.5003  1.9063 -1.9858
 4417SOL     OW24712   0.436   3.039   2.188 -0.2686 -0.3278 -0.1274
 4417SOL    HW124713   0.364   3.082   2.234  0.9433  0.8986  0.6348
 4417SOL    HW224714   0.427   3.086   2.105 -1.2788  2.1963  1.4241
 4418SOL     OW24715   2.169   1.023   2.976 -0.3357  0.1009  0.2441
 4418SOL    HW124716   2.177   1.118   2.968  1.8850 -0.1444 -0.3940
 4418SOL    HW224717   2.261   1.007   2.993 -0.2304 -0.6948 -1.0891
 4419SOL     OW24718   2.358   0.748   3.528  0.4098 -1.0340 -0.9280
 4419SOL    HW124719   2.366   0.657   3.556  1.2394 -0.6207  0.1689
 4419SOL    HW224720   2.269   0.767   3.558  0.9379 -0.0840  0.0293
 4420SOL     OW24721   1.206   2.601  12.784  0.2518  0.0685  0.0776
 4420SOL    HW124722   1.145   2.532  12.758  0.1796  0.2310 -0.1893
 4420SOL    HW224723   1.255   2.558  12.854  2.4308  0.7261 -1.0382
 4421SOL     OW24724   4.313   4.175   5.996 -0.3205  0.1140 -0.0270
 4421SOL    HW124725   4.305   4.225   6.077  0.9226  0.4672 -0.1151
 4421SOL    HW224726   4.282   4.240   5.933  2.3065  1.4375  0.0146
 4422SOL     OW24727   4.603   3.640   2.325 -0.0635 -0.1945  0.0070
 4422SOL    HW124728   4.514   3.622   2.353  0.1284 -1.6340 -0.3224
 4422SOL    HW224729   4.596   3.712   2.262  3.2367  0.5123  0.4128
 4423SOL     OW24730   1.834   4.307   2.014  0.1392  0.0756 -0.0854
 4423SOL    HW124731   1.769   4.376   2.024 -1.0843 -1.0092 -0.7277
 4423SOL    HW224732   1.803   4.234   2.067 -0.0754 -0.1380 -0.5114
 4424SOL     OW24733   3.822   1.997   4.965  0.4585 -0.3224 -0.3198
 4424SOL    HW124734   3.840   1.968   4.876  1.3365 -0.4806 -0.0968
 4424SOL    HW224735   3.874   1.936   5.018 -0.0507  1.2492  1.9830
 4425SOL     OW24736   1.085   1.947   4.909  0.2576  0.0485  0.4536
 4425SOL    HW124737   1.149   1.878   4.892  0.7463  1.1048 -2.1313
 4425SOL    HW224738   1.029   1.938   4.832  0.3489  1.6839  0.1889
 4426SOL     OW24739   2.366   0.144  13.214 -0.3713 -0.2462 -0.4352
 4426SOL    HW124740   2.392   0.216  13.272  0.9054  0.0402 -1.3840
 4426SOL    HW224741   2.444   0.091  13.199 -0.4701  0.0181 -1.8514
 4427SOL     OW24742   1.820   2.294   8.267  0.0678  0.5978 -0.4125
 4427SOL    HW124743   1.815   2.247   8.184  0.3755  1.2479 -0.8027
 4427SOL    HW224744   1.841   2.384   8.241  1.2859  0.4879  0.1722
 4428SOL     OW24745   2.960   1.307   8.180  0.1091  0.4909  0.1061
 4428SOL    HW124746   2.898   1.354   8.237 -0.9690  0.5655 -1.1450
 4428SOL    HW224747   2.933   1.215   8.184  0.7007  0.4496  3.3493
 4429SOL     OW24748   4.128   1.627   7.209 -0.4911  0.1839  0.1183
 4429SOL    HW124749   4.058   1.646   7.147 -0.9756 -0.4843  0.4651
 4429SOL    HW224750   4.076   1.628   7.290 -0.8072 -0.0913 -0.0819
 4430SOL     OW24751   4.522   3.520   3.440  0.2061 -0.3955 -0.1231
 4430SOL    HW124752   4.611   3.496   3.464  0.2112 -1.1948 -0.9248
 4430SOL    HW224753   4.532   3.518   3.345  2.6208 -0.4867  0.1336
 4431SOL     OW24754   2.891   2.767   4.249 -0.0485  0.1056 -0.1339
 4431SOL    HW124755   2.968   2.824   4.253  2.2240 -3.0310  0.7386
 4431SOL    HW224756   2.829   2.828   4.289  1.0985  0.9722  0.3156
 4432SOL     OW24757   2.050   2.803  13.644 -0.1555  0.3417  0.0696
 4432SOL    HW124758   2.009   2.874  13.593  3.4853  0.9760 -1.9687
 4432SOL    HW224759   1.982   2.794  13.710 -0.4268  0.1159 -0.2401
 4433SOL     OW24760   2.881   2.468  16.392  0.2889 -0.1295 -0.3304
 4433SOL    HW124761   2.788   2.468  16.412  0.5498 -3.4940  0.8332
 4433SOL    HW224762   2.904   2.561  16.383 -0.3226  0.2643  2.4111
 4434SOL     OW24763   4.451   0.047  15.779 -0.6404  0.0132  0.4899
 4434SOL    HW124764   4.506   0.073  15.853  1.0296  0.9759 -1.0846
 4434SOL    HW224765   4.405   4.696  15.819  0.4193 -1.4220 -0.9731
 4435SOL     OW24766   2.716   3.626   7.276  0.7505  0.0119 -0.7801
 4435SOL    HW124767   2.682   3.659   7.359 -1.5018 -2.4850 -0.6980
 4435SOL    HW224768   2.740   3.709   7.235 -2.5576  1.0164 -0.6779
 4436SOL     OW24769   1.838   2.667  10.810  0.2848 -0.0176 -0.4943
 4436SOL    HW124770   1.816   2.706  10.895 -0.4914  2.2071 -1.7366
 4436SOL    HW224771   1.746   2.664  10.782 -0.3344  0.9255  1.4380
 4437SOL     OW24772   1.182   0.751   8.486  0.3681 -0.1552  0.4624
 4437SOL    HW124773   1.230   0.668   8.496 -0.0918 -0.4607  0.1308
 4437SOL    HW224774   1.191   0.790   8.573 -1.6806 -0.3463  0.7675
 4438SOL     OW24775   2.234   2.464   5.255  0.4413 -0.0036 -0.4527
 4438SOL    HW124776   2.274   2.522   5.190  0.2986  0.5793 -0.0234
 4438SOL    HW224777   2.269   2.378   5.231  0.3524 -0.2209  0.2033
 4439SOL     OW24778   3.005   1.533   0.897 -0.1952  0.0808  0.0497
 4439SOL    HW124779   2.931   1.495   0.944  0.2437 -1.2673 -0.3586
 4439SOL    HW224780   3.083   1.509   0.947 -1.1717 -2.1106  0.5029
 4440SOL     OW24781   1.017   4.575   1.032  0.2875  0.0640  0.0659
 4440SOL    HW124782   0.999   4.527   1.113 -0.9872  0.1273 -0.1823
 4440SOL    HW224783   0.960   4.525   0.973 -1.7048  0.5530  1.5998
 4441SOL     OW24784   1.434   3.657  10.625 -0.1480 -0.5275  0.1462
 4441SOL    HW124785   1.499   3.677  10.558  0.4180 -0.2582  0.7704
 4441SOL    HW224786   1.399   3.746  10.631 -1.6208 -1.1449  0.6625
 4442SOL     OW24787   0.584   1.992  15.824 -0.1412 -0.5416 -0.2478
 4442SOL    HW124788   0.578   2.037  15.909 -0.8245  1.9818 -1.6268
 4442SOL    HW224789   0.516   1.925  15.839 -0.9539  0.2100 -0.5764
 4443SOL     OW24790   2.403   1.291   2.156  0.7743  0.1415  0.3836
 4443SOL    HW124791   2.488   1.309   2.117  0.5646 -0.4879 -0.3739
 4443SOL    HW224792   2.430   1.294   2.248 -0.0227  1.1275  0.5869
 4444SOL     OW24793   1.737   0.549   2.977 -0.5491  0.1495  0.2292
 4444SOL    HW124794   1.815   0.539   2.923 -1.9856 -1.0342 -1.6216
 4444SOL    HW224795   1.727   0.644   2.967 -2.3502 -0.1608 -0.9798
 4445SOL     OW24796   4.014   4.631   2.567 -0.0822  0.5402 -0.2132
 4445SOL    HW124797   3.983   4.621   2.477  0.1085 -1.3517 -0.0710
 4445SOL    HW224798   4.040   4.722   2.552  0.7680  0.0850 -1.5519
 4446SOL     OW24799   0.575   2.454  14.602  0.4665  0.1811  0.6584
 4446SOL    HW124800   0.531   2.442  14.687 -1.3304  0.0505 -0.2876
 4446SOL    HW224801   0.552   2.377  14.550 -0.3439 -0.2026  1.5651
 4447SOL     OW24802   3.988   4.042   1.837 -0.4856  0.2356  0.3479
 4447SOL    HW124803   4.051   4.099   1.881 -1.6872  1.7232  0.1246
 4447SOL    HW224804   4.030   3.957   1.845 -0.8217  0.0950  0.6202
 4448SOL     OW24805   2.361   0.773   8.577  0.0861 -0.6404 -0.7460
 4448SOL    HW124806   2.350   0.763   8.482  2.0555  0.5178 -1.1067
 4448SOL    HW224807   2.418   0.850   8.578 -1.6639  0.6590 -1.0121
 4449SOL     OW24808   3.001   0.703  16.586 -0.0955 -0.0553 -0.0789
 4449SOL    HW124809   3.056   0.781  16.594 -1.3584  0.7213  0.9542
 4449SOL    HW224810   3.029   0.664  16.503  1.4545  0.8704 -0.0031
 4450SOL     OW24811   4.133   0.486   9.413  0.0345  0.0106 -0.0422
 4450SOL    HW124812   4.108   0.450   9.498 -1.3299 -0.0433 -0.4638
 4450SOL    HW224813   4.195   0.417   9.390  0.7487  0.3565  0.8705
 4451SOL     OW24814   0.933   1.500   8.756 -0.3743 -0.3626 -0.2366
 4451SOL    HW124815   0.863   1.563   8.774  0.0634  0.1665 -0.3880
 4451SOL    HW224816   0.960   1.472   8.843  1.4198  1.2131 -0.2785
 4452SOL     OW24817   2.486   3.070   4.137  0.4537 -0.2021  0.0827
 4452SOL    HW124818   2.456   2.979   4.146  0.5349 -0.2845 -0.4712
 4452SOL    HW224819   2.433   3.102   4.064 -0.0257  1.8256  1.3220
 4453SOL     OW24820   3.382   0.738   1.282  0.2086  0.1842 -0.0292
 4453SOL    HW124821   3.452   0.747   1.346 -2.2542 -1.8308  2.9529
 4453SOL    HW224822   3.307   0.764   1.336 -1.2063 -2.5078 -0.7258
 4454SOL     OW24823   2.930   2.254   2.755 -0.5274 -0.2481 -0.3579
 4454SOL    HW124824   2.968   2.248   2.842 -0.4575 -0.5800 -0.4115
 4454SOL    HW224825   2.843   2.285   2.780  0.2160  0.6282  1.1322
 4455SOL     OW24826   2.304   0.216   1.766  0.0909 -0.3916  0.2793
 4455SOL    HW124827   2.234   0.277   1.744  0.1830 -0.4238 -0.1019
 4455SOL    HW224828   2.254   0.156   1.821 -2.5666  0.9088 -0.7042
 4456SOL     OW24829   2.836   0.015  17.335 -0.0414 -0.0831  0.0028
 4456SOL    HW124830   2.860   4.648  17.354 -1.4533 -0.7833 -1.6290
 4456SOL    HW224831   2.845   0.032  17.241 -1.6665  0.3027 -0.0887
 4457SOL     OW24832   4.231   2.913   5.808  0.0347  0.2240  0.1310
 4457SOL    HW124833   4.162   2.977   5.826 -0.2371  0.1627 -0.6845
 4457SOL    HW224834   4.268   2.937   5.723 -3.1586  3.7027 -0.2586
 4458SOL     OW24835   3.448   0.862   1.686  0.4036  0.1358  0.6891
 4458SOL    HW124836   3.363   0.820   1.681 -0.0017  0.8961  1.3189
 4458SOL    HW224837   3.482   0.831   1.770 -0.1950  1.3138  1.3519
 4459SOL     OW24838   3.841   3.463  15.190 -0.0598 -0.0444  0.3116
 4459SOL    HW124839   3.906   3.395  15.172 -1.1880 -1.3319  1.1022
 4459SOL    HW224840   3.860   3.513  15.111  0.2837 -0.9377 -0.1806
 4460SOL     OW24841   4.519   0.472   5.565 -0.7475  0.3543 -0.3686
 4460SOL    HW124842   4.541   0.411   5.495  2.6075  0.4356  0.6224
 4460SOL    HW224843   4.594   0.532   5.561 -0.3972  0.1318  3.2691
 4461SOL     OW24844   1.253   3.681   8.768 -0.4252  0.1269 -0.4692
 4461SOL    HW124845   1.158   3.671   8.773 -0.4465  0.6984  0.4532
 4461SOL    HW224846   1.274   3.622   8.696  3.0897  0.7806  0.0157
 4462SOL     OW24847   2.749   1.295   7.340 -0.1272 -0.4378  0.3095
 4462SOL    HW124848   2.691   1.371   7.346  1.7052  1.0437 -0.8420
 4462SOL    HW224849   2.696   1.232   7.388 -0.1706  0.6928  1.7605
 4463SOL     OW24850   2.364   1.298   7.339  0.0642  0.3078  0.0972
 4463SOL    HW124851   2.370   1.204   7.324 -0.1687  0.6131 -1.9167
 4463SOL    HW224852   2.276   1.308   7.305 -0.4041  0.0972  1.2341
 4464SOL     OW24853   3.349   3.288  14.598 -0.0338 -0.3729  0.3720
 4464SOL    HW124854   3.442   3.264  14.596  0.0700  0.0625 -0.0192
 4464SOL    HW224855   3.335   3.269  14.505  2.9645  1.5013 -0.4785
 4465SOL     OW24856   0.289   0.609   8.177 -0.0385 -0.2788 -0.0964
 4465SOL    HW124857   0.216   0.671   8.175 -1.1814 -1.6168  0.7770
 4465SOL    HW224858   0.258   0.541   8.117  0.0267  0.4208 -0.9360
 4466SOL     OW24859   2.180   1.489   9.266 -0.1554 -0.1290 -0.2319
 4466SOL    HW124860   2.216   1.447   9.187  0.4811  2.1321 -1.1327
 4466SOL    HW224861   2.259   1.530   9.300  0.4318 -0.8024 -0.7831
 4467SOL     OW24862   2.687   3.191   5.991 -0.0382 -0.0712  1.0611
 4467SOL    HW124863   2.705   3.226   5.904 -0.4948  2.5272  2.0358
 4467SOL    HW224864   2.757   3.126   5.997  1.7313  1.7563  0.0579
 4468SOL     OW24865   1.078   3.908   5.093 -0.4878  0.3949 -0.0682
 4468SOL    HW124866   0.990   3.945   5.106 -0.7179  0.5276 -2.0039
 4468SOL    HW224867   1.085   3.880   5.002 -0.3120  0.4831 -0.0824
 4469SOL     OW24868   4.590   0.860   2.831 -0.3330  0.4418  0.1499
 4469SOL    HW124869   4.592   0.773   2.793  2.4317  0.3753  0.4135
 4469SOL    HW224870   4.546   0.841   2.914 -0.9807  0.7999 -0.1182
 4470SOL     OW24871   0.474   4.211   3.367  0.6345 -0.0938  0.6950
 4470SOL    HW124872   0.541   4.235   3.432  2.6817  1.7369 -2.0810
 4470SOL    HW224873   0.392   4.234   3.411  0.7373  0.0558  0.8112
 4471SOL     OW24874   3.639   0.680  10.832 -0.1932 -0.0250  0.0343
 4471SOL    HW124875   3.663   0.702  10.922  1.2077 -1.1245 -0.0751
 4471SOL    HW224876   3.715   0.718  10.789 -1.8078  1.9464 -1.0786
 4472SOL     OW24877   0.994   3.492   0.623 -0.1926  0.3497  0.2278
 4472SOL    HW124878   1.006   3.406   0.663 -1.4534  0.3547  0.6243
 4472SOL    HW224879   0.912   3.519   0.665 -0.4051  0.1062 -0.0240
 4473SOL     OW24880   0.615   4.498   0.518  0.3928  0.4353 -0.2127
 4473SOL    HW124881   0.674   4.518   0.446  1.0270  0.0626  0.2026
 4473SOL    HW224882   0.534   4.490   0.468 -0.4113  1.0464  0.9773
 4474SOL     OW24883   3.378   0.626   5.412  0.4213  0.0828  0.2019
 4474SOL    HW124884   3.310   0.563   5.435  0.9092  0.0907  1.7086
 4474SOL    HW224885   3.324   0.693   5.369  0.6665 -0.5056 -1.0176
 4475SOL     OW24886   0.671   2.674   8.704 -0.9322  0.1392  0.0398
 4475SOL    HW124887   0.666   2.631   8.618  2.0033  1.2933 -0.7092
 4475SOL    HW224888   0.581   2.671   8.736 -0.2869  1.1119  1.9225
 4476SOL     OW24889   0.458   2.561   5.513 -0.4009  0.4153 -0.1141
 4476SOL    HW124890   0.530   2.588   5.569  0.1479  2.4414 -1.8058
 4476SOL    HW224891   0.480   2.579   5.422  1.3363 -2.1960 -0.2008
 4477SOL     OW24892   1.928   0.073   3.766 -0.2012 -0.0503 -0.0510
 4477SOL    HW124893   1.895   0.161   3.746  1.8658  0.5271 -1.0259
 4477SOL    HW224894   1.994   0.092   3.699  0.5200  0.2369  0.7377
 4478SOL     OW24895   1.693   0.028   7.581  0.2818 -0.2123  0.0600
 4478SOL    HW124896   1.771   0.001   7.533  1.1587  1.3621  0.5959
 4478SOL    HW224897   1.728   0.098   7.636  1.6204  0.4123 -1.5869
 4479SOL     OW24898   0.314   1.172   9.746 -0.3144  0.4930 -0.0539
 4479SOL    HW124899   0.300   1.257   9.704  0.1013  0.8933  0.6358
 4479SOL    HW224900   0.229   1.155   9.786  0.4629 -1.8224  0.6441
 4480SOL     OW24901   0.431   0.348  13.110 -0.2823  0.7353  0.2416
 4480SOL    HW124902   0.453   0.354  13.017  2.2499  1.5036  0.8848
 4480SOL    HW224903   0.473   0.424  13.150  2.9056 -0.4741 -0.7493
 4481SOL     OW24904   1.518   1.392   3.436  0.8320 -0.1006 -0.3968
 4481SOL    HW124905   1.433   1.388   3.393  0.0162 -0.1047  1.2404
 4481SOL    HW224906   1.488   1.384   3.527  0.1736  0.0293 -0.6025
 4482SOL     OW24907   0.441   0.450   5.066  0.0709 -0.2272 -0.3741
 4482SOL    HW124908   0.437   0.406   5.152 -2.5151  3.2554  1.2887
 4482SOL    HW224909   0.387   0.525   5.091 -0.8228 -0.3632 -1.9231
 4483SOL     OW24910   3.122   3.281   0.972 -0.3303  0.3321  0.3311
 4483SOL    HW124911   3.045   3.318   1.014  0.5312  2.6775 -0.1652
 4483SOL    HW224912   3.174   3.361   0.962 -1.5628  1.3837  2.5954
 4484SOL     OW24913   3.933   1.519   2.311 -0.0752 -0.2802  0.0667
 4484SOL    HW124914   3.887   1.437   2.294  2.5339 -0.9656 -3.7408
 4484SOL    HW224915   3.890   1.558   2.387  2.6049  0.7984  1.0279
 4485SOL     OW24916   1.526   0.009  11.256  0.2181  0.2313 -0.5448
 4485SOL    HW124917   1.439   0.025  11.220  0.1012  0.3892 -0.1972
 4485SOL    HW224918   1.510   0.051  11.341 -2.2001 -1.7965  0.0164
 4486SOL     OW24919   0.777   4.213   8.097 -0.3520 -0.8081  0.0651
 4486SOL    HW124920   0.799   4.253   8.182  1.5157 -0.4570 -0.5740
 4486SOL    HW224921   0.862   4.222   8.054 -1.0212 -0.9994 -1.2951
 4487SOL     OW24922   1.628   0.442   7.320  0.0357 -0.5227 -0.2926
 4487SOL    HW124923   1.721   0.424   7.335 -0.3620 -1.5766  1.0023
 4487SOL    HW224924   1.588   0.378   7.379 -1.1005 -1.5277 -2.1638
 4488SOL     OW24925   1.076   0.483   7.603  0.2327  0.4531  0.3814
 4488SOL    HW124926   1.160   0.503   7.562  0.7125 -0.2567  1.0269
 4488SOL    HW224927   1.036   0.570   7.599  0.5649  0.5873 -0.0835
 4489SOL     OW24928   2.138   0.551   4.574 -0.4535 -0.3418 -0.1539
 4489SOL    HW124929   2.222   0.555   4.618 -0.0711  0.2618 -0.9336
 4489SOL    HW224930   2.152   0.467   4.530  2.5247  0.9732 -1.7229
 4490SOL     OW24931   1.914   3.290  10.230 -0.1713 -0.2948 -0.8705
 4490SOL    HW124932   1.871   3.208  10.204  0.5542 -0.4256 -1.6543
 4490SOL    HW224933   1.855   3.352  10.187  0.8845  0.7993 -0.7374
 4491SOL     OW24934   1.834   2.025   4.939  0.1385  0.2122  0.4123
 4491SOL    HW124935   1.808   2.047   5.028  0.4684 -0.4526  0.6721
 4491SOL    HW224936   1.829   1.930   4.946 -0.3142  0.2727  0.9090
 4492SOL     OW24937   3.238   3.411   6.271  0.5913  0.9664 -0.2047
 4492SOL    HW124938   3.194   3.404   6.356  2.3131 -1.4680  0.4896
 4492SOL    HW224939   3.239   3.317   6.254 -0.4398  1.1190 -1.1067
 4493SOL     OW24940   1.159   0.694   2.087 -0.4467 -0.0698  1.0068
 4493SOL    HW124941   1.201   0.734   2.163  0.2859 -0.8526  1.0190
 4493SOL    HW224942   1.223   0.627   2.063 -1.3368 -0.6924  0.3958
 4494SOL     OW24943   4.303   2.598   6.078  0.1745  0.6124 -0.6389
 4494SOL    HW124944   4.307   2.503   6.086 -0.4631  0.7666  1.5471
 4494SOL    HW224945   4.340   2.634   6.159 -0.1413 -1.6217  0.4996
 4495SOL     OW24946   0.495   3.680   4.692 -0.5743  0.1291 -0.0455
 4495SOL    HW124947   0.579   3.675   4.646  0.5820  2.2085  1.8626
 4495SOL    HW224948   0.482   3.774   4.701 -1.4823 -0.3098  3.3815
 4496SOL     OW24949   3.002   3.526   2.976  0.0443 -0.0357  0.2050
 4496SOL    HW124950   3.046   3.481   3.049 -0.1596 -1.6516 -0.6736
 4496SOL    HW224951   3.072   3.587   2.953 -0.8622  0.8298 -0.2338
 4497SOL     OW24952   0.179   1.434   4.090 -0.4516 -1.1437  0.0937
 4497SOL    HW124953   0.121   1.399   4.157  1.3470  0.6976  2.6131
 4497SOL    HW224954   0.123   1.476   4.025  2.8507  2.3959 -0.4680
 4498SOL     OW24955   0.643   1.232   5.692  0.3408  0.2053 -0.3484
 4498SOL    HW124956   0.658   1.326   5.701  1.3295 -0.2353  2.6032
 4498SOL    HW224957   0.711   1.201   5.632 -0.7999 -0.2708 -1.3836
 4499SOL     OW24958   0.529   2.991   6.818  0.7406  0.2026  0.6363
 4499SOL    HW124959   0.465   3.040   6.869  0.7528  2.8215 -1.8798
 4499SOL    HW224960   0.572   2.941   6.887  0.3725 -2.0591 -0.7701
 4500SOL     OW24961   4.596   1.301   4.837 -0.0067  0.5416  0.6008
 4500SOL    HW124962   4.566   1.392   4.838  1.3414  1.0209 -1.4450
 4500SOL    HW224963   4.515   1.265   4.801  0.2184 -0.5911  1.2477
 4501SOL     OW24964   3.885   2.322   3.707  0.5529 -0.3864  0.4555
 4501SOL    HW124965   3.872   2.319   3.802 -1.2320 -1.0211  0.2057
 4501SOL    HW224966   3.980   2.326   3.709  0.5530 -0.8385  1.2691
 4502SOL     OW24967   4.286   2.625   4.061  0.2982  0.0716 -0.2302
 4502SOL    HW124968   4.307   2.646   3.970  2.5374  0.5178  0.4132
 4502SOL    HW224969   4.233   2.546   4.049 -0.1590  0.6790 -2.2015
 4503SOL     OW24970   4.658   3.380   4.041 -0.0821  0.0411  0.6013
 4503SOL    HW124971   4.679   3.289   4.063  0.4982  0.2043  0.7189
 4503SOL    HW224972   4.642   3.365   3.948 -0.0048  0.1034  0.5781
 4504SOL     OW24973   3.561   1.078   7.489  0.7121  0.2098 -0.0985
 4504SOL    HW124974   3.613   1.144   7.534 -1.3721  0.8825  1.3550
 4504SOL    HW224975   3.470   1.103   7.508  0.7251 -0.6910  1.1761
 4505SOL     OW24976   2.551   4.597  10.079  0.5185 -0.2716 -0.4636
 4505SOL    HW124977   2.637   4.620  10.114  0.3136  0.2317 -0.2880
 4505SOL    HW224978   2.526   4.513  10.117 -0.3049 -0.8175 -2.2223
 4506SOL     OW24979   0.792   2.735   5.576 -0.2848  0.5156  0.4278
 4506SOL    HW124980   0.755   2.800   5.636 -0.2195  2.3237 -1.4806
 4506SOL    HW224981   0.751   2.657   5.613  2.4689 -1.3992 -0.5379
 4507SOL     OW24982   4.637   3.290  12.223 -0.3082 -0.4057  0.2344
 4507SOL    HW124983   4.561   3.348  12.231 -0.7850 -1.0145  0.1330
 4507SOL    HW224984   4.594   3.219  12.175 -1.2341  1.2894 -1.4682
 4508SOL     OW24985   2.280   0.411   5.489  0.3452 -0.0722 -0.0118
 4508SOL    HW124986   2.226   0.488   5.472 -1.2902 -1.3401 -0.5195
 4508SOL    HW224987   2.234   0.355   5.552 -0.6644 -1.1858 -1.7377
 4509SOL     OW24988   4.209   3.819  13.751  0.2964 -0.1163 -0.3724
 4509SOL    HW124989   4.295   3.826  13.792  0.4820 -1.7000 -0.4822
 4509SOL    HW224990   4.219   3.741  13.696  2.0198  0.0652 -0.2905
 4510SOL     OW24991   1.094   1.994   8.183 -0.1156 -0.4234  0.1165
 4510SOL    HW124992   1.066   1.905   8.166 -0.4116 -0.4472  0.7039
 4510SOL    HW224993   1.132   1.972   8.268 -1.4296  1.5232  1.2408
 4511SOL     OW24994   1.496   0.433  11.745 -0.3816 -0.1358 -1.0168
 4511SOL    HW124995   1.495   0.423  11.840 -2.2595  0.2242 -0.9885
 4511SOL    HW224996   1.584   0.467  11.729 -0.1389 -0.1007  0.4053
 4512SOL     OW24997   2.079   4.373   3.440  0.9758 -0.2487 -0.1439
 4512SOL    HW124998   2.070   4.467   3.424 -3.0632 -0.4920  0.5344
 4512SOL    HW224999   1.999   4.349   3.486  1.7311  0.0122  1.2780
 4513SOL     OW25000   0.239   1.735   8.560 -0.2987  0.2819 -0.1699
 4513SOL    HW125001   0.199   1.822   8.558 -0.4544  0.2503  1.9578
 4513SOL    HW225002   0.316   1.747   8.504 -1.3732  1.3430 -1.4181
 4514SOL     OW25003   2.458   0.350   6.389 -0.3500 -0.9561  0.1751
 4514SOL    HW125004   2.423   0.356   6.478 -0.5568  0.5263 -0.0119
 4514SOL    HW225005   2.551   0.341   6.406 -0.2075 -0.9650 -0.6111
 4515SOL     OW25006   2.982   3.078   2.005 -0.2570  0.4539  0.1665
 4515SOL    HW125007   2.972   3.043   2.094 -0.8117 -1.3268 -0.6027
 4515SOL    HW225008   2.893   3.066   1.971  0.5127 -0.0372 -1.6363
 4516SOL     OW25009   3.702   4.244   4.101  0.6114 -0.3971  0.4744
 4516SOL    HW125010   3.697   4.304   4.027  0.1354 -2.4280 -1.1656
 4516SOL    HW225011   3.755   4.294   4.162  0.3901 -1.3720  1.4613
 4517SOL     OW25012   1.251   1.998   5.687 -0.1826 -0.3080 -0.7739
 4517SOL    HW125013   1.193   1.943   5.634  1.5013 -0.8571 -2.0419
 4517SOL    HW225014   1.325   1.938   5.686  0.5147  0.5469  0.3048
 4518SOL     OW25015   0.989   1.361   3.910  0.2607  0.4362  0.2551
 4518SOL    HW125016   0.896   1.340   3.910  0.2138  0.6720 -1.2879
 4518SOL    HW225017   1.030   1.274   3.910 -1.3762 -0.3436  0.4735
 4519SOL     OW25018   1.015   0.446   2.789  0.1939 -0.2392 -0.1507
 4519SOL    HW125019   1.032   0.529   2.745 -0.1924 -0.5048 -0.7972
 4519SOL    HW225020   1.023   0.481   2.878  1.8023 -1.2182  0.0818
 4520SOL     OW25021   0.802   4.563  15.807  0.7924 -0.2171 -0.5055
 4520SOL    HW125022   0.713   4.576  15.838  0.2452 -1.2533 -1.6350
 4520SOL    HW225023   0.790   4.495  15.740  0.0441  0.4502 -1.0371
 4521SOL     OW25024   1.888   0.652   7.388  0.4878  0.0569  0.1407
 4521SOL    HW125025   1.835   0.714   7.337 -0.9085 -0.1702  1.3300
 4521SOL    HW225026   1.976   0.678   7.359  1.5065  0.1389  3.2753
 4522SOL     OW25027   1.514   4.184   8.607  0.5277  0.1854 -0.2403
 4522SOL    HW125028   1.500   4.140   8.524  1.5576  0.1943 -0.4289
 4522SOL    HW225029   1.476   4.268   8.580 -0.8350  0.2248  1.8117
 4523SOL     OW25030   3.812   1.329   9.675 -0.3990  0.2905  0.2088
 4523SOL    HW125031   3.839   1.257   9.617 -1.6097  0.9088 -1.1215
 4523SOL    HW225032   3.869   1.397   9.639 -0.0625  0.4877  1.1241
 4524SOL     OW25033   1.357   3.650   4.546  0.3896  0.3545 -0.1011
 4524SOL    HW125034   1.371   3.565   4.504 -2.6884 -0.3088  0.2341
 4524SOL    HW225035   1.425   3.704   4.505 -0.6219  1.9104  0.2711
 4525SOL     OW25036   2.405   3.058   7.428  0.4580 -0.0542 -0.0572
 4525SOL    HW125037   2.372   3.110   7.355  2.5235 -2.2240 -2.5233
 4525SOL    HW225038   2.494   3.043   7.396  0.3282 -1.1453  0.0990
 4526SOL     OW25039   0.831   3.952   4.852 -0.4106  0.0148  0.2209
 4526SOL    HW125040   0.751   3.935   4.901  0.0832  1.0596  1.3686
 4526SOL    HW225041   0.803   4.028   4.802  1.7665 -0.6919 -2.0874
 4527SOL     OW25042   3.014   3.094   2.459 -0.2904 -0.6644 -0.3672
 4527SOL    HW125043   2.999   3.168   2.517 -1.8617 -1.1659 -0.1215
 4527SOL    HW225044   3.027   3.028   2.527  0.7173  1.8795  1.9150
 4528SOL     OW25045   0.705   1.732  10.504  0.0177  0.2493  0.7789
 4528SOL    HW125046   0.715   1.824  10.479  2.1796  0.0447  0.8857
 4528SOL    HW225047   0.716   1.696  10.416  2.2892  0.0089  1.1626
 4529SOL     OW25048   1.576   1.006   0.015 -0.2803 -0.0536  0.3038
 4529SOL    HW125049   1.612   1.042   0.097  2.8161 -1.7760 -0.3148
 4529SOL    HW225050   1.564   1.093  17.674  1.9339  0.6103  1.1415
 4530SOL     OW25051   3.277   2.085  12.136  0.0145 -0.0398 -0.0858
 4530SOL    HW125052   3.263   2.016  12.072  3.0134 -0.1493 -0.5788
 4530SOL    HW225053   3.188   2.082  12.173 -0.3850  0.1740 -1.0229
 4531SOL     OW25054   1.111   0.009   1.368 -0.4597 -0.0667  0.2087
 4531SOL    HW125055   1.126   0.102   1.352  0.6225 -0.2450  0.1840
 4531SOL    HW225056   1.018   0.027   1.381 -0.5639  0.4233 -1.2241
 4532SOL     OW25057   3.946   1.290  16.288 -0.2206  0.5965 -0.1617
 4532SOL    HW125058   3.879   1.341  16.242 -0.0972 -0.3709 -1.4394
 4532SOL    HW225059   3.907   1.203  16.273  1.1361 -0.8430  4.8499
 4533SOL     OW25060   2.862   1.438   6.344 -0.1038 -0.5021 -0.2831
 4533SOL    HW125061   2.936   1.479   6.299 -1.5655  1.3195 -0.9948
 4533SOL    HW225062   2.896   1.446   6.433  2.4434  1.0394 -1.3885
 4534SOL     OW25063   4.459   4.284   4.705  0.0369  0.0905 -0.6018
 4534SOL    HW125064   4.529   4.336   4.744 -0.5580  0.5749 -0.1864
 4534SOL    HW225065   4.436   4.225   4.777 -0.8823  1.2696  0.0637
 4535SOL     OW25066   2.788   3.288   6.439  0.3537  0.4319 -0.2513
 4535SOL    HW125067   2.807   3.300   6.346  0.1927  2.5435 -0.0185
 4535SOL    HW225068   2.764   3.378   6.464 -1.3979 -0.2471  0.5238
 4536SOL     OW25069   3.363   0.885  11.250  0.8084 -0.4882 -0.6858
 4536SOL    HW125070   3.308   0.958  11.222 -0.6570 -1.1751  0.3740
 4536SOL    HW225071   3.291   0.823  11.266  0.5306  0.1614  0.6338
 4537SOL     OW25072   2.680   1.905  11.367 -0.6275  0.4644  0.4459
 4537SOL    HW125073   2.771   1.889  11.340 -1.8000 -1.3068 -2.4307
 4537SOL    HW225074   2.696   1.859  11.450 -0.2766 -0.7353 -0.2918
 4538SOL     OW25075   2.776   0.398   0.541 -0.4443 -0.2753  0.2703
 4538SOL    HW125076   2.856   0.413   0.491 -0.7736 -2.3367 -0.8733
 4538SOL    HW225077   2.711   0.387   0.472  2.8949 -0.8898 -2.7625
 4539SOL     OW25078   0.038   4.420   7.312  0.2800  0.0035  0.2191
 4539SOL    HW125079   0.001   4.376   7.388  2.0630  0.3256  1.2850
 4539SOL    HW225080   4.686   4.425   7.254  1.5522 -0.6797 -1.5007
 4540SOL     OW25081   3.466   2.263   8.983  0.1199 -0.0805  0.5436
 4540SOL    HW125082   3.377   2.254   8.948 -0.0809 -1.9517  1.5398
 4540SOL    HW225083   3.450   2.339   9.039 -0.5294 -1.6785  2.5218
 4541SOL     OW25084   2.968   0.034   5.153  0.1617 -0.2065 -0.1352
 4541SOL    HW125085   3.005   0.026   5.066  1.9696 -1.3480  0.7447
 4541SOL    HW225086   2.903   0.104   5.147 -1.7692 -1.8917  0.8939
 4542SOL     OW25087   2.241   2.243  15.687 -0.1958 -0.0069 -0.1533
 4542SOL    HW125088   2.285   2.322  15.718  0.4243 -0.4403  0.0652
 4542SOL    HW225089   2.205   2.207  15.769 -3.1473  1.9261 -0.6001
 4543SOL     OW25090   4.258   3.518   2.129  0.2937  0.7926 -0.9152
 4543SOL    HW125091   4.173   3.557   2.110 -0.7385 -0.2090  1.5554
 4543SOL    HW225092   4.237   3.478   2.214 -0.5860  0.3439 -1.3437
 4544SOL     OW25093   4.252   0.377   7.129 -0.0520  0.2650  0.0702
 4544SOL    HW125094   4.229   0.288   7.100 -2.0395  0.1799  1.8447
 4544SOL    HW225095   4.241   0.414   7.042 -3.1139  0.9191  0.7179
 4545SOL     OW25096   0.946   2.601  16.260  0.5354  0.1944 -0.5476
 4545SOL    HW125097   0.942   2.575  16.168  0.5912 -2.9795  0.3425
 4545SOL    HW225098   0.871   2.660  16.264  0.5084  0.0704  0.8774
 4546SOL     OW25099   1.222   2.364  15.383  0.1202 -0.0241  0.0079
 4546SOL    HW125100   1.146   2.311  15.360 -0.0892 -0.1188  0.9463
 4546SOL    HW225101   1.202   2.433  15.319 -0.4383  0.7277  1.0003
 4547SOL     OW25102   4.670   3.437   8.335  0.3315  0.4196 -0.1241
 4547SOL    HW125103   4.594   3.423   8.278  1.1749 -1.5720 -0.7628
 4547SOL    HW225104   0.003   3.480   8.270  0.7452 -0.3385 -0.2616
 4548SOL     OW25105   0.564   4.285   2.502 -0.5039  0.1510  0.1961
 4548SOL    HW125106   0.489   4.226   2.511  0.7022 -1.5097 -0.6215
 4548SOL    HW225107   0.588   4.258   2.413 -1.4563 -1.9104  0.5674
 4549SOL     OW25108   3.740   3.859   3.581 -0.5294  0.3677 -0.3330
 4549SOL    HW125109   3.713   3.949   3.598 -1.9806  0.3198 -2.4541
 4549SOL    HW225110   3.834   3.865   3.563 -0.2899 -1.6440  0.2595
 4550SOL     OW25111   4.373   4.576   0.916 -0.2013 -0.5936 -0.1389
 4550SOL    HW125112   4.359   4.584   0.822  1.6806  0.1398 -0.3442
 4550SOL    HW225113   4.463   4.543   0.916  0.3891  1.0575  1.5441
 4551SOL     OW25114   0.676   0.942   6.291  0.4794 -0.1845  0.1086
 4551SOL    HW125115   0.670   1.033   6.319 -0.6681  0.0352 -0.8924
 4551SOL    HW225116   0.630   0.906   6.368 -0.2008 -1.3756 -0.8546
 4552SOL     OW25117   0.269   1.709  12.272  0.2306 -0.4001 -0.4634
 4552SOL    HW125118   0.359   1.732  12.294  0.5084  0.1496 -2.1312
 4552SOL    HW225119   0.276   1.631  12.216  0.2950 -1.8731  1.6254
 4553SOL     OW25120   0.814   4.280   6.018  0.2167 -0.2595 -0.0062
 4553SOL    HW125121   0.759   4.254   6.092 -1.2383  3.6274  0.2969
 4553SOL    HW225122   0.772   4.240   5.942 -0.8077  1.0017 -0.0937
 4554SOL     OW25123   0.161   1.349   2.970 -0.4065 -0.0283  0.1392
 4554SOL    HW125124   0.253   1.336   2.947 -1.1663 -2.8352 -1.3645
 4554SOL    HW225125   0.158   1.444   2.963  0.7840  0.0222  0.3414
 4555SOL     OW25126   3.267   4.291   3.102 -0.5692 -0.0360  0.2965
 4555SOL    HW125127   3.247   4.245   3.021  0.9638 -0.6076  0.2443
 4555SOL    HW225128   3.235   4.380   3.087 -2.2604 -0.6243  0.4164
 4556SOL     OW25129   4.532   2.487   3.972  0.5490 -0.1927  0.3136
 4556SOL    HW125130   4.464   2.428   4.002 -0.1873  0.2900 -0.3902
 4556SOL    HW225131   4.484   2.517   3.895 -1.4525  1.2253  2.1193
 4557SOL     OW25132   0.217   3.336   0.773  0.2968  0.2099 -0.8488
 4557SOL    HW125133   0.166   3.357   0.695  0.7042  2.6444 -0.4680
 4557SOL    HW225134   0.242   3.424   0.800 -1.2877  0.9748 -1.9120
 4558SOL     OW25135   0.037   0.595   1.490 -0.1067 -0.3729  1.1082
 4558SOL    HW125136   0.047   0.690   1.490 -3.0714 -0.0594 -1.3939
 4558SOL    HW225137   0.075   0.574   1.405 -1.0115 -1.6489  1.0109
 4559SOL     OW25138   0.085   1.991  12.997  0.5435 -0.4180 -0.1808
 4559SOL    HW125139   0.156   1.969  13.057  0.0799 -0.3994  0.3713
 4559SOL    HW225140   0.022   2.039  13.050  1.5071 -0.6085  1.1515
 4560SOL     OW25141   1.821   3.058  13.238 -0.6706 -0.1172 -0.4035
 4560SOL    HW125142   1.738   3.037  13.280  0.4279  1.9631  2.7766
 4560SOL    HW225143   1.797   3.129  13.179 -2.0886 -0.9750 -0.8556
 4561SOL     OW25144   0.781   2.074   9.658  0.3125 -0.0834  0.0593
 4561SOL    HW125145   0.805   1.983   9.643  1.0175  0.1263 -0.0738
 4561SOL    HW225146   0.690   2.074   9.687  0.2775 -0.8743 -0.0496
 4562SOL     OW25147   2.113   2.865  11.707  0.7120 -0.1512  0.5632
 4562SOL    HW125148   2.148   2.785  11.666 -0.1540  1.0728 -2.5791
 4562SOL    HW225149   2.094   2.826  11.792  1.9952 -1.4704  0.2496
 4563SOL     OW25150   0.667   1.950  14.094 -0.1366  0.0017  0.3267
 4563SOL    HW125151   0.730   1.958  14.023  1.9972 -4.6652  1.6960
 4563SOL    HW225152   0.717   1.940  14.175 -2.1637 -2.3323  1.3226
 4564SOL     OW25153   1.841   2.867  14.274  0.0012 -0.3481 -0.3268
 4564SOL    HW125154   1.873   2.957  14.269 -1.7235  0.2023 -1.5554
 4564SOL    HW225155   1.794   2.861  14.357  3.6410 -1.7163  1.6638
 4565SOL     OW25156   1.363   4.039   6.510  0.6566 -0.6351  0.2232
 4565SOL    HW125157   1.352   4.093   6.588  1.2529 -1.7944  1.1253
 4565SOL    HW225158   1.365   4.098   6.435  0.1598 -0.1592  0.5867
 4566SOL     OW25159   4.560   2.687  12.425  0.3838 -0.0725  0.4802
 4566SOL    HW125160   4.528   2.674  12.514 -0.4845 -1.2517 -0.0002
 4566SOL    HW225161   4.647   2.649  12.436 -0.1447 -0.8588  1.9141
 4567SOL     OW25162   0.351   3.832   5.455  0.2083  0.3728 -0.3022
 4567SOL    HW125163   0.422   3.849   5.517 -0.0394 -0.0155  0.0844
 4567SOL    HW225164   0.362   3.739   5.433  2.7988  0.2026  1.6971
 4568SOL     OW25165   2.072   0.924   5.492  0.0137  1.1359  0.0914
 4568SOL    HW125166   2.055   1.018   5.502  1.0311  1.2048  1.1552
 4568SOL    HW225167   2.038   0.919   5.403  1.4641  1.7348 -0.4882
 4569SOL     OW25168   2.397   1.050   2.472 -0.0172 -0.4457  0.3121
 4569SOL    HW125169   2.395   0.988   2.399  1.2204 -0.4935  0.3154
 4569SOL    HW225170   2.463   1.009   2.528  0.2161 -1.2307 -0.5281
 4570SOL     OW25171   1.928   0.062   3.134  0.1457  0.5156  0.0400
 4570SOL    HW125172   1.912   0.081   3.041 -0.5214  0.4783  0.1452
 4570SOL    HW225173   1.886   4.699   3.135 -1.3520  1.2739  1.9119
 4571SOL     OW25174   1.416   0.728  16.418  0.4780  0.5422 -0.0067
 4571SOL    HW125175   1.495   0.777  16.395 -0.7318  1.7515 -1.6215
 4571SOL    HW225176   1.358   0.791  16.461  0.7490 -0.3383  1.6661
 4572SOL     OW25177   0.004   1.175   2.590 -0.4456  0.2017  0.3805
 4572SOL    HW125178   4.692   1.213   2.670  2.6739  1.4881  1.1883
 4572SOL    HW225179   4.667   1.101   2.587 -1.0305  0.6464  1.2888
 4573SOL     OW25180   2.450   0.209  11.801 -0.9081 -0.0500  0.2185
 4573SOL    HW125181   2.461   0.243  11.712  0.5269 -0.1079  0.3741
 4573SOL    HW225182   2.429   0.117  11.786  1.2072 -0.2774 -1.3932
 4574SOL     OW25183   3.262   1.503   6.466  0.3810  0.3417 -0.2082
 4574SOL    HW125184   3.254   1.438   6.536 -0.3760  0.9585  0.2717
 4574SOL    HW225185   3.222   1.582   6.502  0.7724  0.7383 -0.6307
 4575SOL     OW25186   1.798   3.519   0.746 -0.1993 -0.0100  0.0835
 4575SOL    HW125187   1.832   3.430   0.751  0.4138  0.3049  1.4109
 4575SOL    HW225188   1.856   3.568   0.687  1.8512 -0.6051  1.6000
 4576SOL     OW25189   0.344   0.275  11.316  0.1875 -1.0715  0.1994
 4576SOL    HW125190   0.339   0.361  11.275 -0.8078 -0.8981  0.6948
 4576SOL    HW225191   0.431   0.250  11.283 -0.3095 -1.8456 -0.5504
 4577SOL     OW25192   4.619   4.565   3.898  0.6907  0.6072  0.1781
 4577SOL    HW125193   4.710   4.587   3.921  0.2468  1.2479  1.3285
 4577SOL    HW225194   4.600   4.645   3.850  3.1555  0.2487 -1.3889
 4578SOL     OW25195   1.053   2.640   1.900  0.0252 -0.2519  0.1988
 4578SOL    HW125196   1.142   2.619   1.870 -0.3369 -0.5085 -0.7109
 4578SOL    HW225197   1.003   2.608   1.825 -0.4887  1.5526 -0.2324
 4579SOL     OW25198   4.178   2.514   4.611  0.4537 -0.1042  0.5795
 4579SOL    HW125199   4.095   2.468   4.610 -0.1090  0.9526 -0.8737
 4579SOL    HW225200   4.191   2.534   4.704  1.2407 -0.8878  0.6380
 4580SOL     OW25201   4.446   2.647   7.741 -0.0605  0.2296  0.5614
 4580SOL    HW125202   4.496   2.676   7.818  0.0563  0.6655  0.3213
 4580SOL    HW225203   4.360   2.643   7.785 -0.6507  0.3141 -0.5949
 4581SOL     OW25204   4.037   0.809   3.606 -0.3284  0.2364 -0.0834
 4581SOL    HW125205   4.107   0.743   3.611 -1.7103 -1.1679  0.8199
 4581SOL    HW225206   4.064   0.890   3.649 -2.3295  1.8353 -1.8432
 4582SOL     OW25207   1.838   1.733   3.231  0.1883 -0.3395 -0.3715
 4582SOL    HW125208   1.795   1.774   3.156  0.5259  0.0505 -0.3543
 4582SOL    HW225209   1.807   1.793   3.300 -3.9600 -1.1021 -1.5592
 4583SOL     OW25210   0.169   1.661   8.851  0.1502 -0.8398  0.3867
 4583SOL    HW125211   0.237   1.688   8.912  0.5790  0.4635 -0.6739
 4583SOL    HW225212   0.190   1.707   8.770  0.5809 -1.1272  0.3348
 4584SOL     OW25213   4.382   2.823  10.353  0.0922  0.7949  0.0881
 4584SOL    HW125214   4.428   2.791  10.431 -0.6226 -1.0799 -0.2707
 4584SOL    HW225215   4.294   2.807  10.386 -0.0616  0.2108 -0.6189
 4585SOL     OW25216   1.515   4.252  11.440 -0.0184  0.1223  0.2098
 4585SOL    HW125217   1.506   4.331  11.493  0.2811  0.0702  0.3359
 4585SOL    HW225218   1.587   4.200  11.475  0.1495 -1.1775 -2.0912
 4586SOL     OW25219   4.488   2.738   2.892 -0.1075 -0.2019  0.6944
 4586SOL    HW125220   4.402   2.707   2.921 -0.6390  2.2598  1.8052
 4586SOL    HW225221   4.466   2.793   2.817 -2.0695 -1.0542  0.6433
 4587SOL     OW25222   0.312   2.122   7.814 -0.0571 -0.2773 -0.5395
 4587SOL    HW125223   0.306   2.213   7.785 -0.0572 -0.9005 -2.4571
 4587SOL    HW225224   0.396   2.143   7.856  0.7754 -1.4511 -1.6174
 4588SOL     OW25225   3.526   2.574   3.237  0.0063 -0.3224 -0.1070
 4588SOL    HW125226   3.497   2.646   3.293  1.1057 -0.8896  1.1804
 4588SOL    HW225227   3.453   2.515   3.257 -0.6568  1.3046  2.2857
 4589SOL     OW25228   1.337   2.474  12.985  0.6973  0.1701  0.3557
 4589SOL    HW125229   1.427   2.488  13.014  1.0814 -0.8956 -0.3186
 4589SOL    HW225230   1.311   2.421  13.060 -1.0313  1.0410  0.3725
 4590SOL     OW25231   4.527   1.766  11.822  0.1115 -0.2778 -0.7629
 4590SOL    HW125232   4.433   1.771  11.839  0.6158 -0.2822  1.9787
 4590SOL    HW225233   4.544   1.672  11.832 -0.1328 -0.3234 -0.7740
 4591SOL     OW25234   3.085   4.467   1.265 -0.3265  0.2972 -0.8885
 4591SOL    HW125235   3.144   4.486   1.192  0.9368 -1.7414 -0.3817
 4591SOL    HW225236   3.105   4.375   1.278 -0.5366  0.1717 -1.4192
 4592SOL     OW25237   3.230   1.434   7.192 -0.0272  0.1720  0.0785
 4592SOL    HW125238   3.200   1.432   7.101  1.7265 -2.1632 -0.4227
 4592SOL    HW225239   3.278   1.516   7.205 -2.3718  1.4838  0.5474
 4593SOL     OW25240   4.240   1.581   9.336  0.2403 -0.2189  0.0055
 4593SOL    HW125241   4.318   1.589   9.390  0.8700  0.8157 -1.0509
 4593SOL    HW225242   4.179   1.572   9.409  0.5302 -0.0376  0.2709
 4594SOL     OW25243   0.429   1.824  14.079  0.0885  0.0141 -0.1879
 4594SOL    HW125244   0.515   1.857  14.104 -0.6005  0.3048  1.9096
 4594SOL    HW225245   0.453   1.752  14.022  0.4851 -0.1082  0.1373
 4595SOL     OW25246   0.515   1.842   8.853  0.3441 -0.4368 -0.0118
 4595SOL    HW125247   0.602   1.881   8.850 -0.0600  0.4149 -0.7595
 4595SOL    HW225248   0.458   1.899   8.905  1.6012  0.7371  0.0817
 4596SOL     OW25249   3.161   1.455   6.922 -0.7283  0.3004  0.0750
 4596SOL    HW125250   3.173   1.546   6.896  0.3197  0.3309  0.6473
 4596SOL    HW225251   3.078   1.442   6.876 -1.3652  2.1748  0.6889
 4597SOL     OW25252   3.998   2.971   2.550  0.1116 -0.4094 -0.1200
 4597SOL    HW125253   4.044   3.031   2.491  0.9973  0.6114  1.6174
 4597SOL    HW225254   4.064   2.911   2.583 -0.4089 -0.6838  0.4130
 4598SOL     OW25255   2.325   3.401   3.775  1.1379  0.0192 -0.1777
 4598SOL    HW125256   2.338   3.405   3.681 -1.1019  2.3134 -0.3563
 4598SOL    HW225257   2.377   3.476   3.804 -0.3132  1.8447 -2.4220
 4599SOL     OW25258   3.194   1.450   8.888  0.7436 -0.0419  0.5757
 4599SOL    HW125259   3.188   1.488   8.801 -0.9979  0.5444  0.9655
 4599SOL    HW225260   3.271   1.495   8.923  1.0889  0.3158 -0.6393
 4600SOL     OW25261   2.527   4.040   8.393 -0.3010  0.2116  0.6944
 4600SOL    HW125262   2.568   3.954   8.399 -1.6099 -0.4634  0.0034
 4600SOL    HW225263   2.575   4.086   8.461 -0.6212 -0.5272  1.4272
 4601SOL     OW25264   0.130   3.709  17.084 -0.1646 -0.1547  0.7018
 4601SOL    HW125265   0.037   3.723  17.100 -0.6499 -1.3311 -1.0628
 4601SOL    HW225266   0.168   3.777  17.139  0.3040 -0.6553  0.9966
 4602SOL     OW25267   1.230   2.398   7.194 -0.2505 -0.3650  0.6360
 4602SOL    HW125268   1.214   2.356   7.278  2.0113 -2.2358  0.1242
 4602SOL    HW225269   1.313   2.445   7.210 -0.6034  0.4126  0.1967
 4603SOL     OW25270   4.014   0.046   5.867  0.5375  0.2604 -0.2254
 4603SOL    HW125271   4.042   4.691   5.820  2.1945  0.5512  0.2946
 4603SOL    HW225272   4.000   0.117   5.803  1.3654 -0.3746 -1.1129
 4604SOL     OW25273   3.946   1.643  15.259  0.1029  0.4101  0.2365
 4604SOL    HW125274   3.861   1.639  15.216  0.0995 -1.4938  0.4469
 4604SOL    HW225275   3.996   1.709  15.211  0.4691  0.3577  0.5364
 4605SOL     OW25276   1.449   2.036   0.825 -0.0720 -0.0289 -0.5419
 4605SOL    HW125277   1.443   2.001   0.914 -0.3494  0.2306 -0.4591
 4605SOL    HW225278   1.387   1.981   0.778 -0.8497  0.9532 -0.6493
 4606SOL     OW25279   3.103   1.654  14.060  0.1311  0.1175 -0.4320
 4606SOL    HW125280   3.150   1.572  14.069 -2.8810 -1.4070  1.2923
 4606SOL    HW225281   3.159   1.724  14.096  1.2865 -1.9664  1.8243
 4607SOL     OW25282   3.364   1.360  17.581  0.3263 -0.2284  0.5344
 4607SOL    HW125283   3.307   1.387  17.653  0.4572  2.1453 -0.2490
 4607SOL    HW225284   3.317   1.282  17.550  1.7321 -0.9006  0.1058
 4608SOL     OW25285   3.295   1.313   7.723 -0.6526 -0.0096  0.9157
 4608SOL    HW125286   3.359   1.265   7.776 -1.2156 -1.0347  0.6804
 4608SOL    HW225287   3.222   1.318   7.784 -0.0089  0.3206  1.6603
 4609SOL     OW25288   3.956   3.480   8.693 -0.1159  0.2551 -0.5336
 4609SOL    HW125289   4.045   3.485   8.657  1.1317  0.2871  2.5359
 4609SOL    HW225290   3.930   3.571   8.675 -0.2008  0.1823 -0.7822
 4610SOL     OW25291   2.688   0.074   6.616  0.5355 -0.1814 -0.2058
 4610SOL    HW125292   2.706   0.120   6.534  1.7494 -3.0577 -1.5511
 4610SOL    HW225293   2.772   0.069   6.660  0.8137  2.4883 -0.4307
 4611SOL     OW25294   2.685   3.641   0.701 -0.1170  0.1767 -0.2886
 4611SOL    HW125295   2.771   3.659   0.662 -0.3470  0.8402 -0.4821
 4611SOL    HW225296   2.711   3.558   0.742 -0.7707  0.2210  0.2093
 4612SOL     OW25297   3.027   1.352   5.965  0.5407 -0.1778 -0.0139
 4612SOL    HW125298   2.980   1.430   5.936 -1.1508  0.4449  4.3307
 4612SOL    HW225299   3.100   1.393   6.011 -1.2874  0.9241  1.9160
 4613SOL     OW25300   1.203   3.023   6.650 -0.2027  0.0351  0.7445
 4613SOL    HW125301   1.278   2.976   6.686  1.5958  2.0691 -0.3250
 4613SOL    HW225302   1.239   3.110   6.632  1.8413 -0.7759  0.9289
 4614SOL     OW25303   0.878   1.209   1.030 -0.1651 -0.3357 -0.2706
 4614SOL    HW125304   0.799   1.165   1.000  0.1971 -0.5889 -0.8583
 4614SOL    HW225305   0.865   1.187   1.122 -1.2370 -1.1104 -0.6035
 4615SOL     OW25306   2.630   0.257  17.287  0.2816 -0.1292  0.5827
 4615SOL    HW125307   2.691   0.229  17.355 -0.7381  0.4725  1.7488
 4615SOL    HW225308   2.597   0.333  17.334 -1.7755 -2.5544  3.0936
 4616SOL     OW25309   0.779   0.414   2.639 -0.1730  0.4370 -0.3102
 4616SOL    HW125310   0.861   0.446   2.676 -0.5409 -0.5723  1.3549
 4616SOL    HW225311   0.797   0.322   2.617  1.2503  0.7802 -0.6134
 4617SOL     OW25312   2.036   3.184   6.392 -0.1253 -0.3258 -0.1285
 4617SOL    HW125313   1.995   3.181   6.479 -1.2736  1.5393 -0.6270
 4617SOL    HW225314   2.124   3.207   6.421 -1.0313  3.6266 -0.6262
 4618SOL     OW25315   3.281   4.216  14.085 -0.2595 -0.1334 -0.1298
 4618SOL    HW125316   3.297   4.178  13.999 -1.6211 -0.4064 -0.2623
 4618SOL    HW225317   3.186   4.214  14.095 -0.4989 -1.7375 -2.9591
 4619SOL     OW25318   0.668   2.414   6.496 -0.2334 -0.1445 -0.4582
 4619SOL    HW125319   0.744   2.471   6.510 -1.1618  0.7716  0.8269
 4619SOL    HW225320   0.699   2.327   6.521  1.9206  0.7498  0.0137
 4620SOL     OW25321   3.939   2.897  14.789  0.4235 -0.1653  0.5993
 4620SOL    HW125322   4.022   2.911  14.835  0.9866 -0.5101 -0.3168
 4620SOL    HW225323   3.934   2.972  14.730  1.0396 -2.2536 -2.0890
 4621SOL     OW25324   2.473   4.334   1.071 -0.5656  0.8006 -0.3787
 4621SOL    HW125325   2.501   4.339   1.162  0.0687  0.2964 -0.5445
 4621SOL    HW225326   2.400   4.396   1.068 -2.1180 -1.0055  0.1709
 4622SOL     OW25327   3.041   4.465   3.955 -0.0093  0.1661  0.1451
 4622SOL    HW125328   2.971   4.439   3.894 -0.3948  1.0328  0.2316
 4622SOL    HW225329   3.107   4.404   3.922  0.9611  0.8530  0.8350
 4623SOL     OW25330   4.650   2.351   6.677  0.2476 -0.3603 -0.4955
 4623SOL    HW125331   4.669   2.282   6.614 -0.5953  0.1645 -1.3389
 4623SOL    HW225332   4.573   2.318   6.723  0.0446 -0.9921 -1.2929
 4624SOL     OW25333   3.957   1.693   5.407 -0.0889 -0.0239 -0.3331
 4624SOL    HW125334   3.962   1.766   5.345 -0.7476  1.3486  1.2097
 4624SOL    HW225335   4.001   1.718   5.489 -2.1249 -0.7654  1.0032
 4625SOL     OW25336   3.855   3.624   6.969 -0.4760  0.0301  0.1445
 4625SOL    HW125337   3.835   3.706   6.922  0.5118  0.6728  0.8317
 4625SOL    HW225338   3.835   3.642   7.060 -0.6513  0.3963  0.0370
 4626SOL     OW25339   3.396   2.121  13.154  0.1109  0.4871 -0.3132
 4626SOL    HW125340   3.446   2.057  13.103 -0.3261 -0.1653  0.0715
 4626SOL    HW225341   3.339   2.067  13.209  0.8560 -0.3903 -0.3980
 4627SOL     OW25342   3.666   2.347   9.322  0.0422  0.0716  0.0337
 4627SOL    HW125343   3.718   2.333   9.401 -1.3351 -4.0005  0.1934
 4627SOL    HW225344   3.586   2.316   9.364  0.1227  0.0964  0.2065
 4628SOL     OW25345   1.535   4.413  12.423  0.1013 -0.1084  0.2520
 4628SOL    HW125346   1.596   4.485  12.403  1.2027 -1.2950 -0.6376
 4628SOL    HW225347   1.460   4.438  12.369  1.0573 -0.7334 -1.3437
 4629SOL     OW25348   0.799   0.600   3.510 -1.0796  0.0692 -0.1397
 4629SOL    HW125349   0.827   0.634   3.425  0.8538  0.6652  0.7370
 4629SOL    HW225350   0.739   0.529   3.486  1.3823 -1.5419 -1.5960
 4630SOL     OW25351   0.671   3.971   6.908  0.3636 -0.2057  0.1918
 4630SOL    HW125352   0.695   4.008   6.823  0.7666 -0.9588 -0.0336
 4630SOL    HW225353   0.668   3.878   6.885  2.2882  0.3476 -2.2828
 4631SOL     OW25354   3.173   4.052   8.829  0.2306 -0.0569 -0.0785
 4631SOL    HW125355   3.176   4.143   8.857  0.4868 -0.1124  0.0681
 4631SOL    HW225356   3.146   4.021   8.915  0.0929 -0.0707 -0.1260
 4632SOL     OW25357   2.879   0.527  17.261  0.2878  0.0579 -0.0829
 4632SOL    HW125358   2.946   0.479  17.310 -0.8091 -0.9584  0.4207
 4632SOL    HW225359   2.930   0.598  17.222 -1.6041  0.7363 -1.3191
 4633SOL     OW25360   0.831   3.014   7.932  0.1105  0.5961  0.0747
 4633SOL    HW125361   0.921   2.986   7.949 -0.0592  0.8749  1.4631
 4633SOL    HW225362   0.783   2.949   7.984 -2.5669  2.5599  0.0395
 4634SOL     OW25363   1.051   2.732  12.513  0.0817 -0.0502  0.1814
 4634SOL    HW125364   1.121   2.689  12.463 -0.6359  1.7254 -2.3264
 4634SOL    HW225365   1.090   2.817  12.533  1.6271 -0.6877 -0.0953
 4635SOL     OW25366   4.554   2.356   7.716 -0.3111 -0.3044 -0.7733
 4635SOL    HW125367   4.548   2.452   7.713 -0.8901 -0.2405  2.5029
 4635SOL    HW225368   4.504   2.337   7.794  1.2624 -0.1572  0.2775
 4636SOL     OW25369   0.069   3.193   6.447 -0.8887  0.1809  0.2280
 4636SOL    HW125370   0.005   3.202   6.376  0.0335 -0.5896 -0.7021
 4636SOL    HW225371   0.085   3.098   6.452  0.7681  0.4825  0.6242
 4637SOL     OW25372   2.362   3.615   9.123 -0.3190 -0.0188  0.0091
 4637SOL    HW125373   2.329   3.679   9.061  0.1295  0.4880  0.2945
 4637SOL    HW225374   2.335   3.529   9.091  2.6673 -0.1549 -2.1298
 4638SOL     OW25375   2.731   1.088  13.316 -0.2181 -0.0498  0.5496
 4638SOL    HW125376   2.639   1.113  13.311  0.9526  3.8842 -0.6843
 4638SOL    HW225377   2.785   1.150  13.267 -1.0085  0.4578  0.3242
 4639SOL     OW25378   0.892   3.053  10.259  0.3495 -0.3144  0.3103
 4639SOL    HW125379   0.928   3.028  10.345  0.7710 -0.1950  0.1705
 4639SOL    HW225380   0.919   2.982  10.201 -0.1955 -0.7844  0.6295
 4640SOL     OW25381   3.667   2.924   7.539 -0.4099 -0.3479  0.6001
 4640SOL    HW125382   3.601   2.958   7.480 -1.9649 -1.6930  1.5607
 4640SOL    HW225383   3.687   3.006   7.585 -0.1740 -0.1770  0.1896
 4641SOL     OW25384   2.472   4.098   7.919  0.4215  0.1788  0.3607
 4641SOL    HW125385   2.469   4.006   7.944  2.9210 -0.3834 -1.4765
 4641SOL    HW225386   2.566   4.113   7.927  0.7134 -1.8374  0.6800
 4642SOL     OW25387   4.062   4.084   4.429 -0.4692  0.0013  0.0474
 4642SOL    HW125388   4.083   4.000   4.468 -0.8999 -0.8029 -1.4472
 4642SOL    HW225389   4.007   4.059   4.354 -0.5023  0.0209  0.0652
 4643SOL     OW25390   2.438   1.848  14.607 -0.0861  0.0525 -0.3838
 4643SOL    HW125391   2.489   1.817  14.683 -1.8517 -2.7351 -0.3150
 4643SOL    HW225392   2.457   1.790  14.534 -0.4726 -0.1355 -0.3348
 4644SOL     OW25393   2.658   1.776  15.115 -0.2773  0.3742 -0.1467
 4644SOL    HW125394   2.726   1.731  15.165 -1.0969  0.4111  0.9988
 4644SOL    HW225395   2.586   1.803  15.172 -2.0804 -1.0160 -1.7424
 4645SOL     OW25396   2.228   4.309  17.358 -0.2481  0.9121  0.3089
 4645SOL    HW125397   2.245   4.259  17.437  2.4292  1.7091  0.2291
 4645SOL    HW225398   2.241   4.402  17.377 -0.4796  1.3016 -1.4192
 4646SOL     OW25399   4.100   1.347   4.693 -0.0150  0.6337  0.4836
 4646SOL    HW125400   4.088   1.441   4.679 -0.1616  0.3018 -1.5847
 4646SOL    HW225401   4.033   1.333   4.760  0.9278  0.6526  1.4453
 4647SOL     OW25402   2.590   4.242   2.615 -0.1889  0.1387  0.4138
 4647SOL    HW125403   2.564   4.217   2.704 -1.3587  1.1305  0.3677
 4647SOL    HW225404   2.601   4.337   2.623  2.6444 -0.2245  0.5664
 4648SOL     OW25405   1.898   1.675   3.727  0.6104 -1.2109  0.2059
 4648SOL    HW125406   1.868   1.600   3.779 -1.8153 -0.1056  0.3962
 4648SOL    HW225407   1.960   1.718   3.786  0.3791 -1.6180  0.7485
 4649SOL     OW25408   3.982   4.292  11.542  0.1934 -0.3355  0.0648
 4649SOL    HW125409   4.023   4.259  11.621  1.3279 -0.7980 -0.7131
 4649SOL    HW225410   4.059   4.285  11.485  0.1564  0.5710 -0.0947
 4650SOL     OW25411   1.628   2.374   1.841  0.1156 -0.3582 -0.3013
 4650SOL    HW125412   1.592   2.386   1.753  0.7660 -2.5582 -0.8812
 4650SOL    HW225413   1.722   2.356   1.835 -0.1019 -2.3983  2.4346
 4651SOL     OW25414   2.903   4.609  16.298 -0.3298  0.5378 -0.1451
 4651SOL    HW125415   2.997   4.589  16.296 -0.3168  0.4050  1.5485
 4651SOL    HW225416   2.893   4.660  16.218  1.9941 -1.9634 -2.0378
 4652SOL     OW25417   3.196   4.669   1.793  0.3576  0.0773  0.9242
 4652SOL    HW125418   3.148   0.004   1.734 -0.4011  0.4676  1.9419
 4652SOL    HW225419   3.235   0.013   1.848  0.5370  0.9559 -0.2751
 4653SOL     OW25420   3.946   3.656  13.821  0.7639  0.3446 -0.4331
 4653SOL    HW125421   4.011   3.720  13.849  2.3147 -1.0567 -0.7793
 4653SOL    HW225422   3.880   3.664  13.890 -1.1509 -2.5836 -1.9079
 4654SOL     OW25423   3.066   0.525   1.793  0.4501 -0.7410  0.6120
 4654SOL    HW125424   3.085   0.476   1.873  1.3013 -1.3220  0.0494
 4654SOL    HW225425   2.982   0.483   1.774 -0.4859  1.0443  0.8318
 4655SOL     OW25426   1.271   3.931   1.315 -0.1640  0.1258 -0.2975
 4655SOL    HW125427   1.355   3.957   1.352  0.0725 -1.1668  0.0821
 4655SOL    HW225428   1.283   3.946   1.221  0.7308 -1.0949 -0.3797
 4656SOL     OW25429   2.668   2.238   4.271  0.1302  0.6085  0.2344
 4656SOL    HW125430   2.598   2.238   4.205  0.5727 -1.5177 -0.2606
 4656SOL    HW225431   2.657   2.151   4.310  2.7392  0.4270  0.5534
 4657SOL     OW25432   2.640   3.413   7.494  0.5627  0.7045  0.8805
 4657SOL    HW125433   2.670   3.348   7.431  0.2832  1.9459 -0.5224
 4657SOL    HW225434   2.698   3.487   7.510  0.8382  0.3065  1.7817
 4658SOL     OW25435   0.874   1.959   2.203  0.5083 -0.5002  0.5954
 4658SOL    HW125436   0.822   1.903   2.261  0.4266 -0.5842  0.4384
 4658SOL    HW225437   0.817   1.965   2.127 -1.2706 -1.3929  1.8660
 4659SOL     OW25438   4.112   1.729  10.854 -0.4621 -0.2384  0.0457
 4659SOL    HW125439   4.197   1.719  10.809 -0.6433 -0.1942 -0.3066
 4659SOL    HW225440   4.116   1.822  10.876 -1.0352  0.0778 -1.1863
 4660SOL     OW25441   0.620   0.449  12.232 -0.0901  0.5253 -0.0052
 4660SOL    HW125442   0.533   0.452  12.191  0.4096  0.4543 -1.0666
 4660SOL    HW225443   0.677   0.397  12.175 -0.8440  1.3682 -1.5315
 4661SOL     OW25444   2.079   2.701   4.802 -0.3571 -0.6829 -0.1157
 4661SOL    HW125445   2.152   2.700   4.864 -1.1787  1.2347  0.9101
 4661SOL    HW225446   2.011   2.748   4.851 -1.4689 -1.0810 -1.2857
 4662SOL     OW25447   0.163   4.418  17.629 -0.3200 -0.0218 -0.4643
 4662SOL    HW125448   0.071   4.391  17.629 -1.0043  2.2726  1.4986
 4662SOL    HW225449   0.188   4.390  17.541 -0.0625  0.5484 -0.5738
 4663SOL     OW25450   3.800   1.354  14.387  0.4704 -0.5858  0.0657
 4663SOL    HW125451   3.865   1.404  14.338 -1.4413  1.1854 -0.6637
 4663SOL    HW225452   3.853   1.275  14.395 -0.4702 -0.9857  2.3378
 4664SOL     OW25453   0.919   3.817  11.257 -0.3774 -0.1879  0.1454
 4664SOL    HW125454   0.915   3.793  11.164 -1.4969 -1.7612  0.6091
 4664SOL    HW225455   0.927   3.729  11.293  0.1198 -0.6713 -1.1261
 4665SOL     OW25456   3.103   3.063   5.455 -0.3135 -0.3687  0.0578
 4665SOL    HW125457   3.037   2.996   5.439 -0.6443 -0.1038  0.3207
 4665SOL    HW225458   3.069   3.128   5.393 -1.6547 -0.8862  0.2474
 4666SOL     OW25459   2.664   2.888  15.861 -0.1676 -0.0103 -1.0379
 4666SOL    HW125460   2.713   2.807  15.878 -0.1109  0.0725 -0.8119
 4666SOL    HW225461   2.589   2.860  15.808 -0.4496 -1.8339  0.3306
 4667SOL     OW25462   0.445   2.421  10.108 -0.2642  0.4137 -0.4257
 4667SOL    HW125463   0.504   2.388  10.040 -0.0684  3.4389 -1.7016
 4667SOL    HW225464   0.430   2.332  10.140 -0.7841  0.3682 -0.7833
 4668SOL     OW25465   0.628   3.121   8.854  0.4464  0.7190 -0.7166
 4668SOL    HW125466   0.576   3.094   8.778 -1.7800 -2.9692  2.1954
 4668SOL    HW225467   0.561   3.180   8.888 -0.1535 -1.1481  1.2876
 4669SOL     OW25468   1.242   3.363   5.962  0.3476 -0.1083  0.5094
 4669SOL    HW125469   1.332   3.360   5.931  0.5075 -0.0298  0.9634
 4669SOL    HW225470   1.216   3.294   5.901 -0.9139  0.9065 -0.0980
 4670SOL     OW25471   0.142   0.340   6.496  0.1166 -0.3303 -0.0754
 4670SOL    HW125472   0.171   0.298   6.415  0.5769  0.0341 -0.1000
 4670SOL    HW225473   0.070   0.286   6.530 -1.3234  0.7709 -1.3534
 4671SOL     OW25474   2.574   1.929   6.028  0.7603 -0.4853  0.3143
 4671SOL    HW125475   2.566   1.968   6.116  1.5304  0.7842 -0.1760
 4671SOL    HW225476   2.489   1.886   6.021  1.1205 -0.8732 -1.6113
 4672SOL     OW25477   2.918   0.244   3.561 -0.0588 -0.3565  0.5798
 4672SOL    HW125478   2.966   0.305   3.617  0.0865 -0.4197  0.5245
 4672SOL    HW225479   2.910   0.170   3.622 -2.7328 -2.3668 -2.1826
 4673SOL     OW25480   1.797   1.154   7.824 -0.2426 -0.0982  0.3482
 4673SOL    HW125481   1.840   1.076   7.859 -0.6656 -0.2098  0.6248
 4673SOL    HW225482   1.845   1.219   7.874  0.8973  0.7727 -1.9340
 4674SOL     OW25483   2.125   4.128   8.342  0.0868  0.2763 -0.7440
 4674SOL    HW125484   2.156   4.213   8.309 -1.4108  1.8028  1.6955
 4674SOL    HW225485   2.205   4.082   8.317  0.5805  0.0675  1.2289
 4675SOL     OW25486   3.083   2.627   4.944 -0.0630  0.1064 -0.1435
 4675SOL    HW125487   3.161   2.641   4.998  0.8879 -2.4776 -0.8381
 4675SOL    HW225488   3.051   2.546   4.983 -0.4506  0.8118  1.0046
 4676SOL     OW25489   1.104   1.745   2.845  0.3237 -0.3888  0.1989
 4676SOL    HW125490   1.050   1.755   2.923 -0.6567  0.3112 -0.5609
 4676SOL    HW225491   1.046   1.690   2.792  0.3028  1.3880 -1.6071
 4677SOL     OW25492   3.165   2.635   2.674 -0.1000  0.2673  0.6914
 4677SOL    HW125493   3.084   2.587   2.659  0.9229 -0.8790 -1.2250
 4677SOL    HW225494   3.142   2.728   2.673 -0.7257  0.1102  0.7241
 4678SOL     OW25495   3.545   1.369   9.996  0.2721 -0.4282 -0.3757
 4678SOL    HW125496   3.525   1.432   9.926 -0.1200 -2.2546 -1.9317
 4678SOL    HW225497   3.467   1.374  10.051 -0.8228 -0.3199 -1.9406
 4679SOL     OW25498   2.607   3.471   1.701 -0.2726  0.1638 -0.6467
 4679SOL    HW125499   2.521   3.506   1.678  0.1612  0.0768 -2.4496
 4679SOL    HW225500   2.586   3.384   1.668 -0.2557 -0.2796  0.5198
 4680SOL     OW25501   0.126   4.344   5.482 -0.0267 -0.0321 -0.7501
 4680SOL    HW125502   0.031   4.349   5.478 -0.1165  0.1857  1.2963
 4680SOL    HW225503   0.146   4.323   5.391 -0.4091 -1.3431 -0.5299
 4681SOL     OW25504   3.556   0.613   8.297  0.4855 -0.4546 -0.0996
 4681SOL    HW125505   3.548   0.525   8.334 -0.9776 -0.6794 -0.9470
 4681SOL    HW225506   3.542   0.672   8.371  2.1728  1.1503 -1.0894
 4682SOL     OW25507   2.092   3.519   2.738  0.0275 -0.3913  0.4014
 4682SOL    HW125508   2.103   3.425   2.727  0.3522  0.1190 -3.6055
 4682SOL    HW225509   2.036   3.523   2.816 -0.7640  2.0847 -0.3118
 4683SOL     OW25510   2.632   0.834   3.140 -0.5469  0.6590  0.4349
 4683SOL    HW125511   2.609   0.745   3.113  0.1133  0.0514  1.8843
 4683SOL    HW225512   2.563   0.849   3.205  0.5216 -1.1180  1.9972
 4684SOL     OW25513   4.195   4.114   9.306 -0.2595  0.1829  0.2512
 4684SOL    HW125514   4.134   4.112   9.380  0.6884  0.0905  1.0383
 4684SOL    HW225515   4.258   4.046   9.332 -0.6667 -0.7622 -1.2250
 4685SOL     OW25516   0.557   4.047   8.048 -0.1397 -0.1436 -0.4435
 4685SOL    HW125517   0.619   4.120   8.043 -1.0164  0.7819  2.1674
 4685SOL    HW225518   0.486   4.088   7.998  0.2369  1.4194  0.2969
 4686SOL     OW25519   1.611   2.204   4.421  0.0733  0.8331  0.3864
 4686SOL    HW125520   1.565   2.147   4.483 -0.2951  2.3703  1.5322
 4686SOL    HW225521   1.701   2.177   4.437  0.1805  0.2823 -1.1201
 4687SOL     OW25522   2.491   1.821   7.658  0.5143  0.2657 -0.1222
 4687SOL    HW125523   2.413   1.813   7.604  0.7603 -1.6326 -0.2074
 4687SOL    HW225524   2.510   1.728   7.672 -1.9696 -0.1719  0.2922
 4688SOL     OW25525   2.982   0.837   4.851 -0.4046  0.2156 -0.0150
 4688SOL    HW125526   2.971   0.932   4.849 -0.3110  0.2259 -0.0457
 4688SOL    HW225527   2.994   0.810   4.760 -0.3784 -0.2705  0.1333
 4689SOL     OW25528   4.287   1.115   2.410  0.0945  0.2942  0.4994
 4689SOL    HW125529   4.344   1.162   2.471  0.4074  0.3886  0.1377
 4689SOL    HW225530   4.208   1.102   2.462 -0.6666 -0.9645 -0.9838
 4690SOL     OW25531   3.066   3.887   6.483 -0.3996 -0.0824 -0.2574
 4690SOL    HW125532   3.020   3.890   6.399 -0.6785  3.2812  0.0301
 4690SOL    HW225533   3.086   3.980   6.493  0.4677 -0.2791 -0.1883
 4691SOL     OW25534   3.681   0.346   7.033 -0.4036 -0.5630 -0.1295
 4691SOL    HW125535   3.761   0.388   7.065 -1.0883  0.4738  0.2175
 4691SOL    HW225536   3.701   0.345   6.939  1.1402  2.8540  0.1553
 4692SOL     OW25537   0.549   3.247   3.193  0.3015  0.1752  0.6106
 4692SOL    HW125538   0.459   3.263   3.223  0.2668 -0.4928  0.8553
 4692SOL    HW225539   0.587   3.334   3.205 -0.6149  0.5373  0.9173
 4693SOL     OW25540   2.899   0.872  16.173  0.0635  0.1705  0.5793
 4693SOL    HW125541   2.909   0.967  16.174 -0.2367  0.1985  1.0460
 4693SOL    HW225542   2.827   0.876  16.110  0.2501 -2.2571  0.2216
 4694SOL     OW25543   2.255   3.705   0.470  0.6890 -0.5281 -0.1759
 4694SOL    HW125544   2.328   3.743   0.518 -1.4392  2.7146  0.4743
 4694SOL    HW225545   2.265   3.745   0.384 -1.7448 -0.3199 -0.3629
 4695SOL     OW25546   0.194   2.417   5.277 -0.1057  0.4350 -0.1716
 4695SOL    HW125547   0.189   2.425   5.372  1.1240  2.5678 -0.2824
 4695SOL    HW225548   0.120   2.472   5.252  0.1069  1.1869  0.8448
 4696SOL     OW25549   0.892   3.383   1.665  0.4440  0.4015 -0.5101
 4696SOL    HW125550   0.846   3.365   1.582  0.3323 -2.0820  0.1112
 4696SOL    HW225551   0.983   3.375   1.638  0.8233  0.3840  0.7912
 4697SOL     OW25552   3.206   1.295   5.012 -0.2348  0.1535  0.9061
 4697SOL    HW125553   3.148   1.353   4.962  0.0057  0.7426  1.3097
 4697SOL    HW225554   3.247   1.240   4.945 -2.1636  0.7401 -0.7669
 4698SOL     OW25555   1.697   3.287   8.454 -0.1146 -0.4586 -0.1798
 4698SOL    HW125556   1.710   3.213   8.395  1.8560 -1.3356  1.3594
 4698SOL    HW225557   1.633   3.254   8.518  0.2381 -0.6511  0.0753
 4699SOL     OW25558   3.662   3.549   8.208 -0.2853  0.5741 -0.1165
 4699SOL    HW125559   3.597   3.612   8.240 -0.6367  0.7400 -1.1833
 4699SOL    HW225560   3.705   3.597   8.138  1.7329 -2.2492 -0.8169
 4700SOL     OW25561   2.382   3.528   3.027  0.1921  0.2716 -0.1419
 4700SOL    HW125562   2.306   3.583   3.011 -0.4779 -1.1750 -1.9336
 4700SOL    HW225563   2.449   3.562   2.968  1.9044 -0.9149  1.1001
 4701SOL     OW25564   1.082   3.707  15.137 -0.0644 -0.4096  0.0801
 4701SOL    HW125565   1.137   3.636  15.107 -0.6692 -1.0114  0.3893
 4701SOL    HW225566   1.005   3.682  15.085 -0.3844  0.1527  0.2818
 4702SOL     OW25567   4.028   2.981   6.163  0.6156 -0.5692 -0.2646
 4702SOL    HW125568   4.009   2.892   6.193  0.1479 -0.5605 -0.5384
 4702SOL    HW225569   4.123   2.974   6.154  0.7881 -0.9376  1.7349
 4703SOL     OW25570   2.197   0.885   7.108  0.2488  0.1834  0.0099
 4703SOL    HW125571   2.251   0.859   7.033  2.5197  1.7328  1.0894
 4703SOL    HW225572   2.156   0.804   7.137  0.2384  1.5323  3.8268
 4704SOL     OW25573   3.299   0.114  12.064 -0.9856 -0.1009 -0.0516
 4704SOL    HW125574   3.210   0.077  12.067 -0.9731 -0.4352 -3.3681
 4704SOL    HW225575   3.315   0.120  12.158  3.4095 -2.0875 -0.7065
 4705SOL     OW25576   3.101   0.640   8.440  0.1699  0.4090  0.0824
 4705SOL    HW125577   3.078   0.623   8.349  1.7642  0.5658 -0.3473
 4705SOL    HW225578   3.154   0.718   8.424  1.3598 -0.5213 -0.5169
 4706SOL     OW25579   0.767   1.779  12.851 -0.4361  0.3405 -0.3403
 4706SOL    HW125580   0.810   1.736  12.925 -2.2018 -0.0136  0.4773
 4706SOL    HW225581   0.834   1.790  12.784  0.6205 -0.0416  0.6548
 4707SOL     OW25582   3.396   4.611   3.782  0.3063 -0.3431 -0.0856
 4707SOL    HW125583   3.350   4.538   3.824 -3.1848  1.6848 -0.3972
 4707SOL    HW225584   3.387   4.582   3.691  1.2672  2.6724 -1.1217
 4708SOL     OW25585   3.852   3.559   3.715 -0.2191  0.3452  0.3601
 4708SOL    HW125586   3.929   3.607   3.684 -0.0519 -0.9856 -1.2475
 4708SOL    HW225587   3.821   3.621   3.781 -2.4840  0.2289 -0.5840
 4709SOL     OW25588   4.429   3.818   5.247 -0.7159 -0.2178 -0.2808
 4709SOL    HW125589   4.510   3.849   5.288  0.4180 -0.7057 -2.1219
 4709SOL    HW225590   4.364   3.877   5.283  0.1188 -0.2775  1.3323
 4710SOL     OW25591   3.176   2.284   8.659  0.1039  0.0068 -0.0120
 4710SOL    HW125592   3.266   2.310   8.638  0.3160 -1.2567 -0.6098
 4710SOL    HW225593   3.132   2.369   8.648 -0.4896 -0.2968  0.0526
 4711SOL     OW25594   3.565   0.766   6.935 -0.1269 -0.1872 -0.4685
 4711SOL    HW125595   3.603   0.682   6.908  0.5294 -0.5680  1.6361
 4711SOL    HW225596   3.504   0.778   6.862 -0.4256 -0.7381 -0.3088
 4712SOL     OW25597   0.883   4.116   2.404  0.2419 -0.4648 -0.3712
 4712SOL    HW125598   0.964   4.066   2.403  0.8822  0.5310  1.8459
 4712SOL    HW225599   0.843   4.096   2.489  2.4574  1.5248  1.1341
 4713SOL     OW25600   2.865   3.675  10.552  0.3847  0.5218  0.2845
 4713SOL    HW125601   2.844   3.703  10.463 -1.7779  3.5486  1.7318
 4713SOL    HW225602   2.950   3.717  10.566  0.2758  0.9590 -0.3511
 4714SOL     OW25603   3.946   0.878   4.354 -0.0473  0.8020  0.2907
 4714SOL    HW125604   4.000   0.831   4.417  2.5222  3.0150 -0.2173
 4714SOL    HW225605   4.011   0.919   4.297  0.5739  1.8262  1.7280
 4715SOL     OW25606   3.414   1.038   8.154 -0.5554  0.0845 -0.5326
 4715SOL    HW125607   3.350   1.090   8.104 -0.3866 -1.6526 -2.5421
 4715SOL    HW225608   3.425   1.094   8.231 -1.3875  0.7654 -0.8995
 4716SOL     OW25609   3.324   0.204   1.016 -0.3844  0.5513  0.0134
 4716SOL    HW125610   3.265   0.263   0.970  1.2378  2.7000  0.6454
 4716SOL    HW225611   3.413   0.201   0.980 -0.3215 -0.4323  0.2582
 4717SOL     OW25612   4.174   0.160   0.266 -0.4805 -0.7698  0.4188
 4717SOL    HW125613   4.081   0.180   0.264 -0.7115 -1.7888  0.6093
 4717SOL    HW225614   4.190   0.159   0.360 -0.7709  1.9721  0.4775
 4718SOL     OW25615   2.726   1.982   5.331  0.0962 -0.2474  0.0760
 4718SOL    HW125616   2.652   1.949   5.279  0.4507 -0.5468 -0.2402
 4718SOL    HW225617   2.684   1.990   5.417 -0.7808  1.3681 -0.5011
 4719SOL     OW25618   2.490   1.834   2.525  0.4570  0.1007  0.7106
 4719SOL    HW125619   2.530   1.777   2.590  1.2037 -0.2900 -0.0946
 4719SOL    HW225620   2.466   1.900   2.590  4.0120  2.3594 -0.2269
 4720SOL     OW25621   1.049   0.531  15.956  0.3376 -0.5447  0.3317
 4720SOL    HW125622   1.020   0.541  16.047 -1.2583 -1.8804 -0.0277
 4720SOL    HW225623   1.011   0.445  15.941 -0.3089  0.2342 -2.4669
 4721SOL     OW25624   4.485   2.680   5.531  0.0771  0.6279 -0.3723
 4721SOL    HW125625   4.515   2.691   5.621  1.0290 -2.7350 -0.2886
 4721SOL    HW225626   4.518   2.758   5.486 -1.2713  2.0618  1.1330
 4722SOL     OW25627   1.304   0.132   8.271 -0.1432  0.2662 -0.5358
 4722SOL    HW125628   1.225   0.164   8.227 -0.6459 -0.8298 -0.4357
 4722SOL    HW225629   1.282   0.132   8.364  0.8298 -3.7603 -0.3099
 4723SOL     OW25630   2.121   2.866   6.222 -0.0013  0.2906  0.1288
 4723SOL    HW125631   2.109   2.960   6.206 -1.4374  0.3810  1.7344
 4723SOL    HW225632   2.037   2.843   6.262  0.7994 -0.6105  1.3217
 4724SOL     OW25633   3.810   3.968  14.187 -0.1633 -0.2334 -0.9191
 4724SOL    HW125634   3.746   3.920  14.135 -0.0669  0.2865 -1.5179
 4724SOL    HW225635   3.761   4.050  14.180  0.2802  0.1125  0.0133
 4725SOL     OW25636   1.452   2.555   7.263 -0.0102 -0.2929  0.6132
 4725SOL    HW125637   1.530   2.610   7.253 -0.6583  0.2732 -1.5147
 4725SOL    HW225638   1.397   2.593   7.331 -0.1043 -1.7579  1.3481
 4726SOL     OW25639   2.106   1.793   8.891  0.3811  0.5920  0.3001
 4726SOL    HW125640   2.194   1.781   8.854 -0.3872 -0.1168 -1.3272
 4726SOL    HW225641   2.130   1.850   8.964 -0.9727  2.4580 -0.7081
 4727SOL     OW25642   4.521   3.781   2.095 -0.2866  0.0009 -0.4355
 4727SOL    HW125643   4.446   3.829   2.060 -1.5767 -0.7546  1.2432
 4727SOL    HW225644   4.556   3.742   2.016 -1.4900 -0.6389 -0.6484
 4728SOL     OW25645   2.678   3.996   0.608 -0.0988 -0.0729  0.0973
 4728SOL    HW125646   2.762   4.042   0.618  0.1478 -0.7930  1.3008
 4728SOL    HW225647   2.631   4.046   0.541  0.2900  0.9457  0.5826
 4729SOL     OW25648   4.050   0.052   6.134  0.0323 -0.4978 -0.0026
 4729SOL    HW125649   4.038   0.058   6.039 -2.5762  1.2082  0.4041
 4729SOL    HW225650   4.103   4.696   6.142 -1.2336 -1.3315  0.0906
 4730SOL     OW25651   1.343   4.162   2.804 -0.1669 -0.2887  0.6911
 4730SOL    HW125652   1.296   4.092   2.850  0.9319 -1.7856 -0.4620
 4730SOL    HW225653   1.320   4.244   2.847  3.0405  0.1165  1.6250
 4731SOL     OW25654   3.743   0.661  16.560 -0.4007  0.3830 -0.2573
 4731SOL    HW125655   3.812   0.669  16.494  1.4371 -0.2087  1.6385
 4731SOL    HW225656   3.713   0.751  16.575 -2.5396 -0.6461  1.5461
 4732SOL     OW25657   2.593   3.922   1.511  0.2715  0.1378  0.2539
 4732SOL    HW125658   2.666   3.895   1.567  0.1734 -2.7486 -1.0075
 4732SOL    HW225659   2.630   3.968   1.436  0.6597  1.2691  1.1327
 4733SOL     OW25660   0.577   1.164   8.399  0.1961 -0.2572 -0.4374
 4733SOL    HW125661   0.514   1.165   8.327 -0.7789 -1.3238  0.3964
 4733SOL    HW225662   0.608   1.253   8.381 -2.3414  0.4373 -1.3262
 4734SOL     OW25663   0.686   3.155  12.864 -0.1229  0.0185  0.3504
 4734SOL    HW125664   0.724   3.088  12.921 -1.2409  0.3724  1.5134
 4734SOL    HW225665   0.760   3.216  12.859 -0.6706  0.7381  0.9838
 4735SOL     OW25666   0.969   4.487  16.010  0.1454 -0.2389  0.3122
 4735SOL    HW125667   0.902   4.497  15.943  0.9824  1.0934 -0.3297
 4735SOL    HW225668   1.046   4.521  15.965  0.3043  0.6673  1.2659
 4736SOL     OW25669   3.370   1.804  15.508  0.6514  0.2418  0.0439
 4736SOL    HW125670   3.306   1.767  15.447 -1.2840  0.9325  1.6354
 4736SOL    HW225671   3.321   1.880  15.540 -0.3868 -0.1058 -0.7282
 4737SOL     OW25672   3.182   4.380   5.212  0.2861  0.6446 -0.4100
 4737SOL    HW125673   3.267   4.361   5.173 -0.8712 -1.5497 -1.8614
 4737SOL    HW225674   3.208   4.408   5.300  1.4755 -1.9177  0.0788
 4738SOL     OW25675   4.442   4.027   1.952  0.1555 -0.2646 -0.3842
 4738SOL    HW125676   4.527   4.027   1.909 -0.3101  1.2696 -1.3154
 4738SOL    HW225677   4.396   4.076   1.883 -1.5771 -0.9776  0.2464
 4739SOL     OW25678   2.897   2.806   4.577 -0.3082  0.0965  0.2051
 4739SOL    HW125679   2.882   2.814   4.671 -0.3880 -0.5355  0.2439
 4739SOL    HW225680   2.868   2.721   4.546 -0.5362  0.8705 -1.6883
 4740SOL     OW25681   2.104   0.390  17.683  0.1198  0.0140 -0.2883
 4740SOL    HW125682   2.143   0.477  17.692  3.7110 -1.7109  0.6901
 4740SOL    HW225683   2.084   0.402  17.590  1.8352 -0.0921 -0.6671
 4741SOL     OW25684   1.793   2.877   4.847  0.4095 -0.4896  0.1582
 4741SOL    HW125685   1.818   2.954   4.796 -0.2773  1.3047  2.5245
 4741SOL    HW225686   1.699   2.877   4.863  0.6913 -0.9015  1.8465
 4742SOL     OW25687   0.515   3.054  12.672 -0.1442  0.4339  1.3358
 4742SOL    HW125688   0.557   3.097  12.747  3.0606  2.1452 -1.4756
 4742SOL    HW225689   0.585   3.000  12.634 -2.5407 -2.0878  0.5252
 4743SOL     OW25690   1.221   4.452   5.531  0.1843 -0.8132  0.6648
 4743SOL    HW125691   1.188   4.535   5.499 -2.4457 -1.6542  1.1836
 4743SOL    HW225692   1.171   4.386   5.483 -0.9759 -0.6310  1.6219
 4744SOL     OW25693   1.020   1.936  15.070 -0.3146  0.2059 -0.3801
 4744SOL    HW125694   0.984   1.889  15.145 -0.2992  0.9728  0.1023
 4744SOL    HW225695   1.086   1.991  15.111  0.2964 -0.7053 -0.1336
 4745SOL     OW25696   2.715   0.435  11.666  0.8404  0.3794 -0.9073
 4745SOL    HW125697   2.793   0.405  11.713 -0.3110 -2.6138 -0.8706
 4745SOL    HW225698   2.676   0.353  11.636  3.9943 -0.5944 -2.2473
 4746SOL     OW25699   4.437   2.962   6.004  0.0147  0.2517 -0.4641
 4746SOL    HW125700   4.369   2.946   5.939 -1.1176  1.8501  0.3460
 4746SOL    HW225701   4.382   2.955   6.083  0.3584  1.0116 -0.1609
 4747SOL     OW25702   0.530   2.995  17.155 -0.5603  0.5891  0.8134
 4747SOL    HW125703   0.434   2.987  17.154 -0.5974  1.1660 -0.6683
 4747SOL    HW225704   0.545   3.031  17.242  0.6763  1.8729  0.0654
 4748SOL     OW25705   2.556   0.073   3.611 -0.2200  0.2270  0.5179
 4748SOL    HW125706   2.542   0.065   3.705  2.4570 -1.6873  0.7721
 4748SOL    HW225707   2.648   0.045   3.606 -0.2753 -0.2783  2.2506
 4749SOL     OW25708   1.273   1.611  17.616  0.2062 -0.6898  1.0707
 4749SOL    HW125709   1.233   1.698  17.617  0.5018 -0.5534  1.0406
 4749SOL    HW225710   1.209   1.564  17.669 -0.0016 -0.9011  0.6356
 4750SOL     OW25711   2.329   3.138   3.911 -0.2499 -0.2231 -0.1906
 4750SOL    HW125712   2.248   3.091   3.891  0.1119 -0.4102 -1.1844
 4750SOL    HW225713   2.315   3.222   3.867 -0.5190  1.2841  2.7538
 4751SOL     OW25714   0.912   2.538  10.302  0.0184 -0.4229  0.7775
 4751SOL    HW125715   0.844   2.492  10.253  0.7265  0.7870 -1.3417
 4751SOL    HW225716   0.951   2.598  10.237 -1.4669 -0.0803  0.2091
 4752SOL     OW25717   0.396   2.422   5.096 -0.3569  0.5649 -0.0239
 4752SOL    HW125718   0.329   2.411   5.163  0.0236  0.2663  0.3066
 4752SOL    HW225719   0.432   2.508   5.117 -1.7130  0.8497  1.1436
 4753SOL     OW25720   1.233   1.342   6.935 -0.0228 -0.4108 -0.5367
 4753SOL    HW125721   1.162   1.406   6.932 -0.0513 -0.4337 -0.3393
 4753SOL    HW225722   1.266   1.356   6.846 -0.4913  0.4999 -0.5602
 4754SOL     OW25723   2.642   0.365  11.965 -0.4224  0.7199 -0.5019
 4754SOL    HW125724   2.574   0.324  11.912  0.2227 -0.6607 -0.2655
 4754SOL    HW225725   2.618   0.458  11.970  0.5197  0.9944 -1.0385
 4755SOL     OW25726   0.449   4.617  14.582 -0.1846  0.3209 -0.0118
 4755SOL    HW125727   0.389   4.684  14.614 -0.1894  0.7110 -0.8508
 4755SOL    HW225728   0.477   4.582  14.667 -2.0917  0.5200  0.6836
 4756SOL     OW25729   4.364   3.918  16.696 -0.1372 -0.5783 -0.4250
 4756SOL    HW125730   4.379   3.913  16.791  0.9652  0.2107 -0.5512
 4756SOL    HW225731   4.268   3.923  16.694 -0.2256 -1.9381  0.8347
 4757SOL     OW25732   1.631   3.201   2.429  0.2842 -0.1682  0.4977
 4757SOL    HW125733   1.721   3.233   2.418  0.4616 -1.4272 -1.6040
 4757SOL    HW225734   1.619   3.134   2.361 -2.1187  0.6574  0.1219
 4758SOL     OW25735   2.068   3.612  15.040 -0.3594 -0.4789 -0.3006
 4758SOL    HW125736   2.110   3.678  14.984 -2.4011 -0.0611 -1.3352
 4758SOL    HW225737   2.060   3.651  15.127  1.9491  1.8649 -1.1256
 4759SOL     OW25738   4.343   0.237   4.343  0.1877  0.0354 -0.2902
 4759SOL    HW125739   4.261   0.206   4.381  0.7496 -3.8383 -2.3363
 4759SOL    HW225740   4.360   0.324   4.380  0.8903 -0.4492  0.5301
 4760SOL     OW25741   0.564   1.917   7.205 -0.3205  0.2142  0.1465
 4760SOL    HW125742   0.641   1.955   7.247 -1.4637  0.7315  1.7727
 4760SOL    HW225743   0.615   1.883   7.132 -2.1027  1.9060 -1.8630
 4761SOL     OW25744   1.442   1.983   7.655  0.1610  0.2673  0.1950
 4761SOL    HW125745   1.523   1.968   7.607 -0.1649 -1.1418  0.0812
 4761SOL    HW225746   1.384   1.967   7.580  0.9341  0.7165 -0.5005
 4762SOL     OW25747   2.776   1.763  13.570 -0.5912  0.0236  0.2300
 4762SOL    HW125748   2.699   1.741  13.518  0.6949 -2.6303 -0.5523
 4762SOL    HW225749   2.828   1.689  13.539  0.7937 -1.1436  5.3500
 4763SOL     OW25750   2.978   1.665   2.344  0.1774  0.4618 -0.4641
 4763SOL    HW125751   3.013   1.707   2.422 -1.7916  1.1410  0.0467
 4763SOL    HW225752   2.921   1.733   2.309 -1.4816 -1.3851 -1.3620
 4764SOL     OW25753   2.733   4.037  11.362  0.0683 -0.6891  0.4141
 4764SOL    HW125754   2.739   3.992  11.447  0.1816  1.1580  1.3864
 4764SOL    HW225755   2.705   4.123  11.394  2.0783  0.2791 -0.4890
 4765SOL     OW25756   0.955   2.061   3.692  0.3685  0.0902 -0.4205
 4765SOL    HW125757   0.977   1.973   3.660 -0.2989  0.1902 -1.1576
 4765SOL    HW225758   0.861   2.059   3.677  0.6141  1.4601 -2.1167
 4766SOL     OW25759   3.301   1.359  16.726 -0.2633  0.2078  0.5754
 4766SOL    HW125760   3.229   1.302  16.753  1.0815 -1.0550  1.4761
 4766SOL    HW225761   3.263   1.424  16.666  0.7491 -0.1874 -0.4932
 4767SOL     OW25762   3.738   0.898   5.055 -0.6239 -0.2591 -0.2118
 4767SOL    HW125763   3.699   0.947   5.127  0.9478  1.5940 -0.6366
 4767SOL    HW225764   3.818   0.951   5.055 -1.3068  0.7679 -0.3551
 4768SOL     OW25765   2.094   1.459   2.047 -0.0313 -0.1225 -0.0961
 4768SOL    HW125766   2.116   1.450   1.954  3.2953  1.4162  0.5446
 4768SOL    HW225767   2.016   1.515   2.044  0.2048  0.2021 -0.2582
 4769SOL     OW25768   2.732   1.993   5.816 -0.1987  0.1385 -0.2591
 4769SOL    HW125769   2.814   2.022   5.856 -1.1386 -0.5027  2.1289
 4769SOL    HW225770   2.682   1.969   5.894  0.2058 -0.3648 -0.1502
 4770SOL     OW25771   3.505   0.275  13.073 -0.2294 -0.3437  0.1801
 4770SOL    HW125772   3.478   0.270  13.165  2.9160 -0.1074  1.1014
 4770SOL    HW225773   3.593   0.237  13.076 -0.6625 -1.3889 -0.2263
 4771SOL     OW25774   2.047   3.789  12.944  0.6253 -0.2014  0.4648
 4771SOL    HW125775   2.071   3.865  12.891 -1.8109  0.5043  0.3619
 4771SOL    HW225776   2.123   3.731  12.939  0.6645  0.0133 -1.1878
 4772SOL     OW25777   4.062   4.635   4.603  0.3509  0.4291  0.2662
 4772SOL    HW125778   3.988   4.583   4.571 -1.5587  2.4446  1.3947
 4772SOL    HW225779   4.022   4.666   4.685  0.0093  1.0946 -0.1483
 4773SOL     OW25780   3.219   0.989   7.827  0.2324 -0.5117  0.0658
 4773SOL    HW125781   3.225   0.912   7.883  2.0106 -2.2209 -2.4177
 4773SOL    HW225782   3.202   0.942   7.745 -0.9525  0.4035 -0.2057
 4774SOL     OW25783   3.569   2.341  14.332 -0.0455  0.0065 -0.2309
 4774SOL    HW125784   3.586   2.272  14.268  0.2433  0.3808 -0.5543
 4774SOL    HW225785   3.637   2.316  14.395 -0.3949  0.0771  0.1720
 4775SOL     OW25786   0.580   0.250   7.028 -0.1173  1.0700 -0.0754
 4775SOL    HW125787   0.617   0.166   7.000  1.2694  1.1378  1.5043
 4775SOL    HW225788   0.594   0.239   7.122  0.1113 -0.7227 -0.3070
 4776SOL     OW25789   1.289   3.684   2.663 -0.1919 -0.2242 -0.5443
 4776SOL    HW125790   1.245   3.606   2.629  0.3859 -1.2157  0.9862
 4776SOL    HW225791   1.368   3.648   2.704 -1.4471 -3.2712 -0.8300
 4777SOL     OW25792   0.669   3.568   5.363  0.9175  0.5270  0.4255
 4777SOL    HW125793   0.753   3.523   5.373  0.3675 -0.8668 -1.2746
 4777SOL    HW225794   0.643   3.573   5.455 -2.1107  0.1002 -0.4158
 4778SOL     OW25795   1.299   3.102   4.558 -0.7470 -0.5980 -0.1630
 4778SOL    HW125796   1.369   3.152   4.517 -0.0074  0.7581  2.7454
 4778SOL    HW225797   1.356   3.032   4.590 -0.4837 -1.2900 -2.1313
 4779SOL     OW25798   1.639   1.489   0.993  0.1117 -0.2027  0.4676
 4779SOL    HW125799   1.554   1.530   1.010 -0.4781  0.0340 -3.0708
 4779SOL    HW225800   1.643   1.514   0.900  2.0600 -1.5005  0.1896
 4780SOL     OW25801   2.866   1.797   3.061  0.0985 -0.6251 -0.6179
 4780SOL    HW125802   2.950   1.781   3.103 -0.8458 -4.1129 -0.0365
 4780SOL    HW225803   2.828   1.851   3.130 -0.0537 -0.9814 -0.4220
 4781SOL     OW25804   1.854   3.224   6.598 -0.0827  0.2200  0.2648
 4781SOL    HW125805   1.777   3.270   6.565 -0.3096 -1.0647 -0.9840
 4781SOL    HW225806   1.903   3.300   6.631 -1.8821  1.4471  0.0997
 4782SOL     OW25807   2.554   1.909   4.594  0.5469  0.8750  0.7694
 4782SOL    HW125808   2.520   1.981   4.648 -0.8296  1.1280 -0.4360
 4782SOL    HW225809   2.645   1.938   4.589 -0.4733  3.9789  0.7441
 4783SOL     OW25810   0.751   1.674   3.179 -0.2386 -0.4564  0.3310
 4783SOL    HW125811   0.802   1.755   3.170 -0.2699 -0.4639  0.0741
 4783SOL    HW225812   0.688   1.683   3.250 -0.1687 -3.3272  0.7509
 4784SOL     OW25813   2.897   3.686   3.422 -0.0074 -0.2752  0.2114
 4784SOL    HW125814   2.968   3.625   3.444  1.3108  0.8732 -0.8093
 4784SOL    HW225815   2.889   3.657   3.331  1.5177  0.2110 -0.0825
 4785SOL     OW25816   2.395   1.837  15.813 -0.0174  0.6870  0.0539
 4785SOL    HW125817   2.337   1.774  15.771  1.5299 -0.4878 -0.3122
 4785SOL    HW225818   2.473   1.845  15.758  0.1585 -0.3480  0.1594
 4786SOL     OW25819   4.335   3.138   8.965  0.5010  0.3896  0.2795
 4786SOL    HW125820   4.355   3.138   8.872 -2.8403 -0.7865 -0.4435
 4786SOL    HW225821   4.338   3.232   8.983 -0.0611  0.3236  0.7071
 4787SOL     OW25822   2.426   2.067  10.587  0.3522  0.2567 -0.3775
 4787SOL    HW125823   2.406   2.054  10.680 -2.8622 -1.8865 -1.3734
 4787SOL    HW225824   2.346   2.113  10.559 -0.8115 -1.5068  0.0245
 4788SOL     OW25825   1.885   1.062   1.188 -0.0765  0.1747  0.0639
 4788SOL    HW125826   1.822   1.034   1.254  1.0238 -2.7233 -0.0760
 4788SOL    HW225827   1.852   1.150   1.174 -0.4321  0.1219  0.5707
 4789SOL     OW25828   4.168   1.565   6.330 -0.2978  0.2789  0.4503
 4789SOL    HW125829   4.182   1.523   6.415 -1.7016  0.8620  0.9608
 4789SOL    HW225830   4.253   1.557   6.287  0.2938  2.3314  1.2382
 4790SOL     OW25831   0.026   0.452   4.714  0.4630  0.6377 -0.3553
 4790SOL    HW125832   0.078   0.528   4.686  1.0349 -0.4741 -2.3413
 4790SOL    HW225833   0.019   0.402   4.632 -1.5670 -2.9891  2.0230
 4791SOL     OW25834   3.360   2.941   7.458 -0.0266  0.0367 -0.0599
 4791SOL    HW125835   3.342   2.944   7.364  1.4923  0.2228 -0.3572
 4791SOL    HW225836   3.295   3.005   7.487  0.9548 -0.2557  2.7730
 4792SOL     OW25837   0.815   1.808   9.572 -0.4660 -0.3060  0.3221
 4792SOL    HW125838   0.884   1.805   9.506 -1.5322 -1.2762 -0.7428
 4792SOL    HW225839   0.793   1.716   9.587  2.3916 -1.2342 -1.1697
 4793SOL     OW25840   2.262   2.214   6.525 -0.5930 -0.6381 -0.0743
 4793SOL    HW125841   2.256   2.119   6.524 -2.6177 -0.5194  0.2141
 4793SOL    HW225842   2.248   2.233   6.618 -0.3521 -2.0681  0.2480
 4794SOL     OW25843   2.607   1.229  13.544  0.3244  0.2864 -0.3507
 4794SOL    HW125844   2.566   1.144  13.554 -3.2074  1.9112 -0.9596
 4794SOL    HW225845   2.582   1.248  13.453 -0.8347  0.2094 -0.0454
 4795SOL     OW25846   3.075   0.528   2.398 -0.3399 -0.3053 -0.6924
 4795SOL    HW125847   3.059   0.439   2.366 -0.2215 -0.4883 -0.2350
 4795SOL    HW225848   3.163   0.532   2.361 -0.7993  2.3136 -1.4521
 4796SOL     OW25849   0.532   3.629   2.655  0.0606  0.2741  0.3527
 4796SOL    HW125850   0.620   3.649   2.622 -0.2360  0.0831 -0.5568
 4796SOL    HW225851   0.554   3.568   2.725 -0.2984 -1.7477 -1.2767
 4797SOL     OW25852   3.865   1.862   8.852 -0.1153 -0.2279 -0.6316
 4797SOL    HW125853   3.910   1.916   8.786 -0.4599  0.8345  0.0025
 4797SOL    HW225854   3.921   1.864   8.930 -1.6432  0.2678  0.4404
 4798SOL     OW25855   4.267   1.407  14.105  0.3830 -0.3392 -0.6992
 4798SOL    HW125856   4.228   1.324  14.078 -0.3628 -0.2814  0.2024
 4798SOL    HW225857   4.354   1.404  14.065 -0.0053  0.9359 -1.5953
 4799SOL     OW25858   0.675   3.090   5.901  0.4442  0.2275  0.2625
 4799SOL    HW125859   0.768   3.086   5.876  0.8186  2.1866  1.3255
 4799SOL    HW225860   0.674   3.074   5.996 -2.9266  0.7978  0.3324
 4800SOL     OW25861   4.637   0.328   4.492 -0.3982 -0.5691  0.1099
 4800SOL    HW125862   4.609   0.247   4.534 -2.9658  0.7062  0.8789
 4800SOL    HW225863   4.586   0.329   4.410  1.0814 -0.7624 -0.8020
 4801SOL     OW25864   4.046   4.043  11.891  0.0517 -0.1609  0.4620
 4801SOL    HW125865   4.140   4.024  11.883 -0.0645 -1.0178  1.0904
 4801SOL    HW225866   4.035   4.130  11.852  0.8813 -0.4770 -0.4568
 4802SOL     OW25867   2.644   2.541   0.633 -0.0573  0.2251  0.5887
 4802SOL    HW125868   2.602   2.557   0.718 -1.4491  0.8859 -0.2143
 4802SOL    HW225869   2.671   2.629   0.607  1.2427 -0.7398 -1.2451
 4803SOL     OW25870   0.995   3.968   1.885 -0.0918  0.5813 -0.9257
 4803SOL    HW125871   0.942   4.045   1.864 -1.4871 -0.0356  0.3259
 4803SOL    HW225872   0.919   3.911   1.899 -1.4522  2.9468  1.3854
 4804SOL     OW25873   2.995   2.840   0.329  0.5748 -0.4800  0.2696
 4804SOL    HW125874   3.074   2.830   0.381  0.6943 -0.5942  0.0647
 4804SOL    HW225875   2.979   2.745   0.333  0.6496 -0.3689  3.1477
 4805SOL     OW25876   1.641   3.879   0.407 -0.5793 -0.2370 -0.2549
 4805SOL    HW125877   1.551   3.894   0.436 -0.7871 -2.1208  0.0441
 4805SOL    HW225878   1.643   3.785   0.394 -0.8243 -0.3717  0.6478
 4806SOL     OW25879   3.120   0.637  11.542  0.2072  0.1187  0.3406
 4806SOL    HW125880   3.086   0.723  11.567 -1.0884  0.4246 -2.4897
 4806SOL    HW225881   3.141   0.647  11.450 -0.2234 -2.6155 -0.0565
 4807SOL     OW25882   0.748   1.723  15.007 -0.2209  0.4396  0.2425
 4807SOL    HW125883   0.768   1.701  15.098  1.0712 -1.2939 -0.4589
 4807SOL    HW225884   0.736   1.816  15.025  2.1946  0.4673  1.6479
 4808SOL     OW25885   3.852   1.755   6.555  0.1675 -0.0524 -0.7310
 4808SOL    HW125886   3.793   1.794   6.490 -0.2932  0.4717  0.0091
 4808SOL    HW225887   3.871   1.673   6.510 -1.7295 -0.5161 -0.6754
 4809SOL     OW25888   3.281   3.849   3.592 -0.3058 -0.3433 -0.8469
 4809SOL    HW125889   3.255   3.892   3.510  0.4117 -1.6061 -1.7581
 4809SOL    HW225890   3.377   3.840   3.587 -0.1672  1.5479 -1.7229
 4810SOL     OW25891   3.172   1.000   6.980 -1.1157  0.2868  0.0156
 4810SOL    HW125892   3.168   0.905   6.982 -0.8341  0.2880  0.6142
 4810SOL    HW225893   3.189   1.029   7.070  1.6390 -0.7565 -0.1846
 4811SOL     OW25894   2.141   1.129   3.340  0.0928 -0.7484  0.4253
 4811SOL    HW125895   2.046   1.121   3.344  0.1903 -3.5988 -3.2744
 4811SOL    HW225896   2.172   1.048   3.299 -0.1650 -0.7517  0.2343
 4812SOL     OW25897   3.854   1.180   5.907  0.1437 -0.5434 -0.0887
 4812SOL    HW125898   3.875   1.148   5.995 -0.9912 -3.0646 -0.7454
 4812SOL    HW225899   3.915   1.254   5.905 -1.3329  0.6844  0.3802
 4813SOL     OW25900   4.124   4.017  15.614 -0.1584  0.3138  0.1501
 4813SOL    HW125901   4.099   4.049  15.701 -0.3775  0.0434  0.1867
 4813SOL    HW225902   4.218   4.034  15.617 -0.4456  2.5340 -2.8214
 4814SOL     OW25903   1.435   3.012  13.818  1.0614 -0.2435 -0.5643
 4814SOL    HW125904   1.526   3.039  13.828  1.1231 -0.5886 -0.1934
 4814SOL    HW225905   1.392   3.044  13.898  1.3923 -0.5117 -0.2800
 4815SOL     OW25906   3.872   3.903  10.854  0.0736 -0.6438 -0.1308
 4815SOL    HW125907   3.909   3.981  10.893 -2.2330  0.8645 -0.9259
 4815SOL    HW225908   3.825   3.866  10.929 -0.4392 -0.5110 -0.3837
 4816SOL     OW25909   3.392   0.998   9.256  0.5180 -0.3269  0.1391
 4816SOL    HW125910   3.395   1.063   9.186 -2.7281 -0.4560 -0.1414
 4816SOL    HW225911   3.485   0.997   9.275  0.3417 -0.5781  0.9937
 4817SOL     OW25912   1.150   3.303   3.855  0.1715 -0.3535 -0.3052
 4817SOL    HW125913   1.182   3.327   3.768  0.5869 -3.4138 -0.9720
 4817SOL    HW225914   1.067   3.352   3.852  2.0134  2.9091  2.1871
 4818SOL     OW25915   0.264   3.462   2.679 -1.3113  0.3280  0.1294
 4818SOL    HW125916   0.353   3.446   2.646 -1.5159  1.1528 -0.8061
 4818SOL    HW225917   0.229   3.487   2.594 -1.6417 -0.1214  0.1353
 4819SOL     OW25918   4.708   2.758  15.091  0.2745 -0.1614 -0.3876
 4819SOL    HW125919   4.676   2.792  15.008  1.4974 -0.0410 -0.8126
 4819SOL    HW225920   4.690   2.665  15.075 -3.1149  0.6262 -1.1290
 4820SOL     OW25921   0.728   3.695   4.219  0.0638  0.3222  0.0592
 4820SOL    HW125922   0.742   3.744   4.138  0.1832  0.5826  0.2355
 4820SOL    HW225923   0.815   3.657   4.228 -0.2935 -0.1751  1.5202
 4821SOL     OW25924   0.307   0.371   5.340 -0.6293  0.2310 -0.3682
 4821SOL    HW125925   0.350   0.395   5.422  0.9389 -0.1367 -1.0874
 4821SOL    HW225926   0.232   0.325   5.378  0.1684  0.2632  1.2061
 4822SOL     OW25927   0.921   3.361   5.429  0.1197 -0.5709  0.8991
 4822SOL    HW125928   0.973   3.389   5.504 -0.3151 -2.5398  1.9390
 4822SOL    HW225929   0.977   3.396   5.359 -0.9200  1.0367  0.8795
 4823SOL     OW25930   1.624   1.832   0.993 -0.1059 -0.0146  0.2573
 4823SOL    HW125931   1.551   1.771   1.003  1.3844 -1.8694 -0.1332
 4823SOL    HW225932   1.622   1.859   0.901  1.1504 -0.2452  0.1581
 4824SOL     OW25933   4.027   3.246   8.853  0.8223  0.2164  0.3382
 4824SOL    HW125934   4.029   3.317   8.917  0.7676  0.1263  0.4378
 4824SOL    HW225935   4.013   3.288   8.768 -1.1226 -2.5762 -0.7217
 4825SOL     OW25936   3.469   2.402   0.903  0.5004 -0.6599  0.9069
 4825SOL    HW125937   3.401   2.374   0.842  2.4361  0.4751 -1.7700
 4825SOL    HW225938   3.418   2.413   0.983  2.1883 -0.6507  1.9911
 4826SOL     OW25939   0.922   2.820  14.101 -0.0315 -0.1805 -0.2603
 4826SOL    HW125940   0.997   2.852  14.052 -0.1772  0.5750  0.0103
 4826SOL    HW225941   0.961   2.842  14.185  0.5400 -0.3720 -0.4779
 4827SOL     OW25942   2.998   3.016   7.935 -0.4865  0.1003 -0.5855
 4827SOL    HW125943   3.012   2.967   8.016 -2.8465  0.1558 -0.1473
 4827SOL    HW225944   2.915   3.061   7.950 -1.1946 -1.5036  0.2360
 4828SOL     OW25945   3.704   2.695   3.058 -0.0552 -0.4801 -0.2322
 4828SOL    HW125946   3.720   2.643   2.979 -0.7133 -0.3438 -0.4583
 4828SOL    HW225947   3.663   2.632   3.117  0.0934 -1.7674 -1.5046
 4829SOL     OW25948   3.900   4.047   6.131  0.2521 -0.2462  0.5227
 4829SOL    HW125949   3.832   4.035   6.065 -1.0964  1.8017  1.5397
 4829SOL    HW225950   3.892   3.968   6.185  0.8487  0.1943  1.2533
 4830SOL     OW25951   1.131   0.763   3.806  0.3414  0.5373  0.2613
 4830SOL    HW125952   1.145   0.688   3.749 -1.2192  0.6515 -0.2885
 4830SOL    HW225953   1.044   0.793   3.778  0.2556  0.7925  0.7975
 4831SOL     OW25954   0.841   1.739   6.967  0.4164 -0.1314  0.5021
 4831SOL    HW125955   0.862   1.767   7.056  1.3293 -2.4935  1.0446
 4831SOL    HW225956   0.878   1.650   6.966 -1.4976 -0.9334  0.4052
 4832SOL     OW25957   4.604   0.846   8.496 -0.1721  0.3032  0.8590
 4832SOL    HW125958   4.543   0.777   8.524 -0.1007  1.2117  3.2977
 4832SOL    HW225959   4.571   0.888   8.417 -1.2952 -0.2661  1.0084
 4833SOL     OW25960   1.964   3.952  10.030 -0.5285 -0.2389 -0.2973
 4833SOL    HW125961   1.919   4.036  10.038 -0.5549 -0.1463 -1.4451
 4833SOL    HW225962   1.953   3.910  10.116 -1.1772 -0.0594 -0.2979
 4834SOL     OW25963   1.010   1.184   5.864 -0.7601  0.5178 -0.5387
 4834SOL    HW125964   0.946   1.174   5.935 -0.0029  0.1786  0.1087
 4834SOL    HW225965   1.012   1.094   5.832 -0.0103 -0.1854  1.4952
 4835SOL     OW25966   4.427   2.637   2.248 -0.1550  0.3850 -0.3891
 4835SOL    HW125967   4.481   2.625   2.170 -1.2938 -1.1422 -0.9486
 4835SOL    HW225968   4.344   2.668   2.212 -0.4805 -0.1544 -0.1050
 4836SOL     OW25969   1.049   2.840  12.839  0.5362 -0.0041  0.6166
 4836SOL    HW125970   1.022   2.905  12.774 -0.7410 -1.3322 -0.1922
 4836SOL    HW225971   1.091   2.768  12.792 -0.8405  0.2912 -1.0463
 4837SOL     OW25972   2.596   2.871   8.386 -0.2767  0.0649  0.1187
 4837SOL    HW125973   2.660   2.917   8.331  0.1438 -2.3159 -1.3597
 4837SOL    HW225974   2.611   2.779   8.367 -2.6697 -0.3462  0.2543
 4838SOL     OW25975   3.235   2.331   6.111  0.6111 -0.2035  0.2643
 4838SOL    HW125976   3.225   2.239   6.086  1.3162  0.1064 -1.2030
 4838SOL    HW225977   3.297   2.354   6.042 -1.0227  0.9608 -0.8148
 4839SOL     OW25978   0.204   0.660   5.424 -0.0339 -0.1507  0.2134
 4839SOL    HW125979   0.153   0.634   5.501 -0.4965  0.9240  0.2644
 4839SOL    HW225980   0.210   0.755   5.428  0.6622 -0.1595 -0.7125
 4840SOL     OW25981   4.019   0.942   7.844 -0.2784  0.4968 -0.1680
 4840SOL    HW125982   3.957   0.870   7.831  1.8977 -1.6959  1.7390
 4840SOL    HW225983   4.092   0.917   7.788 -1.7505 -2.3789 -0.7988
 4841SOL     OW25984   0.133   0.592   7.778  0.1881 -0.1690  0.4701
 4841SOL    HW125985   0.172   0.677   7.759 -0.0256 -0.2123 -0.1832
 4841SOL    HW225986   0.210   0.536   7.790  0.7346  0.3348 -0.7132
 4842SOL     OW25987   1.747   0.711  14.808 -0.4217  0.3342 -0.3633
 4842SOL    HW125988   1.721   0.780  14.748 -2.5095  0.2393  0.4313
 4842SOL    HW225989   1.843   0.710  14.804 -0.4344 -0.5979 -0.3922
 4843SOL     OW25990   3.213   1.101   4.227 -0.0631  0.6892  0.2023
 4843SOL    HW125991   3.270   1.027   4.247  0.0975  0.7349 -0.0863
 4843SOL    HW225992   3.282   1.164   4.208  0.1140  0.2650 -0.5557
 4844SOL     OW25993   2.420   2.408   3.680 -0.2486  0.0222  0.6031
 4844SOL    HW125994   2.336   2.427   3.724 -0.8879 -0.1602 -0.5463
 4844SOL    HW225995   2.481   2.443   3.745 -0.2083  1.1808 -0.0526
 4845SOL     OW25996   4.080   3.002   3.827 -0.7248  0.3836 -0.2136
 4845SOL    HW125997   4.091   2.931   3.763  0.2996  2.3481 -2.2155
 4845SOL    HW225998   3.990   2.991   3.856 -0.5677 -1.0548 -0.2634
 4846SOL     OW25999   1.722   1.256  11.012  0.0740 -0.7533  0.0220
 4846SOL    HW126000   1.767   1.227  11.092 -0.3881  3.7131  1.9070
 4846SOL    HW226001   1.793   1.303  10.968  0.9941 -0.8022  1.4348
 4847SOL     OW26002   3.116   1.443   6.251 -0.6755  1.4423 -0.3402
 4847SOL    HW126003   3.160   1.483   6.176 -0.7040  0.5386 -0.8408
 4847SOL    HW226004   3.180   1.445   6.322 -1.8884 -1.3926  0.8657
 4848SOL     OW26005   1.507   0.664   7.540  0.1596 -0.2524 -0.6410
 4848SOL    HW126006   1.423   0.627   7.514 -0.5965  0.1669  1.1875
 4848SOL    HW226007   1.555   0.611   7.476  0.3211 -1.6584  0.6357
 4849SOL     OW26008   1.125   3.002   5.637 -0.2698 -0.0033 -0.7128
 4849SOL    HW126009   1.093   3.016   5.548  0.0918  0.1633 -0.8181
 4849SOL    HW226010   1.109   2.908   5.645 -0.9359  0.3111  1.7440
 4850SOL     OW26011   0.815   1.044  11.276  0.1654  0.0517 -0.0218
 4850SOL    HW126012   0.895   1.096  11.281 -0.7159  1.5458 -1.3812
 4850SOL    HW226013   0.755   1.107  11.236 -0.0731 -0.3812 -0.3539
 4851SOL     OW26014   3.671   1.735   5.936 -0.1806 -0.4087 -0.0315
 4851SOL    HW126015   3.656   1.642   5.947 -2.4228  0.0157  0.5061
 4851SOL    HW226016   3.684   1.729   5.841  2.3594  1.6386  0.1831
 4852SOL     OW26017   2.603   1.283   4.200  0.1897 -0.1050 -0.0542
 4852SOL    HW126018   2.510   1.259   4.197 -0.1238  1.1716 -0.6518
 4852SOL    HW226019   2.638   1.241   4.278  1.3802  1.4543  0.2460
 4853SOL     OW26020   2.529   1.974   1.944 -0.5653  0.2250 -0.3259
 4853SOL    HW126021   2.513   1.988   1.851  1.2273  0.5677 -0.5825
 4853SOL    HW226022   2.599   1.910   1.939  0.5734  1.5295 -1.2822
 4854SOL     OW26023   3.900   3.681   7.511  0.3499 -0.0396  0.1113
 4854SOL    HW126024   3.851   3.753   7.470  1.3789  0.8890  0.5078
 4854SOL    HW226025   3.971   3.673   7.447  0.8155  1.1190  0.4890
 4855SOL     OW26026   2.677   1.185   3.104 -0.7022  0.2119  0.6872
 4855SOL    HW126027   2.697   1.204   3.195  0.8953  0.2747  0.3187
 4855SOL    HW226028   2.762   1.173   3.062  0.8691  2.5832  3.2012
 4856SOL     OW26029   1.120   3.848   3.465  0.1871 -0.1104 -0.7143
 4856SOL    HW126030   1.030   3.816   3.460 -0.1090  0.3668  1.7250
 4856SOL    HW226031   1.114   3.922   3.526 -0.9909 -0.6685 -0.1548
 4857SOL     OW26032   0.174   3.411   7.599 -0.5270  0.1592  0.0327
 4857SOL    HW126033   0.137   3.487   7.643 -0.2064  1.1353 -1.3596
 4857SOL    HW226034   0.160   3.347   7.668 -0.1587  0.2623  0.2043
 4858SOL     OW26035   3.320   1.739  16.929  0.1970  0.3223 -0.0376
 4858SOL    HW126036   3.400   1.696  16.898  0.2105  2.2069 -2.6122
 4858SOL    HW226037   3.355   1.813  16.979 -2.2064  1.7847 -0.5034
 4859SOL     OW26038   1.605   0.072   0.421  0.0382  0.6760  0.3445
 4859SOL    HW126039   1.691   0.058   0.381  1.0282  1.1097  2.3403
 4859SOL    HW226040   1.611   0.168   0.426  0.4986  0.5344  2.4929
 4860SOL     OW26041   3.305   1.611  14.266 -0.3361 -0.4596  1.0033
 4860SOL    HW126042   3.234   1.546  14.265 -0.0494 -0.7442 -1.3669
 4860SOL    HW226043   3.378   1.554  14.242  0.0049  0.2902  0.2345
 4861SOL     OW26044   2.065   2.890  17.516  0.9771 -0.2102 -0.1933
 4861SOL    HW126045   2.077   2.796  17.528  0.0514 -0.2035  0.8330
 4861SOL    HW226046   1.986   2.885  17.461 -0.2611 -0.0741  1.5632
 4862SOL     OW26047   2.975   4.455  17.035 -0.2559  0.3278  0.3258
 4862SOL    HW126048   3.032   4.525  17.067  0.7670 -0.3072 -0.1053
 4862SOL    HW226049   2.887   4.493  17.042 -0.3954  0.6418 -3.1816
 4863SOL     OW26050   2.616   2.263  12.333  0.0483 -0.3285 -0.4870
 4863SOL    HW126051   2.669   2.287  12.258  0.4090  0.1713 -0.0765
 4863SOL    HW226052   2.643   2.179  12.369  0.8136  0.5264  0.9599
 4864SOL     OW26053   0.621   0.195   8.064 -0.2866  0.9705  0.0607
 4864SOL    HW126054   0.705   0.238   8.077  1.5791 -2.8388  0.4215
 4864SOL    HW226055   0.621   0.133   8.137  1.5609  2.4680  1.3284
 4865SOL     OW26056   1.201   3.304   7.359 -0.0750  0.9338 -0.0923
 4865SOL    HW126057   1.138   3.317   7.288 -0.2087  0.6947 -0.0164
 4865SOL    HW226058   1.250   3.223   7.345 -0.3581  0.9144 -0.9485
 4866SOL     OW26059   2.619   1.100   1.244 -0.0507  0.6210 -0.7849
 4866SOL    HW126060   2.533   1.125   1.278 -0.0087  1.9978 -1.6699
 4866SOL    HW226061   2.665   1.144   1.315  0.5526  2.7165 -2.4688
 4867SOL     OW26062   0.261   4.120   3.088 -0.1470  0.2898 -0.1319
 4867SOL    HW126063   0.250   4.195   3.030  0.8839 -0.4545 -1.2985
 4867SOL    HW226064   0.323   4.071   3.034  0.9744  0.8178  0.6678
 4868SOL     OW26065   3.329   3.762   1.461  0.0231  0.0973 -0.1367
 4868SOL    HW126066   3.341   3.682   1.514 -2.0450 -0.9215 -1.1962
 4868SOL    HW226067   3.364   3.824   1.525  0.9808  0.7514 -1.2898
 4869SOL     OW26068   0.051   4.473   6.119  0.0828  0.0476  0.2484
 4869SOL    HW126069   4.688   4.478   6.079  0.7023  0.7227 -0.9801
 4869SOL    HW226070   0.084   4.562   6.106  0.2833 -0.4786 -2.7282
 4870SOL     OW26071   4.235   3.485   1.736 -0.5600 -0.4953 -0.0713
 4870SOL    HW126072   4.160   3.485   1.796 -0.8987  1.9699 -0.4952
 4870SOL    HW226073   4.281   3.407   1.767 -1.4963 -1.5212 -1.2622
 4871SOL     OW26074   2.667   3.502   4.769 -0.1985  0.1306 -0.1149
 4871SOL    HW126075   2.638   3.563   4.701  0.4502  1.8228  1.1281
 4871SOL    HW226076   2.591   3.445   4.780 -0.0707 -0.5026 -2.4661
 4872SOL     OW26077   3.970   2.548   9.629  0.1840  0.1304 -0.3460
 4872SOL    HW126078   3.909   2.478   9.653 -2.5884  1.5060 -3.4167
 4872SOL    HW226079   3.984   2.602   9.707 -0.6588  0.0438 -0.1351
 4873SOL     OW26080   2.835   4.322   7.529  0.4144  0.3913  0.2442
 4873SOL    HW126081   2.928   4.301   7.525  0.2172 -0.9001  2.0870
 4873SOL    HW226082   2.791   4.239   7.511  0.8498  0.2558 -0.2061
 4874SOL     OW26083   4.645   3.237  10.311  0.2421 -0.0265  0.2583
 4874SOL    HW126084   4.586   3.167  10.283  1.1182 -1.4079  1.9309
 4874SOL    HW226085   4.584   3.267  10.379  0.7757  1.4306  0.0912
 4875SOL     OW26086   3.569   3.538   6.239 -0.2965  0.6843  0.6058
 4875SOL    HW126087   3.577   3.503   6.151 -1.6741  0.5245  0.5375
 4875SOL    HW226088   3.645   3.501   6.284 -0.8530 -0.7407  0.3941
 4876SOL     OW26089   0.025   0.510   7.523 -0.3792 -0.1725 -0.0960
 4876SOL    HW126090   0.076   0.521   7.604  0.6485 -1.4558 -0.5712
 4876SOL    HW226091   0.054   0.578   7.463 -2.8876 -0.7003 -1.8784
 4877SOL     OW26092   2.062   4.446   9.661 -0.2299 -0.1263 -0.2640
 4877SOL    HW126093   2.021   4.514   9.607 -1.1437 -0.8714 -0.4991
 4877SOL    HW226094   2.120   4.506   9.707  1.1140 -0.6610 -1.2543
 4878SOL     OW26095   0.211   2.275  12.568 -0.0105  0.3596  0.1774
 4878SOL    HW126096   0.244   2.255  12.656 -0.0951  1.4986  0.4585
 4878SOL    HW226097   0.287   2.311  12.523  0.8422  0.2316  1.5162
 4879SOL     OW26098   2.482   3.588   7.110  0.8054 -0.3852 -0.3613
 4879SOL    HW126099   2.550   3.607   7.175  0.7825  0.7475 -0.6617
 4879SOL    HW226100   2.509   3.504   7.076 -0.2130  0.0514 -2.2571
 4880SOL     OW26101   3.639   2.068   7.960  0.3847  0.9259  0.1042
 4880SOL    HW126102   3.640   2.139   8.024  0.3281  0.5524  0.5125
 4880SOL    HW226103   3.557   2.019   7.969 -0.1001  1.6587 -0.2785
 4881SOL     OW26104   1.045   1.175  14.287 -0.7499 -0.2676 -0.1085
 4881SOL    HW126105   0.963   1.205  14.327 -0.5909 -1.0305  0.7934
 4881SOL    HW226106   1.106   1.245  14.310 -0.3444 -0.6023 -0.1578
 4882SOL     OW26107   1.052   3.821  10.575 -0.6904  0.2589  0.2779
 4882SOL    HW126108   1.114   3.793  10.643 -1.5206 -1.0357  0.4950
 4882SOL    HW226109   1.056   3.915  10.591 -0.3891  0.3953 -0.6303
 4883SOL     OW26110   4.329   3.171  14.606  0.4805 -0.0633 -0.0201
 4883SOL    HW126111   4.360   3.262  14.611 -2.0806  0.8239 -0.0072
 4883SOL    HW226112   4.272   3.177  14.529  1.5712 -1.2436 -0.9026
 4884SOL     OW26113   0.458   3.255   6.345 -0.5811  0.3340  0.0432
 4884SOL    HW126114   0.549   3.242   6.318 -0.5784 -0.2132  0.3204
 4884SOL    HW226115   0.424   3.167   6.329 -0.2226  0.2037 -0.0055
 4885SOL     OW26116   0.178   4.177   3.344  0.3806 -0.4462  0.2458
 4885SOL    HW126117   0.114   4.240   3.313 -0.5392 -1.2891  0.4095
 4885SOL    HW226118   0.216   4.149   3.261 -0.3165 -2.2069  0.5145
 4886SOL     OW26119   3.563   1.664   7.242 -0.0754 -0.0214  0.3009
 4886SOL    HW126120   3.617   1.688   7.167  1.7864 -2.1905  0.9236
 4886SOL    HW226121   3.478   1.699   7.216 -0.5564  0.5726  2.7458
 4887SOL     OW26122   1.818   0.411   3.558 -0.0456  0.1084 -0.0240
 4887SOL    HW126123   1.814   0.374   3.470 -0.9365 -0.5680  0.3026
 4887SOL    HW226124   1.899   0.463   3.554 -0.0354 -0.0270 -1.4980
 4888SOL     OW26125   3.884   0.000   4.786 -0.3288  0.4601  0.0464
 4888SOL    HW126126   3.904   0.032   4.874 -3.0021  1.4525  0.2993
 4888SOL    HW226127   3.814   4.661   4.807 -0.0688  0.7597  1.8194
 4889SOL     OW26128   1.811   1.163  11.272  0.0441  0.1773 -0.2415
 4889SOL    HW126129   1.852   1.077  11.277 -1.0397 -0.2705  1.0400
 4889SOL    HW226130   1.797   1.187  11.364 -2.1374  0.4256 -0.6492
 4890SOL     OW26131   2.661   1.453   2.479  0.2255 -0.1052  0.6287
 4890SOL    HW126132   2.688   1.449   2.387 -1.2403  0.0337  0.1903
 4890SOL    HW226133   2.669   1.548   2.492  0.8938 -0.0186 -0.4280
 4891SOL     OW26134   1.334   4.461  12.810  0.0138  0.3992  0.0986
 4891SOL    HW126135   1.346   4.448  12.904 -1.1880 -3.7731 -0.3172
 4891SOL    HW226136   1.280   4.539  12.802 -1.0271 -0.3419 -0.0934
 4892SOL     OW26137   1.906   4.560   6.596 -0.1168 -0.4168 -0.2391
 4892SOL    HW126138   1.855   4.515   6.663 -1.8157 -0.0605 -1.2668
 4892SOL    HW226139   1.845   4.561   6.521  0.6824 -1.1821 -0.8952
 4893SOL     OW26140   4.409   0.670  16.748  0.3413  0.3876 -0.1416
 4893SOL    HW126141   4.477   0.712  16.696 -1.4404 -1.9589 -4.3287
 4893SOL    HW226142   4.335   0.688  16.691  0.2333 -0.6518 -0.3364
 4894SOL     OW26143   2.881   2.486   7.798 -0.6190 -0.4126 -0.1381
 4894SOL    HW126144   2.849   2.426   7.866 -0.2723  0.7449  1.0346
 4894SOL    HW226145   2.967   2.446   7.788 -0.8472 -1.0531  0.4537
 4895SOL     OW26146   1.411   2.109  15.990 -0.3406 -0.3654 -0.3884
 4895SOL    HW126147   1.445   2.135  15.904 -0.3268 -2.7340 -1.1013
 4895SOL    HW226148   1.315   2.113  15.984 -0.3282 -0.1960 -0.4896
 4896SOL     OW26149   3.805   1.332   8.656  1.0267  0.3876 -0.6128
 4896SOL    HW126150   3.714   1.350   8.633  0.9083 -1.1704 -1.3952
 4896SOL    HW226151   3.802   1.237   8.644 -1.5419  0.1051  2.1566
 4897SOL     OW26152   2.171   1.843  15.530  0.4719  0.1850 -0.6941
 4897SOL    HW126153   2.225   1.786  15.584  0.1558 -0.3384 -0.9356
 4897SOL    HW226154   2.230   1.919  15.531 -1.8693  1.9593  2.5314
 4898SOL     OW26155   2.643   0.432  17.522  0.1668 -0.2641  0.1801
 4898SOL    HW126156   2.564   0.433  17.576 -0.0702  2.1852 -0.2147
 4898SOL    HW226157   2.692   0.512  17.542 -0.3283 -0.6294  2.8383
 4899SOL     OW26158   1.458   0.140  14.257 -0.5603  0.8517 -0.2283
 4899SOL    HW126159   1.367   0.129  14.284  0.9935 -0.2781  4.4831
 4899SOL    HW226160   1.505   0.171  14.335 -0.0253  0.4753 -0.3968
 4900SOL     OW26161   3.619   0.041   2.738 -0.1204  0.2177  0.2187
 4900SOL    HW126162   3.700   0.020   2.785  0.3918  0.8900 -0.3439
 4900SOL    HW226163   3.645   0.129   2.709  2.4824 -0.3752  0.7006
 4901SOL     OW26164   2.608   1.131   7.524  0.3992 -0.1620 -0.5794
 4901SOL    HW126165   2.586   1.196   7.591 -0.1785 -0.7232 -0.2303
 4901SOL    HW226166   2.530   1.124   7.469 -1.1885 -2.7352  2.0366
 4902SOL     OW26167   4.620   2.432   5.806 -0.4621  0.2918 -0.7981
 4902SOL    HW126168   4.674   2.509   5.786 -0.1666  0.4523  0.6196
 4902SOL    HW226169   4.640   2.416   5.898  0.1401 -1.1429 -1.1871
 4903SOL     OW26170   1.269   1.041   4.657  0.0122 -0.6912 -0.3193
 4903SOL    HW126171   1.286   1.004   4.743  1.2173 -0.8198 -0.6202
 4903SOL    HW226172   1.173   1.036   4.660 -0.0845  0.5905 -1.0281
 4904SOL     OW26173   2.261   1.482   1.577 -0.2640 -0.2013  0.2123
 4904SOL    HW126174   2.204   1.518   1.509  1.4512  0.2289 -1.0001
 4904SOL    HW226175   2.289   1.559   1.627 -0.1785  0.0036 -0.1566
 4905SOL     OW26176   3.420   3.740   7.432  0.5562  0.1078 -0.4017
 4905SOL    HW126177   3.342   3.768   7.383  1.1909 -1.1287 -2.1201
 4905SOL    HW226178   3.490   3.794   7.395  1.1908 -0.3397  0.1552
 4906SOL     OW26179   2.992   4.136   6.221 -0.3012 -0.4925 -0.3188
 4906SOL    HW126180   3.028   4.090   6.145 -2.3174 -2.0751 -0.3132
 4906SOL    HW226181   2.920   4.185   6.182  0.9541  0.9993 -0.7759
 4907SOL     OW26182   1.006   2.521   4.878  0.2491  0.8505 -0.6505
 4907SOL    HW126183   0.933   2.567   4.919 -0.2803 -0.8371  0.2688
 4907SOL    HW226184   1.081   2.546   4.932  0.1226  1.4440 -0.7455
 4908SOL     OW26185   4.209   0.675   5.981 -0.0859  0.5490 -0.2138
 4908SOL    HW126186   4.285   0.650   5.928 -2.2517 -1.5006 -2.3131
 4908SOL    HW226187   4.156   0.731   5.924 -1.2925 -1.3530 -0.9239
 4909SOL     OW26188   1.965   4.169   6.081  0.1482  0.0211  0.1895
 4909SOL    HW126189   1.932   4.202   6.164  0.5744 -0.5225  0.5748
 4909SOL    HW226190   1.904   4.205   6.016  1.4808 -0.8235 -1.5465
 4910SOL     OW26191   3.300   3.284   1.954 -0.1952  0.5501 -0.0448
 4910SOL    HW126192   3.378   3.340   1.961 -0.0647  0.0730  2.4144
 4910SOL    HW226193   3.328   3.194   1.968 -0.6545  0.5671  1.0021
 4911SOL     OW26194   4.567   0.907   4.796 -0.1113 -0.2485 -0.6655
 4911SOL    HW126195   4.618   0.985   4.774  1.6746 -0.9685  0.8865
 4911SOL    HW226196   4.641   0.859   4.834  1.1818  2.1299 -0.2118
 4912SOL     OW26197   1.424   4.372   3.075  0.2558  0.2172  0.0985
 4912SOL    HW126198   1.397   4.293   3.122  2.8316 -0.8297 -0.1211
 4912SOL    HW226199   1.344   4.417   3.049  0.7853  1.5527  0.7879
 4913SOL     OW26200   2.607   2.287   0.549 -0.3488  0.0912 -0.0110
 4913SOL    HW126201   2.629   2.372   0.587 -0.9832  0.1936  0.1264
 4913SOL    HW226202   2.690   2.286   0.501 -1.1046 -2.5912 -1.2898
 4914SOL     OW26203   4.051   1.754   6.969  0.3610  0.0556  0.1676
 4914SOL    HW126204   4.069   1.758   6.876 -0.0239 -1.3627  0.0313
 4914SOL    HW226205   4.139   1.767   7.003  0.0405 -2.7850  2.0911
 4915SOL     OW26206   0.037   4.655   3.544  0.6118  0.5664  0.0745
 4915SOL    HW126207   0.021   4.683   3.634  1.4220  0.7749  0.1485
 4915SOL    HW226208   0.084   0.008   3.512 -0.2775  1.3159  0.5429
 4916SOL     OW26209   1.199   0.837  13.728  0.1858 -0.0681 -0.3543
 4916SOL    HW126210   1.173   0.763  13.673  3.1243 -1.3249 -0.0142
 4916SOL    HW226211   1.280   0.807  13.768  0.3104  0.9397  0.1633
 4917SOL     OW26212   4.620   1.228   6.366  0.2428 -0.7530  0.5029
 4917SOL    HW126213   4.590   1.182   6.287 -0.0853  0.8802 -0.3181
 4917SOL    HW226214   4.659   1.161   6.422  0.9322 -0.1015  0.8112
 4918SOL     OW26215   0.794   2.207   6.640 -0.1405 -0.4088  0.6021
 4918SOL    HW126216   0.838   2.292   6.638 -0.5629 -0.2218 -0.6630
 4918SOL    HW226217   0.842   2.175   6.717 -0.6458 -0.8128  0.7546
 4919SOL     OW26218   4.205   4.223   4.216  0.0985  0.9685 -0.4778
 4919SOL    HW126219   4.143   4.293   4.193 -0.0565  0.4721 -1.5681
 4919SOL    HW226220   4.186   4.219   4.310 -1.5710 -1.3993 -0.9249
 4920SOL     OW26221   1.514   4.216   4.778  0.4434 -0.6326  0.3808
 4920SOL    HW126222   1.469   4.191   4.698  0.9519 -1.2212  0.2767
 4920SOL    HW226223   1.490   4.309   4.786  0.2129 -0.6233 -0.4544
 4921SOL     OW26224   2.294   0.214   8.928  0.0812 -0.1729  0.5701
 4921SOL    HW126225   2.262   0.281   8.988  0.9556 -0.0893  0.9372
 4921SOL    HW226226   2.387   0.197   8.940  0.8478  4.7563  1.5676
 4922SOL     OW26227   2.396   0.268   7.254 -0.0780  0.0276  0.0500
 4922SOL    HW126228   2.355   0.275   7.340  1.7292  0.2781  0.8783
 4922SOL    HW226229   2.470   0.328   7.256 -1.5160  1.6456  3.6425
 4923SOL     OW26230   0.635   4.663   7.446  0.0187 -0.1077 -0.2735
 4923SOL    HW126231   0.568   4.596   7.458 -0.3819  0.7020  1.9693
 4923SOL    HW226232   0.675   4.646   7.360  4.0459 -3.3396  2.2148
 4924SOL     OW26233   4.421   2.409   3.521  0.1915 -0.1730 -0.5608
 4924SOL    HW126234   4.489   2.475   3.513  0.6368 -0.8233 -2.1714
 4924SOL    HW226235   4.357   2.433   3.454 -1.0853  0.3493  0.8372
 4925SOL     OW26236   0.806   1.650  10.757  0.3500 -0.0060 -0.1622
 4925SOL    HW126237   0.767   1.734  10.781  0.1309  0.0721 -0.7960
 4925SOL    HW226238   0.780   1.661  10.666 -2.4842  0.9329  0.7472
 4926SOL     OW26239   3.178   0.431   0.634  0.1339 -0.0303  0.5589
 4926SOL    HW126240   3.232   0.379   0.575  0.4978  0.0486  0.8261
 4926SOL    HW226241   3.112   0.363   0.644 -0.3790  0.3928  0.1086
 4927SOL     OW26242   2.627   2.507   5.776  0.7102  0.1200  0.2104
 4927SOL    HW126243   2.591   2.596   5.782 -0.7213 -0.4030 -0.5073
 4927SOL    HW226244   2.697   2.535   5.717  1.8177 -0.8450  1.0755
 4928SOL     OW26245   0.464   0.123  12.131 -0.2248  0.6591 -0.8570
 4928SOL    HW126246   0.510   0.080  12.059 -0.0171 -0.3784 -0.1029
 4928SOL    HW226247   0.434   0.048  12.183  0.3283  1.2320  0.2671
 4929SOL     OW26248   3.079   1.283   9.155  0.1412  0.0149 -0.4910
 4929SOL    HW126249   3.098   1.373   9.181  0.2400 -0.3168  0.5892
 4929SOL    HW226250   2.998   1.261   9.200  0.2591 -0.0634 -0.3188
 4930SOL     OW26251   4.682   0.329   6.214  0.1466 -0.2568 -0.1433
 4930SOL    HW126252   4.653   0.288   6.133 -0.4657 -2.0938  1.0097
 4930SOL    HW226253   4.598   0.362   6.247  1.7125  2.2619  1.3393
 4931SOL     OW26254   4.108   2.641   5.148 -0.2726 -0.0390  0.0020
 4931SOL    HW126255   4.036   2.583   5.171 -0.0940 -0.1443  0.2953
 4931SOL    HW226256   4.092   2.695   5.225 -0.7750 -1.7369  1.0812
 4932SOL     OW26257   0.466   4.402   7.456  0.1815  0.1545  0.1748
 4932SOL    HW126258   0.386   4.454   7.446 -0.7510 -0.7595  2.7591
 4932SOL    HW226259   0.426   4.315   7.466 -1.3691  0.7099 -1.2214
 4933SOL     OW26260   3.501   1.360  14.828  0.7563  0.5061  0.1044
 4933SOL    HW126261   3.521   1.394  14.740 -0.3959  2.3189  0.5393
 4933SOL    HW226262   3.408   1.341  14.822  0.7880  0.1462  0.8227
 4934SOL     OW26263   4.475   3.673   4.558 -0.4721  0.1604 -0.2511
 4934SOL    HW126264   4.416   3.628   4.619 -1.4390  0.2493 -1.1088
 4934SOL    HW226265   4.471   3.757   4.603 -0.0715 -0.9726  1.8834
 4935SOL     OW26266   3.410   0.645  13.953 -0.5020 -0.2837  0.7694
 4935SOL    HW126267   3.332   0.700  13.952  0.4564  1.0800 -1.4117
 4935SOL    HW226268   3.464   0.678  14.025 -0.5185  1.9814 -0.2475
 4936SOL     OW26269   1.727   2.583   5.222 -0.1952  0.2444  0.2559
 4936SOL    HW126270   1.760   2.562   5.310 -0.8235  3.5578  1.2533
 4936SOL    HW226271   1.632   2.575   5.233 -0.2184 -1.5579 -1.0685
 4937SOL     OW26272   4.283   3.790   9.416  0.7885  0.3512 -0.0866
 4937SOL    HW126273   4.305   3.696   9.415 -0.9862 -0.0872  2.0852
 4937SOL    HW226274   4.191   3.795   9.439  1.0404  0.0302  1.0227
 4938SOL     OW26275   4.166   1.560   8.492 -0.0272  0.6430  0.0939
 4938SOL    HW126276   4.108   1.497   8.448  0.8199 -0.4546  0.5347
 4938SOL    HW226277   4.239   1.499   8.503  0.6070  1.2970 -0.5509
 4939SOL     OW26278   2.699   4.185   9.104  0.7350  0.0698 -0.4095
 4939SOL    HW126279   2.731   4.260   9.154  0.8704 -0.0558 -0.3056
 4939SOL    HW226280   2.715   4.108   9.159  1.7182 -1.2160 -2.5134
 4940SOL     OW26281   4.419   2.782   8.803  0.1409  0.1135  0.0234
 4940SOL    HW126282   4.494   2.722   8.806  0.0457 -0.0179 -0.2003
 4940SOL    HW226283   4.451   2.836   8.876  1.3521  3.8748 -3.2772
 4941SOL     OW26284   3.558   3.617   5.935 -0.1858 -0.1584  0.2755
 4941SOL    HW126285   3.573   3.551   5.867  1.3267 -0.0110  0.4775
 4941SOL    HW226286   3.647   3.641   5.961  0.4135 -1.8900 -0.1808
 4942SOL     OW26287   2.915   3.812   1.577  0.0285  0.0660  0.2514
 4942SOL    HW126288   2.903   3.721   1.603  1.5754 -0.4168 -0.7502
 4942SOL    HW226289   2.975   3.802   1.503 -2.0852 -1.3644 -1.2768
 4943SOL     OW26290   1.209   3.120   7.792 -0.6321 -0.8270  0.5073
 4943SOL    HW126291   1.232   3.211   7.772  1.1031 -1.1743  0.9299
 4943SOL    HW226292   1.230   3.106   7.884 -0.9077 -0.3999  0.6368
 4944SOL     OW26293   2.188   4.628   7.295  0.2647  0.2575 -0.1749
 4944SOL    HW126294   2.203   4.640   7.201  2.5172  1.6209  0.3501
 4944SOL    HW226295   2.104   4.674   7.293 -0.7057 -1.4889  1.1334
 4945SOL     OW26296   3.052   0.647  14.874  0.1111 -0.3555 -0.3292
 4945SOL    HW126297   3.048   0.555  14.848 -1.6889 -0.4153  0.1602
 4945SOL    HW226298   3.121   0.644  14.940 -0.5974  1.1141  0.4735
 4946SOL     OW26299   4.503   1.860   1.879  0.2496  0.1936  0.0172
 4946SOL    HW126300   4.430   1.863   1.817 -0.8986  1.1569  1.4226
 4946SOL    HW226301   4.462   1.812   1.951  2.7568  0.1802  1.4207
 4947SOL     OW26302   3.194   3.690   5.228 -0.2443  0.0061  0.5102
 4947SOL    HW126303   3.171   3.601   5.254  0.7697 -0.8950 -1.6834
 4947SOL    HW226304   3.234   3.673   5.143  1.0967  0.0038  1.1421
 4948SOL     OW26305   3.865   1.988  11.763 -0.3446  0.0307  0.3500
 4948SOL    HW126306   3.924   2.043  11.712 -0.0077 -2.1493 -1.5867
 4948SOL    HW226307   3.782   1.989  11.716 -0.4568 -0.3129  0.5380
 4949SOL     OW26308   0.840   1.355   5.469  0.2424  0.4492  0.4574
 4949SOL    HW126309   0.810   1.321   5.385  0.8461  0.5089  0.2200
 4949SOL    HW226310   0.846   1.448   5.446 -0.6225  0.3199 -0.2618
 4950SOL     OW26311   1.412   4.076   4.135 -0.1040 -0.9371 -0.2366
 4950SOL    HW126312   1.433   4.166   4.111  0.7894 -0.3830  2.5749
 4950SOL    HW226313   1.498   4.058   4.172  0.2073  1.9000  0.4137
 4951SOL     OW26314   1.754   0.004   2.654  0.5037  0.1157  0.8074
 4951SOL    HW126315   1.787   4.639   2.668  1.6384  0.5275  0.7673
 4951SOL    HW226316   1.662   0.000   2.680  0.0796 -0.5372 -0.7754
 4952SOL     OW26317   2.150   0.610  15.852  0.6177 -0.7335 -0.0434
 4952SOL    HW126318   2.081   0.622  15.918  0.0767  2.8552 -1.2689
 4952SOL    HW226319   2.225   0.653  15.892 -0.4722  0.0977  1.1155
 4953SOL     OW26320   0.163   4.638   0.096  0.0957  0.6318  0.2579
 4953SOL    HW126321   0.164   4.562   0.154 -0.4811  1.1584  0.9627
 4953SOL    HW226322   0.166   4.583   0.017  1.6788  0.8214  0.1896
 4954SOL     OW26323   0.404   4.032   3.830 -0.6900  0.2682  1.2007
 4954SOL    HW126324   0.351   4.096   3.783 -0.4980  0.2681  0.9855
 4954SOL    HW226325   0.385   3.951   3.782  1.4447  0.9609 -0.8362
 4955SOL     OW26326   3.733   2.706  10.770  0.3707 -0.1962 -0.0707
 4955SOL    HW126327   3.799   2.728  10.836 -0.4861  1.2647  0.3149
 4955SOL    HW226328   3.762   2.615  10.766  0.5249 -0.0825 -1.4793
 4956SOL     OW26329   3.251   1.216  10.604 -0.5378 -0.4392  0.1257
 4956SOL    HW126330   3.194   1.220  10.527 -1.6475  0.3492  0.9971
 4956SOL    HW226331   3.327   1.162  10.581  0.8117  1.5939 -0.2605
 4957SOL     OW26332   0.122   4.448   0.257 -0.1623 -0.0801 -0.1491
 4957SOL    HW126333   0.076   4.368   0.231 -2.5492  1.4975 -0.8490
 4957SOL    HW226334   0.171   4.411   0.330 -1.0039  0.9185  0.9223
 4958SOL     OW26335   1.963   0.034   8.932  0.0588 -0.1715 -0.1891
 4958SOL    HW126336   2.055   0.026   8.960  0.2120 -0.2068 -0.7058
 4958SOL    HW226337   1.965   0.003   8.842  0.4800 -2.1736  0.5012
 4959SOL     OW26338   2.288   3.353   9.023 -0.2710 -0.4629  0.3683
 4959SOL    HW126339   2.299   3.277   9.081 -1.0697 -2.1672 -1.7177
 4959SOL    HW226340   2.321   3.311   8.944 -2.8942  1.3265 -1.6495
 4960SOL     OW26341   3.193   0.346   5.183  0.5659 -0.1872  0.0437
 4960SOL    HW126342   3.143   0.304   5.252  2.4763 -0.6895  1.0969
 4960SOL    HW226343   3.152   0.433   5.176  2.3284  0.5169 -1.5476
 4961SOL     OW26344   2.555   4.031  17.129 -0.3678 -0.1579  0.0235
 4961SOL    HW126345   2.461   4.016  17.131  0.0239 -2.6487 -0.6204
 4961SOL    HW226346   2.560   4.074  17.044  1.4222 -0.4360 -0.0085
 4962SOL     OW26347   1.178   4.705   2.724 -0.0333  0.3805  0.0861
 4962SOL    HW126348   1.127   0.015   2.650  3.3531 -3.3269 -3.9777
 4962SOL    HW226349   1.150   4.614   2.728 -0.4667  0.5207  0.1884
 4963SOL     OW26350   3.200   3.869   4.107 -0.3660  0.4873  0.4470
 4963SOL    HW126351   3.134   3.800   4.117 -0.4813  0.0611 -3.4290
 4963SOL    HW226352   3.233   3.846   4.020  0.1096  1.5869  0.3307
 4964SOL     OW26353   0.163   4.041   6.229 -0.4650 -0.2630 -0.4095
 4964SOL    HW126354   0.130   3.964   6.183  1.5059 -0.5257 -1.3552
 4964SOL    HW226355   0.133   4.105   6.165 -1.0641 -0.7414 -0.6172
 4965SOL     OW26356   1.836   4.066   0.402 -0.0392  0.2169 -0.1765
 4965SOL    HW126357   1.779   4.144   0.400  0.7261  0.8175  1.5697
 4965SOL    HW226358   1.770   3.999   0.420 -0.3509  0.7271  0.6233
 4966SOL     OW26359   2.769   1.595  15.337 -1.0417  0.2635 -0.7191
 4966SOL    HW126360   2.677   1.619  15.350 -0.8108  0.3324  0.8494
 4966SOL    HW226361   2.806   1.660  15.396 -0.0293 -0.4462 -0.5683
 4967SOL     OW26362   0.512   3.528   4.296 -0.4631 -0.4666 -0.1016
 4967SOL    HW126363   0.571   3.601   4.278 -0.6577 -0.6134 -1.3812
 4967SOL    HW226364   0.566   3.492   4.366 -0.9885 -1.3401 -0.1457
 4968SOL     OW26365   4.387   0.554   4.730  0.3333  0.3587  0.3691
 4968SOL    HW126366   4.339   0.583   4.808 -3.1390  0.4796 -1.8410
 4968SOL    HW226367   4.445   0.491   4.774 -1.6843 -1.4154  0.4852
 4969SOL     OW26368   2.882   3.238   2.943  0.9694  0.2311  0.1480
 4969SOL    HW126369   2.975   3.255   2.926  0.9700  2.6097  2.4345
 4969SOL    HW226370   2.843   3.309   2.892 -0.5121 -0.3307  0.5121
 4970SOL     OW26371   3.962   3.767   8.722 -0.7089 -0.1080 -0.4183
 4970SOL    HW126372   3.936   3.796   8.635  0.1854  0.1113 -0.6221
 4970SOL    HW226373   3.889   3.805   8.771 -0.5513  1.0462 -1.0864
 4971SOL     OW26374   3.010   3.864   8.642 -0.6927 -0.0256  0.4912
 4971SOL    HW126375   3.060   3.891   8.719 -1.0766 -0.6381  0.9526
 4971SOL    HW226376   2.923   3.904   8.646 -0.9724 -0.6676  0.8407
 4972SOL     OW26377   4.325   1.557  12.380  0.3560  0.2593  0.0056
 4972SOL    HW126378   4.374   1.532  12.458 -2.7089 -1.8981  1.2304
 4972SOL    HW226379   4.242   1.509  12.383 -0.4338  1.5689 -0.9309
 4973SOL     OW26380   2.686   1.315   1.865  0.8590  0.1052 -0.5034
 4973SOL    HW126381   2.760   1.354   1.819  0.8699  2.8709  1.8580
 4973SOL    HW226382   2.613   1.335   1.807 -0.0136 -0.8379  0.2479
 4974SOL     OW26383   1.472   2.113  17.690  0.0016 -0.3545 -0.3864
 4974SOL    HW126384   1.423   2.156   0.063 -0.6831 -1.3787 -0.2384
 4974SOL    HW226385   1.551   2.167  17.685 -0.9043  1.0065  0.0151
 4975SOL     OW26386   2.698   0.844   4.037 -0.3088  0.2199  0.1036
 4975SOL    HW126387   2.696   0.764   3.986 -1.9912  0.4905 -0.2597
 4975SOL    HW226388   2.735   0.821   4.123 -3.3706 -1.2749  1.0229
 4976SOL     OW26389   3.011   4.633  10.399  0.2455 -0.0911  0.1700
 4976SOL    HW126390   2.997   4.703  10.335 -1.1443  1.4484  2.1712
 4976SOL    HW226391   2.919   4.615  10.419 -0.0296  0.9617 -0.1663
 4977SOL     OW26392   4.034   0.002   8.786 -0.5593 -0.1738  0.1905
 4977SOL    HW126393   4.038   0.003   8.690  0.6075 -0.0072  0.2397
 4977SOL    HW226394   4.123   4.702   8.812 -0.5772  0.6189  0.9747
 4978SOL     OW26395   2.579   3.551   6.196  0.6339  0.0414 -0.6296
 4978SOL    HW126396   2.560   3.527   6.287  1.0920 -0.1542 -0.5865
 4978SOL    HW226397   2.649   3.491   6.171 -1.5326 -1.5786 -2.8939
 4979SOL     OW26398   0.682   1.708   6.071 -0.1332 -0.4738  0.3022
 4979SOL    HW126399   0.666   1.650   6.146 -1.2359 -1.0329 -0.3753
 4979SOL    HW226400   0.626   1.783   6.094 -2.0544 -1.9944  0.5169
 4980SOL     OW26401   1.260   3.440  12.750  0.1272 -0.1066 -0.0881
 4980SOL    HW126402   1.167   3.461  12.741 -0.2744 -1.7590  0.1054
 4980SOL    HW226403   1.253   3.365  12.809 -0.9273 -0.2691 -0.4314
 4981SOL     OW26404   4.605   2.957   0.224 -0.0022 -0.0853 -0.1952
 4981SOL    HW126405   4.597   2.868   0.190  0.0046 -0.1097 -0.1314
 4981SOL    HW226406   4.556   3.000   0.154  0.3296  1.5167  0.5548
 4982SOL     OW26407   1.457   3.609  11.870 -1.0318 -0.3645 -0.6914
 4982SOL    HW126408   1.415   3.690  11.898  2.8744  1.1600  0.6843
 4982SOL    HW226409   1.545   3.644  11.856 -1.0095  0.1911  0.9174
 4983SOL     OW26410   2.057   0.425   1.296 -0.5432 -0.4863 -0.0393
 4983SOL    HW126411   2.079   0.412   1.203  0.3439  2.0811 -0.1793
 4983SOL    HW226412   2.128   0.385   1.346  1.7410  0.4002 -2.5415
 4984SOL     OW26413   4.498   0.577   0.352  0.5072  0.2639  0.4954
 4984SOL    HW126414   4.507   0.483   0.334  2.2595  0.7187 -1.0121
 4984SOL    HW226415   4.533   0.594   0.440  0.8222  0.4242  0.3401
 4985SOL     OW26416   3.871   4.193  13.228  0.6675  0.3794 -0.4843
 4985SOL    HW126417   3.780   4.181  13.253  1.0618 -0.7476  0.4312
 4985SOL    HW226418   3.905   4.136  13.297 -0.2695 -1.3332 -1.4175
 4986SOL     OW26419   4.597   1.203  12.936  0.0849  0.6268  0.3506
 4986SOL    HW126420   4.565   1.228  13.023 -1.5989  1.2487 -0.4586
 4986SOL    HW226421   4.633   1.116  12.956  3.1563  2.2855  2.0152
 4987SOL     OW26422   1.600   4.079   9.727  0.3264 -0.0678  0.2054
 4987SOL    HW126423   1.505   4.088   9.730  0.3366 -0.3159  1.7029
 4987SOL    HW226424   1.618   4.091   9.821  1.5863 -0.8641  0.0698
 4988SOL     OW26425   3.356   2.430   7.550  0.5986 -0.3089 -0.0813
 4988SOL    HW126426   3.293   2.492   7.587  1.2619 -0.6389  1.6245
 4988SOL    HW226427   3.438   2.476   7.570 -1.0053  1.5960  2.1132
 4989SOL     OW26428   2.408   1.016   8.770 -0.1193  0.8764 -0.0134
 4989SOL    HW126429   2.364   1.084   8.719  1.3300  1.5420 -0.3735
 4989SOL    HW226430   2.343   1.006   8.839 -0.7853 -1.4221 -0.9844
 4990SOL     OW26431   3.598   3.521   9.620 -0.4980 -0.0806  0.0119
 4990SOL    HW126432   3.654   3.444   9.617 -2.3533 -1.2799 -4.0135
 4990SOL    HW226433   3.598   3.550   9.711 -2.3357  1.5389 -0.5005
 4991SOL     OW26434   2.400   4.614   5.042  0.7722  0.0473 -0.2577
 4991SOL    HW126435   2.491   4.600   5.017  0.6515 -0.9616 -0.1420
 4991SOL    HW226436   2.403   4.603   5.137 -0.7029 -0.4927 -0.2689
 4992SOL     OW26437   4.298   1.516   5.261  0.3280 -0.0138  0.2279
 4992SOL    HW126438   4.330   1.573   5.331 -1.0299  2.1756 -0.9354
 4992SOL    HW226439   4.367   1.522   5.194  2.0174 -1.1026  1.8664
 4993SOL     OW26440   4.466   0.574  13.625  0.3147 -0.8139 -0.3011
 4993SOL    HW126441   4.452   0.564  13.530  2.0368  1.1204 -0.7453
 4993SOL    HW226442   4.559   0.591  13.637  0.8515 -2.1684 -2.6040
 4994SOL     OW26443   4.575   3.822   6.623  0.2284  0.5690 -0.0648
 4994SOL    HW126444   4.597   3.892   6.561  0.5233  0.1860 -0.3909
 4994SOL    HW226445   4.484   3.795   6.615  0.3310  0.1359  0.2468
 4995SOL     OW26446   2.396   2.031   7.172 -0.3878  0.5701 -0.1120
 4995SOL    HW126447   2.326   2.032   7.107  0.1204 -0.1797 -0.6800
 4995SOL    HW226448   2.364   2.082   7.246 -0.5423 -0.7025  0.7116
 4996SOL     OW26449   2.183   2.760   3.021  0.0566  0.6207  0.3022
 4996SOL    HW126450   2.265   2.803   3.043  0.2354  0.8319 -0.8277
 4996SOL    HW226451   2.180   2.779   2.928  1.6489  0.0681  0.1394
 4997SOL     OW26452   4.426   3.783  13.893 -0.2872  0.3680  0.0588
 4997SOL    HW126453   4.514   3.806  13.923  1.1449 -2.4984 -1.9190
 4997SOL    HW226454   4.426   3.687  13.893 -0.4981  0.3649 -0.4165
 4998SOL     OW26455   2.876   4.256   0.830  0.2623 -0.1758 -0.1601
 4998SOL    HW126456   2.836   4.322   0.774  3.9200  0.0955 -2.4559
 4998SOL    HW226457   2.795   4.217   0.861 -0.2121 -1.0328 -2.4719
 4999SOL     OW26458   1.396   3.277   6.995  0.2299  0.8819 -0.2030
 4999SOL    HW126459   1.302   3.287   7.009  0.1147 -0.7133  0.1865
 4999SOL    HW226460   1.426   3.209   7.056 -0.2227  0.8945  0.0323
 5000SOL     OW26461   0.075   4.265  11.692  0.3331  0.1081 -0.0107
 5000SOL    HW126462   0.078   4.213  11.612 -0.8656 -0.9557  0.6189
 5000SOL    HW226463   0.145   4.224  11.742  0.7309  0.8889  0.0639
 5001SOL     OW26464   3.194   0.073   3.523 -0.2534 -0.7965  0.1241
 5001SOL    HW126465   3.202   0.168   3.521 -2.3888 -0.6600 -1.5615
 5001SOL    HW226466   3.285   0.046   3.509 -0.9263 -1.4897 -2.8367
 5002SOL     OW26467   1.382   2.199   7.087  0.2101  0.3869 -0.0221
 5002SOL    HW126468   1.342   2.134   7.145 -0.0071  1.7391  1.3363
 5002SOL    HW226469   1.321   2.272   7.098  1.7833  1.4991  1.3189
 5003SOL     OW26470   3.930   1.781   3.755  0.0407 -0.0081  0.2801
 5003SOL    HW126471   3.871   1.795   3.681  0.7301 -0.9999 -0.4526
 5003SOL    HW226472   3.985   1.859   3.751 -1.3764  1.0042  0.4911
 5004SOL     OW26473   1.126   3.421   1.526 -0.0480 -0.0448 -0.4722
 5004SOL    HW126474   1.174   3.434   1.444  1.6194 -1.4260  0.2764
 5004SOL    HW226475   1.140   3.508   1.564  2.2122 -0.9884  0.8385
 5005SOL     OW26476   3.885   3.621  16.399 -0.0597 -0.0924  0.3214
 5005SOL    HW126477   3.899   3.533  16.363 -0.9863 -0.7939  1.6881
 5005SOL    HW226478   3.892   3.607  16.493  0.0723 -2.0812  0.0322
 5006SOL     OW26479   3.473   0.260   4.760  0.1291 -0.4229  0.1550
 5006SOL    HW126480   3.528   0.258   4.682 -1.7841 -0.4777 -1.1933
 5006SOL    HW226481   3.534   0.221   4.823 -0.2727 -0.8470  0.2853
 5007SOL     OW26482   2.067   1.634   5.981 -0.3314 -0.4494  0.2243
 5007SOL    HW126483   2.131   1.564   5.993  0.6411 -0.1083 -2.9848
 5007SOL    HW226484   2.038   1.620   5.891  1.1144  0.7113 -0.4187
 5008SOL     OW26485   0.111   3.506   2.419  0.4805  0.2049 -0.3320
 5008SOL    HW126486   0.038   3.560   2.389 -0.9780 -1.6958 -0.2106
 5008SOL    HW226487   0.072   3.420   2.434 -1.6319  1.2995  0.3955
 5009SOL     OW26488   1.919   4.118   7.058  0.3652 -0.0602 -0.2979
 5009SOL    HW126489   1.836   4.110   7.010 -0.7584 -0.4137  1.6584
 5009SOL    HW226490   1.978   4.108   6.984 -1.1160  0.1690 -1.5273
 5010SOL     OW26491   0.191   2.405   7.983  0.7507  0.7274  0.0359
 5010SOL    HW126492   0.228   2.389   7.896  0.7451 -0.9688  0.3475
 5010SOL    HW226493   0.164   2.496   7.970  0.6322  0.6790 -0.0488
 5011SOL     OW26494   2.650   3.539  15.972 -0.0062 -0.8727  0.1653
 5011SOL    HW126495   2.640   3.467  16.034  1.0033 -1.9603 -0.9517
 5011SOL    HW226496   2.556   3.547  15.953 -0.5260  1.0663  3.4956
 5012SOL     OW26497   3.153   4.045   2.608 -0.7158 -0.0953 -0.2275
 5012SOL    HW126498   3.101   4.114   2.566 -0.9847 -1.3344 -1.9545
 5012SOL    HW226499   3.088   3.994   2.657 -0.2299  0.7492  1.2823
 5013SOL     OW26500   1.124   2.862  12.224 -0.5229 -0.1683 -0.5100
 5013SOL    HW126501   1.044   2.849  12.174 -0.6157 -0.1446 -0.3656
 5013SOL    HW226502   1.149   2.770  12.215  1.8961  0.3540  0.6839
 5014SOL     OW26503   0.842   1.691   5.382  0.4188  0.0967 -0.2389
 5014SOL    HW126504   0.914   1.727   5.433 -0.2336  0.6999  0.2631
 5014SOL    HW226505   0.850   1.747   5.305  1.0845 -0.1773 -0.3666
 5015SOL     OW26506   1.415   3.945  10.563  0.0294  0.3527 -0.3579
 5015SOL    HW126507   1.321   3.954  10.574  0.0714 -0.4955  0.6655
 5015SOL    HW226508   1.449   4.034  10.572  1.1297  0.1276 -2.2030
 5016SOL     OW26509   2.423   1.221   0.871 -0.7176 -0.4505  0.0770
 5016SOL    HW126510   2.350   1.227   0.810 -1.2471 -0.4678  0.7083
 5016SOL    HW226511   2.471   1.299   0.845 -0.0224 -0.7182  0.5463
 5017SOL     OW26512   2.715   2.609  13.138 -0.0542  0.4986  0.5582
 5017SOL    HW126513   2.794   2.637  13.184  0.4061  1.1282 -0.6164
 5017SOL    HW226514   2.735   2.606  13.045  0.1587  2.8797  0.5132
 5018SOL     OW26515   1.919   2.407  14.218 -0.3506  0.5081 -0.0209
 5018SOL    HW126516   1.878   2.348  14.281  0.1383  0.4825  0.2669
 5018SOL    HW226517   1.871   2.490  14.221 -3.1038 -1.1018  0.4470
 5019SOL     OW26518   3.642   4.705   3.959 -0.8108  0.7914  0.1958
 5019SOL    HW126519   3.554   4.693   3.921  0.1405  1.6120 -2.3201
 5019SOL    HW226520   3.631   0.042   4.032  0.5920  1.6011 -0.2757
 5020SOL     OW26521   4.270   0.719  10.203  0.2583  0.3257 -0.0547
 5020SOL    HW126522   4.189   0.760  10.173 -0.2346 -2.1303 -2.0682
 5020SOL    HW226523   4.325   0.719  10.124 -1.2398 -2.3080 -1.0820
 5021SOL     OW26524   0.474   2.913   4.529 -0.5199 -0.1216  0.2502
 5021SOL    HW126525   0.380   2.916   4.546 -0.7807 -1.4980 -0.9860
 5021SOL    HW226526   0.478   2.879   4.440 -0.8392  2.3548 -0.6999
 5022SOL     OW26527   2.712   3.012   2.505 -0.1180 -0.1910 -0.5776
 5022SOL    HW126528   2.804   3.032   2.489  0.6073 -1.1187  2.3408
 5022SOL    HW226529   2.679   3.100   2.486  0.0204 -0.0979 -0.3944
 5023SOL     OW26530   2.757   4.308   9.533 -0.2738  0.3629  0.6585
 5023SOL    HW126531   2.691   4.246   9.503  0.6637 -0.2369 -0.1842
 5023SOL    HW226532   2.827   4.250   9.564 -1.3630  0.3063  2.9851
 5024SOL     OW26533   1.543   1.940   2.217  0.2030 -0.2081  0.2127
 5024SOL    HW126534   1.473   2.002   2.236  1.0299  0.6507  0.4460
 5024SOL    HW226535   1.486   1.878   2.171  0.6138 -0.6134  0.2425
 5025SOL     OW26536   0.890   3.598  14.984 -0.1927  0.0008  0.7068
 5025SOL    HW126537   0.824   3.616  14.916 -0.1740 -0.3088  0.6075
 5025SOL    HW226538   0.877   3.503  14.991 -0.3902 -0.0708 -0.6193
 5026SOL     OW26539   1.079   4.055   8.380 -0.0302 -0.1807  0.0872
 5026SOL    HW126540   1.098   4.095   8.465 -1.5846 -1.7375  1.1738
 5026SOL    HW226541   1.133   4.099   8.315  2.0293 -2.3420  0.3289
 5027SOL     OW26542   0.801   4.351   0.650  0.0685  0.0659  0.3794
 5027SOL    HW126543   0.874   4.399   0.611  1.4410 -2.4564 -0.1498
 5027SOL    HW226544   0.730   4.400   0.608  1.6988  2.3404  0.2600
 5028SOL     OW26545   4.622   2.444  13.081  0.2097 -0.4407 -0.0367
 5028SOL    HW126546   4.573   2.498  13.143 -0.5535 -0.6068 -0.4865
 5028SOL    HW226547   4.562   2.473  13.012  1.2158  1.3623 -0.1454
 5029SOL     OW26548   0.849   0.846   1.734  0.5661  0.2764  0.0904
 5029SOL    HW126549   0.849   0.883   1.822 -2.8669  0.4684  0.0251
 5029SOL    HW226550   0.855   0.753   1.753  0.2279  0.1154 -0.5823
 5030SOL     OW26551   2.840   4.483  14.789 -0.4226 -0.3074  0.0317
 5030SOL    HW126552   2.892   4.484  14.869 -2.0659 -1.4232  1.1166
 5030SOL    HW226553   2.804   4.572  14.795  0.4802 -0.1466  2.7322
 5031SOL     OW26554   2.253   4.302   6.664 -0.2493  0.3796  0.0989
 5031SOL    HW126555   2.344   4.316   6.690 -0.9438  1.5418  1.9068
 5031SOL    HW226556   2.255   4.210   6.639 -2.0011  0.6412 -1.0154
 5032SOL     OW26557   0.187   0.922   9.017 -0.2354 -0.3966  0.2167
 5032SOL    HW126558   0.232   0.842   8.990  2.0398  1.0182 -0.1901
 5032SOL    HW226559   0.097   0.889   9.011 -1.0300  1.6540  0.8095
 5033SOL     OW26560   2.045   2.188   9.939 -0.1989 -0.5555  0.3167
 5033SOL    HW126561   2.074   2.107   9.982  0.9098  0.7044  1.9391
 5033SOL    HW226562   2.018   2.239  10.014  1.1807 -1.9375  1.7670
 5034SOL     OW26563   0.157   0.396   4.960  0.2047  0.4239  0.1565
 5034SOL    HW126564   0.077   0.438   4.995  1.2381  3.8234 -1.5695
 5034SOL    HW226565   0.144   0.391   4.865 -3.4410 -2.0851  0.7813
 5035SOL     OW26566   1.133   1.678   3.367  0.1781 -0.4952  0.6462
 5035SOL    HW126567   1.048   1.696   3.408  0.8223  0.0139  1.7690
 5035SOL    HW226568   1.196   1.715   3.429  1.0369  0.8105 -1.0207
 5036SOL     OW26569   0.972   2.589   4.633 -0.2261 -0.3751 -0.7246
 5036SOL    HW126570   0.984   2.539   4.714  0.2357 -0.3328 -0.7678
 5036SOL    HW226571   0.979   2.679   4.665 -0.1133 -0.6839  0.1106
 5037SOL     OW26572   2.527   1.343   9.610 -0.5259  0.2390  0.4240
 5037SOL    HW126573   2.576   1.383   9.539  0.4085  0.9226  1.4515
 5037SOL    HW226574   2.450   1.400   9.613  1.9061  3.4838  2.0473
 5038SOL     OW26575   1.835   3.793   7.338 -0.0498 -0.1714  0.3942
 5038SOL    HW126576   1.873   3.880   7.325  2.8373 -1.4244  0.2253
 5038SOL    HW226577   1.747   3.814   7.368 -0.9998 -0.5187 -2.1419
 5039SOL     OW26578   3.972   4.023  14.396  0.1381 -0.2410  0.3492
 5039SOL    HW126579   4.059   4.022  14.356  1.2400 -0.6050  2.7630
 5039SOL    HW226580   3.916   4.002  14.322  0.0904  1.0353  0.0129
 5040SOL     OW26581   4.720   4.639   6.861  0.5969  0.5928 -0.6143
 5040SOL    HW126582   4.670   4.643   6.942 -1.5188 -0.0509 -1.8929
 5040SOL    HW226583   0.057   4.565   6.866  1.0039  1.2387  4.2022
 5041SOL     OW26584   2.047   3.373   4.368  0.1714  0.5493 -0.0968
 5041SOL    HW126585   1.972   3.358   4.310  0.6001 -1.3283 -0.1644
 5041SOL    HW226586   2.124   3.344   4.318  2.2566  3.5044  1.4175
 5042SOL     OW26587   1.485   2.016  16.213 -0.0994 -0.7063 -0.3109
 5042SOL    HW126588   1.502   1.925  16.187 -1.5217 -1.1224  0.2058
 5042SOL    HW226589   1.452   2.057  16.133 -2.2485  1.4324  1.6765
 5043SOL     OW26590   3.779   3.195   3.705 -0.0215  0.0808  0.1398
 5043SOL    HW126591   3.757   3.282   3.674 -0.0701  0.7811  2.1637
 5043SOL    HW226592   3.786   3.152   3.619  0.8382  0.2023  0.1411
 5044SOL     OW26593   0.639   2.901   1.616  0.2621 -0.4406 -0.0187
 5044SOL    HW126594   0.707   2.876   1.553  0.4776  0.2701 -0.0647
 5044SOL    HW226595   0.563   2.910   1.558  1.4792  1.3922 -1.3359
 5045SOL     OW26596   2.798   0.208   7.258 -0.4086  0.6732 -0.5841
 5045SOL    HW126597   2.795   0.301   7.235  1.0180  1.4287  2.2421
 5045SOL    HW226598   2.876   0.177   7.212 -0.3481  1.4458 -1.0132
 5046SOL     OW26599   2.322   4.115  12.199  0.3475  0.7032 -0.4101
 5046SOL    HW126600   2.410   4.144  12.222  0.8515  0.5726 -2.2354
 5046SOL    HW226601   2.300   4.058  12.273 -0.3588 -0.9381 -1.8665
 5047SOL     OW26602   3.103   0.233   3.929 -0.2979  0.5898  0.3305
 5047SOL    HW126603   3.152   0.178   3.989  1.5233  0.5752 -1.1761
 5047SOL    HW226604   3.067   0.165   3.872  1.4467  1.6619 -2.0458
 5048SOL     OW26605   1.753   3.272  15.205  0.2528 -0.5284  0.0414
 5048SOL    HW126606   1.768   3.238  15.117 -0.0512 -1.0586  0.1876
 5048SOL    HW226607   1.687   3.205  15.227 -1.5173 -0.0587 -3.9015
 5049SOL     OW26608   3.304   0.904   5.072 -0.1085  0.1659 -0.0714
 5049SOL    HW126609   3.277   0.817   5.044  0.1978 -0.1052  0.4831
 5049SOL    HW226610   3.357   0.931   4.996 -1.7306 -0.5059 -1.4507
 5050SOL     OW26611   4.523   3.736   5.623  0.1839 -0.2379  0.5350
 5050SOL    HW126612   4.547   3.664   5.565  1.3503  0.9375 -0.4619
 5050SOL    HW226613   4.519   3.807   5.559  2.7641 -1.0448 -0.5528
 5051SOL     OW26614   2.562   3.152   3.713  0.0325  0.0335 -0.0220
 5051SOL    HW126615   2.612   3.233   3.708  0.1333  0.0352  0.8415
 5051SOL    HW226616   2.514   3.167   3.795 -0.6184 -2.9628  0.1712
 5052SOL     OW26617   4.243   1.572   9.058  0.3477 -0.2161  0.1172
 5052SOL    HW126618   4.231   1.600   9.148 -0.6986 -1.0719  0.2413
 5052SOL    HW226619   4.154   1.540   9.041  0.3710  0.1790 -0.7742
 5053SOL     OW26620   2.976   2.188   8.997  0.2581  0.3644 -0.2787
 5053SOL    HW126621   2.942   2.265   9.042 -0.2106 -0.4716  0.8198
 5053SOL    HW226622   2.921   2.123   9.042 -1.2984  1.3484 -0.7586
 5054SOL     OW26623   0.865   0.779   3.718 -0.5348 -0.2892  0.7003
 5054SOL    HW126624   0.843   0.709   3.657 -0.1756 -0.6902  1.0295
 5054SOL    HW226625   0.813   0.759   3.797  0.5117 -2.5044  0.8139
 5055SOL     OW26626   0.161   2.586  16.197  0.9538 -0.1951  0.0478
 5055SOL    HW126627   0.180   2.551  16.284  1.1774 -1.1375 -0.3865
 5055SOL    HW226628   0.225   2.531  16.154  0.0853 -0.6118 -0.7078
 5056SOL     OW26629   4.163   2.591   7.077 -0.3521  0.3065  0.4842
 5056SOL    HW126630   4.247   2.548   7.061 -1.4406 -0.8041 -2.1456
 5056SOL    HW226631   4.194   2.666   7.128 -0.0451  0.9070 -0.5678
 5057SOL     OW26632   1.738   2.712  13.502 -0.7029 -0.0524 -0.4116
 5057SOL    HW126633   1.696   2.795  13.479 -0.3260  0.6379  1.4157
 5057SOL    HW226634   1.794   2.706  13.425  1.8518  0.9865  1.3922
 5058SOL     OW26635   4.025   3.896   1.107 -0.0042  0.2129  0.1998
 5058SOL    HW126636   3.931   3.915   1.103  0.1623  1.0836  0.4469
 5058SOL    HW226637   4.041   3.856   1.193 -1.7980 -2.0043 -0.5198
 5059SOL     OW26638   1.487   1.055   9.543  0.2622  0.0719  0.1252
 5059SOL    HW126639   1.426   0.983   9.533 -0.0190  0.1660  1.2042
 5059SOL    HW226640   1.431   1.129   9.569 -2.3154 -2.0004  0.4465
 5060SOL     OW26641   3.742   3.680   7.215  0.5782  0.6570  0.0209
 5060SOL    HW126642   3.685   3.606   7.235  0.0191  1.2684  0.7067
 5060SOL    HW226643   3.695   3.760   7.239  1.2464  1.1250 -0.1977
 5061SOL     OW26644   4.277   2.536   8.499 -0.1712 -0.6470 -0.3466
 5061SOL    HW126645   4.252   2.575   8.583 -0.8889 -0.3220 -0.7173
 5061SOL    HW226646   4.245   2.447   8.517  1.8042 -0.8632  2.1073
 5062SOL     OW26647   0.127   2.518   3.064 -0.3067  0.0634 -0.2386
 5062SOL    HW126648   0.196   2.485   3.006 -0.3647 -0.1402 -0.1948
 5062SOL    HW226649   0.176   2.589   3.104  1.8006  0.3896 -3.3662
 5063SOL     OW26650   3.434   2.332   8.577 -0.2359 -0.9481 -0.5773
 5063SOL    HW126651   3.494   2.376   8.637 -2.2528  2.0394 -0.7797
 5063SOL    HW226652   3.490   2.309   8.502  0.0643  0.5295 -0.7957
 5064SOL     OW26653   4.519   0.320   7.674 -0.3510  0.5007  0.3727
 5064SOL    HW126654   4.548   0.341   7.585  0.9843  0.0156  0.6870
 5064SOL    HW226655   4.438   0.272   7.657  0.1166 -1.1569  2.7894
 5065SOL     OW26656   4.351   0.254  11.026  0.1817 -0.6245 -0.0109
 5065SOL    HW126657   4.318   0.299  10.948 -0.8264 -1.7977 -0.2729
 5065SOL    HW226658   4.332   0.317  11.096  0.7425  1.5090 -1.7851
 5066SOL     OW26659   1.726   4.090  15.613 -0.0721 -0.1502  0.4209
 5066SOL    HW126660   1.811   4.125  15.587 -1.2576  2.7314  0.4076
 5066SOL    HW226661   1.741   4.028  15.685  1.7735 -1.5060 -1.1340
 5067SOL     OW26662   2.538   4.333   6.699 -0.3383  0.4707  0.5394
 5067SOL    HW126663   2.601   4.316   6.769  2.9012  2.3035 -1.9468
 5067SOL    HW226664   2.591   4.320   6.621 -1.4946 -0.6103 -0.0650
 5068SOL     OW26665   0.868   1.519   7.175 -0.8136 -0.1395  0.1979
 5068SOL    HW126666   0.857   1.569   7.257 -3.1229 -0.0174 -0.1892
 5068SOL    HW226667   0.955   1.540   7.141 -1.5573  2.8380  0.0889
 5069SOL     OW26668   4.380   0.594   5.769  0.4822 -0.3056 -0.4641
 5069SOL    HW126669   4.386   0.686   5.744  1.2622 -0.8116 -2.1535
 5069SOL    HW226670   4.395   0.554   5.683 -1.9931  0.6404 -1.3604
 5070SOL     OW26671   0.869   3.614   8.223 -0.3973 -0.1266 -0.6384
 5070SOL    HW126672   0.806   3.668   8.175 -2.2721 -1.7590 -0.0028
 5070SOL    HW226673   0.930   3.676   8.264 -3.2477  1.9442  0.5445
 5071SOL     OW26674   2.047   3.292   7.891 -0.2937 -0.1693  0.2992
 5071SOL    HW126675   2.067   3.358   7.825  0.5902  0.3790  1.1030
 5071SOL    HW226676   2.116   3.227   7.880  0.5586  0.7039  0.5002
 5072SOL     OW26677   4.500   0.701   8.932 -0.1549  1.1892 -0.2096
 5072SOL    HW126678   4.581   0.666   8.897 -1.2844 -2.6061  0.9369
 5072SOL    HW226679   4.467   0.623   8.977  0.2704  1.7819  1.1379
 5073SOL     OW26680   4.647   0.881   9.044  0.4733 -0.4120 -0.5108
 5073SOL    HW126681   4.631   0.863   9.137  4.0184 -2.2411 -0.2789
 5073SOL    HW226682   4.579   0.824   9.009 -0.2473  1.3023 -1.9051
 5074SOL     OW26683   3.177   0.891   1.405 -0.0033 -0.2957  0.2424
 5074SOL    HW126684   3.089   0.862   1.431  0.3055 -1.6862 -0.2905
 5074SOL    HW226685   3.166   0.985   1.419  1.0510 -0.0452 -0.6147
 5075SOL     OW26686   4.379   4.451  13.631 -0.9511 -0.2711 -0.0760
 5075SOL    HW126687   4.308   4.388  13.623 -1.1295  0.0370 -0.9747
 5075SOL    HW226688   4.406   4.441  13.722  1.0320 -2.1572 -0.8637
 5076SOL     OW26689   1.357   1.205   6.301 -0.6127  0.9209  0.1091
 5076SOL    HW126690   1.389   1.154   6.376 -0.4689  0.5602 -0.2009
 5076SOL    HW226691   1.390   1.291   6.325 -0.6322  0.9070  0.1863
 5077SOL     OW26692   2.850   4.421   0.242  0.2197  0.1295  0.3586
 5077SOL    HW126693   2.835   4.385   0.329  1.0990 -0.3018  0.3353
 5077SOL    HW226694   2.779   4.484   0.232  1.5663  1.3675 -1.4715
 5078SOL     OW26695   4.653   2.554   6.987 -0.0540 -0.5664 -0.2221
 5078SOL    HW126696   4.569   2.599   7.001  0.0367 -1.1743  2.3175
 5078SOL    HW226697   4.654   2.488   7.057 -0.8400  0.2247  0.5506
 5079SOL     OW26698   3.676   3.990   3.219  0.1363  0.8039  0.4778
 5079SOL    HW126699   3.728   4.005   3.140  0.0499  0.0816  0.2862
 5079SOL    HW226700   3.608   4.055   3.200 -1.6528 -0.9032  1.0174
 5080SOL     OW26701   2.712   1.122   1.009  0.1660 -0.3738  0.4683
 5080SOL    HW126702   2.702   1.109   1.103  0.7654 -2.1316  0.2957
 5080SOL    HW226703   2.647   1.190   0.992 -1.6959 -1.7800  1.9233
 5081SOL     OW26704   4.482   4.240   2.664 -0.3506 -0.4720 -0.1785
 5081SOL    HW126705   4.429   4.318   2.682  1.7659  0.4223  2.1172
 5081SOL    HW226706   4.541   4.268   2.594  0.3470 -2.3352 -0.3354
 5082SOL     OW26707   2.739   4.441  11.312 -0.3120  0.4307  0.2572
 5082SOL    HW126708   2.737   4.387  11.233  0.6427  0.4814  0.1889
 5082SOL    HW226709   2.712   4.375  11.376  1.5663 -1.6774 -1.1171
 5083SOL     OW26710   3.236   1.118   8.953  0.3441  0.2975  0.1261
 5083SOL    HW126711   3.193   1.175   9.017  0.6528  2.3151 -1.4831
 5083SOL    HW226712   3.326   1.150   8.953  0.0117  1.1767 -2.2907
 5084SOL     OW26713   3.138   3.889   0.195 -0.0663  0.1750 -0.2082
 5084SOL    HW126714   3.165   3.980   0.180 -0.1465  0.1485 -0.5052
 5084SOL    HW226715   3.093   3.878   0.111  0.4171 -0.0101 -0.4389
 5085SOL     OW26716   2.713   1.066   0.443  0.0346  0.0201 -1.1021
 5085SOL    HW126717   2.664   1.148   0.452 -0.8468 -0.8375  1.7928
 5085SOL    HW226718   2.795   1.092   0.399  0.4223  0.2289 -0.2525
 5086SOL     OW26719   3.596   2.176   0.551 -0.3394 -0.2888 -0.5263
 5086SOL    HW126720   3.635   2.109   0.608  1.5588 -0.1078 -1.6128
 5086SOL    HW226721   3.632   2.257   0.586 -1.0568  0.0428 -0.5611
 5087SOL     OW26722   1.769   2.211  11.154 -0.0149  0.3597 -0.0340
 5087SOL    HW126723   1.860   2.189  11.135  0.7124  1.5368  2.0450
 5087SOL    HW226724   1.763   2.303  11.128  0.1737 -0.4474 -2.8753
 5088SOL     OW26725   1.058   2.233   0.385 -0.2286  0.2019  0.7210
 5088SOL    HW126726   1.092   2.313   0.425 -0.2956  0.3829  0.4151
 5088SOL    HW226727   1.078   2.164   0.448 -0.5090 -0.9007 -0.4065
 5089SOL     OW26728   0.826   2.988  13.588 -0.4410 -0.9750 -0.4845
 5089SOL    HW126729   0.745   2.948  13.618  1.7419 -2.2464  3.7361
 5089SOL    HW226730   0.890   2.981  13.659 -0.6997 -0.4316 -0.2057
 5090SOL     OW26731   0.746   3.341   4.033 -0.2489 -0.2060 -0.0670
 5090SOL    HW126732   0.674   3.302   3.984  0.9945 -2.1282 -0.4026
 5090SOL    HW226733   0.763   3.423   3.987  0.1917 -0.9949 -1.3066
 5091SOL     OW26734   2.638   4.677   3.940  0.2894 -0.0351  0.1749
 5091SOL    HW126735   2.673   4.594   3.973  0.3325  0.7882  2.2559
 5091SOL    HW226736   2.545   4.652   3.935  0.1437  0.8278 -1.3847
 5092SOL     OW26737   2.251   3.869   9.940  0.1181  0.2868  0.9288
 5092SOL    HW126738   2.288   3.954   9.916 -0.1160  0.5424  1.4779
 5092SOL    HW226739   2.160   3.889   9.963 -0.5642 -1.0269 -0.6038
 5093SOL     OW26740   0.354   0.323   7.764 -0.6107  0.5673  0.4541
 5093SOL    HW126741   0.371   0.229   7.771 -0.6551  0.4495 -1.1006
 5093SOL    HW226742   0.433   0.361   7.725 -0.0813  0.0128  0.9750
 5094SOL     OW26743   0.145   0.668   5.903  0.4184  0.0271  0.6386
 5094SOL    HW126744   0.107   0.613   5.972  1.5055 -0.6751  0.6842
 5094SOL    HW226745   0.144   0.753   5.946 -1.6205  1.5654 -2.4942
 5095SOL     OW26746   0.887   0.078  14.780 -0.0878 -0.4961  0.3469
 5095SOL    HW126747   0.955   0.114  14.724 -0.1181  0.0558  0.6616
 5095SOL    HW226748   0.869   4.716  14.742  0.1230 -0.3082 -0.1801
 5096SOL     OW26749   3.728   3.050  15.126  0.1018  0.4819  0.3534
 5096SOL    HW126750   3.659   3.111  15.151 -0.4072  1.0340 -2.4603
 5096SOL    HW226751   3.806   3.083  15.170 -0.8236  0.7263  1.8426
 5097SOL     OW26752   0.236   0.896   4.534 -0.3460 -0.0252  0.2758
 5097SOL    HW126753   0.188   0.911   4.453 -0.5931 -0.8145  0.2744
 5097SOL    HW226754   0.308   0.959   4.533 -1.2348  0.9837  0.6502
 5098SOL     OW26755   1.608   2.429   4.592  0.5690 -0.3854 -0.0130
 5098SOL    HW126756   1.674   2.413   4.659  0.0521 -2.0358  0.0946
 5098SOL    HW226757   1.625   2.355   4.533  2.2226  0.6894 -0.9068
 5099SOL     OW26758   4.063   1.774  15.739  0.2380  0.4314  0.6860
 5099SOL    HW126759   3.989   1.727  15.778  0.6060 -0.8667 -0.1888
 5099SOL    HW226760   4.031   1.778  15.649  1.8713  1.5618  0.1587
 5100SOL     OW26761   0.462   4.447   1.021  0.2277  0.1279  0.1002
 5100SOL    HW126762   0.486   4.355   1.028  0.6400  0.4079  2.2449
 5100SOL    HW226763   0.511   4.488   0.950 -0.7951  2.5158  0.7878
 5101SOL     OW26764   2.187   4.098   4.670  0.0481  0.3838 -0.0656
 5101SOL    HW126765   2.171   4.004   4.675  0.3680  0.2755 -1.0816
 5101SOL    HW226766   2.265   4.103   4.726  1.5779  1.1629 -2.2395
 5102SOL     OW26767   3.162   4.688   6.834 -0.2937 -0.5424  0.2368
 5102SOL    HW126768   3.104   4.613   6.846  0.6297 -1.3690 -0.5482
 5102SOL    HW226769   3.103   0.033   6.867  1.1574  0.7330  0.2041
 5103SOL     OW26770   0.890   0.465  11.548 -0.8484  0.4002  0.5772
 5103SOL    HW126771   0.841   0.545  11.534  1.1943  1.3614 -1.0393
 5103SOL    HW226772   0.906   0.473  11.642  0.8593  1.6535  0.1750
 5104SOL     OW26773   2.808   2.290  13.218  0.0278  0.3741 -0.2591
 5104SOL    HW126774   2.764   2.301  13.303  1.0490  1.2848  0.1502
 5104SOL    HW226775   2.746   2.315  13.149  0.5650 -0.6680 -1.1236
 5105SOL     OW26776   3.160   2.420  16.455  0.6476 -0.5701 -0.4773
 5105SOL    HW126777   3.122   2.402  16.541  1.5788  0.9224  0.2542
 5105SOL    HW226778   3.105   2.494  16.427  1.9853  0.9371  0.8672
 5106SOL     OW26779   0.252   4.575   7.429 -0.1840  0.8388  0.2930
 5106SOL    HW126780   0.183   4.508   7.422 -0.4202  0.8795  2.2837
 5106SOL    HW226781   0.220   4.645   7.486  0.4570  1.2095  0.1904
 5107SOL     OW26782   3.796   2.815   0.880 -0.0672  0.0040 -0.3535
 5107SOL    HW126783   3.724   2.877   0.871  0.8078  1.3063  1.6533
 5107SOL    HW226784   3.755   2.741   0.926  0.7002  0.9040  1.7498
 5108SOL     OW26785   2.674   0.792   5.651 -0.4651 -0.1110 -0.2575
 5108SOL    HW126786   2.579   0.803   5.651 -0.6068 -1.4291  0.4059
 5108SOL    HW226787   2.691   0.814   5.559  1.0436  0.7313  0.2230
 5109SOL     OW26788   0.925   3.250   7.245 -0.6086 -0.0540  0.1771
 5109SOL    HW126789   0.850   3.310   7.241 -0.7213 -0.2177 -0.2042
 5109SOL    HW226790   0.911   3.204   7.162 -4.5287  0.5893  0.4891
 5110SOL     OW26791   2.600   3.782   1.128  0.1326 -0.3086  0.3974
 5110SOL    HW126792   2.610   3.799   1.034 -3.5726 -1.6504 -0.2299
 5110SOL    HW226793   2.505   3.767   1.129  0.0647 -0.0138 -2.5229
 5111SOL     OW26794   4.362   1.780   7.775  0.5286  0.6197  0.1529
 5111SOL    HW126795   4.451   1.790   7.807  0.4087  0.3977  0.5562
 5111SOL    HW226796   4.318   1.758   7.857 -0.5845 -1.7610 -1.0757
 5112SOL     OW26797   2.502   4.718   8.484  0.2839 -0.0433  0.4152
 5112SOL    HW126798   2.538   0.067   8.432  0.1301  1.0213  1.7995
 5112SOL    HW226799   2.408   0.005   8.467  0.9583  2.0135 -2.1110
 5113SOL     OW26800   3.640   1.406   1.724  0.5673  0.1555 -0.0706
 5113SOL    HW126801   3.604   1.378   1.808 -1.1005  1.5905 -0.2973
 5113SOL    HW226802   3.728   1.372   1.735  0.9910  2.5116  3.8959
 5114SOL     OW26803   3.396   1.645   0.018  0.4280 -0.6787  0.0804
 5114SOL    HW126804   3.306   1.642   0.050 -0.1001  0.6483 -1.2724
 5114SOL    HW226805   3.428   1.618   0.103 -0.4365 -2.3140 -0.1254
 5115SOL     OW26806   3.720   1.099  16.899 -0.2590 -0.7013 -0.1365
 5115SOL    HW126807   3.798   1.067  16.944 -1.1576 -1.0220  1.1870
 5115SOL    HW226808   3.661   1.116  16.972  1.9537 -0.1134  1.4925
 5116SOL     OW26809   4.411   0.878   2.310 -0.1353  0.3039  0.1925
 5116SOL    HW126810   4.366   0.886   2.394 -1.2195 -4.1095  0.0173
 5116SOL    HW226811   4.397   0.967   2.277 -2.7077  0.8055  2.6374
 5117SOL     OW26812   1.557   1.522  16.593  0.3248  0.4592  0.1957
 5117SOL    HW126813   1.509   1.483  16.520 -0.0474 -0.1521  0.7622
 5117SOL    HW226814   1.492   1.589  16.613  1.8037  1.8035  0.4347
 5118SOL     OW26815   1.090   2.889   2.784 -0.1573  0.1418  0.4086
 5118SOL    HW126816   1.087   2.936   2.701  0.0203  0.1978  0.4338
 5118SOL    HW226817   1.182   2.863   2.788 -0.1553  0.5874  3.0058
 5119SOL     OW26818   4.118   2.552   4.334 -0.3439  0.3543 -0.6183
 5119SOL    HW126819   4.142   2.552   4.427  2.4872 -0.1136 -1.3498
 5119SOL    HW226820   4.141   2.463   4.306 -0.1879 -0.2135  1.2881
 5120SOL     OW26821   2.293   0.539  16.543 -0.4364 -0.0174 -0.2519
 5120SOL    HW126822   2.303   0.479  16.469  1.6144 -0.0150  0.0091
 5120SOL    HW226823   2.376   0.585  16.537 -0.1409 -0.5428 -0.2231
 5121SOL     OW26824   3.291   2.284   2.814 -0.2337 -0.0044  0.0534
 5121SOL    HW126825   3.241   2.269   2.734  0.3174 -1.2897 -0.0427
 5121SOL    HW226826   3.296   2.190   2.828 -1.4927 -0.2740 -1.2617
 5122SOL     OW26827   1.305   2.122   8.066  0.3463 -0.6188  0.1986
 5122SOL    HW126828   1.313   2.171   8.148 -2.5767 -0.2360  0.2669
 5122SOL    HW226829   1.212   2.100   8.074  0.1997 -0.0431  0.0942
 5123SOL     OW26830   4.629   0.618  10.113  0.1102  0.3119  0.2778
 5123SOL    HW126831   4.709   0.601  10.162  0.3915  0.2132 -0.2111
 5123SOL    HW226832   4.573   0.610  10.190  0.7900  2.4028  0.9827
 5124SOL     OW26833   4.147   4.231   1.976  0.3583 -0.7146 -0.3938
 5124SOL    HW126834   4.152   4.325   1.993  1.6086 -0.6136 -1.2609
 5124SOL    HW226835   4.140   4.192   2.062 -0.4851  0.0991 -0.0850
 5125SOL     OW26836   4.061   3.740   5.120  0.1342 -0.6350  0.5754
 5125SOL    HW126837   4.136   3.707   5.071  0.2336 -1.5672  1.3608
 5125SOL    HW226838   3.987   3.715   5.065  0.5266  0.7465 -0.5753
 5126SOL     OW26839   2.586   1.563   4.208 -0.5078 -0.2076 -0.6360
 5126SOL    HW126840   2.536   1.578   4.289  1.1251  0.8388  0.1770
 5126SOL    HW226841   2.598   1.469   4.218 -1.3796 -0.1795  0.6324
 5127SOL     OW26842   1.668   2.869  14.052 -0.2902  0.0573 -0.3712
 5127SOL    HW126843   1.700   2.880  13.962 -1.2144 -0.3747 -0.7492
 5127SOL    HW226844   1.741   2.912  14.096 -0.1011  0.3020 -0.9274
 5128SOL     OW26845   0.657   1.487   5.071  0.0839 -0.1749  0.2027
 5128SOL    HW126846   0.644   1.436   4.991  0.7193  0.3296 -0.2238
 5128SOL    HW226847   0.568   1.522   5.078  0.2899  0.3350  0.2643
 5129SOL     OW26848   1.223   2.579  12.349  0.2098 -0.2493  0.0415
 5129SOL    HW126849   1.247   2.558  12.258  1.3682 -0.1939  0.3301
 5129SOL    HW226850   1.229   2.490  12.385 -2.0142 -0.5579 -0.3554
 5130SOL     OW26851   0.442   0.970   9.596  0.1852  0.4993 -0.1716
 5130SOL    HW126852   0.396   1.030   9.655 -1.8592 -0.0200 -1.2575
 5130SOL    HW226853   0.522   0.945   9.643  0.4473 -0.4905 -1.1411
 5131SOL     OW26854   3.879   2.788  10.977  0.1730 -0.4055 -0.7025
 5131SOL    HW126855   3.959   2.741  10.996 -0.8137 -1.3368  1.2104
 5131SOL    HW226856   3.925   2.855  10.926  0.3015  0.4334  0.5021
 5132SOL     OW26857   1.225   0.820   5.169 -0.7069  0.5574 -0.2498
 5132SOL    HW126858   1.202   0.860   5.086  3.8187  0.9368 -1.2900
 5132SOL    HW226859   1.142   0.802   5.214 -0.5753 -0.5965 -0.4693
 5133SOL     OW26860   0.746   1.845   6.606  0.0284  0.3010 -0.1099
 5133SOL    HW126861   0.818   1.880   6.658  0.0451  1.3439 -0.8237
 5133SOL    HW226862   0.676   1.909   6.625 -1.1194 -0.1264 -2.8021
 5134SOL     OW26863   3.328   0.516   7.889 -0.4040 -0.3805 -0.1425
 5134SOL    HW126864   3.307   0.526   7.796  1.5938  2.8008 -0.2574
 5134SOL    HW226865   3.262   0.449   7.902 -1.4363  0.7370  0.4169
 5135SOL     OW26866   2.665   1.365   5.651 -0.1324  0.2165  0.6121
 5135SOL    HW126867   2.703   1.444   5.612 -0.6184 -1.6226 -3.5762
 5135SOL    HW226868   2.584   1.353   5.600 -0.4319 -3.2189  1.9130
 5136SOL     OW26869   2.829   0.846   0.994 -0.5094  0.5473 -0.4700
 5136SOL    HW126870   2.849   0.940   0.991 -3.1805  1.1493  0.4630
 5136SOL    HW226871   2.802   0.828   0.904 -1.0249 -3.1766  0.4154
 5137SOL     OW26872   3.927   3.084   0.376 -0.1629  0.4180 -0.1744
 5137SOL    HW126873   3.968   3.005   0.412 -1.4129 -0.2499 -0.2181
 5137SOL    HW226874   3.881   3.059   0.296 -1.3061 -0.9293  0.9119
 5138SOL     OW26875   3.981   3.220  11.616 -0.4871 -0.0524  0.0125
 5138SOL    HW126876   3.916   3.290  11.619  1.2764  1.6576 -2.1160
 5138SOL    HW226877   3.926   3.141  11.616 -1.5666  0.6972  0.5902
 5139SOL     OW26878   2.716   2.896   3.759  0.1815 -0.1069 -0.3974
 5139SOL    HW126879   2.661   2.974   3.762  0.5395  0.0572  2.0706
 5139SOL    HW226880   2.796   2.925   3.803 -0.1694 -0.7122  0.6271
 5140SOL     OW26881   0.469   1.027   0.603  0.0228 -0.9435  0.1570
 5140SOL    HW126882   0.422   1.109   0.617  2.4445  0.2660  1.0637
 5140SOL    HW226883   0.549   1.036   0.653  0.2434  0.9908 -0.5511
 5141SOL     OW26884   1.141   1.657  16.884 -0.3189 -0.4609 -0.1866
 5141SOL    HW126885   1.114   1.642  16.975  0.3899 -3.0434 -0.4118
 5141SOL    HW226886   1.066   1.701  16.843  0.4131  1.2874  0.3301
 5142SOL     OW26887   0.977   0.168   1.658  0.2461 -0.0009  0.1994
 5142SOL    HW126888   0.891   0.197   1.688  0.0703 -2.2515  1.8553
 5142SOL    HW226889   1.008   0.219   1.583 -1.1409 -0.6971 -0.8586
 5143SOL     OW26890   3.523   0.070   0.861  0.2965 -0.4298  0.8215
 5143SOL    HW126891   3.552   0.034   0.946 -0.3697  0.3894  1.3946
 5143SOL    HW226892   3.581   0.018   0.806  1.0124  0.9643  0.2565
 5144SOL     OW26893   1.978   3.005  13.469  0.2086 -0.0353 -0.1683
 5144SOL    HW126894   1.930   3.001  13.386  0.0267  0.7850 -0.1002
 5144SOL    HW226895   2.036   3.079  13.453 -0.3041 -0.1077 -2.3500
 5145SOL     OW26896   1.132   3.615  17.256 -0.1117  0.2092 -0.2384
 5145SOL    HW126897   1.077   3.557  17.308 -1.8714 -0.3822 -2.7167
 5145SOL    HW226898   1.072   3.687  17.234  0.1124 -0.2002 -2.2702
 5146SOL     OW26899   2.111   1.504   2.597 -0.0447  0.2303  0.0372
 5146SOL    HW126900   2.155   1.583   2.564  1.9579 -1.2323 -0.7881
 5146SOL    HW226901   2.192   1.454   2.607  0.5663  1.4793  1.3830
 5147SOL     OW26902   2.165   4.650   6.156 -0.0688  0.0981  0.2474
 5147SOL    HW126903   2.150   4.645   6.250 -2.8745  2.0959 -0.1051
 5147SOL    HW226904   2.137   0.016   6.138  2.2262  0.2035 -2.7159
 5148SOL     OW26905   3.370   1.476   3.925 -0.0909  0.0434  0.5191
 5148SOL    HW126906   3.297   1.480   3.863  0.6738  2.1514 -0.2507
 5148SOL    HW226907   3.413   1.394   3.899 -0.0260 -0.3145  1.7638
 5149SOL     OW26908   2.543   2.627   4.488  0.4090 -0.2073 -0.4414
 5149SOL    HW126909   2.636   2.608   4.494  0.8454  1.6737 -1.3156
 5149SOL    HW226910   2.534   2.653   4.396  0.3827 -0.0557 -0.3964
 5150SOL     OW26911   0.976   2.606   3.027 -0.4347  0.2850 -0.4475
 5150SOL    HW126912   0.943   2.688   3.064  1.3992  0.5921  0.5201
 5150SOL    HW226913   1.032   2.579   3.099  0.3243  0.2854 -1.0380
 5151SOL     OW26914   1.711   3.916   8.170  0.2367 -0.1672 -0.0770
 5151SOL    HW126915   1.766   3.981   8.214  1.2378  0.7012 -2.5794
 5151SOL    HW226916   1.698   3.844   8.232  1.1304  0.3595  0.7255
 5152SOL     OW26917   2.427   0.038   4.462  0.0653  0.2493  0.3910
 5152SOL    HW126918   2.339   0.028   4.498 -0.4354  1.6544 -0.4420
 5152SOL    HW226919   2.467   4.685   4.503  1.1265  1.5825  1.8326
 5153SOL     OW26920   3.006   2.328  12.868 -0.0086  0.1954 -0.0645
 5153SOL    HW126921   3.100   2.345  12.876  0.1655  0.3099 -2.2063
 5153SOL    HW226922   2.994   2.280  12.949 -0.1108 -0.7770 -0.6530
 5154SOL     OW26923   1.726   0.123   5.732  0.1907  0.5957 -0.0901
 5154SOL    HW126924   1.651   0.068   5.757  1.5291 -0.7063  1.0182
 5154SOL    HW226925   1.716   0.140   5.638 -0.7625  0.4760 -0.0162
 5155SOL     OW26926   1.300   1.610   1.496  0.4135  0.1310  0.1398
 5155SOL    HW126927   1.212   1.640   1.475 -0.0963  0.2713  2.4794
 5155SOL    HW226928   1.279   1.593   1.588  1.6653  1.8385  0.7271
 5156SOL     OW26929   3.880   0.765   6.099 -0.1270 -0.2340 -0.0257
 5156SOL    HW126930   3.808   0.750   6.037 -1.5299 -0.3364  1.6335
 5156SOL    HW226931   3.942   0.695   6.079 -2.1763 -1.8594 -0.6068
 5157SOL     OW26932   2.710   0.997   2.214  0.4689 -0.1051  0.3821
 5157SOL    HW126933   2.794   1.004   2.170  0.5584 -0.8458  0.4349
 5157SOL    HW226934   2.681   1.087   2.197  1.1513 -0.0662 -0.5811
 5158SOL     OW26935   4.714   1.020  13.644 -0.0494  0.0683  0.1920
 5158SOL    HW126936   0.048   0.967  13.700  0.7248  0.4607 -0.2325
 5158SOL    HW226937   4.717   0.973  13.561  1.1645  0.1855  0.1745
 5159SOL     OW26938   1.516   0.900   6.205 -0.3432 -0.3416  0.0253
 5159SOL    HW126939   1.488   0.845   6.277 -0.1906 -2.3843 -1.4823
 5159SOL    HW226940   1.437   0.910   6.152  1.1508 -0.2923 -2.2109
 5160SOL     OW26941   4.463   3.054  12.161 -0.4022  0.1712  0.3716
 5160SOL    HW126942   4.430   2.971  12.194  0.4179  0.2381  1.3578
 5160SOL    HW226943   4.402   3.121  12.192 -0.0750  0.7093 -0.1483
 5161SOL     OW26944   0.545   3.328  16.401  0.3085 -0.1496 -0.6104
 5161SOL    HW126945   0.491   3.253  16.424  1.4861 -0.2553  1.8665
 5161SOL    HW226946   0.498   3.369  16.329 -1.0666 -0.3126  0.2073
 5162SOL     OW26947   3.356   0.212   2.956  0.1624  0.3479 -0.5835
 5162SOL    HW126948   3.282   0.268   2.934  1.4848  2.5387  0.5292
 5162SOL    HW226949   3.433   0.268   2.953 -0.9678  2.1464  4.1333
 5163SOL     OW26950   0.823   0.867   6.095 -0.0141 -0.3466  0.0715
 5163SOL    HW126951   0.831   0.774   6.118 -0.4649 -0.7085 -1.2111
 5163SOL    HW226952   0.765   0.888   6.168 -0.7318 -0.7291 -0.3883
 5164SOL     OW26953   3.694   1.912   6.386 -0.3406 -0.2740 -0.1038
 5164SOL    HW126954   3.660   1.959   6.310 -0.1479 -0.5588 -0.3644
 5164SOL    HW226955   3.636   1.944   6.455  0.9242 -0.8210  1.2349
 5165SOL     OW26956   2.762   4.504   1.534 -0.3323  0.2518 -0.0964
 5165SOL    HW126957   2.775   4.413   1.509 -1.6626 -0.1281  0.5793
 5165SOL    HW226958   2.854   4.527   1.524 -0.3204 -0.2940 -1.2418
 5166SOL     OW26959   2.957   3.209   5.243  0.8180  0.2106  0.3783
 5166SOL    HW126960   2.893   3.192   5.174 -0.4560  2.8726  0.9300
 5166SOL    HW226961   3.037   3.235   5.197 -0.1592  1.5740 -0.5496
 5167SOL     OW26962   0.230   2.755   3.908  0.1398  0.2253  0.4785
 5167SOL    HW126963   0.178   2.674   3.914 -0.2718  0.4701  0.2240
 5167SOL    HW226964   0.285   2.713   3.842 -0.1338 -2.6844  2.0812
 5168SOL     OW26965   0.305   4.545   0.755 -0.0101  0.3539 -0.4003
 5168SOL    HW126966   0.266   4.540   0.668  1.8547 -1.4282 -1.1303
 5168SOL    HW226967   0.398   4.538   0.733  0.3260  0.1514  1.0667
 5169SOL     OW26968   4.646   2.225   4.053 -0.1545  0.1390 -0.5858
 5169SOL    HW126969   4.657   2.292   3.985 -1.3303  2.0618  1.1150
 5169SOL    HW226970   4.562   2.184   4.033 -0.1124  0.8260 -2.1991
 5170SOL     OW26971   0.264   0.699   9.894  0.0934  0.1346  0.2076
 5170SOL    HW126972   0.205   0.628   9.921 -0.5435  0.6084  0.0738
 5170SOL    HW226973   0.237   0.720   9.805 -1.6422 -0.0059  0.6931
 5171SOL     OW26974   3.803   3.505   8.432 -0.3140 -0.5310  0.1724
 5171SOL    HW126975   3.747   3.502   8.354  1.4296 -0.1209 -1.0864
 5171SOL    HW226976   3.732   3.524   8.494 -0.6847 -0.2861 -0.3247
 5172SOL     OW26977   0.509   3.132   5.500 -0.4619 -0.4061  0.0833
 5172SOL    HW126978   0.444   3.096   5.439 -1.6915  0.3142  0.9759
 5172SOL    HW226979   0.465   3.139   5.585  2.0308 -1.6289  1.4793
 5173SOL     OW26980   4.722   2.915   2.580  0.4363 -0.7679  0.2703
 5173SOL    HW126981   0.004   2.847   2.513 -0.8773  0.2570 -0.8789
 5173SOL    HW226982   0.086   2.954   2.574 -0.3786  0.9621 -0.2930
 5174SOL     OW26983   2.392   2.199   8.656 -0.0498 -0.1490 -0.3368
 5174SOL    HW126984   2.359   2.147   8.582  0.3890  1.4095 -1.6310
 5174SOL    HW226985   2.389   2.289   8.624  0.3105 -1.3230 -3.7714
 5175SOL     OW26986   0.854   4.656   3.883  0.3150 -0.0862 -0.1873
 5175SOL    HW126987   0.873   4.562   3.890 -0.6172 -0.1352  1.6544
 5175SOL    HW226988   0.816   4.662   3.970 -0.6130  1.2319 -0.6828
 5176SOL     OW26989   4.116   3.444   7.301  0.4106  0.1202  0.9782
 5176SOL    HW126990   4.172   3.463   7.377  2.8522  1.4241 -1.1559
 5176SOL    HW226991   4.034   3.412   7.338  0.8450  0.3100  2.1054
 5177SOL     OW26992   3.916   3.757   8.450 -0.3244 -0.4239  0.4418
 5177SOL    HW126993   3.910   3.662   8.458 -1.1748 -0.1135  3.5965
 5177SOL    HW226994   3.823   3.777   8.461  0.2702  2.8846 -0.7075
 5178SOL     OW26995   3.511   0.045   5.953  0.3299  0.4818  0.1604
 5178SOL    HW126996   3.431   4.717   5.940  0.0022  0.7347  1.1455
 5178SOL    HW226997   3.483   0.127   5.994  1.4440 -0.0159  1.9345
 5179SOL     OW26998   2.667   3.820  14.546  0.3528  0.5204 -0.0383
 5179SOL    HW126999   2.688   3.863  14.463  2.6751  0.3414  0.4593
 5179SOL    HW227000   2.748   3.776  14.572 -0.2309  0.0965  1.0470
 5180SOL     OW27001   3.436   4.605   5.020 -0.0778 -0.3584  0.0123
 5180SOL    HW127002   3.387   4.662   5.078  0.3619  0.6666 -0.6242
 5180SOL    HW227003   3.447   4.525   5.071 -0.4184 -0.5203 -0.1725
 5181SOL     OW27004   2.463   4.194  12.532 -0.0350  1.0001  0.0461
 5181SOL    HW127005   2.471   4.259  12.602 -0.1324  0.5880  0.4362
 5181SOL    HW227006   2.379   4.216  12.493  0.4421  0.5397 -1.2544
 5182SOL     OW27007   0.422   0.161   0.755  0.3202  0.2542  0.2798
 5182SOL    HW127008   0.470   0.240   0.780 -0.6415 -0.0240  3.0024
 5182SOL    HW227009   0.396   0.129   0.842  0.8868  0.1562  0.4137
 5183SOL     OW27010   3.140   2.856  14.896  0.1510  0.2342  0.5890
 5183SOL    HW127011   3.145   2.852  14.801 -0.4537 -1.1323  0.6125
 5183SOL    HW227012   3.158   2.948  14.916  0.8420  0.6125 -1.8313
 5184SOL     OW27013   3.547   1.400   8.589  0.5397  0.0898 -0.7145
 5184SOL    HW127014   3.589   1.483   8.612  2.2437 -0.5061 -1.6841
 5184SOL    HW227015   3.460   1.431   8.562  0.6548  0.1277 -1.0425
 5185SOL     OW27016   4.011   2.180   4.643 -0.2475 -0.0814  0.2075
 5185SOL    HW127017   4.080   2.189   4.709  0.6709 -1.0230 -0.6041
 5185SOL    HW227018   4.061   2.136   4.574 -1.9707 -0.6475 -0.6728
 5186SOL     OW27019   1.271   4.581   8.692  0.0133  0.2731  0.3311
 5186SOL    HW127020   1.290   4.674   8.703 -3.0392  0.7715  1.4651
 5186SOL    HW227021   1.176   4.580   8.701  0.0971  0.8520  1.3325
 5187SOL     OW27022   4.178   3.002  12.264  0.5044  0.0544 -0.4399
 5187SOL    HW127023   4.227   2.920  12.269  2.0812  1.0672  0.9376
 5187SOL    HW227024   4.168   3.006  12.169 -1.0986 -0.7769 -0.3095
 5188SOL     OW27025   0.763   4.081   7.172 -0.2932 -0.3939  0.2218
 5188SOL    HW127026   0.718   4.158   7.137 -2.7084 -0.9334  2.1485
 5188SOL    HW227027   0.763   4.022   7.096  1.0508 -0.1550  0.0385
 5189SOL     OW27028   2.126   1.332   4.631 -0.0859 -0.1338  0.3320
 5189SOL    HW127029   2.180   1.257   4.658  1.6195  0.6539 -0.9277
 5189SOL    HW227030   2.181   1.378   4.568  1.0400 -2.4825 -0.4065
 5190SOL     OW27031   3.422   0.189  13.557  0.1459  0.1118 -0.1356
 5190SOL    HW127032   3.402   0.216  13.467  1.5443 -2.5136 -1.2162
 5190SOL    HW227033   3.504   0.239  13.568  0.2114  0.3258 -1.4996
 5191SOL     OW27034   4.183   4.150   7.686  0.4979  0.4940  0.1119
 5191SOL    HW127035   4.201   4.145   7.780  6.1950  2.8518 -0.8718
 5191SOL    HW227036   4.244   4.220   7.662 -0.1533  0.4016 -1.7662
 5192SOL     OW27037   0.595   2.998   0.615 -0.5253  0.2652  0.4554
 5192SOL    HW127038   0.533   3.043   0.672 -0.5213 -1.2588  1.6578
 5192SOL    HW227039   0.662   2.960   0.671  0.1202 -0.5605 -0.8763
 5193SOL     OW27040   3.303   3.207   7.612  0.4862 -0.1104 -0.3472
 5193SOL    HW127041   3.369   3.277   7.604 -0.6032  0.9074 -0.4687
 5193SOL    HW227042   3.293   3.190   7.705  1.1144 -1.2118 -0.4852
 5194SOL     OW27043   4.603   3.446   4.373 -0.0293 -0.1354 -0.5795
 5194SOL    HW127044   4.649   3.362   4.369 -1.0101 -0.7411  1.0214
 5194SOL    HW227045   4.641   3.481   4.454  0.1737 -4.6119  1.2761
 5195SOL     OW27046   0.433   2.503   0.564  0.5149 -0.0101  0.3234
 5195SOL    HW127047   0.490   2.469   0.495  0.0610 -0.2644  0.0727
 5195SOL    HW227048   0.430   2.439   0.635 -1.6089 -1.5877 -1.1685
 5196SOL     OW27049   4.459   1.023   7.712 -0.0453  0.0949 -0.1137
 5196SOL    HW127050   4.473   0.992   7.622 -2.5422 -0.0711 -0.4306
 5196SOL    HW227051   4.379   0.979   7.740 -0.4536 -0.5733 -2.3059
 5197SOL     OW27052   0.458   1.316   5.400 -1.0351  0.2504  0.1409
 5197SOL    HW127053   0.545   1.344   5.429 -0.1841 -1.6584 -0.5658
 5197SOL    HW227054   0.411   1.295   5.480 -0.4038 -0.4783  0.3144
 5198SOL     OW27055   3.869   0.146   0.903  0.1669 -0.3292  0.1817
 5198SOL    HW127056   3.835   0.221   0.952  2.8704  0.9295  0.1738
 5198SOL    HW227057   3.857   0.172   0.812 -0.8357 -1.8591 -0.1052
 5199SOL     OW27058   3.124   2.187   8.276 -0.2055 -0.0326  1.0107
 5199SOL    HW127059   3.176   2.163   8.199 -0.0228 -0.0571  1.1400
 5199SOL    HW227060   3.114   2.279   8.251 -0.6754  0.1222  1.7586
 5200SOL     OW27061   0.988   4.655   6.189  0.2949 -0.0893  0.4614
 5200SOL    HW127062   0.897   4.656   6.220 -0.1636  0.2016 -0.9172
 5200SOL    HW227063   1.004   4.562   6.174 -0.1749 -0.3090  1.2997
 5201SOL     OW27064   3.524   0.093   3.550 -1.1184 -0.6204 -0.1702
 5201SOL    HW127065   3.464   0.118   3.620  0.8918  0.7440  1.0382
 5201SOL    HW227066   3.601   0.050   3.586 -0.7744 -0.8507 -1.1631
 5202SOL     OW27067   2.324   3.367  16.693  0.3944  0.3543 -0.0275
 5202SOL    HW127068   2.374   3.386  16.772 -0.3658  0.8827  0.3207
 5202SOL    HW227069   2.285   3.283  16.715 -0.3689  0.6880 -0.1043
 5203SOL     OW27070   2.667   4.009   1.248 -0.2383  0.4377 -0.3147
 5203SOL    HW127071   2.645   3.921   1.220  0.3185 -0.0909  0.9097
 5203SOL    HW227072   2.590   4.057   1.217 -0.9215 -1.4500 -1.5175
 5204SOL     OW27073   2.623   4.173   6.182  0.2258 -0.0145  0.3353
 5204SOL    HW127074   2.532   4.176   6.153  0.4395  3.0268  0.0560
 5204SOL    HW227075   2.675   4.212   6.112 -1.2380 -0.0871 -0.7856
 5205SOL     OW27076   3.458   1.115   7.810  0.3561 -0.1200  0.0591
 5205SOL    HW127077   3.376   1.067   7.822 -0.2031  0.3612 -1.8422
 5205SOL    HW227078   3.525   1.063   7.854 -0.2415 -0.0153  1.1164
 5206SOL     OW27079   3.094   4.648   4.547 -0.4786 -0.3527 -0.4426
 5206SOL    HW127080   3.028   4.609   4.489 -2.1020 -1.7125  2.3739
 5206SOL    HW227081   3.093   4.602   4.630 -0.7364 -0.4136 -0.4815
 5207SOL     OW27082   0.870   0.428   3.733  0.4909 -0.2532  0.0239
 5207SOL    HW127083   0.823   0.364   3.678  1.6871  0.4109 -1.7875
 5207SOL    HW227084   0.897   0.498   3.674  1.9470 -2.2019 -1.6631
 5208SOL     OW27085   1.482   3.238   4.840  0.1770  0.0467  0.2164
 5208SOL    HW127086   1.525   3.162   4.802  0.5636  1.1477 -1.5700
 5208SOL    HW227087   1.442   3.215   4.924  1.9768  0.3401  1.1479
 5209SOL     OW27088   2.517   0.650   8.754  0.4368  0.1814 -0.0419
 5209SOL    HW127089   2.562   0.729   8.784  1.4813 -0.6702  0.6381
 5209SOL    HW227090   2.456   0.692   8.694  0.2211  0.5515  0.4419
 5210SOL     OW27091   4.609   2.362   1.501 -0.0102  0.2640 -0.2308
 5210SOL    HW127092   4.586   2.339   1.591 -0.3651 -0.3287 -0.4774
 5210SOL    HW227093   4.638   2.452   1.518 -0.4374  0.4534 -0.5003
 5211SOL     OW27094   1.522   4.671   0.655 -0.4218 -0.5392 -0.6755
 5211SOL    HW127095   1.485   4.587   0.629 -3.4324  2.0293 -4.6963
 5211SOL    HW227096   1.577   4.692   0.580 -2.1730  0.4096 -1.6916
 5212SOL     OW27097   4.075   0.241   8.363 -0.0178 -0.2664  0.3733
 5212SOL    HW127098   4.089   0.154   8.326  0.4277 -0.6446  1.4253
 5212SOL    HW227099   4.159   0.278   8.338  0.0591 -1.3597 -0.9634
 5213SOL     OW27100   4.338   3.055   1.920 -0.1723 -0.7149 -0.2563
 5213SOL    HW127101   4.342   3.143   1.957  0.9704 -0.4249 -1.0803
 5213SOL    HW227102   4.343   3.071   1.826 -1.1637 -0.1182 -0.2062
 5214SOL     OW27103   0.010   2.806   5.029 -0.1414  0.3138  0.1622
 5214SOL    HW127104   0.072   2.861   5.077 -0.5174 -0.6790  1.7888
 5214SOL    HW227105   4.721   2.861   4.952  1.7820 -0.8821 -1.0152
 5215SOL     OW27106   3.458   4.398   0.392  0.3435  0.4241  0.1157
 5215SOL    HW127107   3.510   4.332   0.437  0.3352  0.7909  0.6638
 5215SOL    HW227108   3.512   4.476   0.403 -0.8681  1.0627  1.5196
 5216SOL     OW27109   3.905   0.132   3.634 -0.5642  0.1484 -0.0956
 5216SOL    HW127110   3.880   0.113   3.543  1.5631  2.8218 -1.2499
 5216SOL    HW227111   3.847   0.071   3.680 -0.2743 -2.3744 -3.0531
 5217SOL     OW27112   1.918   1.701   7.989 -0.0493 -0.0183  0.2432
 5217SOL    HW127113   1.981   1.669   7.925 -0.2896 -1.1040  0.5477
 5217SOL    HW227114   1.960   1.686   8.074  1.4481  2.4787 -0.0870
 5218SOL     OW27115   3.341   2.685  13.730  0.3394  0.1188 -0.4938
 5218SOL    HW127116   3.400   2.637  13.671  0.3985  1.7106 -1.7290
 5218SOL    HW227117   3.401   2.681  13.804 -0.4410  1.8329  0.2214
 5219SOL     OW27118   2.014   3.732   7.937 -0.8229  0.2987 -0.1412
 5219SOL    HW127119   2.004   3.727   7.842  0.2284 -2.0303 -0.1450
 5219SOL    HW227120   2.072   3.808   7.936  0.7727 -0.9123 -0.5111
 5220SOL     OW27121   4.292   0.253   6.110 -0.2460 -0.7951  0.0626
 5220SOL    HW127122   4.361   0.287   6.053  0.1288 -0.4855  0.6939
 5220SOL    HW227123   4.210   0.271   6.065 -1.0068 -2.5723  0.7101
 5221SOL     OW27124   2.464   4.714   4.182  0.2516  0.7684  0.6600
 5221SOL    HW127125   2.439   4.720   4.274  0.5584  2.5464  0.6269
 5221SOL    HW227126   2.559   4.703   4.182  0.2191  0.5305 -1.6046
 5222SOL     OW27127   0.944   2.924   6.787  0.0622  0.1438 -0.1656
 5222SOL    HW127128   0.971   2.901   6.875  1.3785  0.1491 -0.5698
 5222SOL    HW227129   1.022   2.950   6.739  0.5321 -1.8728 -0.4886
 5223SOL     OW27130   1.056   1.219   5.591 -0.0883 -0.7713  0.8005
 5223SOL    HW127131   0.983   1.269   5.554  1.5686  1.0143 -0.0967
 5223SOL    HW227132   1.044   1.231   5.685  0.7176 -1.0656  0.9450
 5224SOL     OW27133   4.558   1.685   2.855 -0.3254 -0.4976 -0.3132
 5224SOL    HW127134   4.478   1.674   2.906  0.4544  0.5909  1.1337
 5224SOL    HW227135   4.538   1.760   2.799 -1.1550 -0.2458  0.3216
 5225SOL     OW27136   4.704   1.596   3.945  0.1105  0.1532  0.0380
 5225SOL    HW127137   0.012   1.595   3.855 -2.3562  1.5411 -0.8664
 5225SOL    HW227138   4.625   1.542   3.932 -0.5348  1.0370  0.3014
 5226SOL     OW27139   3.978   3.151  13.200 -1.1102  0.4807 -0.2234
 5226SOL    HW127140   4.010   3.229  13.154 -2.3345 -0.0382 -1.9864
 5226SOL    HW227141   3.918   3.113  13.135 -0.4856 -1.8563  0.5706
 5227SOL     OW27142   2.061   1.460   1.771  0.4784  0.3118 -0.6203
 5227SOL    HW127143   1.985   1.519   1.769  1.0298  1.1491  2.8310
 5227SOL    HW227144   2.125   1.481   1.703 -0.7361  0.5941 -1.6719
 5228SOL     OW27145   4.594   2.324  12.694  0.5441 -0.1988 -0.6496
 5228SOL    HW127146   4.663   2.388  12.703  1.6324 -1.3150 -1.0083
 5228SOL    HW227147   4.606   2.269  12.772 -1.6709  0.6100  0.2567
 5229SOL     OW27148   0.546   3.603   6.984  0.0581  0.1299  0.1223
 5229SOL    HW127149   0.527   3.510   6.997  0.0205  0.1360  0.1119
 5229SOL    HW227150   0.624   3.589   6.930  0.9109 -1.7216  1.8459
 5230SOL     OW27151   1.490   1.968   6.502  0.1008  0.7530 -0.3534
 5230SOL    HW127152   1.458   1.882   6.531  1.7326  1.0706  2.3680
 5230SOL    HW227153   1.584   1.951   6.507 -0.3851 -1.7693  0.3812
 5231SOL     OW27154   4.603   1.221   3.906 -0.0284 -0.6583  0.0639
 5231SOL    HW127155   4.570   1.305   3.938  2.0170 -0.1898  0.9901
 5231SOL    HW227156   4.523   1.186   3.867 -1.5411  0.8675  1.7794
 5232SOL     OW27157   1.542   3.981  16.209 -0.1969  0.0901 -0.1795
 5232SOL    HW127158   1.583   3.941  16.285  0.1211  1.3435  0.3178
 5232SOL    HW227159   1.578   4.070  16.198 -3.3633  1.3268 -0.5270
 5233SOL     OW27160   4.701   2.424   4.248 -0.5174 -0.0926  0.6852
 5233SOL    HW127161   4.708   2.383   4.162 -3.7094  0.5007  0.1601
 5233SOL    HW227162   0.032   2.367   4.302 -0.5835  0.7135  1.6111
 5234SOL     OW27163   1.264   2.260   8.280  0.6160  0.7484 -0.0896
 5234SOL    HW127164   1.296   2.210   8.355 -1.1656  0.2941  0.3501
 5234SOL    HW227165   1.177   2.287   8.308  1.4985  0.5164  2.8948
 5235SOL     OW27166   1.243   2.741   8.077 -0.4242  0.4998  0.5133
 5235SOL    HW127167   1.242   2.750   7.982  2.4173 -0.7074  0.3825
 5235SOL    HW227168   1.202   2.823   8.104  2.6300  1.8666  0.9544
 5236SOL     OW27169   0.692   0.134   3.575  0.3503  0.2832  0.7488
 5236SOL    HW127170   0.768   0.078   3.589  1.3757  1.4654 -0.0587
 5236SOL    HW227171   0.677   0.143   3.481  0.1004  2.9149  1.0131
 5237SOL     OW27172   2.506   0.672   0.789 -0.5934 -0.4153 -0.1846
 5237SOL    HW127173   2.466   0.748   0.746 -0.6899 -0.7790 -0.7353
 5237SOL    HW227174   2.449   0.667   0.866 -1.3558  0.7675 -0.6770
 5238SOL     OW27175   3.055   1.900   3.225  0.0702 -0.1949  0.7357
 5238SOL    HW127176   3.051   1.830   3.290 -3.1891 -0.1190  0.6323
 5238SOL    HW227177   3.145   1.893   3.193  1.9117  3.0892  5.1126
 5239SOL     OW27178   3.911   0.638   5.719 -0.1583 -0.2033 -0.5368
 5239SOL    HW127179   3.869   0.575   5.777 -0.1084  0.0568 -0.2176
 5239SOL    HW227180   3.873   0.604   5.638 -1.6468  0.8508 -0.2911
 5240SOL     OW27181   4.206   3.684   3.203  0.1123  0.1342 -0.2639
 5240SOL    HW127182   4.148   3.642   3.139 -0.3945 -0.2827  0.4662
 5240SOL    HW227183   4.242   3.753   3.147  1.8518 -0.5658  0.0078
 5241SOL     OW27184   2.224   0.382   4.778  0.9213 -0.2587  0.1544
 5241SOL    HW127185   2.280   0.363   4.703 -1.0327 -0.7673 -1.1567
 5241SOL    HW227186   2.244   0.308   4.835 -0.2639  0.8057  1.9394
 5242SOL     OW27187   0.729   3.385  13.604 -0.2030 -0.3502 -0.5988
 5242SOL    HW127188   0.821   3.395  13.630 -0.0283 -1.6423 -0.7076
 5242SOL    HW227189   0.677   3.408  13.681  0.7971  0.6017 -0.2097
 5243SOL     OW27190   2.850   2.556  13.475 -0.2162 -0.0047  0.5753
 5243SOL    HW127191   2.828   2.616  13.546 -0.6698  0.0001  0.4317
 5243SOL    HW227192   2.944   2.558  13.460 -0.0274 -0.0745  1.7358
 5244SOL     OW27193   0.107   2.635  15.518 -0.3803  0.4504 -0.3124
 5244SOL    HW127194   0.051   2.668  15.447 -0.4877  1.9367  0.4420
 5244SOL    HW227195   0.162   2.568  15.479 -0.8177  0.1404 -0.4027
 5245SOL     OW27196   3.958   2.001   3.397 -0.6928  0.0830  0.0608
 5245SOL    HW127197   3.879   2.052   3.419  0.0787 -0.3025  3.7254
 5245SOL    HW227198   4.029   2.060   3.423 -1.3305 -1.3121  4.8543
 5246SOL     OW27199   4.560   3.964   8.656  0.6337  0.0635  0.3893
 5246SOL    HW127200   4.630   3.966   8.592 -0.8340  1.3088 -1.1736
 5246SOL    HW227201   4.549   4.060   8.661  0.7060 -0.0511  2.6933
 5247SOL     OW27202   3.366   3.440   8.727 -0.2053 -0.0766  0.6214
 5247SOL    HW127203   3.280   3.398   8.719  0.1449 -0.6599 -0.1000
 5247SOL    HW227204   3.425   3.368   8.703  2.0115  1.0083  2.7855
 5248SOL     OW27205   4.066   0.014   3.127  0.0764  0.2020  0.7426
 5248SOL    HW127206   4.076   0.048   3.038  0.8797 -2.7403 -0.2755
 5248SOL    HW227207   4.099   0.090   3.175  0.8055  0.4696 -0.1755
 5249SOL     OW27208   1.080   2.900   4.518 -0.1952 -0.1173 -0.6866
 5249SOL    HW127209   1.155   2.959   4.522  0.1918 -0.6269 -0.2697
 5249SOL    HW227210   1.109   2.831   4.458  0.9705  0.9953 -1.3820
 5250SOL     OW27211   0.287   2.676   3.209  0.1804 -0.3052 -0.2511
 5250SOL    HW127212   0.311   2.748   3.150 -0.1382  1.0442  1.2400
 5250SOL    HW227213   0.371   2.634   3.228 -0.6654 -1.0202  1.8245
 5251SOL     OW27214   2.231   4.603   7.575 -0.0496 -0.1227 -0.1340
 5251SOL    HW127215   2.188   4.676   7.618  1.2627  0.0861  0.8149
 5251SOL    HW227216   2.196   4.602   7.486  0.1886  1.6222 -0.2461
 5252SOL     OW27217   2.039   0.317   6.299  0.2746  0.2552  0.5729
 5252SOL    HW127218   1.979   0.244   6.313  0.4186  0.6501  3.1452
 5252SOL    HW227219   2.030   0.338   6.206  2.2060 -0.1758  0.2845
 5253SOL     OW27220   0.328   0.675   7.551 -0.7151  0.4267  1.5669
 5253SOL    HW127221   0.405   0.635   7.593 -1.5498 -0.6470  2.0695
 5253SOL    HW227222   0.306   0.630   7.469 -0.3925 -0.0749  1.7523
 5254SOL     OW27223   1.539   0.251   8.257  0.6004  0.1744 -0.0781
 5254SOL    HW127224   1.472   0.184   8.248 -0.6306  1.5097 -0.8494
 5254SOL    HW227225   1.485   0.325   8.228 -1.0590 -0.9963  0.0628
 5255SOL     OW27226   0.719   3.808   6.119  0.5589  0.2237  0.1500
 5255SOL    HW127227   0.677   3.732   6.077 -0.8439  1.4252 -0.6020
 5255SOL    HW227228   0.776   3.773   6.188 -0.1789  2.7397  2.0317
 5256SOL     OW27229   1.613   2.589   3.012 -0.0703 -0.0727  0.2403
 5256SOL    HW127230   1.576   2.677   3.004  3.4156  1.3407 -0.5489
 5256SOL    HW227231   1.701   2.613   3.041 -0.1269  1.0114 -0.4876
 5257SOL     OW27232   1.030   2.970   2.440  0.6241 -0.3905  0.0877
 5257SOL    HW127233   0.981   2.891   2.416 -4.0650  2.1813  1.1359
 5257SOL    HW227234   1.119   2.935   2.444  0.6453 -0.4434 -0.9135
 5258SOL     OW27235   0.788   1.633   7.418  0.3982  0.4272 -0.4095
 5258SOL    HW127236   0.730   1.566   7.455  1.6587 -0.8705 -0.7983
 5258SOL    HW227237   0.726   1.706   7.422 -1.2120 -0.9318 -0.8424
 5259SOL     OW27238   2.082   1.224   8.459 -0.0564 -1.0072  0.2762
 5259SOL    HW127239   2.034   1.222   8.542 -2.2001  1.8053 -0.8713
 5259SOL    HW227240   2.010   1.206   8.398  0.3469 -1.2451 -0.1288
 5260SOL     OW27241   3.062   4.646   6.578  0.6964  0.7022  0.0507
 5260SOL    HW127242   2.976   4.687   6.576  0.4648  0.2189  0.0713
 5260SOL    HW227243   3.091   4.634   6.668  2.1285  2.6454 -0.1601
 5261SOL     OW27244   1.630   1.199   4.136 -0.3245 -0.3348 -0.1200
 5261SOL    HW127245   1.571   1.259   4.182  1.0231  0.4967  0.5106
 5261SOL    HW227246   1.710   1.235   4.173 -2.0990  3.9773 -0.5009
 5262SOL     OW27247   2.959   2.941   7.116 -0.1296 -0.2517 -0.2729
 5262SOL    HW127248   3.017   2.871   7.145 -1.2523 -1.1564 -0.2274
 5262SOL    HW227249   3.001   3.017   7.158 -1.8068  0.3760  0.2710
 5263SOL     OW27250   0.409   3.695   7.432 -0.0809  0.0372  0.1321
 5263SOL    HW127251   0.446   3.735   7.353  0.8516 -0.9991  0.0413
 5263SOL    HW227252   0.452   3.610   7.422 -0.0874  0.3151 -2.2841
 5264SOL     OW27253   1.432   1.012   8.687  0.3864 -0.5084 -0.4678
 5264SOL    HW127254   1.347   1.025   8.728  0.2146 -1.0149 -0.6661
 5264SOL    HW227255   1.468   0.937   8.734  0.9910  0.0099 -0.0989
 5265SOL     OW27256   0.055   0.771   8.114 -0.3714  0.5152  0.0355
 5265SOL    HW127257   0.014   0.691   8.149 -3.1281  0.6335 -2.9777
 5265SOL    HW227258   4.709   0.805   8.059 -0.7128 -2.4738 -1.3405
 5266SOL     OW27259   2.017   2.501   7.460 -0.0863 -0.6992 -0.4704
 5266SOL    HW127260   2.010   2.528   7.552 -1.6884  1.1390 -1.1391
 5266SOL    HW227261   2.036   2.585   7.417  0.7419 -0.0394  1.1379
 5267SOL     OW27262   2.636   0.293  13.395  0.1728  0.1000  0.1336
 5267SOL    HW127263   2.654   0.207  13.433  0.2653  0.2262  0.3809
 5267SOL    HW227264   2.596   0.344  13.466 -1.0889 -0.1711 -0.3874
 5268SOL     OW27265   3.726   0.963  12.945 -0.5757 -0.1543 -0.2551
 5268SOL    HW127266   3.704   0.871  12.955 -3.8065  0.4462 -2.0072
 5268SOL    HW227267   3.645   1.007  12.918 -0.0450 -1.0063 -3.1608
 5269SOL     OW27268   4.459   2.707   4.507 -0.0127 -0.2352  0.9120
 5269SOL    HW127269   4.509   2.701   4.426 -0.8645 -1.4858  0.4928
 5269SOL    HW227270   4.431   2.616   4.518  2.1152 -1.0524 -0.5605
 5270SOL     OW27271   2.572   1.808  14.843  0.2633 -0.2501  0.3642
 5270SOL    HW127272   2.666   1.797  14.829  0.2209 -2.6217  1.9060
 5270SOL    HW227273   2.575   1.795  14.937 -0.0289 -1.2641  0.2392
 5271SOL     OW27274   2.789   2.668  15.930 -0.1092  0.0146 -0.1973
 5271SOL    HW127275   2.732   2.642  16.001 -0.4364 -1.3571 -0.9628
 5271SOL    HW227276   2.874   2.632  15.956  0.3059  0.2454 -1.2246
 5272SOL     OW27277   0.947   1.609  12.431  0.2105 -0.2756 -0.1462
 5272SOL    HW127278   0.953   1.546  12.503  1.7121 -0.1784 -0.1977
 5272SOL    HW227279   0.951   1.693  12.476  0.6217 -0.4554  0.1490
 5273SOL     OW27280   1.038   2.843   4.774 -0.8715 -0.4199 -0.5450
 5273SOL    HW127281   1.124   2.868   4.808 -1.7868  0.7468  0.9571
 5273SOL    HW227282   1.043   2.873   4.684 -0.2669 -0.1666 -0.4256
 5274SOL     OW27283   3.689   3.612  11.513  0.3108  0.3485  0.6742
 5274SOL    HW127284   3.722   3.697  11.485  0.7410  0.2703  0.9471
 5274SOL    HW227285   3.615   3.633  11.569 -0.1037 -1.6011  0.8575
 5275SOL     OW27286   2.520   0.634   5.881 -0.3422 -0.3073 -0.2135
 5275SOL    HW127287   2.553   0.708   5.932 -0.5343 -0.6972  0.4807
 5275SOL    HW227288   2.480   0.683   5.809 -0.1193 -1.1847 -0.9306
 5276SOL     OW27289   2.888   1.535  11.392 -0.4223 -0.3908  0.7340
 5276SOL    HW127290   2.963   1.518  11.448 -0.4129 -2.0141  0.2411
 5276SOL    HW227291   2.875   1.449  11.351 -2.3078 -0.0213  0.5488
 5277SOL     OW27292   1.982   3.577   7.167  0.0745 -0.3799  0.2008
 5277SOL    HW127293   1.938   3.662   7.175  0.0916 -0.2847 -0.6827
 5277SOL    HW227294   2.018   3.573   7.256 -0.2225 -3.2315  0.1758
 5278SOL     OW27295   2.922   1.831  11.346 -0.2922  0.3084 -0.4428
 5278SOL    HW127296   2.897   1.739  11.354 -0.3618  0.3464 -0.2170
 5278SOL    HW227297   3.000   1.827  11.401 -0.4905 -0.8241 -0.2385
 5279SOL     OW27298   4.306   4.475   6.729  0.1121  0.4256  0.5124
 5279SOL    HW127299   4.270   4.418   6.661  4.5512 -2.5127  0.6289
 5279SOL    HW227300   4.330   4.552   6.676  1.5209 -0.9241 -0.8099
 5280SOL     OW27301   2.577   0.227   8.338  0.8404 -0.0181 -0.2656
 5280SOL    HW127302   2.540   0.315   8.343 -1.2202 -0.6611 -3.9018
 5280SOL    HW227303   2.642   0.238   8.407 -0.3587 -0.5741  0.9581
 5281SOL     OW27304   4.353   1.728  11.416  0.0402 -0.0106  0.2627
 5281SOL    HW127305   4.354   1.664  11.344 -1.8591 -2.5860  2.5029
 5281SOL    HW227306   4.354   1.816  11.380  1.3144  0.3894  1.2684
 5282SOL     OW27307   0.919   0.131   3.020 -0.2993  0.4828 -0.1589
 5282SOL    HW127308   0.971   0.108   3.098 -2.7646 -2.7173  0.5776
 5282SOL    HW227309   0.972   0.203   2.987 -1.4303  0.1029 -2.8273
 5283SOL     OW27310   2.986   0.168   1.022  0.1417  0.2267  0.5135
 5283SOL    HW127311   2.980   0.083   0.978 -0.2180  1.0921 -1.1374
 5283SOL    HW227312   3.075   0.196   0.999 -0.3210  1.3707  0.0929
 5284SOL     OW27313   4.498   0.383   6.443  0.2878  0.2774 -0.1570
 5284SOL    HW127314   4.444   0.304   6.447  0.4468  0.1976  0.3833
 5284SOL    HW227315   4.586   0.355   6.466 -0.5269 -2.3575 -0.2180
 5285SOL     OW27316   4.041   3.866   7.854 -0.0187  0.4436  0.0156
 5285SOL    HW127317   4.047   3.959   7.835 -0.8312  0.5059  0.0877
 5285SOL    HW227318   4.012   3.862   7.945 -0.3156  0.0559 -0.0954
 5286SOL     OW27319   1.481   4.074   4.997 -0.1078  0.5569  0.1208
 5286SOL    HW127320   1.445   4.148   5.045  0.5295  1.6865 -1.1414
 5286SOL    HW227321   1.490   4.110   4.909  0.2667 -1.2791 -0.5887
 5287SOL     OW27322   2.370   0.811   2.349 -0.4986 -0.1817  0.0126
 5287SOL    HW127323   2.377   0.752   2.425  1.0414 -1.8219 -1.3915
 5287SOL    HW227324   2.402   0.745   2.287  0.2723  0.3541 -0.1517
 5288SOL     OW27325   3.624   0.664   5.005  0.0020  0.4022  0.2237
 5288SOL    HW127326   3.639   0.758   5.010 -0.0049  0.4484 -0.6638
 5288SOL    HW227327   3.651   0.647   4.915 -2.3801 -1.0565 -0.1906
 5289SOL     OW27328   3.438   3.141   5.169 -0.1825  0.0785  0.0821
 5289SOL    HW127329   3.357   3.190   5.184 -0.7304 -0.9481  0.5088
 5289SOL    HW227330   3.459   3.111   5.258  0.7194  0.1070 -0.1210
 5290SOL     OW27331   2.662   3.729   7.550  0.4909  0.4935 -0.3919
 5290SOL    HW127332   2.724   3.780   7.602  0.7104 -0.9222  0.7450
 5290SOL    HW227333   2.593   3.734   7.616  0.7984  1.9356 -0.1678
 5291SOL     OW27334   1.533   0.725  10.480  0.3155  0.2289 -0.2986
 5291SOL    HW127335   1.570   0.648  10.523 -1.1933 -1.0891 -1.3823
 5291SOL    HW227336   1.600   0.791  10.501 -0.7281  1.3245 -0.3873
 5292SOL     OW27337   2.513   3.449   4.094  0.0762 -0.1280 -0.0212
 5292SOL    HW127338   2.531   3.358   4.118 -1.2655 -0.1868  0.7662
 5292SOL    HW227339   2.558   3.501   4.162 -3.6047  0.5782  1.8707
 5293SOL     OW27340   1.138   1.857   1.015  0.3832  0.0041 -0.4794
 5293SOL    HW127341   1.142   1.766   0.983  4.0606  0.3803 -1.0357
 5293SOL    HW227342   1.139   1.891   0.925 -2.2359  2.4181  0.4247
 5294SOL     OW27343   3.751   3.298   5.420  0.6883  0.1271  0.2447
 5294SOL    HW127344   3.707   3.221   5.385 -0.0685  0.2565  0.9083
 5294SOL    HW227345   3.831   3.265   5.462  1.5276  1.6073 -0.1801
 5295SOL     OW27346   0.383   2.491   2.442 -0.2757 -0.0257  0.5315
 5295SOL    HW127347   0.408   2.446   2.361  0.5506  0.7761  0.3466
 5295SOL    HW227348   0.468   2.501   2.485  0.6527 -0.7844 -1.0972
 5296SOL     OW27349   3.344   2.374  13.127 -0.2937 -0.0175 -0.0665
 5296SOL    HW127350   3.340   2.386  13.222  1.2529  0.0036 -0.0024
 5296SOL    HW227351   3.384   2.288  13.125 -0.8004 -0.2122 -2.5177
 5297SOL     OW27352   1.697   1.161  14.426  0.1987 -0.1079  0.0917
 5297SOL    HW127353   1.781   1.121  14.406  1.9933  2.6005  2.3028
 5297SOL    HW227354   1.640   1.126  14.357 -0.0125  0.3973  0.0095
 5298SOL     OW27355   2.254   0.615  14.251  0.0794 -0.1802 -0.1956
 5298SOL    HW127356   2.259   0.659  14.166 -2.2614 -1.4115 -0.9445
 5298SOL    HW227357   2.317   0.662  14.305 -0.7487  0.5658  0.1165
 5299SOL     OW27358   4.551   0.028   8.539 -0.1610  0.5846 -0.6759
 5299SOL    HW127359   4.533   0.058   8.450  1.3013 -0.2407 -1.2520
 5299SOL    HW227360   4.645   0.048   8.540 -0.3882  1.7567 -1.7639
 5300SOL     OW27361   1.072   4.222   4.834 -0.3176  0.0128  0.0672
 5300SOL    HW127362   1.130   4.293   4.806  0.5985 -0.9360 -0.4142
 5300SOL    HW227363   1.042   4.247   4.922 -2.3712 -1.3849 -0.2226
 5301SOL     OW27364   0.041   0.793   6.208  0.2528 -0.6786  0.3182
 5301SOL    HW127365   0.120   0.847   6.201 -2.1777  2.8072 -0.1076
 5301SOL    HW227366   4.704   0.851   6.162  0.7832 -1.0297 -0.8410
 5302SOL     OW27367   4.370   4.040   8.944 -0.3583 -0.0618 -0.8595
 5302SOL    HW127368   4.300   3.999   8.894  0.2786 -0.5761 -1.3250
 5302SOL    HW227369   4.425   3.967   8.973  0.2603  0.7153 -0.0623
 5303SOL     OW27370   3.475   2.571   4.004  0.6261 -0.1485 -0.0918
 5303SOL    HW127371   3.430   2.488   4.019  0.0557  0.2694  0.5084
 5303SOL    HW227372   3.532   2.577   4.081 -0.2830 -0.4520  0.6095
 5304SOL     OW27373   1.750   1.415   9.334  0.0955  0.0237 -0.3241
 5304SOL    HW127374   1.749   1.455   9.421  1.7369  0.5918 -0.5627
 5304SOL    HW227375   1.703   1.334   9.357 -1.1599  0.4737 -1.2771
 5305SOL     OW27376   0.607   1.489  11.496 -0.1735 -1.2084  0.1961
 5305SOL    HW127377   0.665   1.513  11.424  1.5601 -0.9398  1.6940
 5305SOL    HW227378   0.550   1.421  11.461 -0.4010 -2.0366  2.2096
 5306SOL     OW27379   4.457   1.750   3.757  0.2766  0.7059 -0.1066
 5306SOL    HW127380   4.548   1.762   3.782 -0.1836 -0.1712  1.9819
 5306SOL    HW227381   4.469   1.671   3.704  1.7309  1.3915 -0.7889
 5307SOL     OW27382   0.380   0.283   4.525 -0.2470  0.3467  0.1920
 5307SOL    HW127383   0.438   0.274   4.450 -1.2188  0.9600 -0.6304
 5307SOL    HW227384   0.321   0.209   4.511  2.3708 -2.2979  3.0971
 5308SOL     OW27385   1.242   3.651   3.080  0.4309 -0.1294 -0.1286
 5308SOL    HW127386   1.216   3.614   2.996 -1.1108  0.4546  0.0893
 5308SOL    HW227387   1.315   3.591   3.097  1.1971  0.9218  0.3486
 5309SOL     OW27388   1.931   4.651  10.642 -1.0823 -0.2285 -0.3086
 5309SOL    HW127389   1.838   4.628  10.649 -1.7125  1.9721 -1.3537
 5309SOL    HW227390   1.944   4.681  10.732  3.0662 -0.4499 -0.8370
 5310SOL     OW27391   1.931   4.605  16.192 -1.0376  0.3044 -0.1683
 5310SOL    HW127392   1.991   4.592  16.119  0.2123  0.8497  0.7650
 5310SOL    HW227393   1.867   4.665  16.153  0.1988  0.9167 -1.2259
 5311SOL     OW27394   4.170   0.092   1.670 -0.1615  0.0766  0.0578
 5311SOL    HW127395   4.187   0.048   1.587  1.1629  2.9643 -1.1961
 5311SOL    HW227396   4.246   0.148   1.685 -0.5513  0.9915 -1.2909
 5312SOL     OW27397   4.670   1.773   8.945  0.2829  0.0297 -0.4053
 5312SOL    HW127398   4.658   1.798   8.853 -1.2214 -0.0855 -0.2413
 5312SOL    HW227399   0.026   1.720   8.933  1.2287  0.7722  2.7884
 5313SOL     OW27400   1.126   1.342   5.316 -0.5459  0.1322  0.2126
 5313SOL    HW127401   1.055   1.296   5.358 -0.1078  1.5141  2.4828
 5313SOL    HW227402   1.153   1.276   5.252  1.8631  0.5167  0.8208
 5314SOL     OW27403   1.984   4.606   3.352 -0.0627 -0.4138  0.1028
 5314SOL    HW127404   1.894   4.575   3.339  0.1262 -0.9037 -0.0683
 5314SOL    HW227405   2.024   4.607   3.265 -0.9654  1.9415 -0.2820
 5315SOL     OW27406   3.159   3.927  14.219 -0.1593 -0.1540 -0.6452
 5315SOL    HW127407   3.118   3.850  14.180 -1.5936  0.1066  0.3299
 5315SOL    HW227408   3.107   3.993  14.173 -0.7848 -1.3721 -1.6762
 5316SOL     OW27409   1.458   2.992  17.531  0.4297  0.2636 -0.2849
 5316SOL    HW127410   1.384   2.958  17.581 -0.3818 -0.7585 -2.2162
 5316SOL    HW227411   1.418   3.054  17.470 -0.1866 -1.9899 -2.1323
 5317SOL     OW27412   2.329   1.094  14.600  0.1625  0.3231 -0.0615
 5317SOL    HW127413   2.312   1.019  14.658  0.1573  1.4775  1.4357
 5317SOL    HW227414   2.254   1.154  14.605 -3.0385 -3.6867  0.0031
 5318SOL     OW27415   2.060   1.150   7.111  0.1182 -0.3579  0.1147
 5318SOL    HW127416   2.104   1.066   7.122  0.8407  0.3523  2.7079
 5318SOL    HW227417   1.971   1.135   7.080  0.1655  0.6743 -0.5514
 5319SOL     OW27418   3.845   2.864   3.956 -0.2753 -0.1575 -0.3181
 5319SOL    HW127419   3.777   2.822   3.903 -0.1431 -1.0010  0.1862
 5319SOL    HW227420   3.896   2.797   4.001 -0.3575  0.7055  1.0591
 5320SOL     OW27421   4.281   4.478   2.096  0.1647  0.0336  0.5768
 5320SOL    HW127422   4.267   4.568   2.067 -0.2320 -0.3672 -0.4899
 5320SOL    HW227423   4.340   4.452   2.026  0.9418  1.3424  0.7483
 5321SOL     OW27424   1.862   2.331   2.914 -0.6842  0.2779 -0.3902
 5321SOL    HW127425   1.923   2.270   2.956  0.2435 -0.2726 -2.5439
 5321SOL    HW227426   1.866   2.402   2.978  1.2186 -0.1249 -0.0741
 5322SOL     OW27427   1.073   1.296   3.171 -0.3462  0.2493 -0.1828
 5322SOL    HW127428   1.109   1.221   3.218 -1.0727 -0.6052 -1.0089
 5322SOL    HW227429   1.057   1.260   3.084 -0.3710  0.5802 -0.3162
 5323SOL     OW27430   1.641   3.994   3.721  1.1307  0.5802 -0.6208
 5323SOL    HW127431   1.585   4.034   3.654 -0.4222 -1.6194 -0.6311
 5323SOL    HW227432   1.635   3.903   3.694  1.1243  0.1620  0.8106
 5324SOL     OW27433   0.304   1.149   6.388 -0.0726  0.8113  0.1092
 5324SOL    HW127434   0.396   1.170   6.399 -0.0777  0.6395  0.4753
 5324SOL    HW227435   0.268   1.184   6.470 -1.0258  1.8495 -0.7539
 5325SOL     OW27436   4.679   4.530   4.248  0.1881 -0.2225 -0.1041
 5325SOL    HW127437   4.654   4.443   4.216  1.1222 -0.9771  1.2044
 5325SOL    HW227438   4.717   4.564   4.168  0.2200  0.4006  0.1792
 5326SOL     OW27439   0.853   3.551   7.803 -0.3276 -0.3421  0.0682
 5326SOL    HW127440   0.849   3.484   7.872 -1.7418  1.0708  1.3843
 5326SOL    HW227441   0.937   3.529   7.765 -0.5263  0.2720 -0.7274
 5327SOL     OW27442   0.395   0.603  16.044 -0.5169 -0.1775  0.3877
 5327SOL    HW127443   0.458   0.658  16.090 -0.9063  0.2464  0.4140
 5327SOL    HW227444   0.451   0.541  15.996 -0.9675  0.6889 -1.2546
 5328SOL     OW27445   2.950   2.763   8.354 -0.1420  0.1322 -0.0111
 5328SOL    HW127446   3.018   2.734   8.293 -1.9521  1.3688 -2.6360
 5328SOL    HW227447   2.868   2.719   8.333 -1.1206  1.7353  0.4850
 5329SOL     OW27448   4.057   2.034   7.785 -0.3616 -0.0910  0.1107
 5329SOL    HW127449   3.970   2.021   7.747  0.3136  0.7860 -1.7402
 5329SOL    HW227450   4.103   1.991   7.713  0.9835  0.5799  0.5831
 5330SOL     OW27451   3.427   1.332   4.743  0.3047  0.5594 -0.5493
 5330SOL    HW127452   3.345   1.381   4.747 -0.2196 -0.5415  2.0972
 5330SOL    HW227453   3.409   1.271   4.672 -0.7838 -0.8069  0.8955
 5331SOL     OW27454   3.906   0.575  17.483 -0.1183 -0.2857  0.4106
 5331SOL    HW127455   3.976   0.520  17.519  0.8158  1.1637  0.8287
 5331SOL    HW227456   3.867   0.529  17.408  0.7743 -1.6652  0.7923
 5332SOL     OW27457   3.477   2.513   3.540 -0.5799 -0.3036 -0.3668
 5332SOL    HW127458   3.437   2.447   3.483 -0.7427 -1.6102  1.2501
 5332SOL    HW227459   3.395   2.553   3.570 -0.1926  1.0584 -1.1663
 5333SOL     OW27460   1.139   1.115   9.295  0.0968  0.2961 -0.2106
 5333SOL    HW127461   1.050   1.119   9.329  0.1738  0.7312 -0.0566
 5333SOL    HW227462   1.137   1.163   9.212 -1.1533  0.5378 -0.0413
 5334SOL     OW27463   2.075   0.121  10.533 -0.8280  0.3784 -0.4374
 5334SOL    HW127464   2.029   0.195  10.573 -0.0931  0.7777 -0.3163
 5334SOL    HW227465   2.021   0.047  10.558  1.3367 -1.2955 -0.7201
 5335SOL     OW27466   2.880   2.171   7.634 -0.1740 -0.5387  0.1311
 5335SOL    HW127467   2.789   2.172   7.662  0.0587 -0.5181  0.8887
 5335SOL    HW227468   2.855   2.209   7.550 -0.6077 -2.2006 -0.4720
 5336SOL     OW27469   2.908   4.009   2.732  0.3436 -0.3300 -0.5346
 5336SOL    HW127470   2.840   3.942   2.729 -1.7776  1.7740  0.3251
 5336SOL    HW227471   2.964   3.977   2.803  0.0183  0.9433  0.2952
 5337SOL     OW27472   4.434   0.679  14.265 -0.1371 -0.6914 -0.4206
 5337SOL    HW127473   4.483   0.618  14.320 -0.9887 -1.3740 -0.4348
 5337SOL    HW227474   4.347   0.643  14.282 -0.2827 -0.6716 -1.1063
 5338SOL     OW27475   2.643   0.478   8.057 -0.2228 -0.1467 -0.1872
 5338SOL    HW127476   2.572   0.491   7.995 -0.8903  1.7328  0.9470
 5338SOL    HW227477   2.593   0.483   8.139  0.1391  1.2768 -0.0370
 5339SOL     OW27478   0.238   2.537   1.286  0.4339 -0.1898  0.1561
 5339SOL    HW127479   0.227   2.442   1.291 -0.9555  0.0112  1.0753
 5339SOL    HW227480   0.157   2.567   1.329  0.7757  3.2235 -1.5519
 5340SOL     OW27481   0.508   4.024  11.945 -0.2587 -0.0470 -0.1104
 5340SOL    HW127482   0.541   3.991  12.029  0.1501  0.6637  0.0011
 5340SOL    HW227483   0.586   4.053  11.898 -0.9460  2.2282  0.1437
 5341SOL     OW27484   3.067   2.967   5.762  0.3674 -0.1552  0.2697
 5341SOL    HW127485   3.064   2.888   5.708 -2.1384  1.5906 -2.1189
 5341SOL    HW227486   3.067   3.035   5.695 -1.3584 -0.8317 -0.4216
 5342SOL     OW27487   3.282   2.526   5.593 -0.0602 -0.1052  0.1888
 5342SOL    HW127488   3.256   2.440   5.626 -0.3901  0.3875  1.2145
 5342SOL    HW227489   3.331   2.499   5.515 -1.2263 -0.9076 -0.2717
 5343SOL     OW27490   3.599   0.554   8.030  0.1009 -0.0360  0.4848
 5343SOL    HW127491   3.578   0.575   8.122  0.9570  0.3881  0.5791
 5343SOL    HW227492   3.513   0.564   7.989 -0.1312  0.5803  1.1155
 5344SOL     OW27493   1.284   1.525   1.761 -0.5173 -0.3455  0.8863
 5344SOL    HW127494   1.313   1.536   1.852  2.4265 -0.2472 -0.0676
 5344SOL    HW227495   1.279   1.430   1.765 -0.2527 -0.3675  0.6810
 5345SOL     OW27496   3.463   4.522   6.138  0.0445  0.3767  0.4590
 5345SOL    HW127497   3.437   4.565   6.057  0.4241 -1.0860 -0.4286
 5345SOL    HW227498   3.558   4.517   6.128 -0.0369 -1.0841  0.4594
 5346SOL     OW27499   1.477   1.010   4.289 -0.3542  0.9943 -0.0305
 5346SOL    HW127500   1.542   0.970   4.347 -0.9077 -0.0215 -0.1075
 5346SOL    HW227501   1.543   1.064   4.245  0.6020 -0.0848  0.0596
 5347SOL     OW27502   1.234   2.761   1.293 -0.4799 -0.1241  0.7346
 5347SOL    HW127503   1.298   2.812   1.243  0.2775 -0.9735  0.8214
 5347SOL    HW227504   1.240   2.791   1.383 -1.1168  2.5486 -0.1155
 5348SOL     OW27505   2.422   2.394   0.153  0.7627 -0.4701  0.1670
 5348SOL    HW127506   2.435   2.299   0.147  2.2453 -0.3905  2.0797
 5348SOL    HW227507   2.461   2.415   0.238  0.5490 -0.8668  0.3679
 5349SOL     OW27508   0.794   4.301   5.434 -0.3786 -0.0679  0.3422
 5349SOL    HW127509   0.784   4.325   5.342 -0.2730 -1.2024  0.0371
 5349SOL    HW227510   0.703   4.322   5.454 -0.0711 -1.6018  3.3407
 5350SOL     OW27511   2.375   3.839   2.955  0.0702 -0.3889 -0.1346
 5350SOL    HW127512   2.284   3.832   2.926  0.1791  0.5743 -0.7394
 5350SOL    HW227513   2.365   3.916   3.011 -1.6173 -0.6612 -0.0738
 5351SOL     OW27514   1.165   1.308   2.727  0.5333  0.0021  0.1572
 5351SOL    HW127515   1.115   1.323   2.647  0.1112  0.7854  0.5657
 5351SOL    HW227516   1.249   1.278   2.693  0.2992  1.1270 -1.3927
 5352SOL     OW27517   3.425   0.281   6.056 -0.4902  0.0139  0.0857
 5352SOL    HW127518   3.434   0.260   6.148 -0.5080  1.8979  0.5295
 5352SOL    HW227519   3.470   0.365   6.045 -0.3768 -0.0777 -0.1429
 5353SOL     OW27520   0.064   2.147   1.917  0.0564  0.0123 -0.5263
 5353SOL    HW127521   4.695   2.143   1.943  0.6670 -0.3648  1.6276
 5353SOL    HW227522   0.062   2.228   1.865  0.6431 -0.0306 -0.6183
 5354SOL     OW27523   2.457   4.344   9.149  0.1591 -0.4347 -0.1710
 5354SOL    HW127524   2.494   4.428   9.124 -1.4435  0.3173 -0.0085
 5354SOL    HW227525   2.515   4.274   9.118 -0.9897 -0.5365 -2.0970
 5355SOL     OW27526   0.796   3.138   6.355 -0.4885 -0.3628  0.3889
 5355SOL    HW127527   0.768   3.122   6.445 -0.0851 -1.9724  0.2406
 5355SOL    HW227528   0.878   3.089   6.344 -1.9466 -3.0692  1.3920
 5356SOL     OW27529   4.650   3.489   4.769 -0.3504 -0.5843  0.1954
 5356SOL    HW127530   4.556   3.506   4.768 -0.1075  0.7378  0.1998
 5356SOL    HW227531   4.660   3.465   4.861 -1.6689  0.4436  0.6067
 5357SOL     OW27532   0.189   2.099  12.071  0.5168 -0.3644  0.2012
 5357SOL    HW127533   0.143   2.137  12.146 -1.8980 -2.4278 -0.2545
 5357SOL    HW227534   0.127   2.031  12.047 -1.2656  0.7159  1.7164
 5358SOL     OW27535   3.095   1.753   8.198  0.2662  0.4834 -0.2401
 5358SOL    HW127536   3.096   1.829   8.139 -1.7033  1.2032  0.6316
 5358SOL    HW227537   3.163   1.767   8.263  0.9701 -0.7727 -0.7231
 5359SOL     OW27538   3.743   1.301   0.633  0.2283  0.2367 -0.0043
 5359SOL    HW127539   3.761   1.212   0.602  0.6966 -0.2949  1.7652
 5359SOL    HW227540   3.662   1.286   0.682 -1.3994  3.5153 -1.7121
 5360SOL     OW27541   2.401   4.585   3.508  0.3980 -0.1249  0.2574
 5360SOL    HW127542   2.470   4.642   3.541  0.9182 -0.8167  0.3592
 5360SOL    HW227543   2.448   4.504   3.489  0.0121 -0.3868  0.3990
 5361SOL     OW27544   2.453   1.066   5.026  0.1402  0.5198 -0.1375
 5361SOL    HW127545   2.489   1.093   4.941 -0.1834  0.6987 -0.2169
 5361SOL    HW227546   2.404   0.986   5.009  1.2656 -0.4608  1.2944
 5362SOL     OW27547   0.423   0.376  10.639 -0.3198  0.5501  0.0201
 5362SOL    HW127548   0.432   0.464  10.676  0.2471  0.6791 -0.4338
 5362SOL    HW227549   0.476   0.322  10.697 -0.3991 -0.8424 -1.2260
 5363SOL     OW27550   4.305   0.098   5.006 -0.1457  0.3150 -0.3684
 5363SOL    HW127551   4.390   0.111   4.965 -0.2810 -1.5551 -1.2756
 5363SOL    HW227552   4.292   0.008   4.975 -1.3787  0.4012 -0.1164
 5364SOL     OW27553   0.505   3.877   8.476  0.3531 -0.2698 -0.2063
 5364SOL    HW127554   0.586   3.836   8.507  1.1912  0.3898 -1.5362
 5364SOL    HW227555   0.452   3.797   8.476  0.3383 -0.2604 -0.0395
 5365SOL     OW27556   0.782   1.507   4.628 -0.2875  0.3107 -0.9124
 5365SOL    HW127557   0.728   1.494   4.550 -0.6585  2.4459 -1.0042
 5365SOL    HW227558   0.859   1.456   4.603 -0.4882 -1.4339  1.9722
 5366SOL     OW27559   2.213   1.249  11.868  0.3557 -0.1049  0.3044
 5366SOL    HW127560   2.273   1.244  11.942 -0.4358  2.8801  1.1632
 5366SOL    HW227561   2.204   1.344  11.869 -2.0064 -0.3561  2.6153
 5367SOL     OW27562   3.401   2.518   4.776 -0.0982 -0.5101  0.0083
 5367SOL    HW127563   3.389   2.423   4.770  0.1031 -0.5264 -0.1465
 5367SOL    HW227564   3.318   2.548   4.738 -0.2368 -1.3191 -0.3211
 5368SOL     OW27565   1.358   3.434   4.382 -0.2639 -0.1500  0.0882
 5368SOL    HW127566   1.377   3.440   4.288  1.6727 -1.5796  0.3890
 5368SOL    HW227567   1.422   3.368   4.408  2.4202  2.1074 -0.7396
 5369SOL     OW27568   2.516   4.406   0.171 -0.4193 -0.1682  0.6167
 5369SOL    HW127569   2.558   4.491   0.181 -0.3931  0.0791 -1.5084
 5369SOL    HW227570   2.449   4.410   0.240 -0.0354  1.5700  0.8890
 5370SOL     OW27571   0.848   4.154   1.786  0.2001  0.2005 -0.3512
 5370SOL    HW127572   0.847   4.121   1.696  3.1587  3.7417 -1.6729
 5370SOL    HW227573   0.914   4.223   1.775  0.4952 -0.0257  0.0125
 5371SOL     OW27574   4.232   1.896  11.066 -0.1472  0.2141  0.1175
 5371SOL    HW127575   4.291   1.971  11.053  1.0473 -0.8178 -0.4402
 5371SOL    HW227576   4.157   1.940  11.106  0.6942  1.1810  0.6264
 5372SOL     OW27577   4.276   0.220  17.631  0.1567 -0.1524 -0.1148
 5372SOL    HW127578   4.294   0.128  17.649  2.6051  0.3320 -0.0624
 5372SOL    HW227579   4.337   0.255  17.567  0.4350 -1.2735 -0.4583
 5373SOL     OW27580   1.788   1.413   6.775  0.5815 -0.5423 -0.2630
 5373SOL    HW127581   1.719   1.377   6.831  1.1385 -0.1814  0.6437
 5373SOL    HW227582   1.850   1.437   6.843  0.3424 -1.3217  0.2360
 5374SOL     OW27583   0.768   0.281  16.586  0.3161  0.4509 -0.2142
 5374SOL    HW127584   0.803   0.235  16.510  0.4541  1.0670 -0.5247
 5374SOL    HW227585   0.823   0.246  16.656 -0.0178  2.7939  1.2122
 5375SOL     OW27586   0.706   1.022   5.150  0.4431  0.2535 -0.2228
 5375SOL    HW127587   0.711   0.931   5.177  0.8382 -0.5873 -3.1145
 5375SOL    HW227588   0.719   1.015   5.055 -0.5452  0.4890 -0.3775
 5376SOL     OW27589   4.577   4.678  14.848  0.7469 -0.3472  0.4870
 5376SOL    HW127590   4.572   4.583  14.849 -1.9494 -0.1696  3.5661
 5376SOL    HW227591   4.657   4.690  14.899  1.2075 -2.0131  0.1407
 5377SOL     OW27592   3.527   1.532  12.755  0.5710 -0.2962 -0.0675
 5377SOL    HW127593   3.583   1.532  12.833  0.3917  3.2992  0.0618
 5377SOL    HW227594   3.441   1.537  12.797  1.1399 -1.7762  1.2809
 5378SOL     OW27595   3.982   2.994   8.774  0.2142  0.7226  0.3602
 5378SOL    HW127596   4.065   2.959   8.743 -0.5557 -0.7962  0.0014
 5378SOL    HW227597   3.997   3.086   8.792 -1.1419  0.6761  1.8107
 5379SOL     OW27598   3.424   3.056   1.640 -0.1818 -0.1743  0.2986
 5379SOL    HW127599   3.375   3.023   1.715  2.5147  0.6623  2.4511
 5379SOL    HW227600   3.501   3.100   1.675  0.5488 -0.0541 -1.4356
 5380SOL     OW27601   2.949   0.813   7.653 -0.3115  0.5756 -0.2634
 5380SOL    HW127602   2.931   0.903   7.625 -2.6021  0.0367 -0.4800
 5380SOL    HW227603   2.944   0.815   7.749 -0.5688  0.8582 -0.2851
 5381SOL     OW27604   4.419   0.898   6.574  0.5154 -0.2135 -0.0922
 5381SOL    HW127605   4.446   0.812   6.542  1.3111 -0.4993  1.3325
 5381SOL    HW227606   4.448   0.892   6.665  0.3823  1.0783  0.0337
 5382SOL     OW27607   0.402   4.615  12.232 -0.0600 -0.1271 -0.1293
 5382SOL    HW127608   0.430   4.528  12.202 -2.0492 -0.8293  0.0705
 5382SOL    HW227609   0.343   4.616  12.307 -0.6623  0.9252 -0.6225
 5383SOL     OW27610   0.505   1.622   2.036  0.0714  0.4752 -0.4229
 5383SOL    HW127611   0.452   1.563   1.983  1.0087  0.2413 -1.0923
 5383SOL    HW227612   0.436   1.686   2.055  1.6398  2.7963 -2.4770
 5384SOL     OW27613   0.840   0.076   4.657  0.5132 -0.3179 -0.7533
 5384SOL    HW127614   0.787   0.129   4.717 -1.6980  0.2800 -3.2378
 5384SOL    HW227615   0.927   0.065   4.695  0.3911  2.1042  0.2789
 5385SOL     OW27616   0.369   4.190   6.564  0.1874  0.7293 -0.3152
 5385SOL    HW127617   0.464   4.197   6.569  0.4298 -2.1464 -0.8399
 5385SOL    HW227618   0.359   4.212   6.472 -0.5623  0.4325 -0.3107
 5386SOL     OW27619   0.880   2.734   4.971  0.2313  0.2204 -0.3583
 5386SOL    HW127620   0.938   2.775   4.907 -1.4196  0.6642 -1.5862
 5386SOL    HW227621   0.824   2.690   4.907 -0.4148  1.8132 -0.8938
 5387SOL     OW27622   3.871   4.444   0.503 -0.2077  0.1510 -0.2528
 5387SOL    HW127623   3.922   4.440   0.584  1.5542  1.2641 -1.3089
 5387SOL    HW227624   3.909   4.526   0.472 -0.9497  0.9162  0.8562
 5388SOL     OW27625   0.565   2.475  10.348 -0.2597  0.4291  0.2158
 5388SOL    HW127626   0.543   2.500  10.258  2.2502  0.4030 -0.3923
 5388SOL    HW227627   0.508   2.546  10.379 -0.3416  0.7336 -0.6190
 5389SOL     OW27628   1.054   0.914   5.522 -0.0557 -0.1006  0.1109
 5389SOL    HW127629   1.071   1.000   5.561  3.4386 -1.1078  0.7798
 5389SOL    HW227630   1.139   0.889   5.486 -1.5797  0.5211 -3.9026
 5390SOL     OW27631   2.815   0.637   4.561  0.0103  0.0810  0.2614
 5390SOL    HW127632   2.907   0.617   4.583  0.2718  0.0415 -0.8708
 5390SOL    HW227633   2.772   0.557   4.590 -1.1832  0.6919  0.1454
 5391SOL     OW27634   1.772   4.188   3.871  0.0574  0.4233  0.0901
 5391SOL    HW127635   1.740   4.254   3.809 -1.2318 -1.8991 -1.7385
 5391SOL    HW227636   1.721   4.118   3.831  0.2450  1.0486 -1.2560
 5392SOL     OW27637   1.612   3.780   7.147  0.4620  0.1460 -0.1863
 5392SOL    HW127638   1.687   3.734   7.184  2.0707  1.5672 -1.6783
 5392SOL    HW227639   1.570   3.705   7.104 -1.3514  1.0329  0.0325
 5393SOL     OW27640   4.637   3.170   2.942 -0.1166  0.0715 -0.2187
 5393SOL    HW127641   4.577   3.120   2.885  3.1420 -0.0491 -3.5592
 5393SOL    HW227642   4.682   3.223   2.876  2.3992 -0.6796  0.8958
 5394SOL     OW27643   0.932   3.579   6.973 -0.3464 -0.1506 -0.3566
 5394SOL    HW127644   1.010   3.617   6.933  0.4260  1.2492  2.4850
 5394SOL    HW227645   0.889   3.544   6.895 -2.1201  1.3003 -0.0075
 5395SOL     OW27646   2.824   1.561  16.553  0.3431  0.7150  0.2405
 5395SOL    HW127647   2.804   1.644  16.596 -0.3850  0.9337 -0.5215
 5395SOL    HW227648   2.843   1.509  16.631  1.6893  0.0275 -0.5494
 5396SOL     OW27649   3.977   1.079  14.720 -0.4537 -0.0629  0.0698
 5396SOL    HW127650   4.064   1.072  14.762 -2.0273 -0.3095  3.3226
 5396SOL    HW227651   3.963   0.993  14.681  1.0589 -1.1583  1.8825
 5397SOL     OW27652   2.357   1.078   2.004 -0.1770 -0.4700  0.3070
 5397SOL    HW127653   2.426   1.019   2.032  2.6478  2.2875 -0.9020
 5397SOL    HW227654   2.382   1.156   2.054  0.9404  0.6657 -2.0124
 5398SOL     OW27655   1.520   4.199  11.836 -0.2552 -0.4621  0.5515
 5398SOL    HW127656   1.557   4.130  11.782  1.3113 -0.1420  1.2124
 5398SOL    HW227657   1.444   4.152  11.871  0.0188 -0.9740  0.4520
 5399SOL     OW27658   0.945   2.422   6.583  0.2221  0.3257  0.6499
 5399SOL    HW127659   0.993   2.496   6.546  0.8494 -0.0719  0.6672
 5399SOL    HW227660   1.014   2.391   6.642  0.8251 -1.2191 -0.8695
 5400SOL     OW27661   3.665   1.105   2.830 -0.4754 -0.0218  0.8241
 5400SOL    HW127662   3.611   1.107   2.750 -0.0259  0.2976  0.5300
 5400SOL    HW227663   3.747   1.073   2.793 -1.0212 -1.4789  0.8409
 5401SOL     OW27664   2.824   0.667   2.363 -0.1363 -0.5078  0.3112
 5401SOL    HW127665   2.912   0.632   2.378  1.0855  1.9780 -1.1974
 5401SOL    HW227666   2.828   0.682   2.269  0.6415  0.0709  0.4346
 5402SOL     OW27667   3.003   1.264   2.775 -0.1845  0.1707  0.0910
 5402SOL    HW127668   3.088   1.273   2.817  1.1325 -2.0760 -2.1057
 5402SOL    HW227669   2.976   1.353   2.752  0.3068  0.1230 -0.6593
 5403SOL     OW27670   1.946   2.309   9.707 -0.3538 -0.2643  0.0113
 5403SOL    HW127671   1.997   2.386   9.734  0.2190 -1.1244  1.3908
 5403SOL    HW227672   1.969   2.244   9.773 -0.0654  0.4020  0.5652
 5404SOL     OW27673   1.673   0.724   3.689  0.0283 -0.6925 -0.1533
 5404SOL    HW127674   1.642   0.783   3.620 -2.0564 -1.8670 -0.2224
 5404SOL    HW227675   1.668   0.636   3.652 -0.8084 -0.4022 -0.7244
 5405SOL     OW27676   2.391   2.499   4.693  0.1219 -0.7156  0.3337
 5405SOL    HW127677   2.303   2.480   4.663  0.3798  0.3508 -1.1373
 5405SOL    HW227678   2.444   2.508   4.614  1.0977 -0.1586  1.0502
 5406SOL     OW27679   2.335   0.462   0.356 -0.1014 -0.1386 -0.7204
 5406SOL    HW127680   2.273   0.430   0.290 -0.6625  1.4381 -0.9569
 5406SOL    HW227681   2.292   0.544   0.379  0.8292  0.9169 -2.7413
 5407SOL     OW27682   2.966   0.043   0.351 -0.0871 -0.4289  0.2214
 5407SOL    HW127683   2.916   0.116   0.313  1.0590  0.6065  0.7182
 5407SOL    HW227684   2.890   0.002   0.391 -1.2049  0.9845 -0.4585
 5408SOL     OW27685   1.362   4.066   2.229  0.8494 -0.1745  0.4609
 5408SOL    HW127686   1.361   4.148   2.278 -0.0744 -0.4201  0.8548
 5408SOL    HW227687   1.285   4.075   2.173  1.0685  0.1983  0.2219
 5409SOL     OW27688   3.633   3.330   2.009  0.5647  0.2149 -0.8744
 5409SOL    HW127689   3.690   3.299   2.080  0.2045  0.9256 -0.2660
 5409SOL    HW227690   3.596   3.409   2.049 -0.3380  0.0747 -1.4474
 5410SOL     OW27691   0.921   0.603   5.798  0.3260 -0.2861  0.6863
 5410SOL    HW127692   0.846   0.560   5.839  0.8636  0.1881  2.1923
 5410SOL    HW227693   0.874   0.637   5.722  2.9196  0.1729 -0.7098
 5411SOL     OW27694   3.091   3.270  15.896 -0.6272  0.1631 -0.0939
 5411SOL    HW127695   3.103   3.251  15.989  0.8878  0.9511 -0.1339
 5411SOL    HW227696   3.015   3.328  15.900 -1.3099 -1.0204  4.3166
 5412SOL     OW27697   1.617   4.355   7.423  0.4637 -0.1215 -0.0443
 5412SOL    HW127698   1.606   4.260   7.433 -1.0568  0.0924  0.2846
 5412SOL    HW227699   1.528   4.388   7.411  0.2329 -0.3969  0.9123
 5413SOL     OW27700   2.569   3.873   8.044  0.6514 -0.0357 -0.1142
 5413SOL    HW127701   2.654   3.913   8.065  1.8564 -2.0147 -1.2177
 5413SOL    HW227702   2.564   3.806   8.112  1.0378 -0.2082 -0.2528
 5414SOL     OW27703   0.281   2.834  16.149  0.0832  0.5108 -0.5283
 5414SOL    HW127704   0.220   2.770  16.183  1.7002 -1.1357 -0.7408
 5414SOL    HW227705   0.226   2.903  16.112 -1.1256  0.5473  1.3592
 5415SOL     OW27706   2.999   2.431   6.981 -0.0300  0.1445 -0.1986
 5415SOL    HW127707   3.044   2.503   6.937 -1.7806  2.6391  2.0944
 5415SOL    HW227708   2.992   2.364   6.914  0.3855  0.4271 -0.5202
 5416SOL     OW27709   3.089   1.521   3.014 -0.4497  0.1397 -0.6086
 5416SOL    HW127710   3.140   1.600   2.998  0.4171 -0.2488  0.2410
 5416SOL    HW227711   3.155   1.460   3.047 -0.2577 -0.3984 -1.9652
 5417SOL     OW27712   2.048   2.701   4.453 -0.2227 -0.4807 -0.2822
 5417SOL    HW127713   1.976   2.639   4.453 -0.1774 -0.5335 -0.2708
 5417SOL    HW227714   2.008   2.777   4.495 -0.8224 -1.2713  0.5770
 5418SOL     OW27715   1.931   1.967   6.300 -0.4207  0.0517  0.2890
 5418SOL    HW127716   1.908   2.023   6.226  0.3591  1.3301  1.0223
 5418SOL    HW227717   1.926   2.017   6.382  0.5573 -1.8110  1.4977
 5419SOL     OW27718   2.860   1.056   7.601 -0.5178  0.7649  0.6620
 5419SOL    HW127719   2.894   1.123   7.541 -0.1391 -0.1653 -0.1514
 5419SOL    HW227720   2.766   1.054   7.581 -0.3896 -0.2030  0.1693
 5420SOL     OW27721   1.069   4.615   3.529 -0.6818 -0.5711 -0.3149
 5420SOL    HW127722   1.098   4.583   3.615  1.5572 -1.0818 -1.2514
 5420SOL    HW227723   1.148   4.618   3.474 -0.0071  0.7573  0.7323
 5421SOL     OW27724   3.955   0.707   2.882  0.1164  0.3036 -0.0413
 5421SOL    HW127725   3.987   0.630   2.835 -0.9237  0.4502 -0.9658
 5421SOL    HW227726   3.873   0.671   2.914 -0.8498  1.8595 -0.7866
 5422SOL     OW27727   0.235   3.862   5.945 -0.0191 -0.1003 -0.6839
 5422SOL    HW127728   0.173   3.877   5.874 -0.9203  2.8888  0.7634
 5422SOL    HW227729   0.288   3.942   5.943  0.4333 -0.3298  1.4009
 5423SOL     OW27730   0.206   3.270   5.712  0.1399 -0.3513 -0.2080
 5423SOL    HW127731   0.191   3.364   5.708  2.0459 -0.0304  0.0012
 5423SOL    HW227732   0.276   3.264   5.776  0.1588  1.4023 -0.0588
 5424SOL     OW27733   1.123   3.446   4.975 -0.1692 -0.1105  0.2565
 5424SOL    HW127734   1.140   3.378   4.909  1.0660  0.0185  0.4443
 5424SOL    HW227735   1.196   3.502   4.948  0.0634 -0.9343 -0.8112
 5425SOL     OW27736   3.089   2.920   3.104  0.3044 -0.2850 -0.4836
 5425SOL    HW127737   3.027   2.993   3.103 -0.6699 -1.1277 -1.2865
 5425SOL    HW227738   3.105   2.911   3.198  1.0035 -1.6116 -0.7264
 5426SOL     OW27739   3.495   2.811   2.925  0.1461 -0.4000 -0.7440
 5426SOL    HW127740   3.481   2.717   2.919  0.3538 -0.3345 -2.1676
 5426SOL    HW227741   3.587   2.812   2.952  0.1327 -0.2236 -0.7029
 5427SOL     OW27742   3.386   3.288  11.442  0.4135  0.2961  0.1817
 5427SOL    HW127743   3.338   3.205  11.447  2.5664 -0.8322  2.4942
 5427SOL    HW227744   3.474   3.256  11.466  0.5222  1.0403  0.7652
 5428SOL     OW27745   4.087   4.625   7.072 -0.4602 -0.3762  0.9676
 5428SOL    HW127746   4.027   4.589   7.138 -0.2414  1.2207  2.0261
 5428SOL    HW227747   4.139   4.682   7.129 -0.0379 -0.0504  0.2562
 5429SOL     OW27748   2.329   4.228   4.343  0.4348 -0.7590 -0.0416
 5429SOL    HW127749   2.382   4.230   4.264  1.3442  0.6931  0.6095
 5429SOL    HW227750   2.258   4.288   4.316 -0.4725 -1.1660  1.4634
 5430SOL     OW27751   0.839   0.797   5.620 -0.0883  0.1012  0.2132
 5430SOL    HW127752   0.903   0.848   5.570  0.8502  0.3720  1.6914
 5430SOL    HW227753   0.758   0.846   5.605  0.4597  1.0464  0.3599
 5431SOL     OW27754   0.785   4.500  13.592  0.2882  0.3648  0.7000
 5431SOL    HW127755   0.855   4.540  13.642  1.6748 -1.1045 -0.0865
 5431SOL    HW227756   0.709   4.500  13.650  1.1770 -0.3017  1.8505
 5432SOL     OW27757   1.408   1.368   8.321 -0.0493  0.0457 -0.8660
 5432SOL    HW127758   1.363   1.350   8.404  0.2513  1.7811 -0.3226
 5432SOL    HW227759   1.356   1.321   8.255  1.5467  0.8872 -2.7206
 5433SOL     OW27760   3.756   1.105   6.989  0.5594 -0.1444 -0.0562
 5433SOL    HW127761   3.769   1.034   6.926  1.9548 -0.9613  1.1367
 5433SOL    HW227762   3.660   1.114   6.990  0.7405  1.8269 -0.6944
 5434SOL     OW27763   1.628   1.902   1.688 -0.1796 -0.4771 -0.6802
 5434SOL    HW127764   1.535   1.921   1.676  0.0588  1.3135  0.2889
 5434SOL    HW227765   1.645   1.912   1.782 -0.0967  1.7137 -0.9407
 5435SOL     OW27766   0.678   0.638   7.151 -0.1312 -0.2529 -0.6220
 5435SOL    HW127767   0.685   0.550   7.190  0.7695  0.2253  0.3029
 5435SOL    HW227768   0.604   0.686   7.188 -0.7603 -1.1749 -0.6895
 5436SOL     OW27769   4.328   3.364   7.089 -0.6963  0.6141  0.0184
 5436SOL    HW127770   4.301   3.402   7.174 -0.1715 -2.1262  1.4014
 5436SOL    HW227771   4.382   3.434   7.053 -0.0519 -0.2289 -0.6490
 5437SOL     OW27772   0.543   0.455   7.999 -0.0298  0.3184 -0.6241
 5437SOL    HW127773   0.544   0.480   8.092  0.8567 -0.7246 -0.3558
 5437SOL    HW227774   0.564   0.362   8.001  0.8832  0.5393 -0.1802
 5438SOL     OW27775   3.167   3.614   3.542 -0.0520  0.3602 -0.2387
 5438SOL    HW127776   3.231   3.546   3.561 -0.8460  0.0032  1.1795
 5438SOL    HW227777   3.219   3.694   3.543 -1.8654  1.5344  1.7125
 5439SOL     OW27778   4.557   4.671   7.443  0.1790 -0.6219 -0.2809
 5439SOL    HW127779   4.626   4.691   7.379 -1.5685  0.1524 -1.9383
 5439SOL    HW227780   4.490   0.002   7.402 -1.0729 -2.0053 -0.0914
 5440SOL     OW27781   2.354   1.137   3.524 -0.4739 -0.4295  0.1864
 5440SOL    HW127782   2.296   1.156   3.450 -0.1524 -1.2702 -0.2835
 5440SOL    HW227783   2.288   1.110   3.588 -0.0689  0.9667  1.1910
 5441SOL     OW27784   4.315   3.633   7.494  0.0029 -0.0201  0.0519
 5441SOL    HW127785   4.272   3.552   7.521  0.4912 -1.2683 -2.8722
 5441SOL    HW227786   4.326   3.676   7.579 -0.4993  3.0071 -1.4198
 5442SOL     OW27787   2.978   3.891  16.648 -0.1062  0.2111  0.2441
 5442SOL    HW127788   2.990   3.858  16.559 -0.3042 -0.3587  0.4277
 5442SOL    HW227789   2.941   3.818  16.698 -1.2391 -0.2681 -1.3105
 5443SOL     OW27790   2.546   3.038   5.759 -0.3391 -0.1638  0.7698
 5443SOL    HW127791   2.469   3.094   5.745  1.5949  2.1795 -0.3759
 5443SOL    HW227792   2.625   3.085   5.736 -0.9663  0.6637  0.2968
 5444SOL     OW27793   1.130   4.723   4.429  0.3721 -0.4552  0.1249
 5444SOL    HW127794   1.194   0.004   4.358  0.8084 -0.3329  0.5295
 5444SOL    HW227795   1.106   0.092   4.424  1.4280 -0.2748 -1.5505
 5445SOL     OW27796   0.460   1.888   7.741  0.1435  0.1938  0.1290
 5445SOL    HW127797   0.426   1.972   7.771  1.2727  0.5249  0.4565
 5445SOL    HW227798   0.375   1.848   7.720  1.5791 -1.9144 -1.6021
 5446SOL     OW27799   0.572   0.422  15.944  0.1862  0.6292  0.1428
 5446SOL    HW127800   0.589   0.429  15.850 -1.1392  1.8686 -0.0103
 5446SOL    HW227801   0.543   0.332  15.955  1.1428  0.3252  0.1301
 5447SOL     OW27802   4.184   2.337  13.062 -1.1129  0.3180 -0.0481
 5447SOL    HW127803   4.107   2.364  13.111 -0.0590  2.1045  0.6143
 5447SOL    HW227804   4.147   2.275  12.998 -0.1878 -1.1361  0.8173
 5448SOL     OW27805   4.529   1.543   7.662 -0.6672  0.0826 -0.4862
 5448SOL    HW127806   4.440   1.567   7.636 -0.4763  1.0708 -0.2574
 5448SOL    HW227807   4.497   1.488   7.734 -0.1184 -0.8801 -0.9760
 5449SOL     OW27808   4.486   1.312   7.021  0.0388 -0.7834 -0.4662
 5449SOL    HW127809   4.395   1.322   7.048  0.2589  1.1252 -0.4086
 5449SOL    HW227810   4.534   1.345   7.097 -1.2652  2.0230 -0.8648
 5450SOL     OW27811   2.577   1.731   4.832  0.1753  0.5557  0.5754
 5450SOL    HW127812   2.574   1.759   4.740  0.4597 -0.2403  0.3249
 5450SOL    HW227813   2.609   1.642   4.839 -0.2689  0.5166  2.1440
 5451SOL     OW27814   1.749   0.513  17.405 -0.1792 -0.2272 -0.5525
 5451SOL    HW127815   1.686   0.450  17.370 -1.5162  1.0975 -0.5237
 5451SOL    HW227816   1.826   0.456  17.401 -0.1297 -0.1291 -1.0925
 5452SOL     OW27817   3.957   3.850  15.921 -0.2572 -0.6775  0.3839
 5452SOL    HW127818   3.877   3.797  15.924 -0.3042 -0.6873 -1.0680
 5452SOL    HW227819   3.937   3.922  15.982  0.4660 -0.0471 -0.1220
 5453SOL     OW27820   0.408   1.115   9.992  0.4502 -0.1382 -0.3699
 5453SOL    HW127821   0.419   1.113   9.897 -0.4559 -0.6994 -0.4729
 5453SOL    HW227822   0.403   1.021  10.009 -1.1920  0.0007 -0.0805
 5454SOL     OW27823   4.170   4.436   8.776  0.0195  0.0099  0.0394
 5454SOL    HW127824   4.219   4.461   8.698 -0.4944 -0.5098 -0.4606
 5454SOL    HW227825   4.091   4.406   8.730 -0.9743  1.2025  0.9677
 5455SOL     OW27826   2.744   1.810   2.289  0.4497 -0.0583  0.1344
 5455SOL    HW127827   2.708   1.831   2.375 -1.4470  1.2969 -0.9902
 5455SOL    HW227828   2.763   1.899   2.261  0.4489 -0.4906 -1.2605
 5456SOL     OW27829   0.700   1.419   3.893  0.0631 -0.4166  0.6945
 5456SOL    HW127830   0.664   1.366   3.822 -5.4715  0.3843  2.8711
 5456SOL    HW227831   0.622   1.427   3.948 -1.6982  0.6341 -1.9994
 5457SOL     OW27832   0.406   2.116   5.186  0.0407 -0.5256  0.3759
 5457SOL    HW127833   0.496   2.096   5.158 -0.4891 -0.7905 -1.1521
 5457SOL    HW227834   0.407   2.211   5.192  0.6194 -0.4992 -0.1033
 5458SOL     OW27835   0.572   1.692   8.058  0.0614 -0.3640 -0.2432
 5458SOL    HW127836   0.516   1.764   8.088  1.4954  0.6406 -0.0164
 5458SOL    HW227837   0.549   1.694   7.965 -0.1955  1.3951 -0.1441
 5459SOL     OW27838   0.193   0.131   3.474  0.1514 -0.5105 -0.5428
 5459SOL    HW127839   0.160   0.187   3.403  1.9294 -0.0168 -0.9812
 5459SOL    HW227840   0.285   0.124   3.450  0.5958  1.7658  0.4407
 5460SOL     OW27841   2.543   2.698   8.115 -0.2355 -0.1019 -0.0227
 5460SOL    HW127842   2.599   2.739   8.049 -2.0987 -0.2062 -1.6692
 5460SOL    HW227843   2.456   2.731   8.095  1.1867  1.3428 -3.9306
 5461SOL     OW27844   0.743   0.766   3.964 -0.1347 -0.8858  0.0120
 5461SOL    HW127845   0.758   0.724   4.050  0.2642 -0.5139  0.1245
 5461SOL    HW227846   0.652   0.737   3.960 -0.6183  0.5053  1.2083
 5462SOL     OW27847   4.352   1.353   5.897  0.7812  0.0452 -0.4297
 5462SOL    HW127848   4.256   1.353   5.888  0.5416  2.3094  2.3559
 5462SOL    HW227849   4.369   1.447   5.898  1.8025 -0.1367 -1.0635
 5463SOL     OW27850   1.079   3.089   1.840 -0.6015  0.2106 -0.3472
 5463SOL    HW127851   1.061   3.004   1.799  0.1536  0.9627 -2.2090
 5463SOL    HW227852   0.998   3.117   1.883 -1.7396 -3.5773  0.0490
 5464SOL     OW27853   0.353   2.848   3.576 -0.2968  0.2893  1.2405
 5464SOL    HW127854   0.331   2.891   3.494 -0.1192 -1.2417  0.3839
 5464SOL    HW227855   0.315   2.763   3.556 -0.7619  0.8748 -0.3751
 5465SOL     OW27856   2.682   2.758   7.375  0.5912 -0.1383  0.0380
 5465SOL    HW127857   2.698   2.815   7.451 -1.2710  1.2732 -0.6184
 5465SOL    HW227858   2.663   2.823   7.307  1.3645  1.6792  1.5375
 5466SOL     OW27859   3.876   2.037   8.164  0.3174 -0.2570 -0.4090
 5466SOL    HW127860   3.845   2.043   8.254 -0.7498 -0.0325 -0.7820
 5466SOL    HW227861   3.841   1.951   8.138 -0.1947  0.7073 -2.8933
 5467SOL     OW27862   1.001   3.522  12.873 -0.5173 -0.6631 -0.0849
 5467SOL    HW127863   0.953   3.588  12.824 -0.9341 -0.5997  0.4122
 5467SOL    HW227864   0.990   3.534  12.967 -0.2510  2.5391 -0.4433
 5468SOL     OW27865   0.384   3.095  16.508  0.2607 -0.2650 -0.0126
 5468SOL    HW127866   0.423   3.118  16.592 -0.3528  0.2078  0.1337
 5468SOL    HW227867   0.292   3.111  16.529  0.3529 -2.1900  1.7897
 5469SOL     OW27868   3.956   1.550  13.692 -0.2957 -0.2211  0.3005
 5469SOL    HW127869   3.997   1.590  13.615 -0.9786  1.1578  0.6498
 5469SOL    HW227870   3.874   1.598  13.706 -0.4270 -0.5003  0.4698
 5470SOL     OW27871   4.166   0.050   6.665  0.0316  0.3064 -0.4793
 5470SOL    HW127872   4.248   0.004   6.647 -0.5168 -0.6885 -0.4216
 5470SOL    HW227873   4.195   0.131   6.624 -0.9655  1.2887  0.7608
 5471SOL     OW27874   2.134   0.988  11.835 -0.4648 -0.2823  0.1313
 5471SOL    HW127875   2.163   1.079  11.836 -1.1663 -0.0609  1.4601
 5471SOL    HW227876   2.108   0.970  11.745  2.1806 -1.1195 -0.4597
 5472SOL     OW27877   0.610   4.053   3.977  0.1377 -0.2269 -0.7890
 5472SOL    HW127878   0.580   4.035   4.066  0.2069 -0.6432 -0.8505
 5472SOL    HW227879   0.522   4.051   3.939 -0.6958  1.5068  1.0566
 5473SOL     OW27880   1.999   0.892   6.795 -0.1971  0.2392 -0.3079
 5473SOL    HW127881   1.975   0.833   6.724  1.1390 -1.1002  0.3723
 5473SOL    HW227882   2.073   0.939   6.754  1.4181 -1.2795  0.8914
 5474SOL     OW27883   0.030   1.604   5.067  0.1291  0.2081  0.1406
 5474SOL    HW127884   0.068   1.632   4.983  0.1562 -2.7881 -0.8548
 5474SOL    HW227885   0.021   1.683   5.121 -1.2485  0.0856  0.1055
 5475SOL     OW27886   1.458   1.028   3.095 -0.2502  0.3393 -0.5302
 5475SOL    HW127887   1.502   1.096   3.146  1.0208 -1.2642  0.5212
 5475SOL    HW227888   1.454   0.961   3.164 -0.1795  1.9813  1.0775
 5476SOL     OW27889   1.471   2.267  15.425 -0.5535  0.0055  0.4297
 5476SOL    HW127890   1.394   2.291  15.374  0.9344  0.5484 -1.5469
 5476SOL    HW227891   1.481   2.345  15.480  2.2125 -0.7246  0.9999
 5477SOL     OW27892   1.974   4.091   2.911 -0.4224 -0.1803 -0.1733
 5477SOL    HW127893   1.971   4.108   3.005  2.7169  1.2241 -0.3338
 5477SOL    HW227894   1.889   4.049   2.902  0.0100 -1.2194  0.5789
 5478SOL     OW27895   2.641   1.602   1.667  0.2620 -0.4604  0.3665
 5478SOL    HW127896   2.724   1.555   1.671  0.5850 -0.0375 -1.6440
 5478SOL    HW227897   2.583   1.535   1.631 -1.6307  0.7909  1.0648
 5479SOL     OW27898   4.651   0.877   9.921  0.2936 -0.1915 -0.1205
 5479SOL    HW127899   0.003   0.861   9.978  0.2974  1.2278  0.2601
 5479SOL    HW227900   4.698   0.926   9.854  0.8319  0.5190  0.7879
 5480SOL     OW27901   3.111   0.892   4.521 -0.6962 -0.0758  0.0522
 5480SOL    HW127902   3.138   0.908   4.430  1.0458  1.6449  0.8667
 5480SOL    HW227903   3.077   0.802   4.521  1.4653 -0.8908  2.7175
 5481SOL     OW27904   3.780   2.789   7.261 -0.8160 -0.5692 -0.0237
 5481SOL    HW127905   3.685   2.786   7.269 -0.7563  1.3807  1.4805
 5481SOL    HW227906   3.792   2.851   7.189  1.2061 -0.3947  0.4590
 5482SOL     OW27907   1.629   3.111   5.880 -0.0806  0.0038 -0.2327
 5482SOL    HW127908   1.617   3.164   5.802 -0.6985  0.7519  0.3616
 5482SOL    HW227909   1.725   3.112   5.883 -0.1009  1.7615  0.2919
 5483SOL     OW27910   2.970   2.465   2.565  0.1442  0.3953 -0.7156
 5483SOL    HW127911   2.943   2.384   2.608  0.6127 -0.5988 -2.2835
 5483SOL    HW227912   2.898   2.523   2.587 -0.0556 -0.0541 -0.2130
 5484SOL     OW27913   1.836   4.547  15.292  0.0544  0.5001  0.1363
 5484SOL    HW127914   1.914   4.516  15.246  0.3529  1.3309  0.0766
 5484SOL    HW227915   1.783   4.469  15.279  1.4576 -0.4503  0.0931
 5485SOL     OW27916   0.794   0.321   7.571 -0.2282  0.2507  0.1564
 5485SOL    HW127917   0.882   0.334   7.607 -0.4687  1.3346  0.3631
 5485SOL    HW227918   0.792   0.226   7.562 -0.8854  0.3269 -0.5372
 5486SOL     OW27919   1.532   2.263   5.345  0.0724  0.2337 -0.4098
 5486SOL    HW127920   1.497   2.177   5.321 -2.1758  1.1904 -0.4924
 5486SOL    HW227921   1.456   2.300   5.388  0.9443  0.7737  0.6794
 5487SOL     OW27922   0.232   2.177   3.860  0.0400  0.2190  0.2608
 5487SOL    HW127923   0.209   2.112   3.925  0.3613 -0.0660  0.0847
 5487SOL    HW227924   0.241   2.253   3.917  0.1905  2.1149 -2.2458
 5488SOL     OW27925   1.391   3.152  14.962  0.0810  0.5464  1.2231
 5488SOL    HW127926   1.304   3.188  14.941 -0.1415 -1.4077 -1.2551
 5488SOL    HW227927   1.439   3.235  14.969 -1.2268  1.4057  0.0994
 5489SOL     OW27928   0.857   3.095   8.697  0.0561 -0.1055  0.8572
 5489SOL    HW127929   0.792   3.081   8.765 -0.9795  0.9635  0.0909
 5489SOL    HW227930   0.917   3.020   8.697 -0.0632 -0.1912 -1.6676
 5490SOL     OW27931   4.341   4.253   9.116  0.9454 -0.5815 -0.1582
 5490SOL    HW127932   4.364   4.177   9.062  0.4443  0.9902 -2.6157
 5490SOL    HW227933   4.268   4.221   9.169 -0.4565 -0.4306 -1.9671
 5491SOL     OW27934   1.067   2.096   6.986  0.6158  0.0136 -0.6133
 5491SOL    HW127935   1.114   2.079   7.068 -2.2463  0.7227  1.1412
 5491SOL    HW227936   1.021   2.178   7.001 -0.5801 -0.6170 -0.8790
 5492SOL     OW27937   4.613   0.940   6.044 -0.3322 -0.2652 -0.3655
 5492SOL    HW127938   4.628   0.961   5.952 -2.0367 -0.4698 -0.6811
 5492SOL    HW227939   4.583   1.025   6.076 -0.3095 -0.0840 -0.8168
 5493SOL     OW27940   3.241   4.432   0.991  0.6350 -0.5670  0.0371
 5493SOL    HW127941   3.266   4.350   1.033 -1.6342 -0.2026  2.0827
 5493SOL    HW227942   3.309   4.436   0.923 -0.4747  1.8003 -0.9385
 5494SOL     OW27943   3.189   4.710   6.310  0.3951 -0.0343 -0.7626
 5494SOL    HW127944   3.170   4.709   6.404  2.0447 -0.4658 -0.4393
 5494SOL    HW227945   3.174   4.619   6.284  2.1735  0.1332 -2.4009
 5495SOL     OW27946   3.289   1.732   7.149  0.2784  0.6392  0.1618
 5495SOL    HW127947   3.278   1.764   7.239 -1.6518 -0.1433  0.2085
 5495SOL    HW227948   3.207   1.766   7.114  0.2990  0.0455 -0.4693
 5496SOL     OW27949   0.009   1.930   5.784 -0.1224  0.2560 -0.4676
 5496SOL    HW127950   0.005   2.025   5.771  0.4411  0.1394 -1.5090
 5496SOL    HW227951   0.105   1.927   5.790 -0.1984 -1.6061 -0.2212
 5497SOL     OW27952   2.601   4.377   1.728 -0.2606 -0.2954  0.0774
 5497SOL    HW127953   2.553   4.411   1.804 -0.5728 -1.1563  0.2669
 5497SOL    HW227954   2.673   4.437   1.710 -0.9389  0.4465 -0.1492
 5498SOL     OW27955   2.944   2.112   5.097  0.0310 -0.3288  0.6172
 5498SOL    HW127956   3.005   2.050   5.137  0.4509  1.0796  2.1960
 5498SOL    HW227957   2.894   2.051   5.043 -1.5238  0.2213  1.4116
 5499SOL     OW27958   4.530   4.505   8.298  0.6560  0.2257  0.2647
 5499SOL    HW127959   4.516   4.459   8.381 -2.6349  0.2421 -0.2553
 5499SOL    HW227960   4.584   4.446   8.246 -0.6445 -0.8079  0.0746
 5500SOL     OW27961   2.805   1.416  10.421  0.6879 -0.2924  0.1781
 5500SOL    HW127962   2.879   1.354  10.418 -0.3618 -1.5759  0.9600
 5500SOL    HW227963   2.798   1.429  10.515 -1.0273  1.2453 -0.1536
 5501SOL     OW27964   3.998   1.557  11.761  0.3988 -0.0321  0.9136
 5501SOL    HW127965   4.020   1.635  11.712 -1.0957 -0.2581 -0.1283
 5501SOL    HW227966   4.057   1.495  11.718 -1.4045 -0.9627 -0.2108
 5502SOL     OW27967   1.248   3.150   8.051  0.4673 -0.3997  0.1463
 5502SOL    HW127968   1.239   3.241   8.023 -0.2386 -0.0661  1.4752
 5502SOL    HW227969   1.283   3.169   8.137 -1.1896 -0.9175  0.9402
 5503SOL     OW27970   2.773   2.955  10.622 -0.0035  0.2558 -0.4655
 5503SOL    HW127971   2.734   3.000  10.547  0.4486 -0.3449 -1.0569
 5503SOL    HW227972   2.782   2.861  10.607 -2.6947 -0.1705  0.6343
 5504SOL     OW27973   4.610   0.652   5.300 -0.1219 -0.2371  0.0174
 5504SOL    HW127974   4.578   0.713   5.367  0.6028  1.1686 -0.9288
 5504SOL    HW227975   4.687   0.628   5.351 -1.4052  0.9628  2.5281
 5505SOL     OW27976   2.834   2.020   6.274 -0.0277  0.2778 -0.1066
 5505SOL    HW127977   2.757   1.968   6.251  0.7439 -1.4014  1.0139
 5505SOL    HW227978   2.787   2.085   6.326  0.8103 -1.1047  2.4033
 5506SOL     OW27979   4.173   4.654   1.252  0.3656  0.2400 -0.2851
 5506SOL    HW127980   4.172   4.645   1.348  1.9624  0.0510 -0.2905
 5506SOL    HW227981   4.143   0.021   1.244  1.3273  0.1524 -4.9505
 5507SOL     OW27982   3.772   0.183   4.634 -0.0860 -0.0403 -0.7137
 5507SOL    HW127983   3.786   0.268   4.676 -1.4648  0.5393 -1.4238
 5507SOL    HW227984   3.782   0.121   4.706  1.6449 -1.6086 -2.2974
 5508SOL     OW27985   0.181   3.106   2.542  0.2989  0.6369  0.4236
 5508SOL    HW127986   0.098   3.153   2.542 -0.0285  0.0727  1.9118
 5508SOL    HW227987   0.214   3.132   2.456 -1.0294 -0.8064 -0.5239
 5509SOL     OW27988   0.455   0.726   4.018 -0.4946 -0.3752  0.5547
 5509SOL    HW127989   0.398   0.727   3.940 -0.4405  0.2722  0.5167
 5509SOL    HW227990   0.417   0.649   4.059  0.3033 -0.4374  1.1797
 5510SOL     OW27991   0.308   1.517  16.320  0.2241 -0.2818 -0.9215
 5510SOL    HW127992   0.356   1.434  16.315 -0.8209 -0.9173 -0.3277
 5510SOL    HW227993   0.361   1.586  16.280 -2.1581  1.3553 -1.2260
 5511SOL     OW27994   2.549   0.973   7.792 -0.0605 -0.8862  0.4146
 5511SOL    HW127995   2.592   0.895   7.755 -0.2321 -0.5207 -0.5458
 5511SOL    HW227996   2.623   1.032   7.802 -0.5196 -0.4831  1.3711
 5512SOL     OW27997   2.821   2.066  15.346 -0.2939 -0.1117 -0.5637
 5512SOL    HW127998   2.838   2.160  15.357 -0.3948 -0.2434  0.8157
 5512SOL    HW227999   2.790   2.067  15.256 -2.4514 -2.4104  0.1621
 5513SOL     OW28000   2.603   2.598  16.400 -0.5101  0.1945  0.1125
 5513SOL    HW128001   2.638   2.617  16.487 -1.2473  2.5058 -0.1000
 5513SOL    HW228002   2.511   2.585  16.424 -0.9290  1.5227 -0.8134
 5514SOL     OW28003   1.643   0.306  15.311 -0.0254 -0.2486 -0.5930
 5514SOL    HW128004   1.683   0.219  15.307 -1.2055 -0.7509 -1.3925
 5514SOL    HW228005   1.626   0.322  15.218  2.5169  0.8433 -0.8980
 5515SOL     OW28006   1.158   3.475  14.432  0.8003  0.1613 -0.3236
 5515SOL    HW128007   1.166   3.556  14.482 -0.3513 -0.5041  0.9301
 5515SOL    HW228008   1.103   3.420  14.488 -0.8781  0.5039 -1.6339
 5516SOL     OW28009   4.421   1.918   8.349  0.0901  0.8113 -0.1854
 5516SOL    HW128010   4.403   1.960   8.433  2.0355  0.7067  0.2994
 5516SOL    HW228011   4.339   1.873   8.329 -0.9382  1.7657  1.9487
 5517SOL     OW28012   1.535   3.062   3.393  0.7783  0.6634  0.0193
 5517SOL    HW128013   1.584   2.982   3.409 -0.0432  0.3644  1.0214
 5517SOL    HW228014   1.594   3.083   3.320  1.4796 -0.5975  0.2361
 5518SOL     OW28015   1.988   0.586   2.814  0.5191 -0.2645 -0.1906
 5518SOL    HW128016   2.057   0.611   2.875 -0.5051  0.7896  0.5293
 5518SOL    HW228017   1.973   0.677   2.787 -2.0813  0.4302  3.6752
 5519SOL     OW28018   2.643   0.667  15.954  0.2299 -0.2383 -0.1595
 5519SOL    HW128019   2.657   0.591  15.897 -1.5671 -0.6130 -0.1013
 5519SOL    HW228020   2.696   0.731  15.906 -2.2168  1.1244 -1.0799
 5520SOL     OW28021   1.982   4.172   7.982 -0.4952 -0.1130  0.3959
 5520SOL    HW128022   1.970   4.181   8.077  2.0934  1.5645  0.5477
 5520SOL    HW228023   2.074   4.193   7.973 -0.3559 -0.3791  1.2019
 5521SOL     OW28024   1.490   2.684  11.506  0.5896  0.1021  0.1398
 5521SOL    HW128025   1.456   2.620  11.567  2.1608  0.0496  0.9545
 5521SOL    HW228026   1.444   2.764  11.532  0.6514  0.3246 -0.4163
 5522SOL     OW28027   3.567   1.471   5.982 -0.0361 -0.7813 -0.4242
 5522SOL    HW128028   3.603   1.448   6.067  0.8993  1.8353 -0.1123
 5522SOL    HW228029   3.558   1.387   5.938  1.8927 -0.9310 -0.5112
 5523SOL     OW28030   2.665   1.653   9.464 -0.3607  0.1802 -0.1710
 5523SOL    HW128031   2.720   1.581   9.436 -1.1332 -0.0285 -1.1495
 5523SOL    HW228032   2.692   1.725   9.407 -1.0980  1.5228  1.1613
 5524SOL     OW28033   0.284   4.247   9.194  0.3533 -0.2872 -0.2416
 5524SOL    HW128034   0.260   4.339   9.200 -1.9421 -0.7262 -2.7227
 5524SOL    HW228035   0.248   4.219   9.278  2.1804  0.2970  0.7497
 5525SOL     OW28036   4.604   3.085  15.715 -0.4126  0.0462 -0.0081
 5525SOL    HW128037   4.650   3.049  15.790  1.6399  2.3866 -0.1313
 5525SOL    HW228038   4.521   3.103  15.759 -1.9387 -1.8560 -2.0910
 5526SOL     OW28039   0.178   3.489   9.016 -0.2457  0.3847  0.1774
 5526SOL    HW128040   0.174   3.556   9.083  3.3010  0.0656  0.7161
 5526SOL    HW228041   0.215   3.410   9.056 -0.3677  0.9855  1.4564
 5527SOL     OW28042   3.264   1.933  10.213 -0.1126 -0.1196  0.0781
 5527SOL    HW128043   3.250   2.013  10.264  0.4024 -1.5942  2.5302
 5527SOL    HW228044   3.176   1.909  10.185  1.1311 -3.5836 -0.8593
 5528SOL     OW28045   4.083   0.078   6.400 -0.6248  0.2201  0.1057
 5528SOL    HW128046   4.058   0.064   6.308 -1.2863  2.8884 -0.1353
 5528SOL    HW228047   4.089   4.708   6.418 -0.4790  0.2048 -0.0191
 5529SOL     OW28048   4.680   4.701   5.544  0.2321  0.2305 -0.4493
 5529SOL    HW128049   4.620   4.716   5.616 -1.1741 -2.3818 -1.0588
 5529SOL    HW228050   0.009   4.632   5.585 -0.6487  0.0903  0.4473
 5530SOL     OW28051   0.889   0.444   4.015  0.6204 -0.2112  0.3443
 5530SOL    HW128052   0.956   0.503   4.049  1.5213 -0.8928 -0.2427
 5530SOL    HW228053   0.871   0.479   3.928 -2.1298  0.1383  1.0513
 5531SOL     OW28054   1.930   0.044  13.484 -0.0410  0.4828 -0.1152
 5531SOL    HW128055   1.966   0.046  13.573  0.1192  0.2969 -0.1769
 5531SOL    HW228056   2.013   0.025  13.439 -0.1709 -0.5278  0.0921
 5532SOL     OW28057   2.271   2.605   4.322 -0.3483 -0.2247 -0.0277
 5532SOL    HW128058   2.209   2.662   4.368  0.1201  0.2256  0.0483
 5532SOL    HW228059   2.335   2.669   4.291  0.9843 -0.5482  2.0781
 5533SOL     OW28060   4.341   4.214  15.675  0.0118  0.4539  0.0402
 5533SOL    HW128061   4.301   4.301  15.667  1.7525  1.3198  0.9384
 5533SOL    HW228062   4.391   4.228  15.755  1.5013  0.4942 -0.8994
 5534SOL     OW28063   4.168   0.988   3.304  0.6350 -0.6655 -0.0403
 5534SOL    HW128064   4.154   0.899   3.336 -0.9235 -0.7333 -0.8972
 5534SOL    HW228065   4.185   0.979   3.210  1.2248  0.7878 -0.0780
 5535SOL     OW28066   0.052   1.112   4.764  0.3859  0.3494  0.0960
 5535SOL    HW128067   0.040   1.125   4.670  3.6151  1.8806 -0.1049
 5535SOL    HW228068   4.714   1.178   4.797 -1.4185 -2.3895  2.1219
 5536SOL     OW28069   0.397   0.859  10.066 -0.0461 -0.3870 -0.1009
 5536SOL    HW128070   0.336   0.799  10.024 -0.8796  1.1254 -1.0372
 5536SOL    HW228071   0.468   0.803  10.095 -2.3946 -1.7321  3.0643
 5537SOL     OW28072   4.364   0.579   9.145 -0.3665  0.1769  0.2355
 5537SOL    HW128073   4.289   0.521   9.129 -1.8927  2.1658  0.2204
 5537SOL    HW228074   4.419   0.525   9.202 -1.4375 -1.4383 -0.2507
 5538SOL     OW28075   3.101   0.812   5.894  0.3498 -0.0633  0.0891
 5538SOL    HW128076   3.118   0.892   5.844  1.2572 -0.3700 -0.0926
 5538SOL    HW228077   3.007   0.819   5.911 -0.0637  1.5071 -2.8055
 5539SOL     OW28078   0.866   2.132   8.007 -0.3246 -0.4090  0.8798
 5539SOL    HW128079   0.913   2.083   8.074  0.4029  1.5539  1.7921
 5539SOL    HW228080   0.897   2.222   8.014 -2.1051  0.2521  0.1927
 5540SOL     OW28081   0.170   4.597   4.026  0.5274  0.2393 -0.3276
 5540SOL    HW128082   0.199   4.521   3.976 -2.5622  0.1783 -2.0124
 5540SOL    HW228083   0.249   4.650   4.019  1.4673 -0.9009  1.6747
 5541SOL     OW28084   2.052   3.946   4.953 -0.4482  0.0107 -0.3915
 5541SOL    HW128085   2.028   4.038   4.950  1.4716  0.5219 -0.0766
 5541SOL    HW228086   2.099   3.955   5.037  0.4541  0.6223 -0.9623
 5542SOL     OW28087   4.209   0.815  15.052  0.3995 -0.0876  1.2847
 5542SOL    HW128088   4.237   0.763  14.977 -0.0635  1.9871 -0.3130
 5542SOL    HW228089   4.115   0.797  15.051 -0.0005  2.1300 -0.4935
 5543SOL     OW28090   1.095   3.553  11.010  0.4826 -0.0965  0.5973
 5543SOL    HW128091   1.151   3.531  11.084  1.6728 -2.3044 -0.9331
 5543SOL    HW228092   1.058   3.466  10.993  0.3618 -0.1179  0.9716
 5544SOL     OW28093   2.858   4.092   9.680  1.0781  0.4230  0.3815
 5544SOL    HW128094   2.896   4.147   9.749 -0.8501  2.1153  0.0975
 5544SOL    HW228095   2.805   4.036   9.736  0.2377  1.4680  0.6419
 5545SOL     OW28096   0.903   2.321  15.806  0.0860 -0.4227  0.0509
 5545SOL    HW128097   0.893   2.226  15.810 -0.5888 -0.3808 -0.8489
 5545SOL    HW228098   0.915   2.335  15.712  0.9546 -0.2529  0.1910
 5546SOL     OW28099   4.114   4.082   8.635 -0.3260  0.5981 -0.1835
 5546SOL    HW128100   4.029   4.124   8.651 -1.5305 -1.4243 -1.3712
 5546SOL    HW228101   4.162   4.139   8.575 -1.2491 -0.4535 -1.8925
 5547SOL     OW28102   0.733   0.739   2.987 -0.9833 -0.6986 -0.3544
 5547SOL    HW128103   0.774   0.763   2.904 -1.8893 -1.0760 -0.9144
 5547SOL    HW228104   0.729   0.644   2.982 -2.9475 -0.4929 -2.6674
 5548SOL     OW28105   3.921   2.404  12.643 -0.1848  0.0414  0.4187
 5548SOL    HW128106   3.956   2.315  12.651 -0.8282 -0.1639  0.9386
 5548SOL    HW228107   3.927   2.451  12.726  1.5394  1.9747 -0.7733
 5549SOL     OW28108   3.498   1.934   5.982  0.1960  0.0676 -0.2732
 5549SOL    HW128109   3.561   1.867   5.955 -0.8164 -1.6679  1.7074
 5549SOL    HW228110   3.414   1.895   5.959 -0.2768 -0.5774  2.5315
 5550SOL     OW28111   2.303   1.309   2.439  0.3657  0.2769  0.1131
 5550SOL    HW128112   2.344   1.346   2.517  0.9315  2.6544 -1.3155
 5550SOL    HW228113   2.323   1.217   2.457 -2.4404 -0.1782  0.9133
 5551SOL     OW28114   4.305   1.184   7.876 -0.3903  0.3593 -0.3273
 5551SOL    HW128115   4.373   1.216   7.934 -0.6887 -1.0393  0.7997
 5551SOL    HW228116   4.347   1.161   7.793  1.0542  3.3475 -0.4056
 5552SOL     OW28117   3.632   2.001   9.739 -0.1034  0.1611  0.6208
 5552SOL    HW128118   3.710   2.020   9.792  0.3066 -1.4097  0.5872
 5552SOL    HW228119   3.627   1.906   9.754  0.3734  0.1515  0.7360
 5553SOL     OW28120   3.760   0.828   2.493 -0.1092 -0.5121  0.2653
 5553SOL    HW128121   3.795   0.742   2.517 -0.9607 -0.6412  1.0662
 5553SOL    HW228122   3.821   0.837   2.421  1.5536 -2.2724  1.4528
 5554SOL     OW28123   2.266   1.850   4.415 -0.0090 -0.1699 -0.0540
 5554SOL    HW128124   2.249   1.877   4.506  1.4593 -0.3090  0.2574
 5554SOL    HW228125   2.212   1.772   4.400  0.4668 -0.6267  0.5484
 5555SOL     OW28126   1.673   3.144   0.829 -0.0154 -0.5044  0.2749
 5555SOL    HW128127   1.755   3.181   0.862 -0.8409  0.8977  0.7596
 5555SOL    HW228128   1.702   3.123   0.741 -0.5636  0.3251 -0.0963
 5556SOL     OW28129   2.524   1.404   8.373 -0.1824 -0.2147 -0.1360
 5556SOL    HW128130   2.479   1.439   8.450 -0.0936 -0.2125 -0.0862
 5556SOL    HW228131   2.452   1.346   8.345  0.9310 -0.3425 -2.8018
 5557SOL     OW28132   0.201   4.103  11.205  0.3482 -0.1161  0.5075
 5557SOL    HW128133   0.162   4.147  11.130  0.3881  0.5758  0.8899
 5557SOL    HW228134   0.262   4.167  11.241  1.3357 -1.9101  2.0639
 5558SOL     OW28135   1.966   4.093  10.596 -0.5356 -0.2138  0.5363
 5558SOL    HW128136   1.881   4.062  10.565 -0.3903  0.2336 -0.3364
 5558SOL    HW228137   1.947   4.103  10.689  0.8396 -2.1370  1.0089
 5559SOL     OW28138   3.915   0.453   7.138 -0.1957 -0.0687  0.1874
 5559SOL    HW128139   3.983   0.494   7.085  0.5713 -0.6787  0.6893
 5559SOL    HW228140   3.933   0.495   7.223 -1.1468 -1.9110  1.2966
 5560SOL     OW28141   4.527   0.857   6.815 -0.1139 -0.4309  0.0028
 5560SOL    HW128142   4.502   0.898   6.898 -1.9424 -1.7733  0.1163
 5560SOL    HW228143   4.554   0.772   6.852 -0.9546 -1.1306 -0.9948
 5561SOL     OW28144   1.476   1.638   3.185  0.2131  0.0010  0.6868
 5561SOL    HW128145   1.393   1.595   3.209 -0.8651  2.0271  0.5727
 5561SOL    HW228146   1.534   1.562   3.195 -0.6027 -0.7246 -0.0263
 5562SOL     OW28147   3.631   3.570   5.446 -0.0581  0.0821  0.4087
 5562SOL    HW128148   3.681   3.495   5.413 -0.5832 -0.5424  1.0260
 5562SOL    HW228149   3.649   3.632   5.376 -0.9218  0.5542  0.6061
 5563SOL     OW28150   2.930   4.327   5.450  0.2874 -0.0893  0.1066
 5563SOL    HW128151   2.997   4.288   5.394  0.6430 -2.3697  2.1508
 5563SOL    HW228152   2.903   4.399   5.393  2.2532  0.4184 -0.1921
 5564SOL     OW28153   1.900   2.012  15.968 -0.1324  0.0569  0.5600
 5564SOL    HW128154   1.991   2.025  15.942  0.3414 -1.3850  1.4762
 5564SOL    HW228155   1.908   1.946  16.037 -0.7412 -0.1802  0.4017
 5565SOL     OW28156   0.147   4.018  16.033  0.4550  0.0457  0.3276
 5565SOL    HW128157   0.232   4.056  16.051  1.2077 -0.4377 -2.1458
 5565SOL    HW228158   0.114   4.064  15.956  0.0207  2.3253  1.8905
 5566SOL     OW28159   3.974   0.332   2.305  0.1036 -0.1094  0.3754
 5566SOL    HW128160   3.970   0.282   2.387  0.3405 -1.0920 -0.2238
 5566SOL    HW228161   4.009   0.414   2.342  0.6715 -1.0412  1.9064
 5567SOL     OW28162   4.090   0.840   8.217 -0.1629 -0.8995 -0.2350
 5567SOL    HW128163   4.026   0.910   8.230  1.1466  0.2396  0.0757
 5567SOL    HW228164   4.048   0.773   8.272  1.7744 -1.3908  0.6557
 5568SOL     OW28165   0.718   4.721   6.185 -0.0222  0.1635  0.1217
 5568SOL    HW128166   0.688   0.017   6.097  0.3466  1.5346  0.3061
 5568SOL    HW228167   0.681   4.636   6.209  0.5496 -0.5345 -1.5071
 5569SOL     OW28168   0.800   3.290   1.420 -0.1777  0.1122 -0.0501
 5569SOL    HW128169   0.845   3.349   1.360  1.8863 -1.8290 -0.4473
 5569SOL    HW228170   0.755   3.236   1.355  0.2276 -1.4947  1.0039
 5570SOL     OW28171   3.657   1.559   3.209 -0.3625  0.0191  0.3508
 5570SOL    HW128172   3.637   1.530   3.120  3.8413 -2.2517  0.1257
 5570SOL    HW228173   3.663   1.474   3.252 -1.8661  0.0100  0.5350
 5571SOL     OW28174   0.781   1.599   2.452 -0.0277 -0.0276 -0.1948
 5571SOL    HW128175   0.706   1.541   2.436 -0.0104  0.2974 -1.4489
 5571SOL    HW228176   0.738   1.676   2.414 -2.3135 -0.5659  1.3001
 5572SOL     OW28177   0.419   4.635  15.243 -0.0744 -0.0741  0.4110
 5572SOL    HW128178   0.498   4.679  15.210 -0.7169  0.2462 -0.7102
 5572SOL    HW228179   0.383   4.613  15.157  1.4750  1.6207 -0.6997
 5573SOL     OW28180   3.232   2.331   2.268 -0.6166  0.4872 -0.1431
 5573SOL    HW128181   3.317   2.352   2.230  0.3776 -1.4079  1.0755
 5573SOL    HW228182   3.187   2.286   2.196 -1.4573 -0.1006  0.7477
 5574SOL     OW28183   0.524   4.416  17.140 -0.2794  0.4867 -0.2368
 5574SOL    HW128184   0.533   4.431  17.234 -1.3946 -0.2156 -0.0178
 5574SOL    HW228185   0.579   4.481  17.097  1.1039 -0.3855  0.2138
 5575SOL     OW28186   2.055   1.117   4.308  0.4536  0.5554 -0.2468
 5575SOL    HW128187   2.007   1.052   4.258  1.0399  0.1180 -0.2408
 5575SOL    HW228188   2.140   1.074   4.319  0.2293  0.3432  0.6486
 5576SOL     OW28189   4.160   1.574  13.872  0.5524 -0.4880  0.2079
 5576SOL    HW128190   4.186   1.519  13.946  0.1703 -0.3437  0.4550
 5576SOL    HW228191   4.086   1.531  13.828 -0.8977 -0.0093  2.1586
 5577SOL     OW28192   2.397   0.329   7.975 -0.0932 -0.0365 -1.0311
 5577SOL    HW128193   2.473   0.272   7.992  1.0656  1.3573 -1.5692
 5577SOL    HW228194   2.341   0.298   8.047  0.2467 -1.2810 -1.2896
 5578SOL     OW28195   2.887   1.186   5.194  0.4287 -0.2152 -0.1963
 5578SOL    HW128196   2.876   1.125   5.121  1.3253 -2.3362  1.4353
 5578SOL    HW228197   2.823   1.151   5.255 -0.3929  0.5303 -0.6273
 5579SOL     OW28198   3.287   0.336   0.107  1.0689  0.1196 -0.3764
 5579SOL    HW128199   3.239   0.253   0.115 -0.0542  0.8543  0.3926
 5579SOL    HW228200   3.271   0.360   0.015  0.5784 -0.2889 -0.3987
 5580SOL     OW28201   2.219   4.201  10.035 -0.2741 -0.8293  0.0077
 5580SOL    HW128202   2.268   4.181   9.955 -1.9204  1.2039 -1.4979
 5580SOL    HW228203   2.143   4.247   9.999 -1.5569 -1.1059  2.3624
 5581SOL     OW28204   1.853   4.206  12.350  0.8550 -0.2231  0.1565
 5581SOL    HW128205   1.942   4.187  12.320  1.2076  0.4167  0.7956
 5581SOL    HW228206   1.803   4.200  12.268 -0.6039  4.0373  0.6961
 5582SOL     OW28207   1.712   2.070  15.732  0.3067  0.3340 -0.1262
 5582SOL    HW128208   1.667   2.154  15.745 -1.0836 -0.6053  1.1074
 5582SOL    HW228209   1.738   2.047  15.821  2.4966 -0.6352 -1.0303
 5583SOL     OW28210   3.207   2.595  13.215  0.3558  0.1898  0.2616
 5583SOL    HW128211   3.182   2.504  13.232 -0.9520  0.1267 -1.9481
 5583SOL    HW228212   3.274   2.574  13.149 -0.8432 -1.3887 -0.4640
 5584SOL     OW28213   1.669   4.588   0.228 -0.6420 -0.1391 -0.1023
 5584SOL    HW128214   1.728   4.658   0.200 -0.5876 -0.2894 -0.3664
 5584SOL    HW228215   1.617   4.631   0.296 -0.4512  1.0283 -0.6816
 5585SOL     OW28216   3.618   2.129  15.233  0.0502 -0.1503 -0.1844
 5585SOL    HW128217   3.673   2.150  15.158 -1.3954 -0.9010 -1.4440
 5585SOL    HW228218   3.679   2.131  15.307  0.5236  0.3164 -0.5915
 5586SOL     OW28219   0.754   4.025   4.426  0.1516  0.5530 -0.4597
 5586SOL    HW128220   0.813   3.949   4.424 -1.9717 -1.0974 -0.7240
 5586SOL    HW228221   0.783   4.063   4.509  1.3124 -1.1630 -0.0732
 5587SOL     OW28222   2.818   0.453   1.238  0.7292 -0.2300 -0.3251
 5587SOL    HW128223   2.762   0.411   1.173  1.1994 -2.4712  0.7119
 5587SOL    HW228224   2.802   0.400   1.316 -0.3800 -0.2438 -0.5622
 5588SOL     OW28225   3.659   2.345   5.996  0.0973  0.5985 -0.1268
 5588SOL    HW128226   3.565   2.344   5.976 -0.0136 -2.6878  0.6132
 5588SOL    HW228227   3.699   2.283   5.936 -1.5325 -0.1425 -0.4456
 5589SOL     OW28228   0.242   0.823  17.110  0.0785 -0.4048 -1.0731
 5589SOL    HW128229   0.252   0.749  17.050 -2.3936 -1.4716 -0.1676
 5589SOL    HW228230   0.166   0.789  17.157  0.1785 -1.7484 -1.8864
 5590SOL     OW28231   3.671   3.795   2.474  0.2167 -0.2606 -0.1610
 5590SOL    HW128232   3.717   3.849   2.410  0.9187  0.2287  0.7537
 5590SOL    HW228233   3.745   3.749   2.514  1.0770  0.6615 -0.6911
 5591SOL     OW28234   2.856   4.181  16.822 -0.2384 -0.0366  0.5134
 5591SOL    HW128235   2.852   4.276  16.810  1.2891  0.1677  1.5851
 5591SOL    HW228236   2.776   4.164  16.773 -0.3892  0.6736  0.5054
 5592SOL     OW28237   4.543   1.957  12.444  0.2936 -0.0917 -0.0967
 5592SOL    HW128238   4.515   1.920  12.360  0.8775 -2.2540  0.6738
 5592SOL    HW228239   4.622   1.903  12.448 -0.0843 -0.8544 -3.0808
 5593SOL     OW28240   2.759   0.376  14.967  0.1596  0.0239  0.4683
 5593SOL    HW128241   2.771   0.422  15.049 -1.0361  0.2512  0.5224
 5593SOL    HW228242   2.767   0.284  14.990 -1.4835  0.1859  1.7200
 5594SOL     OW28243   0.722   1.802   2.672  0.3660  0.0342  0.1754
 5594SOL    HW128244   0.764   1.731   2.624  0.8074  0.2598  0.2334
 5594SOL    HW228245   0.779   1.877   2.655  0.8420 -0.2194  0.6623
 5595SOL     OW28246   3.024   0.769  13.283 -0.4243 -0.0070  0.1306
 5595SOL    HW128247   2.938   0.773  13.324 -0.5087 -0.5987  0.0190
 5595SOL    HW228248   3.010   0.686  13.237  0.5429  1.4381 -2.7641
 5596SOL     OW28249   3.982   2.312  14.053  0.7456 -0.3238  0.4762
 5596SOL    HW128250   4.009   2.239  13.997  1.1014 -0.8391  1.3165
 5596SOL    HW228251   4.005   2.276  14.138  0.1174 -1.9977 -0.0692
 5597SOL     OW28252   3.138   3.518   3.948  0.4337 -0.0666  0.4938
 5597SOL    HW128253   3.192   3.595   3.929 -0.6758  0.4181 -0.7138
 5597SOL    HW228254   3.193   3.443   3.969 -1.1594 -1.9135 -1.9669
 5598SOL     OW28255   0.096   4.489   2.429  0.5453  0.2515 -0.0252
 5598SOL    HW128256   0.114   4.526   2.342  1.3860  2.7825  1.2257
 5598SOL    HW228257   0.182   4.483   2.470  0.8205 -1.2428 -0.8293
 5599SOL     OW28258   1.659   1.561   6.578  0.9257  0.5558 -0.2130
 5599SOL    HW128259   1.703   1.520   6.653 -0.7699 -1.6343 -0.4169
 5599SOL    HW228260   1.724   1.555   6.509  1.8765  2.6853  0.4887
 5600SOL     OW28261   0.589   2.566   1.954  0.1793 -0.0074 -0.0053
 5600SOL    HW128262   0.559   2.645   1.908 -2.0476 -0.8069  0.0915
 5600SOL    HW228263   0.648   2.523   1.893  0.8498  1.1566 -0.1758
 5601SOL     OW28264   3.389   3.964  13.998 -0.3119 -0.6541 -0.1259
 5601SOL    HW128265   3.457   3.905  14.033 -1.1281 -0.4611  1.8018
 5601SOL    HW228266   3.345   3.992  14.079  0.7124  0.4369  0.0568
 5602SOL     OW28267   0.390   2.026   1.351 -0.4232 -0.5622  0.3148
 5602SOL    HW128268   0.357   2.027   1.441 -0.3258 -1.4156  0.3513
 5602SOL    HW228269   0.353   2.112   1.329  1.3733 -0.1445 -1.1115
 5603SOL     OW28270   2.309   0.550   1.987 -0.6597 -0.4727  0.2095
 5603SOL    HW128271   2.255   0.497   2.046  1.5830 -4.7219 -1.5851
 5603SOL    HW228272   2.245   0.572   1.919  0.7774 -0.9705 -1.3022
 5604SOL     OW28273   1.688   2.174  16.095 -0.1433  0.2342  0.0334
 5604SOL    HW128274   1.627   2.137  16.159 -0.9994 -0.2441 -1.0461
 5604SOL    HW228275   1.741   2.098  16.073 -1.9100 -1.4222  1.5326
 5605SOL     OW28276   4.369   0.280  13.471  0.1838  0.0490  0.3058
 5605SOL    HW128277   4.459   0.302  13.497 -0.2328  1.3728  0.5851
 5605SOL    HW228278   4.351   0.360  13.421 -2.1341 -1.6480 -1.5698
 5606SOL     OW28279   0.685   0.296  12.450 -0.1148  0.0710 -0.0859
 5606SOL    HW128280   0.609   0.300  12.507  0.4311  1.4724  0.5516
 5606SOL    HW228281   0.643   0.304  12.364 -0.8451  1.4652  0.4095
 5607SOL     OW28282   0.702   3.247   7.984 -0.3316 -0.2241 -0.2438
 5607SOL    HW128283   0.637   3.235   7.915 -1.3481  2.7346  0.1886
 5607SOL    HW228284   0.766   3.179   7.961  0.2005  0.3336 -0.4336
 5608SOL     OW28285   4.050   4.645   5.140  0.2986  0.0591 -0.0247
 5608SOL    HW128286   4.069   4.580   5.207  0.3981 -0.5804 -0.6635
 5608SOL    HW228287   4.112   4.610   5.076  0.4337  1.7915 -0.8529
 5609SOL     OW28288   1.417   4.337   5.696 -0.3477  0.2206 -0.3899
 5609SOL    HW128289   1.353   4.401   5.667  0.2580  1.3635  0.7984
 5609SOL    HW228290   1.395   4.264   5.638  1.2698 -1.0690  0.6028
 5610SOL     OW28291   4.422   4.320   6.449  0.1255  0.2045 -0.2421
 5610SOL    HW128292   4.486   4.385   6.477  0.6231 -0.1186 -0.6182
 5610SOL    HW228293   4.406   4.266   6.526  2.0798 -0.8155 -0.5499
 5611SOL     OW28294   2.555   1.469   7.375  0.5831  0.5934 -0.7755
 5611SOL    HW128295   2.520   1.556   7.355  0.0914 -0.0114 -2.5967
 5611SOL    HW228296   2.484   1.409   7.351  0.3914  0.5200 -0.0469
 5612SOL     OW28297   4.633   1.894   4.671 -0.2674 -0.0388  0.5733
 5612SOL    HW128298   4.662   1.984   4.654 -0.4606 -0.1377 -0.2911
 5612SOL    HW228299   4.721   1.861   4.654 -0.9043 -1.7221  0.5716
 5613SOL     OW28300   2.235   0.027   8.497  0.2309 -0.0713  0.1513
 5613SOL    HW128301   2.168   4.683   8.506 -0.8665  0.8296 -1.3661
 5613SOL    HW228302   2.223   0.088   8.569  0.1298 -0.5809  0.5620
 5614SOL     OW28303   1.473   4.617   8.170 -0.0823  0.0044 -0.2771
 5614SOL    HW128304   1.380   4.616   8.195  0.0584 -0.5703  0.1987
 5614SOL    HW228305   1.514   4.611   8.256  1.9651 -2.1978 -1.4233
 5615SOL     OW28306   1.389   0.667  12.208  0.1842 -0.2289 -0.0995
 5615SOL    HW128307   1.373   0.723  12.284  1.2091 -0.9956  0.6845
 5615SOL    HW228308   1.401   0.578  12.241 -1.1183 -0.1830  0.5166
 5616SOL     OW28309   2.813   1.582  10.916 -0.3466  0.1177 -0.3970
 5616SOL    HW128310   2.849   1.670  10.906 -0.3287  0.0431 -0.9419
 5616SOL    HW228311   2.753   1.595  10.990 -0.9249  0.5403 -0.9433
 5617SOL     OW28312   3.864   0.562   4.290 -0.9790 -0.0246  0.2721
 5617SOL    HW128313   3.910   0.642   4.315 -0.1913  0.2071 -1.9512
 5617SOL    HW228314   3.843   0.596   4.203  0.8310  0.3824  0.0021
 5618SOL     OW28315   0.874   2.460   9.367 -0.7308  0.3653 -0.2625
 5618SOL    HW128316   0.825   2.524   9.418  2.8307  0.7383  2.6364
 5618SOL    HW228317   0.834   2.377   9.394 -3.6274  1.4919 -1.0728
 5619SOL     OW28318   4.199   3.503   8.198  0.3255 -0.2660 -0.1573
 5619SOL    HW128319   4.204   3.597   8.183  1.9382 -0.3771 -0.3615
 5619SOL    HW228320   4.227   3.471   8.112  0.9653  0.0124 -0.0550
 5620SOL     OW28321   2.969   0.395  14.804 -0.1844 -0.2760  0.2416
 5620SOL    HW128322   2.948   0.385  14.711  0.9547  1.7084 -0.2477
 5620SOL    HW228323   2.886   0.383  14.849  0.4325  1.8989  1.9690
 5621SOL     OW28324   1.044   2.788   6.286  0.6801  0.2952 -0.2075
 5621SOL    HW128325   1.027   2.881   6.302  1.5870  0.1811  1.3730
 5621SOL    HW228326   0.993   2.773   6.206 -0.0566 -0.7644  0.4571
 5622SOL     OW28327   3.273   2.141   1.273  0.2898 -0.0333  0.1067
 5622SOL    HW128328   3.224   2.059   1.281 -0.7777  0.5606 -0.3257
 5622SOL    HW228329   3.278   2.156   1.178  1.1063  0.5118  0.2370
 5623SOL     OW28330   4.211   2.833  16.366  0.7704 -0.2449 -0.8414
 5623SOL    HW128331   4.255   2.774  16.304  2.1832  0.2669 -0.3054
 5623SOL    HW228332   4.131   2.781  16.374  0.2281  0.6697 -0.4288
 5624SOL     OW28333   2.634   1.960  11.987  0.4773 -0.2306  0.1319
 5624SOL    HW128334   2.667   2.043  12.022  0.2127 -0.0784  0.0284
 5624SOL    HW228335   2.708   1.935  11.933 -0.4771 -1.8797 -0.3987
 5625SOL     OW28336   2.442   3.005   2.699  0.1743 -0.2861 -0.1647
 5625SOL    HW128337   2.537   3.000   2.689  0.5277  0.9310  2.4752
 5625SOL    HW228338   2.434   3.099   2.711 -0.6663 -0.3889  0.0758
 5626SOL     OW28339   0.138   0.017   7.583  0.2527  0.4948  0.3117
 5626SOL    HW128340   0.068   4.716   7.642  2.2099  1.2393  2.9377
 5626SOL    HW228341   0.108   0.101   7.547 -1.2890 -1.0731 -2.0568
 5627SOL     OW28342   0.396   2.381   6.516 -0.1508  0.0255 -0.4565
 5627SOL    HW128343   0.489   2.389   6.499 -0.0283  0.4892  0.4422
 5627SOL    HW228344   0.374   2.460   6.466 -1.4114  0.1695  0.3198
 5628SOL     OW28345   1.123   4.121   7.730 -0.5467 -0.1993  0.4154
 5628SOL    HW128346   1.091   4.042   7.686  0.8658  0.3313 -1.5939
 5628SOL    HW228347   1.215   4.096   7.729 -0.6519 -0.5908  1.3229
 5629SOL     OW28348   2.030   2.400   3.333  0.5290 -0.0373  0.1099
 5629SOL    HW128349   2.122   2.390   3.309  0.1060  0.8255 -1.9394
 5629SOL    HW228350   2.026   2.487   3.372 -1.2567 -0.2008  0.3084
 5630SOL     OW28351   2.199   4.605   0.262 -0.1356  0.3497 -0.4230
 5630SOL    HW128352   2.119   4.598   0.313  0.1898  0.9889  0.1779
 5630SOL    HW228353   2.267   4.579   0.324  0.6567  2.2328 -0.4805
 5631SOL     OW28354   4.301   2.645   5.792 -0.1768 -0.1114 -0.4401
 5631SOL    HW128355   4.319   2.629   5.884 -0.1761 -0.5770 -0.5188
 5631SOL    HW228356   4.278   2.737   5.805 -1.0392 -0.3743 -0.1462
 5632SOL     OW28357   2.353   0.530   5.143  1.3120 -0.2845  0.1421
 5632SOL    HW128358   2.397   0.489   5.216  0.3224  0.3312  1.0867
 5632SOL    HW228359   2.266   0.491   5.147  0.9191  0.4873 -0.6822
 5633SOL     OW28360   1.373   0.785  17.342  0.3786 -0.3602  0.0263
 5633SOL    HW128361   1.443   0.801  17.405  0.9430 -1.1054 -0.4230
 5633SOL    HW228362   1.412   0.838  17.272 -0.2104 -0.4043 -0.3382
 5634SOL     OW28363   1.928   2.517   6.982  0.2552 -0.2617  0.2309
 5634SOL    HW128364   1.853   2.496   6.925 -1.3256  2.3615  1.3530
 5634SOL    HW228365   1.894   2.501   7.070  1.7586  0.2678  0.9021
 5635SOL     OW28366   2.806   2.036  17.425  0.3010 -0.0499  0.7817
 5635SOL    HW128367   2.888   2.085  17.416 -1.4268  3.0885  1.9674
 5635SOL    HW228368   2.745   2.103  17.457  0.9969  2.1885 -2.5676
 5636SOL     OW28369   2.944   2.496   1.995  0.3652  0.6316 -0.2620
 5636SOL    HW128370   3.034   2.473   2.017 -0.7073 -0.0839  3.3361
 5636SOL    HW228371   2.899   2.461   2.072  3.6466  1.2986  1.9680
 5637SOL     OW28372   2.116   3.768   8.995 -0.1107 -0.5456 -0.6638
 5637SOL    HW128373   2.039   3.713   9.014  0.7399 -1.0580  1.3861
 5637SOL    HW228374   2.149   3.792   9.082  1.4842 -0.6351 -1.2487
 5638SOL     OW28375   1.725   2.767   2.608 -0.1477 -0.1666  0.1736
 5638SOL    HW128376   1.816   2.795   2.594  0.2367 -0.7838  1.4042
 5638SOL    HW228377   1.677   2.849   2.601  0.8884  0.1738 -3.1475
 5639SOL     OW28378   1.767   3.082   2.669 -0.0071 -0.2288  1.1061
 5639SOL    HW128379   1.778   3.166   2.626  1.5355 -1.7148 -1.4404
 5639SOL    HW228380   1.672   3.069   2.668 -0.0170  0.2190 -2.3363
 5640SOL     OW28381   1.844   1.063   6.964 -0.0474 -0.1158  0.1560
 5640SOL    HW128382   1.764   1.082   6.915  0.8994  1.3940 -0.8095
 5640SOL    HW228383   1.904   1.020   6.903 -1.0071  1.8901 -2.1748
 5641SOL     OW28384   3.716   0.363   8.512 -0.1044 -0.2704 -0.0413
 5641SOL    HW128385   3.657   0.308   8.460  0.6837 -2.4059  1.3251
 5641SOL    HW228386   3.805   0.368   8.479 -0.3930  0.3168 -0.7344
 5642SOL     OW28387   1.087   0.492   5.054 -0.3356 -0.2915  0.5547
 5642SOL    HW128388   1.126   0.579   5.050 -0.8904 -0.2430 -3.6983
 5642SOL    HW228389   0.992   0.505   5.054 -0.4771 -1.3479  0.1894
 5643SOL     OW28390   3.699   0.363   4.282  0.3015  0.3636  0.3105
 5643SOL    HW128391   3.755   0.290   4.254 -0.5086 -0.1855  0.1168
 5643SOL    HW228392   3.771   0.423   4.303  0.5637  0.5184 -1.0101
 5644SOL     OW28393   4.131   1.080   2.629 -0.6794 -0.2080  0.5771
 5644SOL    HW128394   4.148   1.165   2.669 -2.5756  1.0861 -1.4114
 5644SOL    HW228395   4.058   1.055   2.686 -0.0233  1.3196  2.0964
 5645SOL     OW28396   1.640   3.404   6.494  0.0099 -0.1152  0.0976
 5645SOL    HW128397   1.620   3.421   6.586 -0.0282  0.8026 -0.0786
 5645SOL    HW228398   1.594   3.475   6.448 -1.8866 -0.4680  1.4279
 5646SOL     OW28399   0.280   2.899   9.454 -0.0883 -0.3706 -0.7063
 5646SOL    HW128400   0.324   2.816   9.435  0.7297 -0.3977  1.3149
 5646SOL    HW228401   0.209   2.854   9.500  0.3056  0.9349  1.1770
 5647SOL     OW28402   3.225   2.672  12.864  0.2706 -0.0381 -0.0535
 5647SOL    HW128403   3.232   2.766  12.883 -0.6037 -0.0779  0.4559
 5647SOL    HW228404   3.151   2.664  12.805 -1.0085 -0.2045  1.5827
 5648SOL     OW28405   4.621   0.805  17.528 -0.2138  0.2894 -0.3318
 5648SOL    HW128406   4.561   0.835  17.459 -1.3715 -3.9248 -1.2018
 5648SOL    HW228407   4.560   0.771  17.593  0.6346  0.3709  0.4949
 5649SOL     OW28408   3.248   1.981   9.100  0.1270  0.2145  0.8044
 5649SOL    HW128409   3.230   1.931   9.021 -1.6424  1.2034  0.5641
 5649SOL    HW228410   3.254   2.064   9.052 -1.4234  0.8077  1.6242
 5650SOL     OW28411   0.421   0.240   4.226 -0.6654 -0.5300  0.0692
 5650SOL    HW128412   0.471   0.304   4.174  1.1148 -1.0066  1.1747
 5650SOL    HW228413   0.329   0.264   4.217 -1.0234 -1.3149  1.7009
 5651SOL     OW28414   2.069   3.563   5.508 -1.0618 -0.3407 -0.2541
 5651SOL    HW128415   2.093   3.642   5.557 -1.4760 -0.1113 -0.4201
 5651SOL    HW228416   2.104   3.586   5.422 -2.3999  1.7433 -0.2529
 5652SOL     OW28417   4.689   2.485   2.061  0.0388 -0.3524  0.2151
 5652SOL    HW128418   4.719   2.539   2.135  0.7442  2.9984 -2.5339
 5652SOL    HW228419   4.620   2.544   2.030 -0.1624 -0.3546  0.6608
 5653SOL     OW28420   0.860   2.715   8.288 -0.2357 -0.6482  0.1061
 5653SOL    HW128421   0.936   2.729   8.344 -1.1022  0.5102  0.9893
 5653SOL    HW228422   0.792   2.750   8.345 -1.9344 -1.1599 -1.6104
 5654SOL     OW28423   2.081   1.958   2.389 -0.0712  0.6758  0.4057
 5654SOL    HW128424   2.114   2.045   2.365 -0.2671 -0.1582 -2.9361
 5654SOL    HW228425   2.027   1.980   2.465  0.2600  2.4301  0.1512
 5655SOL     OW28426   1.111   0.005  12.227  0.4071  0.5118  0.1632
 5655SOL    HW128427   1.077   0.094  12.228 -1.1889 -0.0957  0.4167
 5655SOL    HW228428   1.170   0.005  12.151 -2.0362 -1.3881 -1.7308
 5656SOL     OW28429   1.198   4.507   5.134 -0.3319 -0.1880 -0.0819
 5656SOL    HW128430   1.128   4.519   5.069  0.5417  0.1272 -0.9772
 5656SOL    HW228431   1.223   4.416   5.121 -0.3542 -0.0614 -1.0635
 5657SOL     OW28432   4.121   0.018   0.893  0.1922 -0.2352  0.6183
 5657SOL    HW128433   4.140   0.088   0.830  2.3743 -0.9334  0.5315
 5657SOL    HW228434   4.026   0.026   0.902 -0.1268 -0.7113 -2.3643
 5658SOL     OW28435   0.908   4.144   4.631  0.3845  0.0305  0.2604
 5658SOL    HW128436   0.959   4.164   4.709  0.8764  0.0673 -0.0676
 5658SOL    HW228437   0.970   4.162   4.560  0.5304 -1.5533 -0.0068
 5659SOL     OW28438   0.025   1.859  10.839  0.6643  0.6848  0.5853
 5659SOL    HW128439   0.032   1.921  10.767  0.0340  0.0870  0.0085
 5659SOL    HW228440   0.116   1.867  10.867  1.1590 -0.9595 -0.5749
 5660SOL     OW28441   0.511   1.747  16.555  0.1188  0.5790  0.1359
 5660SOL    HW128442   0.524   1.744  16.461  0.3714 -2.0168  0.2702
 5660SOL    HW228443   0.449   1.676  16.570  1.3618 -0.3600  0.7966
 5661SOL     OW28444   3.247   2.952   1.828 -0.0477 -0.2162  0.4362
 5661SOL    HW128445   3.172   2.957   1.769  0.0280  1.9678  0.5217
 5661SOL    HW228446   3.222   2.878   1.884 -1.8149 -1.1810 -1.6148
 5662SOL     OW28447   3.471   2.303  15.362  0.3856 -0.2359  0.6045
 5662SOL    HW128448   3.531   2.376  15.346 -0.0832  0.4047  1.8484
 5662SOL    HW228449   3.512   2.238  15.304 -0.3518  0.0741 -0.2727
 5663SOL     OW28450   4.346   1.738   2.116  0.6219  0.2948  0.6721
 5663SOL    HW128451   4.393   1.816   2.145  0.4412  0.8645 -0.5688
 5663SOL    HW228452   4.415   1.673   2.127 -1.5051 -2.0689 -0.0964
 5664SOL     OW28453   1.527   2.375   6.892  0.1026  0.2143  0.7144
 5664SOL    HW128454   1.511   2.340   6.979  1.3772  0.7612  1.1689
 5664SOL    HW228455   1.486   2.306   6.839 -2.7879  3.1946 -0.9589
 5665SOL     OW28456   0.944   1.232   7.183  0.4137  0.0521 -0.1036
 5665SOL    HW128457   0.895   1.313   7.196  0.1120 -0.3788  1.3841
 5665SOL    HW228458   1.022   1.244   7.238  0.5065 -0.7518 -0.0609
 5666SOL     OW28459   0.456   2.913  14.970  0.4458  0.5477  0.5461
 5666SOL    HW128460   0.461   2.933  15.063  4.5078  2.5021 -0.0831
 5666SOL    HW228461   0.447   2.819  14.985 -2.4236  0.4625 -1.8703
 5667SOL     OW28462   1.392   2.959   6.845  0.5028 -0.4642 -0.4344
 5667SOL    HW128463   1.391   2.867   6.873  0.8148 -1.2528 -2.9770
 5667SOL    HW228464   1.378   2.994   6.932  0.5800  1.5156 -1.2186
 5668SOL     OW28465   0.913   4.412  16.274 -0.4041 -0.3628 -0.8199
 5668SOL    HW128466   0.946   4.434  16.187  0.8962  0.1545 -0.1945
 5668SOL    HW228467   0.956   4.329  16.292 -0.1467 -0.1946 -0.6637
 5669SOL     OW28468   0.161   1.549  14.281 -0.4592 -0.1778  0.5281
 5669SOL    HW128469   0.228   1.487  14.312 -1.2411 -1.3824 -0.1976
 5669SOL    HW228470   0.128   1.581  14.365  0.2754 -0.7540  1.0367
 5670SOL     OW28471   3.576   3.305   0.165 -0.2436 -0.4813 -0.3518
 5670SOL    HW128472   3.619   3.341   0.242 -0.4508  0.2530 -0.5756
 5670SOL    HW228473   3.646   3.247   0.136  0.2078 -0.0703 -0.0734
 5671SOL     OW28474   2.759   3.684  13.247 -0.3423  0.5691  0.5189
 5671SOL    HW128475   2.721   3.659  13.331 -0.0598  0.0762  0.4974
 5671SOL    HW228476   2.671   3.706  13.214  0.9597  0.3764 -3.0606
 5672SOL     OW28477   3.116   2.552   0.276 -0.0432 -0.1145  0.2950
 5672SOL    HW128478   3.163   2.604   0.342  1.4956 -0.7533 -0.2971
 5672SOL    HW228479   3.191   2.518   0.227  0.4904 -1.0557  1.7448
 5673SOL     OW28480   2.319   3.975   9.561  0.6701  0.5649  0.2043
 5673SOL    HW128481   2.304   3.890   9.603 -0.5667  0.9426  0.5079
 5673SOL    HW228482   2.238   3.971   9.511  1.2932  2.2657 -0.9240
 5674SOL     OW28483   3.995   1.658   7.747  0.0429 -0.0569 -0.1075
 5674SOL    HW128484   4.035   1.575   7.722 -1.6466 -1.0317  0.3776
 5674SOL    HW228485   4.061   1.727   7.736 -0.4243  0.1087 -1.8934
 5675SOL     OW28486   1.972   0.469  11.204  0.6232 -0.9694 -0.4812
 5675SOL    HW128487   1.902   0.509  11.256  0.3744 -3.5560  1.1808
 5675SOL    HW228488   1.949   0.378  11.186  1.1956 -1.0165 -0.9535
 5676SOL     OW28489   1.968   4.330   7.321 -0.1199 -0.5262  0.0052
 5676SOL    HW128490   2.064   4.336   7.328 -0.0503 -1.6463 -0.0877
 5676SOL    HW228491   1.961   4.348   7.227 -0.8696  0.2026  0.2011
 5677SOL     OW28492   3.594   3.135   9.089  0.4336 -0.1570 -0.3270
 5677SOL    HW128493   3.656   3.083   9.141  0.5351 -0.1404 -0.4303
 5677SOL    HW228494   3.508   3.132   9.131  0.0580  1.2433 -1.0017
 5678SOL     OW28495   0.171   2.665  14.763 -0.0610  0.4730  0.1739
 5678SOL    HW128496   0.152   2.575  14.790  1.4955  0.5025  1.3961
 5678SOL    HW228497   0.109   2.682  14.692  0.0796  0.5665  0.0735
 5679SOL     OW28498   2.398   4.091   1.203  0.1588 -0.0336  0.5786
 5679SOL    HW128499   2.362   4.007   1.175 -2.7088  1.6913 -0.9296
 5679SOL    HW228500   2.317   4.142   1.202  0.5322  0.5095 -1.4108
 5680SOL     OW28501   1.632   1.693   1.285  0.3486 -0.5884 -0.1045
 5680SOL    HW128502   1.568   1.643   1.235 -1.0680  1.2831 -0.1419
 5680SOL    HW228503   1.572   1.757   1.323 -0.3291 -0.6477 -1.0779
 5681SOL     OW28504   1.162   2.602   6.762 -0.3655  0.1922 -0.2123
 5681SOL    HW128505   1.151   2.507   6.754 -0.5023  0.0318  1.9271
 5681SOL    HW228506   1.132   2.625   6.674  0.6384  1.2332 -0.2792
 5682SOL     OW28507   2.436   0.498   3.641  0.8243 -0.2925 -0.3880
 5682SOL    HW128508   2.511   0.445   3.615  1.6644  0.2181  1.0163
 5682SOL    HW228509   2.377   0.437   3.685  2.6969 -1.7933  0.0199
 5683SOL     OW28510   0.330   3.887   9.151 -0.2990  0.1981  0.2030
 5683SOL    HW128511   0.393   3.870   9.080  0.8578  1.8167  0.8435
 5683SOL    HW228512   0.315   3.982   9.150  0.6169  0.3378 -0.5395
 5684SOL     OW28513   1.537   2.540  15.724 -0.3940 -0.1581 -0.2524
 5684SOL    HW128514   1.571   2.627  15.745 -1.3526  0.1133  0.1515
 5684SOL    HW228515   1.494   2.557  15.640  1.0397  0.3665 -0.8745
 5685SOL     OW28516   3.950   0.893   4.758  0.4732  0.1523  0.1006
 5685SOL    HW128517   3.941   0.965   4.821  2.7267 -0.6128  1.2821
 5685SOL    HW228518   4.017   0.927   4.699 -1.4910  3.7547 -0.0816
 5686SOL     OW28519   2.862   3.741   4.613 -0.1712 -0.0002  0.1532
 5686SOL    HW128520   2.783   3.795   4.603 -2.9153 -3.7736  1.5898
 5686SOL    HW228521   2.858   3.717   4.520  0.5587 -0.8920  0.3513
 5687SOL     OW28522   2.759   0.816  16.492 -0.1994  0.2257 -0.1205
 5687SOL    HW128523   2.822   0.871  16.539 -1.9689 -0.1016  2.6484
 5687SOL    HW228524   2.811   0.798  16.414  2.3349  2.6517  0.9859
 5688SOL     OW28525   1.947   2.257   8.748 -0.7763  0.0315  0.1579
 5688SOL    HW128526   1.925   2.338   8.795 -1.9671  0.8559 -1.8155
 5688SOL    HW228527   1.888   2.196   8.793 -0.0211  0.0961  1.2307
 5689SOL     OW28528   2.562   1.182   8.960  0.4327  0.6753 -0.3078
 5689SOL    HW128529   2.646   1.166   8.917  0.2817 -0.3683 -0.2229
 5689SOL    HW228530   2.508   1.111   8.926 -0.5869  1.4393 -0.2570
 5690SOL     OW28531   1.096   3.006   3.903 -0.7102  0.0185  0.2430
 5690SOL    HW128532   1.109   3.101   3.900 -2.9714  0.3556  1.0692
 5690SOL    HW228533   1.184   2.970   3.914 -1.6464 -2.4617 -0.5340
 5691SOL     OW28534   2.012   0.473  13.781 -0.1280  0.0157 -0.3676
 5691SOL    HW128535   2.024   0.507  13.870  2.3293  0.4822 -0.8814
 5691SOL    HW228536   2.093   0.496  13.735 -0.3902 -2.1271 -1.8640
 5692SOL     OW28537   2.206   2.404  10.962  0.4686 -0.0600  0.0116
 5692SOL    HW128538   2.180   2.314  10.977 -0.9464  0.3210 -0.1952
 5692SOL    HW228539   2.232   2.405  10.870 -3.4018 -0.2860 -1.0537
 5693SOL     OW28540   3.381   3.410   3.595 -0.3194 -0.1456 -0.8364
 5693SOL    HW128541   3.386   3.390   3.689  3.4684 -1.2520 -1.3019
 5693SOL    HW228542   3.468   3.423   3.558 -0.5791  0.1703 -1.3223
 5694SOL     OW28543   4.212   1.020   9.405 -0.3124 -0.4379  0.1701
 5694SOL    HW128544   4.290   1.074   9.418  0.1454 -0.9789 -0.2997
 5694SOL    HW228545   4.238   0.956   9.339 -2.3764  0.5451 -1.6026
 5695SOL     OW28546   0.586   2.993  10.883  0.3741 -0.4807 -0.2237
 5695SOL    HW128547   0.592   3.062  10.949 -1.5546 -0.1285 -0.4185
 5695SOL    HW228548   0.624   3.043  10.810  0.1097  1.0054  0.6540
 5696SOL     OW28549   3.184   4.438   0.415 -0.1485  0.0403 -0.1675
 5696SOL    HW128550   3.276   4.417   0.396  0.5333  2.4914  0.3915
 5696SOL    HW228551   3.162   4.438   0.322 -0.0027 -0.3337 -0.2018
 5697SOL     OW28552   1.958   3.995  17.154 -0.1096 -0.0566 -0.3530
 5697SOL    HW128553   1.899   4.055  17.109  0.1009 -0.5170 -1.2359
 5697SOL    HW228554   1.977   4.039  17.237 -2.3524 -0.9328  0.6186
 5698SOL     OW28555   2.603   0.872  10.539  0.5476  0.2052  0.1288
 5698SOL    HW128556   2.669   0.865  10.608  1.1136  0.8604 -0.3444
 5698SOL    HW228557   2.641   0.822  10.467 -1.1113 -0.3387 -0.3677
 5699SOL     OW28558   0.684   3.881   3.763  0.3850  0.3040 -0.0630
 5699SOL    HW128559   0.638   3.923   3.690 -0.2692  0.5750  0.5137
 5699SOL    HW228560   0.649   3.933   3.835  1.8353  2.4933 -0.9386
 5700SOL     OW28561   1.119   4.228   0.783  0.8482 -0.2078  0.1624
 5700SOL    HW128562   1.158   4.302   0.736  0.5489  0.8832  1.6344
 5700SOL    HW228563   1.173   4.231   0.862  2.3477 -1.4747 -0.8172
 5701SOL     OW28564   0.154   1.376   5.151  0.9520 -0.0069  0.0354
 5701SOL    HW128565   0.219   1.428   5.199  3.6292 -2.5805 -0.8403
 5701SOL    HW228566   0.113   1.454   5.113  1.3562 -0.5621 -1.5467
 5702SOL     OW28567   3.389   4.073   3.791  0.3562 -0.4697 -0.0635
 5702SOL    HW128568   3.449   4.146   3.774 -0.6079  0.2479 -0.3755
 5702SOL    HW228569   3.451   4.002   3.807  2.1536  1.2879  0.8725
 5703SOL     OW28570   3.359   2.910   4.973  0.3767  0.1790 -0.0379
 5703SOL    HW128571   3.345   2.978   5.039 -0.9761 -0.6487  0.5334
 5703SOL    HW228572   3.383   2.968   4.900 -0.3527  1.0230  0.3872
 5704SOL     OW28573   1.038   0.034   5.821 -0.5421  0.2883  0.7391
 5704SOL    HW128574   1.082   0.064   5.741 -1.6357  2.4183  0.9449
 5704SOL    HW228575   0.948   0.066   5.813 -0.1060  1.0307 -1.3076
 5705SOL     OW28576   3.251   3.511   8.438  0.1774 -0.6839 -0.2433
 5705SOL    HW128577   3.205   3.563   8.503 -0.9570  1.3770 -2.7217
 5705SOL    HW228578   3.194   3.511   8.362 -1.0718 -0.4168  0.6889
 5706SOL     OW28579   3.776   1.714   5.642  0.1199  0.4363 -0.3780
 5706SOL    HW128580   3.737   1.801   5.641 -0.4303  0.1913 -0.1065
 5706SOL    HW228581   3.726   1.671   5.574 -0.0578 -0.3690  0.2617
 5707SOL     OW28582   1.543   3.189   8.673  0.1338 -0.3738 -0.6175
 5707SOL    HW128583   1.517   3.230   8.756  1.0562  0.5193 -0.7744
 5707SOL    HW228584   1.601   3.119   8.704  0.9989  0.5303 -0.2030
 5708SOL     OW28585   2.793   4.332   3.073 -0.1552 -0.7538 -0.1263
 5708SOL    HW128586   2.843   4.297   2.999  0.7881  1.6930 -0.6542
 5708SOL    HW228587   2.754   4.255   3.114 -0.2239  0.0077  1.2474
 5709SOL     OW28588   1.812   0.851  16.444  0.4826 -0.4052 -0.3092
 5709SOL    HW128589   1.898   0.808  16.449  0.6801  0.0259  0.0148
 5709SOL    HW228590   1.789   0.854  16.537 -0.6307  1.1648 -0.6509
 5710SOL     OW28591   0.674   4.309   4.344 -0.1907 -0.0844 -0.6084
 5710SOL    HW128592   0.755   4.327   4.296 -0.3217  0.0210 -0.7933
 5710SOL    HW228593   0.691   4.218   4.367  2.2873 -0.3174 -3.3203
 5711SOL     OW28594   2.964   1.434   1.448  0.2872  0.2576  0.4695
 5711SOL    HW128595   2.956   1.391   1.363 -0.9815  2.8081 -0.6831
 5711SOL    HW228596   3.059   1.440   1.451  0.3600  1.0503 -4.2142
 5712SOL     OW28597   0.398   3.807  11.809 -0.4559 -0.6458 -0.4672
 5712SOL    HW128598   0.460   3.879  11.818 -1.7822  0.6903 -1.9708
 5712SOL    HW228599   0.464   3.741  11.830  1.0094  1.2657  1.0332
 5713SOL     OW28600   2.318   2.105   4.272  0.0687 -0.3529 -0.3904
 5713SOL    HW128601   2.348   2.164   4.203  1.7006 -0.2363  0.4200
 5713SOL    HW228602   2.269   2.157   4.335  0.1883 -0.5538 -0.1331
 5714SOL     OW28603   3.815   0.915   6.790 -0.0461 -0.3859 -0.2894
 5714SOL    HW128604   3.906   0.941   6.806 -0.0760 -0.4797  0.0389
 5714SOL    HW228605   3.825   0.825   6.757 -1.3246 -0.5510 -0.2479
 5715SOL     OW28606   3.652   1.358   5.497 -0.4675 -0.5596 -0.2099
 5715SOL    HW128607   3.660   1.440   5.448  0.1923  1.9474  4.1374
 5715SOL    HW228608   3.742   1.336   5.523 -0.2624 -0.8939 -1.2044
 5716SOL     OW28609   2.931   1.391   3.684 -0.1983  0.4473  0.3109
 5716SOL    HW128610   2.899   1.433   3.764 -1.6867 -1.6174  0.8201
 5716SOL    HW228611   2.911   1.298   3.694  2.7308 -0.4655 -2.2614
 5717SOL     OW28612   2.131   4.253   9.458  0.0110  0.7899  0.1533
 5717SOL    HW128613   2.115   4.293   9.544  0.7276 -1.5386  1.3413
 5717SOL    HW228614   2.045   4.210   9.460  0.5393 -0.2626 -0.5438
 5718SOL     OW28615   2.205   0.388   1.044  0.0425 -0.2893 -0.3087
 5718SOL    HW128616   2.292   0.352   1.063 -0.2592 -0.7611  0.1707
 5718SOL    HW228617   2.163   0.336   0.976 -3.0443 -0.2093  1.5423
 5719SOL     OW28618   0.417   3.606  13.786  0.0665 -0.8581 -0.0926
 5719SOL    HW128619   0.506   3.639  13.774  0.1042 -1.5341 -1.7102
 5719SOL    HW228620   0.423   3.517  13.820 -2.8325 -0.4981  1.3456
 5720SOL     OW28621   4.429   1.949  12.087 -1.0358 -0.2985  0.3457
 5720SOL    HW128622   4.391   1.893  12.019  2.4784 -0.6518 -1.3601
 5720SOL    HW228623   4.390   1.893  12.155  0.7429  2.6045  3.7634
 5721SOL     OW28624   1.155   3.160   0.916  0.4512  0.3189 -0.0703
 5721SOL    HW128625   1.166   3.236   0.859 -0.0210 -0.8535 -1.7145
 5721SOL    HW228626   1.188   3.087   0.864 -1.0491  0.0884 -0.7040
 5722SOL     OW28627   2.850   3.307  12.858  0.1169 -0.1096  0.6626
 5722SOL    HW128628   2.820   3.373  12.920 -0.5966 -0.2579  0.4743
 5722SOL    HW228629   2.943   3.330  12.862  0.1252 -0.1821  0.8813
 5723SOL     OW28630   4.705   3.316  16.721  0.0635 -0.1500  0.5827
 5723SOL    HW128631   4.645   3.387  16.746 -1.9770 -1.6229 -0.1265
 5723SOL    HW228632   4.658   3.284  16.644 -1.7293  1.4478  0.9783
 5724SOL     OW28633   0.569   1.253   4.682  0.6622 -0.2377  0.6093
 5724SOL    HW128634   0.499   1.250   4.747  1.4499 -0.8224  1.4233
 5724SOL    HW228635   0.519   1.287   4.607 -0.7039 -1.3310  1.0223
 5725SOL     OW28636   2.482   1.658   4.437 -0.2532  0.2626  0.5508
 5725SOL    HW128637   2.508   1.701   4.518 -0.1982 -1.6205  1.5517
 5725SOL    HW228638   2.426   1.722   4.393 -0.1672  0.1625  0.2970
 5726SOL     OW28639   0.824   3.220   1.911  0.2215 -0.1393  0.6634
 5726SOL    HW128640   0.808   3.279   1.837 -2.3958  1.1997  2.2802
 5726SOL    HW228641   0.869   3.282   1.968  0.8053 -0.8726  1.0003
 5727SOL     OW28642   0.325   0.702   2.650  0.1994 -0.2687  0.1256
 5727SOL    HW128643   0.420   0.707   2.657  0.1314  1.6150 -0.3746
 5727SOL    HW228644   0.298   0.766   2.585  1.2415 -1.3354 -1.3476
 5728SOL     OW28645   3.597   3.341   5.650  0.2084 -0.4328  0.4468
 5728SOL    HW128646   3.667   3.312   5.709  0.7374 -0.8112 -0.3595
 5728SOL    HW228647   3.648   3.342   5.569  0.5013  1.6856  0.6707
 5729SOL     OW28648   1.364   1.112   9.043 -0.2520 -0.6408 -0.0661
 5729SOL    HW128649   1.293   1.175   9.034  1.1002  1.2565  2.3453
 5729SOL    HW228650   1.375   1.091   8.951  0.6738  1.9376 -0.5616
 5730SOL     OW28651   1.240   4.005   4.803 -0.5950  0.2267  0.4897
 5730SOL    HW128652   1.298   4.019   4.878  1.0208 -0.7831 -0.5663
 5730SOL    HW228653   1.190   4.086   4.809 -1.2506 -0.0746 -1.0367
 5731SOL     OW28654   1.290   2.386   5.416  0.6979  0.4353 -0.6954
 5731SOL    HW128655   1.216   2.419   5.467  0.9667  0.8196 -0.5581
 5731SOL    HW228656   1.240   2.343   5.347 -0.2829 -0.6546  0.6760
 5732SOL     OW28657   2.411   2.460   8.533  0.2208  0.1787  0.3535
 5732SOL    HW128658   2.388   2.543   8.575  1.5328  0.6574  0.1488
 5732SOL    HW228659   2.505   2.446   8.549  0.1224 -0.9777 -0.0429
 5733SOL     OW28660   1.962   0.698   1.298  0.0825 -0.0562  0.0108
 5733SOL    HW128661   1.871   0.681   1.322 -0.3656  0.3788 -1.4000
 5733SOL    HW228662   2.002   0.612   1.309  0.0903 -0.4406 -3.0695
 5734SOL     OW28663   4.114   3.292   3.722 -0.0291 -0.2982 -0.3397
 5734SOL    HW128664   4.197   3.263   3.685 -0.4930 -0.1606 -1.5025
 5734SOL    HW228665   4.060   3.214   3.709  0.6721 -0.8578  0.1002
 5735SOL     OW28666   2.601   3.471   2.551  0.2777  0.6099  0.2809
 5735SOL    HW128667   2.661   3.501   2.619  0.3264  0.9443  0.0904
 5735SOL    HW228668   2.607   3.536   2.482 -0.5108 -0.2000 -0.5458
 5736SOL     OW28669   2.144   2.511   5.711  0.1926 -0.2095 -0.5739
 5736SOL    HW128670   2.193   2.499   5.629 -1.6051 -1.8581 -1.3992
 5736SOL    HW228671   2.097   2.592   5.691 -1.3731 -0.7475  0.9759
 5737SOL     OW28672   2.353   3.297   3.158  0.0445 -0.4781  0.0049
 5737SOL    HW128673   2.406   3.308   3.237  0.5542 -0.2723 -0.3647
 5737SOL    HW228674   2.367   3.383   3.118  0.8137 -0.2174  0.8341
 5738SOL     OW28675   2.975   3.153  13.605 -0.3318 -0.4899  0.6312
 5738SOL    HW128676   3.016   3.238  13.585 -2.4509  0.0183 -1.5909
 5738SOL    HW228677   2.988   3.098  13.529  1.8597  1.8140 -0.6391
 5739SOL     OW28678   0.578   3.767  10.427  0.7300  0.3235 -0.4998
 5739SOL    HW128679   0.533   3.692  10.466 -0.4393  0.8313 -0.8917
 5739SOL    HW228680   0.561   3.752  10.334 -0.5160  0.9426 -0.3765
 5740SOL     OW28681   4.171   2.812   4.222  0.2994  0.6144  0.0318
 5740SOL    HW128682   4.141   2.728   4.257 -1.3232  0.6467 -1.3024
 5740SOL    HW228683   4.235   2.772   4.163 -3.0181 -2.8590 -1.2042
 5741SOL     OW28684   3.622   2.210   4.786  0.4968  0.1806  0.1607
 5741SOL    HW128685   3.655   2.250   4.706 -0.1763  0.3863 -0.0197
 5741SOL    HW228686   3.530   2.233   4.770  0.4988  0.0031 -0.0906
 5742SOL     OW28687   1.627   4.068   7.494  0.4069  0.2448  0.1243
 5742SOL    HW128688   1.659   4.052   7.583 -0.3546  0.6566  0.4791
 5742SOL    HW228689   1.701   4.052   7.436 -0.8705 -0.6961 -1.2321
 5743SOL     OW28690   4.487   3.652   1.843 -0.2385  0.5427  0.4257
 5743SOL    HW128691   4.422   3.660   1.772  1.1168  2.4773 -0.5669
 5743SOL    HW228692   4.444   3.585   1.897 -0.9910  0.3940 -0.3463
 5744SOL     OW28693   2.546   3.762   6.497  0.6983  0.4262  0.2685
 5744SOL    HW128694   2.554   3.841   6.443  0.5784  0.3760  0.1765
 5744SOL    HW228695   2.498   3.793   6.573 -0.2927  0.5911 -0.4194
 5745SOL     OW28696   4.523   0.701  12.453 -0.1113 -0.0903 -0.2054
 5745SOL    HW128697   4.541   0.625  12.508  0.9168 -0.7088 -1.3758
 5745SOL    HW228698   4.485   0.757  12.521 -0.1317  0.5100 -0.7115
 5746SOL     OW28699   0.804   1.122   6.039 -0.3871  0.2719 -0.5972
 5746SOL    HW128700   0.737   1.085   5.981  0.6161 -0.2829 -1.4092
 5746SOL    HW228701   0.819   1.037   6.082  1.3752  1.1414  0.5451
 5747SOL     OW28702   2.336   2.700   2.562 -0.4438  0.0321 -0.2211
 5747SOL    HW128703   2.404   2.747   2.514 -0.8267  0.6873 -0.1167
 5747SOL    HW228704   2.265   2.688   2.499  0.0743  1.4842 -1.0819
 5748SOL     OW28705   0.083   1.189   5.874 -0.2976  0.0623 -0.1919
 5748SOL    HW128706   0.172   1.223   5.888 -0.2347 -0.2535  0.1853
 5748SOL    HW228707   0.042   1.265   5.834  0.7847 -0.2181 -1.8407
 5749SOL     OW28708   2.362   0.979  10.480  0.5783  0.3538 -0.5215
 5749SOL    HW128709   2.439   0.930  10.507  0.4801  0.8598  0.6646
 5749SOL    HW228710   2.302   0.978  10.554 -0.9239  0.1444 -1.7499
 5750SOL     OW28711   3.011   3.599   8.547  0.3302 -0.1972 -0.1982
 5750SOL    HW128712   2.995   3.693   8.551  1.4822  0.0332 -0.8105
 5750SOL    HW228713   3.028   3.593   8.641 -1.7175 -0.1258  0.1611
 5751SOL     OW28714   1.277   1.032   7.487 -0.5929 -0.2589  0.7033
 5751SOL    HW128715   1.248   1.022   7.577 -1.0598 -2.1229  0.3376
 5751SOL    HW228716   1.232   0.960   7.443  0.3342  0.9181 -2.2459
 5752SOL     OW28717   2.910   4.424   3.684 -0.0630  0.1720 -0.5583
 5752SOL    HW128718   2.886   4.444   3.593 -0.2222 -1.0381 -0.7851
 5752SOL    HW228719   2.835   4.368   3.702  0.3644 -0.5496 -0.9890
 5753SOL     OW28720   3.379   0.531   4.897  0.4858  0.3451 -0.0670
 5753SOL    HW128721   3.388   0.451   4.846 -0.3251  0.9608 -1.1700
 5753SOL    HW228722   3.471   0.545   4.919  0.8196 -0.5608 -0.9196
 5754SOL     OW28723   1.311   0.737   2.288 -0.5431 -0.0116  0.1661
 5754SOL    HW128724   1.231   0.721   2.337 -0.1931 -1.8570  0.1260
 5754SOL    HW228725   1.377   0.723   2.356 -0.4728 -0.5447 -0.0149
 5755SOL     OW28726   3.705   0.773   6.327 -0.0256 -0.0400  1.3538
 5755SOL    HW128727   3.774   0.816   6.377 -0.0869  0.7347  0.7750
 5755SOL    HW228728   3.751   0.764   6.243  1.0530 -0.8612  2.0397
 5756SOL     OW28729   2.108   3.841   3.901 -0.0094  0.3348  0.0745
 5756SOL    HW128730   2.099   3.932   3.872  1.5776 -0.1184 -1.8607
 5756SOL    HW228731   2.035   3.794   3.861  0.1780  0.4292 -0.3723
 5757SOL     OW28732   1.287   1.355  11.815  0.3625  0.4415  0.3183
 5757SOL    HW128733   1.221   1.319  11.874  0.3205 -0.1717 -0.1019
 5757SOL    HW228734   1.338   1.274  11.816 -3.3478 -1.8997 -1.1763
 5758SOL     OW28735   1.553   3.191   7.601 -0.0183  0.3976  1.0031
 5758SOL    HW128736   1.528   3.277   7.567  1.3470  0.5392  0.3231
 5758SOL    HW228737   1.648   3.200   7.608  0.4475 -1.4963 -2.7910
 5759SOL     OW28738   2.335   1.612   6.253  0.2487 -0.1766  0.1794
 5759SOL    HW128739   2.309   1.537   6.306 -0.4175  0.7284  1.1300
 5759SOL    HW228740   2.262   1.673   6.268 -0.6391 -1.1759 -0.0898
 5760SOL     OW28741   2.190   0.862  16.784 -0.4721  0.4840  0.1909
 5760SOL    HW128742   2.194   0.933  16.720  1.2667 -0.3949 -0.6631
 5760SOL    HW228743   2.137   0.907  16.850 -1.8150 -0.1788 -0.4382
 5761SOL     OW28744   3.046   0.699   8.709  0.3293 -0.5392  0.5284
 5761SOL    HW128745   3.069   0.680   8.618  2.3310  0.9849  0.7130
 5761SOL    HW228746   3.134   0.683   8.743  1.2964  0.3569 -1.4993
 5762SOL     OW28747   4.015   1.012   9.212  0.8403 -0.1035  0.3890
 5762SOL    HW128748   4.086   1.034   9.273  2.3045 -0.1947 -1.2899
 5762SOL    HW228749   4.001   1.093   9.163 -1.4871 -2.3938 -2.7200
 5763SOL     OW28750   3.138   2.849   7.705 -0.5698 -0.6332  0.1004
 5763SOL    HW128751   3.084   2.833   7.782  0.3417  0.0478  0.8868
 5763SOL    HW228752   3.213   2.795   7.732  0.1651  0.3288 -0.0018
 5764SOL     OW28753   1.471   3.648   3.753  0.3950  0.3720  0.5169
 5764SOL    HW128754   1.434   3.736   3.745 -1.5500 -0.4131  0.6661
 5764SOL    HW228755   1.414   3.594   3.698  1.3049  0.3770 -0.4316
 5765SOL     OW28756   2.795   0.012   3.737  0.4968 -0.6492  0.2543
 5765SOL    HW128757   2.885   4.707   3.755  0.8692  0.7381  0.6374
 5765SOL    HW228758   2.751   4.720   3.820  0.4903 -0.4201  0.2930
 5766SOL     OW28759   3.383   4.036   8.400  0.3046  0.2415 -0.0029
 5766SOL    HW128760   3.359   4.101   8.466  1.3694  0.4600  0.1673
 5766SOL    HW228761   3.305   3.980   8.401  1.0048 -0.7396 -0.4057
 5767SOL     OW28762   2.126   4.022  12.759  0.3204  0.1149 -0.4095
 5767SOL    HW128763   2.172   4.079  12.822 -1.9517  0.5991  0.7955
 5767SOL    HW228764   2.046   4.071  12.746 -0.3896 -0.7444  0.7187
 5768SOL     OW28765   3.581   0.347   8.787  0.7384  0.3608  0.0501
 5768SOL    HW128766   3.624   0.365   8.704 -2.2698  0.5506 -1.4653
 5768SOL    HW228767   3.652   0.312   8.841 -0.2061  0.5026  1.3971
 5769SOL     OW28768   2.080   0.814  16.478  0.0282  0.3814 -0.0515
 5769SOL    HW128769   2.128   0.883  16.523  0.2017  1.0870 -1.3129
 5769SOL    HW228770   2.117   0.729  16.500 -1.1336 -0.1839 -0.2385
 5770SOL     OW28771   3.490   2.970  10.074 -0.0265  0.3282 -0.1367
 5770SOL    HW128772   3.429   2.921  10.128  2.8294 -0.7020  2.0803
 5770SOL    HW228773   3.576   2.936  10.097  0.5488  1.8313 -0.0727
 5771SOL     OW28774   2.809   2.604   4.444  0.5694 -0.3785  0.6419
 5771SOL    HW128775   2.831   2.517   4.411 -0.1188  0.0710 -0.9950
 5771SOL    HW228776   2.828   2.653   4.365  1.2301 -0.6603  0.6264
 5772SOL     OW28777   0.042   3.100   8.601  0.2097  0.9975  0.8335
 5772SOL    HW128778   0.041   3.196   8.605 -0.6263  0.9708  1.2393
 5772SOL    HW228779   0.089   3.089   8.518  0.3222  0.6827  0.9374
 5773SOL     OW28780   0.486   0.017  16.230  0.0459 -0.2246  0.3288
 5773SOL    HW128781   0.416   4.715  16.169 -1.7670 -0.6241  2.5882
 5773SOL    HW228782   0.441   0.054  16.305 -0.6733 -0.3031 -0.0640
 5774SOL     OW28783   2.483   0.416   7.039  0.7665 -0.4979 -0.0743
 5774SOL    HW128784   2.481   0.320   7.036 -2.0493 -0.4153 -1.3198
 5774SOL    HW228785   2.575   0.442   7.040  1.3116 -2.3891 -0.6981
 5775SOL     OW28786   4.494   2.307  11.958  0.3367 -0.2727 -0.4866
 5775SOL    HW128787   4.471   2.378  12.018  0.3586  0.3730 -1.2308
 5775SOL    HW228788   4.536   2.245  12.017 -2.6562 -0.7198  1.1742
 5776SOL     OW28789   1.704   3.938   6.573  0.1340  0.6067  0.2793
 5776SOL    HW128790   1.715   3.846   6.549 -0.1166  0.3834  1.0075
 5776SOL    HW228791   1.669   3.969   6.489 -0.3613 -0.4553  0.1017
 5777SOL     OW28792   0.227   3.230   9.078 -0.5237  0.1430  0.0012
 5777SOL    HW128793   0.178   3.179   9.142 -1.1530 -0.3983 -0.9086
 5777SOL    HW228794   0.159   3.242   9.011 -0.5842 -0.1813  0.0038
 5778SOL     OW28795   0.197   2.227   6.447 -0.5805  0.1570 -0.1555
 5778SOL    HW128796   0.122   2.283   6.469 -0.7244 -0.1376  0.0869
 5778SOL    HW228797   0.269   2.282   6.476  0.3273 -0.6427 -0.9100
 5779SOL     OW28798   3.719   0.983   7.309 -0.4347 -0.3339  0.3017
 5779SOL    HW128799   3.746   1.049   7.246  1.5550 -0.7778  0.7137
 5779SOL    HW228800   3.644   1.024   7.352 -0.5290 -0.4521  0.2515
 5780SOL     OW28801   1.773   2.160   4.021  0.0490  0.0656  0.2620
 5780SOL    HW128802   1.834   2.107   3.970 -1.1959 -1.5632  0.4224
 5780SOL    HW228803   1.841   2.211   4.063 -2.4714  4.5600 -1.1359
 5781SOL     OW28804   2.551   3.988   4.263 -0.5639 -0.2647  0.3221
 5781SOL    HW128805   2.627   4.018   4.213 -1.0879  2.7306  1.3099
 5781SOL    HW228806   2.482   4.000   4.198 -1.5466 -0.4482  1.3401
 5782SOL     OW28807   3.646   4.166   6.607  0.2759 -0.1700 -0.0240
 5782SOL    HW128808   3.553   4.182   6.618  0.6327  2.9842 -1.6466
 5782SOL    HW228809   3.640   4.081   6.562  1.3206  0.4480 -1.3298
 5783SOL     OW28810   3.193   3.846   8.452  0.4379 -0.6442  0.3752
 5783SOL    HW128811   3.107   3.854   8.493 -0.4162 -0.2718 -1.4835
 5783SOL    HW228812   3.247   3.868   8.528 -0.5722  1.0893  0.5769
 5784SOL     OW28813   1.913   2.629   3.432  0.2282  0.5673  0.2567
 5784SOL    HW128814   1.942   2.693   3.497  0.1611  0.6594  0.1955
 5784SOL    HW228815   1.946   2.666   3.350  0.2828  1.2266  0.5825
 5785SOL     OW28816   2.782   3.440   4.378 -0.2478 -0.1877  0.5415
 5785SOL    HW128817   2.690   3.427   4.402  0.0608 -0.3200  1.6557
 5785SOL    HW228818   2.797   3.352   4.343 -0.6654  0.3125 -0.8705
 5786SOL     OW28819   4.278   1.850   7.288 -0.0947 -0.0658 -0.3243
 5786SOL    HW128820   4.349   1.796   7.324 -0.5442 -2.2930 -2.7547
 5786SOL    HW228821   4.218   1.781   7.258  0.7615 -1.4841  1.2122
 5787SOL     OW28822   1.302   3.160   5.055 -0.0576  0.3672  0.5595
 5787SOL    HW128823   1.308   3.121   5.143  0.9141  1.2695  0.8921
 5787SOL    HW228824   1.211   3.137   5.036 -0.6483  2.9243  0.3121
 5788SOL     OW28825   0.193   4.491   8.233  0.2363 -0.1684 -0.0698
 5788SOL    HW128826   0.284   4.462   8.227  0.7435  0.7950  2.6265
 5788SOL    HW228827   0.165   4.474   8.323  0.6710  1.7131  0.4209
 5789SOL     OW28828   2.717   4.545   6.011 -0.2163 -0.3482 -0.2810
 5789SOL    HW128829   2.642   4.604   6.015  0.4707  0.4283  1.1718
 5789SOL    HW228830   2.762   4.575   5.932  0.7872 -1.3182 -0.0751
 5790SOL     OW28831   3.469   0.156  16.714  0.6241  0.1295  0.0652
 5790SOL    HW128832   3.547   0.103  16.731  0.6354 -0.2715 -1.1962
 5790SOL    HW228833   3.401   0.101  16.754 -1.3427  0.1814 -3.1912
 5791SOL     OW28834   4.227   0.888  12.812 -0.8727 -0.0983 -0.0321
 5791SOL    HW128835   4.210   0.824  12.880  1.0328 -2.0591 -1.3940
 5791SOL    HW228836   4.295   0.844  12.761 -0.9251  3.3632 -3.1630
 5792SOL     OW28837   0.760   4.572   2.430  0.2305 -0.3418 -0.1344
 5792SOL    HW128838   0.676   4.604   2.397 -0.2058 -0.0267  1.2732
 5792SOL    HW228839   0.726   4.511   2.495  0.3435  0.4110  0.6283
 5793SOL     OW28840   0.201   2.932   7.564 -0.1156 -0.1090  0.0087
 5793SOL    HW128841   0.152   2.960   7.641  0.8489  0.2641  0.4882
 5793SOL    HW228842   0.129   2.940   7.501  1.7515  1.2529 -1.9762
 5794SOL     OW28843   2.855   3.299  10.068 -0.0503  0.1438  0.5498
 5794SOL    HW128844   2.903   3.225  10.032 -0.5760 -0.6741  1.5349
 5794SOL    HW228845   2.890   3.298  10.157  0.3560 -2.7095  0.3494
 5795SOL     OW28846   2.217   4.351   7.690  0.1703 -0.2464 -0.2210
 5795SOL    HW128847   2.213   4.438   7.650 -1.0316  0.3775  1.2300
 5795SOL    HW228848   2.140   4.317   7.644  1.8315  2.0962 -4.8007
 5796SOL     OW28849   1.296   1.342   8.833 -0.2898 -0.1219 -0.2072
 5796SOL    HW128850   1.232   1.341   8.904  1.4592 -0.5855  1.3567
 5796SOL    HW228851   1.351   1.418   8.852  1.0893 -0.8854 -1.1746
 5797SOL     OW28852   1.662   0.562  10.650  0.2124  0.3513  0.1688
 5797SOL    HW128853   1.754   0.588  10.644  0.8009 -1.7965 -0.3668
 5797SOL    HW228854   1.667   0.471  10.679  1.7962  0.7100  1.0456
 5798SOL     OW28855   2.669   1.474   1.347  0.3177  0.4210  0.1943
 5798SOL    HW128856   2.713   1.406   1.398 -3.9909 -2.9527 -0.5895
 5798SOL    HW228857   2.578   1.447   1.354  0.9283 -2.0558 -1.6362
 5799SOL     OW28858   3.815   4.299   4.934 -0.5671  0.1373  0.2428
 5799SOL    HW128859   3.730   4.288   4.893 -1.0193  2.6222  0.5109
 5799SOL    HW228860   3.858   4.227   4.887  2.2763  1.2946  1.0777
 5800SOL     OW28861   3.851   3.503   5.846  0.3871  0.4264 -0.5133
 5800SOL    HW128862   3.834   3.558   5.923  3.0667  0.6781 -0.0639
 5800SOL    HW228863   3.862   3.572   5.781 -1.8437  2.7781  1.5975
 5801SOL     OW28864   1.710   3.997  10.486  0.3051  0.0278 -0.0571
 5801SOL    HW128865   1.680   3.911  10.513 -2.0400  0.5444 -1.0623
 5801SOL    HW228866   1.633   4.047  10.511  1.7450  1.2921  1.8259
 5802SOL     OW28867   3.487   0.921   5.505  0.0507  0.2520  0.1620
 5802SOL    HW128868   3.409   0.876   5.472  0.7215 -1.2528  0.6449
 5802SOL    HW228869   3.493   0.999   5.451  1.7409 -0.7443 -1.0799
 5803SOL     OW28870   2.365   4.337   5.553  0.9891  0.1705 -0.9821
 5803SOL    HW128871   2.419   4.350   5.632 -1.6799  0.1215  0.8462
 5803SOL    HW228872   2.290   4.299   5.599  1.4041 -0.9882 -1.2625
 5804SOL     OW28873   1.263   2.587   3.540  0.2763  0.2274  0.1209
 5804SOL    HW128874   1.195   2.631   3.591  0.2576  0.9537 -0.5370
 5804SOL    HW228875   1.340   2.614   3.590  0.1701 -0.4341  0.6366
 5805SOL     OW28876   0.379   4.349   2.987  0.1533 -0.1267  0.2890
 5805SOL    HW128877   0.343   4.396   2.911  1.7525 -0.3586 -0.5953
 5805SOL    HW228878   0.345   4.397   3.063 -0.1863  0.9222 -0.5102
 5806SOL     OW28879   3.214   0.834   8.279  0.7708  0.4091  0.2958
 5806SOL    HW128880   3.286   0.862   8.335  1.1195 -1.3924  0.7649
 5806SOL    HW228881   3.265   0.852   8.200  0.4217 -2.6202 -0.6514
 5807SOL     OW28882   3.868   0.803   8.977 -0.0409 -0.3846 -0.9110
 5807SOL    HW128883   3.804   0.774   8.912 -1.0677  2.0184 -0.9719
 5807SOL    HW228884   3.945   0.779   8.926  0.2259  1.6734 -1.4590
 5808SOL     OW28885   2.879   1.502   6.638  0.5246 -0.1934 -0.3978
 5808SOL    HW128886   2.806   1.560   6.617  0.6319 -0.8749 -2.6830
 5808SOL    HW228887   2.896   1.537   6.726 -2.0253 -1.8104  0.7375
 5809SOL     OW28888   0.406   3.634  11.331 -0.0699 -0.5226 -0.3853
 5809SOL    HW128889   0.428   3.546  11.361 -1.5992 -0.6653  0.3230
 5809SOL    HW228890   0.368   3.672  11.410 -1.0080 -0.7668 -0.7187
 5810SOL     OW28891   3.363   0.743  10.625 -0.2754 -0.1762  0.3771
 5810SOL    HW128892   3.390   0.672  10.568  1.4475 -0.7826  1.9185
 5810SOL    HW228893   3.441   0.799  10.621  1.5242 -2.6246  0.8052
 5811SOL     OW28894   3.076   0.233   4.562 -0.2766  1.2209  0.0097
 5811SOL    HW128895   3.073   0.255   4.469 -1.2469 -1.0247 -0.4915
 5811SOL    HW228896   3.074   0.137   4.554  0.3568  1.1262  0.9672
 5812SOL     OW28897   2.455   0.273   1.542  0.2087  0.1329 -0.2061
 5812SOL    HW128898   2.407   0.268   1.624 -1.6643 -0.8691 -1.3706
 5812SOL    HW228899   2.386   0.236   1.487 -0.4315 -2.8166  2.6063
 5813SOL     OW28900   1.713   4.055   6.858  0.1016  0.3896 -0.5946
 5813SOL    HW128901   1.638   4.055   6.917  0.2266 -3.1127 -0.4823
 5813SOL    HW228902   1.690   3.986   6.796 -1.6017 -0.6763  1.2259
 5814SOL     OW28903   3.727   4.114   1.261  0.3708 -0.0580  0.7399
 5814SOL    HW128904   3.705   4.026   1.291  1.6139 -1.0154 -1.2102
 5814SOL    HW228905   3.650   4.158   1.298 -0.9455  0.6251 -2.8425
 5815SOL     OW28906   2.966   1.836   4.349  0.3026  0.0470  0.0176
 5815SOL    HW128907   2.903   1.767   4.331 -1.6464  1.8950 -0.2177
 5815SOL    HW228908   3.028   1.826   4.276  2.0210 -1.2467  1.6604
 5816SOL     OW28909   1.080   0.100   6.659  0.4221 -0.1476  0.0788
 5816SOL    HW128910   1.077   0.148   6.742 -1.5982  0.0705 -0.1256
 5816SOL    HW228911   1.137   0.154   6.605  0.3963  1.4225  1.6331
 5817SOL     OW28912   1.409   2.232   1.361  0.1875  0.2031 -0.1163
 5817SOL    HW128913   1.357   2.205   1.285 -0.6760 -0.2714  0.6365
 5817SOL    HW228914   1.446   2.314   1.329 -0.5478  1.2600  1.7863
 5818SOL     OW28915   3.754   0.065   8.507  0.6147 -0.2518  0.8385
 5818SOL    HW128916   3.674   0.032   8.547 -1.3129  1.8791 -1.2571
 5818SOL    HW228917   3.728   0.048   8.416 -1.3228  1.1207  1.1262
 5819SOL     OW28918   3.232   4.567   8.772 -0.2423 -0.3594  0.1485
 5819SOL    HW128919   3.181   4.565   8.691  0.1304  2.9118 -0.1995
 5819SOL    HW228920   3.272   4.654   8.781 -1.9885  0.7303 -2.3876
 5820SOL     OW28921   4.464   0.579   8.521  0.2549  0.3507  0.0468
 5820SOL    HW128922   4.387   0.616   8.563 -0.6096 -1.2611 -0.0988
 5820SOL    HW228923   4.474   0.496   8.568  1.2632  1.1620  1.2844
 5821SOL     OW28924   1.952   2.716   3.882  0.4507  0.1059 -1.0720
 5821SOL    HW128925   1.864   2.744   3.906  0.8935 -1.7346  2.6343
 5821SOL    HW228926   1.938   2.625   3.907 -1.5652  0.4404 -0.9933
 5822SOL     OW28927   0.721   2.342   7.251 -0.3109 -0.9513  0.0072
 5822SOL    HW128928   0.675   2.395   7.187 -2.2023 -0.9563  1.3720
 5822SOL    HW228929   0.661   2.347   7.325  0.5669 -0.3509  0.6764
 5823SOL     OW28930   0.696   3.433  12.034 -0.1659  0.4212  0.3784
 5823SOL    HW128931   0.742   3.353  12.011  1.4590  0.4651  3.4614
 5823SOL    HW228932   0.659   3.408  12.119 -0.8940  2.2724  0.6052
 5824SOL     OW28933   3.843   3.010   9.241  1.1034  0.7540 -0.2683
 5824SOL    HW128934   3.829   2.918   9.262 -2.0320  1.8498  2.3894
 5824SOL    HW228935   3.914   3.004   9.177  0.8399  1.6462 -0.6455
 5825SOL     OW28936   1.179   1.449   7.527  0.0158 -0.2602 -0.1469
 5825SOL    HW128937   1.149   1.515   7.590  1.2483  1.2527 -1.1205
 5825SOL    HW228938   1.253   1.495   7.487  0.1011 -0.7456 -0.5545
 5826SOL     OW28939   1.771   0.905   7.288 -0.5811  0.2961 -0.9883
 5826SOL    HW128940   1.831   0.875   7.220  0.9658 -0.5533  0.7564
 5826SOL    HW228941   1.697   0.931   7.233 -0.1531  0.4137 -1.5185
 5827SOL     OW28942   4.141   0.113   3.977 -0.0753 -0.3581 -0.8143
 5827SOL    HW128943   4.078   0.042   3.985 -0.0364 -0.1710  1.2441
 5827SOL    HW228944   4.083   0.186   3.998  0.5657  0.3649 -1.5666
 5828SOL     OW28945   1.121   1.396   8.166 -0.1401 -0.2779  0.4965
 5828SOL    HW128946   1.082   1.312   8.142  1.8731 -1.1036  0.0840
 5828SOL    HW228947   1.126   1.383   8.260 -0.8016 -0.1967  0.5399
 5829SOL     OW28948   0.297   4.634   5.372  0.3805 -0.4150  0.1820
 5829SOL    HW128949   0.215   4.594   5.345  1.6664 -2.2554 -0.9788
 5829SOL    HW228950   0.278   4.668   5.460 -0.9933  0.5021 -0.4781
 5830SOL     OW28951   0.024   1.308  10.590 -0.2210 -0.1725  0.3052
 5830SOL    HW128952   0.051   1.324  10.680 -1.7671 -0.7694  0.8820
 5830SOL    HW228953   4.702   1.226  10.609 -1.7653  0.2608 -1.5414
 5831SOL     OW28954   1.139   1.237  12.040 -0.2542 -0.3018  0.0312
 5831SOL    HW128955   1.061   1.223  12.093  0.4593 -1.2450  0.8221
 5831SOL    HW228956   1.170   1.309  12.095  1.1453 -0.2240 -0.8683
 5832SOL     OW28957   0.204   2.681  13.001  0.0552 -0.2630 -0.0517
 5832SOL    HW128958   0.189   2.746  13.070  0.5366 -0.8341  0.5894
 5832SOL    HW228959   0.263   2.730  12.944  2.7158 -0.9050  2.1542
 5833SOL     OW28960   4.163   2.849   1.199  0.2608  0.0240  0.2912
 5833SOL    HW128961   4.249   2.815   1.171  0.5924  0.1202  1.1897
 5833SOL    HW228962   4.112   2.798   1.136 -1.3122  1.3560  0.5119
 5834SOL     OW28963   4.300   2.796   1.425 -0.0467  0.2486 -0.0131
 5834SOL    HW128964   4.238   2.824   1.357  0.5030 -1.0411 -1.0458
 5834SOL    HW228965   4.275   2.704   1.431  1.2822 -0.2166 -1.8202
 5835SOL     OW28966   4.704   1.404   8.793  1.0738  0.4171  0.1721
 5835SOL    HW128967   4.709   1.481   8.737 -1.3527  0.8580  0.5863
 5835SOL    HW228968   0.039   1.432   8.864  1.6622  1.0959 -0.5763
 5836SOL     OW28969   3.134   1.203   1.981  0.4120  0.0369  0.3603
 5836SOL    HW128970   3.219   1.160   1.996  0.7241  0.3065 -0.6689
 5836SOL    HW228971   3.138   1.253   2.063 -2.2767  0.3725  0.2918
 5837SOL     OW28972   1.353   3.885  12.224  0.3743 -0.2600  0.7518
 5837SOL    HW128973   1.433   3.914  12.266  0.7092  0.3884 -0.3312
 5837SOL    HW228974   1.379   3.869  12.133  1.1729 -2.5113  1.3927
 5838SOL     OW28975   3.538   4.565   4.314  0.1686  0.3891  0.3430
 5838SOL    HW128976   3.503   4.652   4.331  0.6515  0.2449  2.0377
 5838SOL    HW228977   3.476   4.531   4.249 -1.5224  0.9546  1.6788
 5839SOL     OW28978   0.153   3.978   5.002 -0.2630  0.1001 -0.0853
 5839SOL    HW128979   0.107   3.909   4.954 -0.3079 -0.5326  0.8474
 5839SOL    HW228980   0.220   3.919   5.037  2.2016  1.8180 -1.9755
 5840SOL     OW28981   4.184   4.479   3.188  0.6004  0.1126  0.2198
 5840SOL    HW128982   4.128   4.552   3.161  2.4435  0.7959 -1.7726
 5840SOL    HW228983   4.129   4.402   3.183  0.6481  0.1991 -1.6121
 5841SOL     OW28984   1.870   2.532   6.350 -0.0169 -0.0472  0.0953
 5841SOL    HW128985   1.843   2.543   6.441 -0.7195  2.6822 -0.4337
 5841SOL    HW228986   1.852   2.617   6.311  0.9264 -0.6607 -1.6677
 5842SOL     OW28987   3.917   4.108   3.369  0.0558  0.2260  0.0242
 5842SOL    HW128988   3.973   4.165   3.315  0.0735 -0.8541 -1.1039
 5842SOL    HW228989   3.853   4.070   3.309  0.0403  1.5601 -0.8184
 5843SOL     OW28990   2.494   1.382   8.785  0.1045 -0.2045 -0.1465
 5843SOL    HW128991   2.431   1.333   8.731 -4.3267  1.1536  3.7494
 5843SOL    HW228992   2.514   1.326   8.860  2.8791 -0.5129 -1.1455
 5844SOL     OW28993   4.642   3.890   3.998  0.0699  0.0651 -0.3127
 5844SOL    HW128994   4.619   3.826   3.932 -2.4334 -1.0984  1.7204
 5844SOL    HW228995   4.708   3.841   4.048 -0.0992 -0.6425 -0.7830
 5845SOL     OW28996   2.542   3.333   6.997  0.3840  0.8113  0.0363
 5845SOL    HW128997   2.632   3.321   7.025 -0.0093 -1.1786  0.4344
 5845SOL    HW228998   2.567   3.368   6.911 -1.1344 -0.9865 -1.1416
 5846SOL     OW28999   4.507   3.912   4.696 -0.8241  0.5170 -0.0306
 5846SOL    HW129000   4.458   3.978   4.744  0.6259  0.3452  1.6918
 5846SOL    HW229001   4.591   3.905   4.741 -1.5784 -4.0734  0.6723
 5847SOL     OW29002   1.934   0.638   5.531  0.1578  0.0291  0.2869
 5847SOL    HW129003   1.850   0.678   5.550  0.6503  1.4259 -0.4549
 5847SOL    HW229004   1.976   0.637   5.617  0.2526  0.3920  0.2432
 5848SOL     OW29005   3.324   2.479   9.604 -0.0364  0.0279  0.5580
 5848SOL    HW129006   3.263   2.527   9.660 -0.8827 -2.6692  1.9517
 5848SOL    HW229007   3.342   2.393   9.643  0.6988 -0.1251 -0.1204
 5849SOL     OW29008   0.743   4.537   5.670 -0.1395  0.4555 -0.0358
 5849SOL    HW129009   0.735   4.615   5.724 -0.3815 -1.1379  2.2591
 5849SOL    HW229010   0.676   4.562   5.607 -1.9047  0.9097  2.0143
 5850SOL     OW29011   2.297   3.875   2.322  0.2083  0.1008  0.0479
 5850SOL    HW129012   2.247   3.867   2.403 -0.8247 -1.5952 -0.7642
 5850SOL    HW229013   2.338   3.962   2.329 -2.5921  1.4605 -0.3846
 5851SOL     OW29014   0.454   4.187   1.294 -0.0334 -0.4695 -0.1527
 5851SOL    HW129015   0.363   4.186   1.325 -0.2952  0.9417 -0.8928
 5851SOL    HW229016   0.498   4.122   1.349  0.6919  1.5222  1.6405
 5852SOL     OW29017   2.801   1.203   0.696 -0.6849 -0.2751 -0.0390
 5852SOL    HW129018   2.776   1.174   0.608  1.8929 -0.0742 -0.8205
 5852SOL    HW229019   2.835   1.289   0.670  0.6672 -1.1597 -1.2319
 5853SOL     OW29020   4.294   3.117   4.490  0.2973  0.6125  0.0422
 5853SOL    HW129021   4.281   3.151   4.578 -2.1217 -0.5387  0.1180
 5853SOL    HW229022   4.274   3.023   4.495 -0.9501  0.9047  0.3421
 5854SOL     OW29023   1.717   3.469   2.654  0.4643 -0.3716 -0.0619
 5854SOL    HW129024   1.748   3.395   2.602 -1.7745  0.5391 -2.6929
 5854SOL    HW229025   1.783   3.466   2.723  1.3491 -0.5726 -0.9106
 5855SOL     OW29026   2.050   3.901  12.523 -0.0012  0.2886 -0.2865
 5855SOL    HW129027   2.123   3.880  12.464 -1.1552 -0.6146 -1.3824
 5855SOL    HW229028   2.084   3.929  12.608 -0.8172 -1.7181  0.6863
 5856SOL     OW29029   0.087   0.037  15.839  0.2410  0.0519 -0.4054
 5856SOL    HW129030   0.103   0.113  15.783 -2.7062 -0.4825 -1.9686
 5856SOL    HW229031   0.153   4.702  15.803  1.1028 -0.1880  1.5584
 5857SOL     OW29032   3.384   1.099   4.570 -0.6869 -0.0191 -0.0691
 5857SOL    HW129033   3.419   1.130   4.486 -1.6497 -2.0057 -1.2176
 5857SOL    HW229034   3.416   1.009   4.577 -0.7367  0.0833  1.3580
 5858SOL     OW29035   2.533   1.436   5.891 -0.4165  0.0627 -0.1765
 5858SOL    HW129036   2.590   1.418   5.816 -0.0146 -2.1042  0.6497
 5858SOL    HW229037   2.571   1.516   5.929 -0.1598 -0.9197  1.6373
 5859SOL     OW29038   1.254   0.547  16.517 -0.3790  0.0793  0.2671
 5859SOL    HW129039   1.335   0.566  16.468  0.0460  0.1798  1.0140
 5859SOL    HW229040   1.286   0.499  16.594 -1.3030 -0.8887  0.0445
 5860SOL     OW29041   0.886   1.122   3.745  0.3881 -0.0894  0.5322
 5860SOL    HW129042   0.870   1.029   3.729 -2.6145  0.6244 -0.6529
 5860SOL    HW229043   0.847   1.172   3.674  0.9151  1.2795  1.2223
 5861SOL     OW29044   2.823   2.014  17.139 -0.4495  0.2289 -0.3426
 5861SOL    HW129045   2.919   2.009  17.129 -0.2325  1.0075  1.4041
 5861SOL    HW229046   2.821   2.006  17.234  1.1001  1.3369 -0.2106
 5862SOL     OW29047   2.176   1.072   6.693  0.1783 -0.0165 -0.6417
 5862SOL    HW129048   2.259   1.116   6.713  0.7561 -1.7499  0.8060
 5862SOL    HW229049   2.125   1.141   6.651 -0.8853 -1.2838 -1.4350
 5863SOL     OW29050   4.484   1.500   5.643  0.1470 -0.1178 -0.8966
 5863SOL    HW129051   4.466   1.587   5.680  1.5933  0.2531 -1.0360
 5863SOL    HW229052   4.498   1.530   5.553 -2.3088  0.1943 -1.1726
 5864SOL     OW29053   1.386   2.110   8.499 -0.2546 -0.2751 -0.4173
 5864SOL    HW129054   1.460   2.106   8.438 -0.4987  2.0893 -0.8823
 5864SOL    HW229055   1.417   2.140   8.584  1.9151 -1.8301 -0.6606
 5865SOL     OW29056   0.600   3.318   7.034 -0.9696  0.0484  0.2925
 5865SOL    HW129057   0.512   3.293   7.061 -0.6702  1.3644  2.5363
 5865SOL    HW229058   0.620   3.354   7.121  0.9389  2.7962 -1.2910
 5866SOL     OW29059   3.864   1.785  12.003 -0.1849  0.3573 -0.0921
 5866SOL    HW129060   3.878   1.861  11.946 -0.0596  0.5235  0.1594
 5866SOL    HW229061   3.790   1.815  12.056 -1.7620 -0.7858 -1.6666
 5867SOL     OW29062   4.397   2.296  16.963 -0.6889 -0.4131 -0.5778
 5867SOL    HW129063   4.453   2.232  16.919 -0.9716 -1.0698  0.0117
 5867SOL    HW229064   4.437   2.381  16.942  1.2912 -1.4219 -0.8656
 5868SOL     OW29065   3.744   3.761   6.582 -0.1459  0.2694 -0.2183
 5868SOL    HW129066   3.726   3.796   6.669  2.1024  1.6672 -0.3170
 5868SOL    HW229067   3.698   3.677   6.594 -0.9237  0.7220 -0.0612
 5869SOL     OW29068   0.583   1.534  11.751 -0.3636 -0.7665  0.5089
 5869SOL    HW129069   0.584   1.507  11.659 -3.8487  1.3243 -0.1431
 5869SOL    HW229070   0.638   1.611  11.739 -1.3162 -0.5173 -2.2523
 5870SOL     OW29071   4.311   3.560   1.491 -0.0075 -0.1557  0.4930
 5870SOL    HW129072   4.377   3.615   1.534 -0.4588 -0.2630  1.3109
 5870SOL    HW229073   4.265   3.519   1.564 -0.3607 -0.0035  0.3546
 5871SOL     OW29074   0.668   0.610   4.796 -0.4214  0.1342 -0.2650
 5871SOL    HW129075   0.616   0.531   4.790  1.6355 -1.3310  0.9984
 5871SOL    HW229076   0.590   0.666   4.795 -0.6487 -0.2497 -2.4919
 5872SOL     OW29077   0.043   3.674   9.546 -0.1850  0.0368 -0.1956
 5872SOL    HW129078   0.080   3.762   9.542 -0.8986  0.2316 -2.7269
 5872SOL    HW229079   0.034   3.665   9.641 -0.2101  2.0223 -0.0290
 5873SOL     OW29080   2.986   3.702   6.830  0.0342 -0.2257 -0.2895
 5873SOL    HW129081   2.893   3.724   6.837 -0.2084 -0.5979 -2.2509
 5873SOL    HW229082   3.041   3.758   6.885 -1.4680  1.3438 -0.3920
 5874SOL     OW29083   4.335   1.723  10.726 -0.2147  0.0066 -0.2933
 5874SOL    HW129084   4.397   1.793  10.707 -0.5560  1.1595  2.9219
 5874SOL    HW229085   4.397   1.654  10.750 -0.7194 -0.8680 -1.4453
 5875SOL     OW29086   2.800   0.585  16.755  0.0349  0.5266 -0.2940
 5875SOL    HW129087   2.834   0.632  16.678  0.6595  1.7249  0.7029
 5875SOL    HW229088   2.871   0.523  16.770 -0.0576 -0.2109 -2.9192
 5876SOL     OW29089   3.960   0.112   5.356  0.3712 -0.2606  0.0509
 5876SOL    HW129090   4.050   0.082   5.344  0.5164 -0.6597  2.2581
 5876SOL    HW229091   3.972   0.206   5.346  1.9815 -0.4232  0.5634
 5877SOL     OW29092   1.224   1.705  12.540  0.2617  0.1298  0.0058
 5877SOL    HW129093   1.256   1.755  12.615  0.1647 -0.3859  0.3860
 5877SOL    HW229094   1.297   1.650  12.512 -0.4253 -0.1772 -1.1911
 5878SOL     OW29095   3.688   4.332  11.814 -0.0196 -0.4018  0.3480
 5878SOL    HW129096   3.681   4.334  11.909 -0.2138  1.1125  0.3075
 5878SOL    HW229097   3.616   4.270  11.803  0.4958 -1.0294  0.4989
 5879SOL     OW29098   0.807   0.653  16.466 -0.2679  0.4776  0.6785
 5879SOL    HW129099   0.877   0.702  16.509  0.3837 -0.4347  0.6628
 5879SOL    HW229100   0.775   0.592  16.533  0.0724  0.5748  0.9309
 5880SOL     OW29101   2.143   0.343  10.855 -0.7471  0.4686  0.1574
 5880SOL    HW129102   2.113   0.309  10.771  1.9293 -0.9108 -0.2358
 5880SOL    HW229103   2.127   0.436  10.836 -2.0623 -0.6239 -3.9426
 5881SOL     OW29104   1.656   2.801   3.916  0.2253  0.2818  0.2156
 5881SOL    HW129105   1.620   2.849   3.990 -2.6445 -2.2031  0.3975
 5881SOL    HW229106   1.580   2.756   3.881 -0.4618  1.2611  0.4512
 5882SOL     OW29107   2.447   4.051   7.645  0.0042 -0.6232  0.2908
 5882SOL    HW129108   2.483   4.091   7.725 -1.0901  1.6612 -0.3747
 5882SOL    HW229109   2.397   3.982   7.689 -0.2030 -1.5152 -1.3591
 5883SOL     OW29110   2.458   4.669   5.399  0.0175 -0.0178 -0.1054
 5883SOL    HW129111   2.445   0.029   5.444  1.5227  0.9682 -1.4585
 5883SOL    HW229112   2.541   4.635   5.430 -0.3871  0.1376  1.1411
 5884SOL     OW29113   1.110   3.091   4.209  0.1255  0.1843 -0.3916
 5884SOL    HW129114   1.060   3.065   4.286  1.8255 -1.6241  0.1099
 5884SOL    HW229115   1.068   3.047   4.136 -0.0864 -0.8697  0.3633
 5885SOL     OW29116   3.676   2.892   3.261 -0.2140 -0.2443 -0.2040
 5885SOL    HW129117   3.669   2.818   3.201  1.7892 -1.7856  1.4667
 5885SOL    HW229118   3.721   2.850   3.334  1.5678 -0.9715 -1.7083
 5886SOL     OW29119   1.734   2.669  11.363  0.0170  0.8344 -0.2895
 5886SOL    HW129120   1.716   2.736  11.297  1.3843 -0.6108 -2.1551
 5886SOL    HW229121   1.650   2.624  11.359  0.7362 -0.7733  3.0910
 5887SOL     OW29122   2.374   4.075   0.827  0.1581 -0.1891 -0.0120
 5887SOL    HW129123   2.335   4.025   0.898  0.7739 -0.0414  0.4375
 5887SOL    HW229124   2.350   4.020   0.753  0.3056  0.3535 -0.4694
 5888SOL     OW29125   3.724   2.215   6.368 -0.5656 -0.0743  0.0266
 5888SOL    HW129126   3.682   2.299   6.351 -0.1184  0.1432  0.0038
 5888SOL    HW229127   3.674   2.161   6.306 -1.1989 -0.3322  0.7593
 5889SOL     OW29128   1.566   3.018   7.996  0.6133  0.1215  0.1987
 5889SOL    HW129129   1.478   2.981   7.984  0.2542  0.6554  1.2542
 5889SOL    HW229130   1.551   3.111   8.015 -0.4839  0.0849 -0.4641
 5890SOL     OW29131   0.383   0.768   0.639 -0.8357  0.1046 -0.0224
 5890SOL    HW129132   0.384   0.861   0.615 -0.1311  0.6311  2.0826
 5890SOL    HW229133   0.354   0.730   0.556 -0.7666  2.0389 -0.9440
 5891SOL     OW29134   1.775   4.070   4.759 -0.7547  0.5366  0.2537
 5891SOL    HW129135   1.817   4.131   4.820  0.4884  0.4954 -0.5452
 5891SOL    HW229136   1.718   4.123   4.704  1.7641  0.0516 -2.8254
 5892SOL     OW29137   3.483   1.097  15.042  0.3832 -0.0823  0.6541
 5892SOL    HW129138   3.442   1.045  14.973 -1.1229  2.0558 -0.0446
 5892SOL    HW229139   3.413   1.108  15.106 -1.0108  2.1515 -1.2302
 5893SOL     OW29140   3.090   0.187   6.991  0.3486  0.1251 -0.3285
 5893SOL    HW129141   3.056   0.258   7.046 -0.0754 -0.1320 -0.2636
 5893SOL    HW229142   3.058   0.112   7.042 -1.6344  0.6578 -0.7884
 5894SOL     OW29143   0.158   4.369   7.657  0.3569  0.5965 -0.3000
 5894SOL    HW129144   0.201   4.393   7.739 -3.5212  0.9127  1.6475
 5894SOL    HW229145   0.070   4.405   7.671  1.0806  3.2936 -2.6665
 5895SOL     OW29146   3.392   2.314  17.102  0.9823 -0.3106  0.6660
 5895SOL    HW129147   3.415   2.339  17.192 -1.4089 -3.3683  2.1669
 5895SOL    HW229148   3.475   2.328  17.058 -0.1137  0.7074 -1.0426
 5896SOL     OW29149   1.972   4.277   7.593  0.2930  0.3788  0.2274
 5896SOL    HW129150   1.957   4.305   7.502 -2.1939  3.2759  1.5286
 5896SOL    HW229151   1.907   4.333   7.636  0.0370 -0.6279  1.1303
 5897SOL     OW29152   3.383   4.567   4.764  0.0542  0.1834 -0.2845
 5897SOL    HW129153   3.321   4.520   4.820  0.6053 -2.8417 -2.2829
 5897SOL    HW229154   3.441   4.599   4.833  1.2682 -0.9159 -0.8139
 5898SOL     OW29155   1.609   1.770   8.594  0.3854  0.4605  0.4633
 5898SOL    HW129156   1.703   1.773   8.612  1.0896 -2.8375 -2.6815
 5898SOL    HW229157   1.571   1.745   8.678  1.5254 -1.0355  0.5228
 5899SOL     OW29158   0.580   1.019   3.708  0.0501  0.3819  0.2321
 5899SOL    HW129159   0.538   0.933   3.700 -0.2948  0.5778 -0.0588
 5899SOL    HW229160   0.670   1.002   3.737 -0.3628  0.7289  1.6917
 5900SOL     OW29161   1.369   2.703   6.918  0.5832 -0.0078 -0.1740
 5900SOL    HW129162   1.387   2.647   6.993 -2.0027  2.9195  2.6886
 5900SOL    HW229163   1.283   2.675   6.885  1.1029 -1.4397 -0.2848
 5901SOL     OW29164   0.047   0.941   7.508 -0.4465  0.0239 -0.5482
 5901SOL    HW129165   4.713   0.897   7.445  1.1004 -0.3373 -1.7130
 5901SOL    HW229166   4.713   1.016   7.522 -3.6522 -2.6042  0.5723
 5902SOL     OW29167   0.463   2.050   4.214  0.3430 -0.2836  0.0230
 5902SOL    HW129168   0.390   2.072   4.156  2.3861  1.2871 -1.9831
 5902SOL    HW229169   0.415   2.000   4.280 -0.8923  0.1386 -0.5471
 5903SOL     OW29170   2.871   2.692   2.697  0.6560 -0.2063 -0.1938
 5903SOL    HW129171   2.776   2.701   2.705  0.6122 -0.6736 -0.2052
 5903SOL    HW229172   2.883   2.669   2.789  0.8797  2.2005  0.3716
 5904SOL     OW29173   2.870   4.716   4.414  0.4234  0.2064  0.4290
 5904SOL    HW129174   2.824   0.040   4.345 -2.4574  1.8726  3.5172
 5904SOL    HW229175   2.843   0.033   4.497  1.2755  0.5149  0.5512
 5905SOL     OW29176   4.094   2.133   5.045 -0.5418  0.3254 -0.3845
 5905SOL    HW129177   4.067   2.048   5.080  1.6006 -0.3022 -0.2677
 5905SOL    HW229178   4.072   2.195   5.115 -1.1148 -0.6424  0.3015
 5906SOL     OW29179   2.565   0.665   2.866  0.4383 -0.2743  0.3763
 5906SOL    HW129180   2.516   0.587   2.838 -1.6869  0.5116  1.8944
 5906SOL    HW229181   2.623   0.669   2.790  2.2684 -0.2483  1.7760
 5907SOL     OW29182   2.395   0.759   5.643  0.0816 -0.0941 -0.2932
 5907SOL    HW129183   2.337   0.834   5.661 -0.2556 -0.3892 -0.1493
 5907SOL    HW229184   2.338   0.708   5.586  0.1984 -1.1011  0.4990
 5908SOL     OW29185   2.777   0.891   3.447 -0.8341 -0.0526 -0.2374
 5908SOL    HW129186   2.798   0.977   3.483 -1.2390  0.7296 -1.8410
 5908SOL    HW229187   2.684   0.909   3.431 -0.7027  1.0023  0.1659
 5909SOL     OW29188   1.958   3.135  14.554 -0.1837  0.6071  0.2411
 5909SOL    HW129189   1.921   3.210  14.601 -2.8302 -1.2935  1.1811
 5909SOL    HW229190   1.938   3.064  14.614 -0.2642  0.2256 -0.2338
 5910SOL     OW29191   1.556   2.684   4.739 -0.2224  0.0852 -0.1862
 5910SOL    HW129192   1.625   2.637   4.786  0.5315 -1.5366 -2.9724
 5910SOL    HW229193   1.505   2.617   4.693 -1.1203  0.7142 -0.1119
 5911SOL     OW29194   1.931   4.110   6.586 -0.4092  0.2338  0.1656
 5911SOL    HW129195   1.926   4.121   6.492 -2.2593 -0.6078  0.1600
 5911SOL    HW229196   1.860   4.049   6.609  0.1772 -0.3240  0.5105
 5912SOL     OW29197   2.019   3.176  11.430 -0.7993  0.2602  0.0252
 5912SOL    HW129198   2.050   3.265  11.447  0.2496 -0.4268  1.7364
 5912SOL    HW229199   2.000   3.187  11.337  2.7647  1.3908 -0.5633
 5913SOL     OW29200   1.645   3.029   1.405 -0.1312  0.1771 -0.7214
 5913SOL    HW129201   1.689   3.114   1.404 -1.4397  0.8326 -2.0485
 5913SOL    HW229202   1.572   3.047   1.465 -1.1433  2.6068 -2.7215
 5914SOL     OW29203   1.279   0.256   6.509 -0.7412  0.6755  0.2439
 5914SOL    HW129204   1.296   0.236   6.418 -1.5983  1.2854 -0.0569
 5914SOL    HW229205   1.220   0.332   6.504 -1.0430  0.5376  1.4975
 5915SOL     OW29206   2.650   3.263  16.781  0.3208 -0.2672  0.2434
 5915SOL    HW129207   2.581   3.279  16.846  0.8553 -0.8007  0.9425
 5915SOL    HW229208   2.647   3.167  16.789  0.7156 -0.1878  1.3790
 5916SOL     OW29209   1.548   3.801   7.676  0.1800 -0.1587 -0.5948
 5916SOL    HW129210   1.600   3.796   7.755 -0.7201 -0.8452 -0.0449
 5916SOL    HW229211   1.593   3.728   7.633  1.0946  0.0804 -0.0111
 5917SOL     OW29212   2.511   4.570   1.276  0.2682  0.0057 -0.6489
 5917SOL    HW129213   2.584   4.596   1.220  0.1268  0.1222 -0.7760
 5917SOL    HW229214   2.452   4.643   1.256 -0.9039  0.1527  3.3187
 5918SOL     OW29215   1.182   0.207   2.874 -0.1438  0.4867 -0.3778
 5918SOL    HW129216   1.163   0.121   2.836 -1.1596 -0.2594  1.8101
 5918SOL    HW229217   1.181   0.261   2.795  2.7329  1.4068  0.2192
 5919SOL     OW29218   0.900   0.651  14.997  0.0593  0.3644  0.5669
 5919SOL    HW129219   0.957   0.725  15.012  0.7721  0.1864 -1.2522
 5919SOL    HW229220   0.953   0.574  15.016 -1.6947 -1.5961 -2.4113
 5920SOL     OW29221   2.407   3.271   0.517  0.2852  0.5532 -0.4496
 5920SOL    HW129222   2.315   3.271   0.544  0.3990 -0.9392 -0.0555
 5920SOL    HW229223   2.418   3.351   0.467 -3.5774 -0.1156 -2.3148
 5921SOL     OW29224   0.532   1.446   2.354 -0.6556 -0.2677 -0.1066
 5921SOL    HW129225   0.531   1.487   2.268  0.0612 -0.4411 -0.2055
 5921SOL    HW229226   0.480   1.367   2.337 -1.4648  0.8752 -2.8502
 5922SOL     OW29227   2.335   3.684   1.049 -0.3321 -0.2810 -0.1071
 5922SOL    HW129228   2.384   3.604   1.032  3.5540  2.0082  0.2205
 5922SOL    HW229229   2.250   3.647   1.027  0.0066 -0.9194 -0.3316
 5923SOL     OW29230   1.420   3.835   0.882  0.3919 -0.2476 -0.1580
 5923SOL    HW129231   1.510   3.867   0.884  0.6810 -1.1148  0.7983
 5923SOL    HW229232   1.421   3.788   0.798 -0.2354  1.0415 -0.8929
 5924SOL     OW29233   4.348   0.132   6.343  0.2176  0.7096 -0.2698
 5924SOL    HW129234   4.258   0.122   6.375 -0.2478  0.3412 -1.6931
 5924SOL    HW229235   4.332   0.179   6.261  0.3880  0.1720 -0.6064
 5925SOL     OW29236   3.014   0.086  14.778 -0.3274  0.1850 -0.7708
 5925SOL    HW129237   2.928   0.074  14.820 -0.7781  0.8470 -1.5083
 5925SOL    HW229238   3.068   0.075  14.857  0.7857 -0.2866 -1.6035
 5926SOL     OW29239   0.441   3.951   4.711  0.0359 -0.1320 -0.0777
 5926SOL    HW129240   0.467   4.015   4.777  0.3982  0.6211 -0.9511
 5926SOL    HW229241   0.350   3.980   4.701 -0.4458 -1.5171  0.3914
 5927SOL     OW29242   4.386   2.240   7.225  0.0865 -0.1081 -0.0999
 5927SOL    HW129243   4.405   2.237   7.319 -1.6947 -0.0032  0.2499
 5927SOL    HW229244   4.338   2.159   7.207 -1.3691  0.6730  0.2620
 5928SOL     OW29245   0.361   2.446  15.652  0.2544 -0.2064 -0.1458
 5928SOL    HW129246   0.290   2.417  15.596 -1.2960 -0.6217  2.0564
 5928SOL    HW229247   0.434   2.408  15.603  0.3810 -1.1888  0.8204
 5929SOL     OW29248   1.120   0.127   6.067  0.3696  0.2298  0.0487
 5929SOL    HW129249   1.082   0.054   6.116 -0.4833  0.1350 -0.7455
 5929SOL    HW229250   1.089   0.101   5.980  0.1113 -2.5938  1.0020
 5930SOL     OW29251   2.612   4.304  17.646 -0.0234 -0.0883  0.3015
 5930SOL    HW129252   2.621   4.393  17.613  1.4817  0.7996  3.0589
 5930SOL    HW229253   2.584   4.325   0.039 -0.2353  0.0609  0.2013
 5931SOL     OW29254   3.826   2.923   2.791 -0.2286 -0.4881 -0.7398
 5931SOL    HW129255   3.821   2.880   2.706 -1.6962 -0.0097 -0.8967
 5931SOL    HW229256   3.900   2.871   2.823 -0.2646 -0.0353  0.0788
 5932SOL     OW29257   3.923   0.909   6.449  0.6165  0.3142  0.1522
 5932SOL    HW129258   3.996   0.908   6.386  2.2069 -0.7112  2.0201
 5932SOL    HW229259   3.970   0.928   6.530  2.9213 -3.0757 -0.4047
 5933SOL     OW29260   1.781   3.492  12.057 -0.2834 -0.2673  0.5553
 5933SOL    HW129261   1.788   3.541  11.974 -0.7692  2.3871  2.0731
 5933SOL    HW229262   1.710   3.435  12.028 -0.7978  0.9613 -0.6517
 5934SOL     OW29263   1.361   3.090  10.234  0.4385 -0.2344  0.4763
 5934SOL    HW129264   1.283   3.144  10.220  0.4478  0.1039  1.7363
 5934SOL    HW229265   1.357   3.078  10.329  1.5774 -0.2509  0.5176
 5935SOL     OW29266   2.638   2.510   7.489 -0.1906 -0.1089  0.0262
 5935SOL    HW129267   2.668   2.571   7.557  0.6631  0.4009 -0.7961
 5935SOL    HW229268   2.609   2.566   7.418  0.0941  0.7254  0.5670
 5936SOL     OW29269   0.239   4.218   6.825  0.0173 -0.0387  0.8381
 5936SOL    HW129270   0.236   4.123   6.836  0.1037 -0.2595 -1.0357
 5936SOL    HW229271   0.332   4.237   6.842 -0.2791  0.9071  1.3951
 5937SOL     OW29272   4.125   1.807   3.117 -0.4129 -0.3416  0.0309
 5937SOL    HW129273   4.167   1.848   3.193  0.2696  1.8108 -1.5332
 5937SOL    HW229274   4.039   1.784   3.153 -0.5246  0.4380  0.2640
 5938SOL     OW29275   2.704   4.248   2.185 -0.0593 -0.3185 -0.1270
 5938SOL    HW129276   2.644   4.218   2.118 -0.8480  0.3245  0.2870
 5938SOL    HW229277   2.672   4.205   2.265 -1.6712 -0.3632 -0.7956
 5939SOL     OW29278   3.142   2.016   2.183 -0.5351  0.4766  0.6341
 5939SOL    HW129279   3.207   1.948   2.198 -1.5240 -0.9200 -1.5547
 5939SOL    HW229280   3.170   2.046   2.097  1.8238 -0.3725  1.0961
 5940SOL     OW29281   0.662   2.173   3.410 -0.6288  0.7054  0.4337
 5940SOL    HW129282   0.651   2.095   3.464 -0.0069 -0.3046 -0.8896
 5940SOL    HW229283   0.757   2.167   3.419 -0.6644 -1.4343 -0.6074
 5941SOL     OW29284   4.450   2.049   3.928  0.2864 -0.4356  0.6594
 5941SOL    HW129285   4.471   2.089   3.843 -0.2902  3.1803  2.2509
 5941SOL    HW229286   4.521   1.988   3.945  0.5753 -0.1595  0.4442
 5942SOL     OW29287   1.511   1.933  10.968  0.4257  0.0336 -0.3629
 5942SOL    HW129288   1.583   1.888  10.923  0.4196 -0.2005 -0.1326
 5942SOL    HW229289   1.457   1.857  10.989  2.8124 -1.4028  0.5978
 5943SOL     OW29290   3.936   1.086   4.985  0.1732  0.3133 -0.3323
 5943SOL    HW129291   3.931   1.166   4.933 -0.1472  0.3305 -0.2792
 5943SOL    HW229292   4.007   1.107   5.046 -1.5874  1.2667  1.4106
 5944SOL     OW29293   2.199   3.757   3.564 -0.2037  0.0271  0.3113
 5944SOL    HW129294   2.279   3.711   3.538 -2.0737 -2.4899 -0.9506
 5944SOL    HW229295   2.196   3.834   3.507  0.0943  1.9569  2.8932
 5945SOL     OW29296   1.571   4.577   8.417 -0.3658 -0.1919  0.1546
 5945SOL    HW129297   1.656   4.555   8.454 -0.4973  2.3952  1.9701
 5945SOL    HW229298   1.535   4.646   8.472  2.2916 -0.3476  2.0737
 5946SOL     OW29299   0.414   1.577  11.142 -0.1572 -0.3701  0.3326
 5946SOL    HW129300   0.410   1.625  11.059 -0.0916 -0.9808 -0.0265
 5946SOL    HW229301   0.336   1.606  11.189  0.1393 -1.3763  1.4348
 5947SOL     OW29302   1.249   3.455   9.204 -0.1578 -0.3752  0.3234
 5947SOL    HW129303   1.282   3.374   9.166 -0.0116 -0.6368  1.0031
 5947SOL    HW229304   1.325   3.483   9.254  1.2626 -3.0162 -0.3387
 5948SOL     OW29305   4.440   3.234   2.699  0.1738 -0.1043  0.2901
 5948SOL    HW129306   4.432   3.147   2.659 -1.4006 -0.6032  1.6722
 5948SOL    HW229307   4.455   3.291   2.623 -0.2641 -2.2963 -1.4446
 5949SOL     OW29308   3.415   2.019   3.884 -0.3046 -0.3955 -0.3757
 5949SOL    HW129309   3.358   1.943   3.886  1.5648 -1.8641 -2.6872
 5949SOL    HW229310   3.505   1.989   3.872 -0.2251  0.6191 -2.3183
 5950SOL     OW29311   2.240   0.182  11.042 -0.5741 -0.5287  0.8121
 5950SOL    HW129312   2.318   0.190  10.987 -1.2696  0.7586  0.0238
 5950SOL    HW229313   2.188   0.250  10.999 -0.5133 -0.9154  0.1336
 5951SOL     OW29314   0.543   0.103  16.635  0.2813 -0.0910  0.0723
 5951SOL    HW129315   0.481   0.135  16.570  1.1255  0.3965 -0.5045
 5951SOL    HW229316   0.616   0.162  16.613 -1.1271  2.1554  1.4008
 5952SOL     OW29317   1.748   0.452   8.633  0.2326 -0.4497 -0.3483
 5952SOL    HW129318   1.743   0.418   8.543 -0.9043 -1.3524  0.0605
 5952SOL    HW229319   1.796   0.534   8.623  1.2051 -0.7180  2.1707
 5953SOL     OW29320   3.084   0.129   7.765 -0.4634 -0.2768  0.0279
 5953SOL    HW129321   3.115   0.173   7.686 -2.2094 -0.7086 -0.9073
 5953SOL    HW229322   3.051   0.054   7.714 -0.5767 -1.0458  1.2189
 5954SOL     OW29323   3.340   4.382  15.890  0.5883 -0.7087 -0.1306
 5954SOL    HW129324   3.416   4.334  15.924  0.6216  0.1091  0.9773
 5954SOL    HW229325   3.311   4.430  15.968 -0.8869  1.9648 -2.3316
 5955SOL     OW29326   1.624   3.934  15.436  0.2508 -0.0053  0.2595
 5955SOL    HW129327   1.658   3.855  15.477  0.0830 -0.2771 -0.1236
 5955SOL    HW229328   1.655   3.999  15.498 -0.3091 -1.4746  2.0588
 5956SOL     OW29329   2.557   1.607   8.969 -0.1117  0.1899  0.5201
 5956SOL    HW129330   2.598   1.582   9.052  1.1166  0.0904 -0.1156
 5956SOL    HW229331   2.574   1.525   8.923  1.9173  1.8493 -1.7010
 5957SOL     OW29332   2.815   0.098  14.964 -0.2362  0.1246 -0.0870
 5957SOL    HW129333   2.820   0.107  15.060  0.6930  0.7592 -0.1995
 5957SOL    HW229334   2.753   0.026  14.948  1.7181 -1.3105 -1.1878
 5958SOL     OW29335   1.919   3.045   1.188 -0.5214 -0.3748 -0.2444
 5958SOL    HW129336   1.872   3.123   1.157 -0.9571 -0.5111  0.0783
 5958SOL    HW229337   1.937   3.003   1.104  2.6823 -0.6493  0.5790
 5959SOL     OW29338   0.477   2.111  10.123  0.2411 -0.3221 -0.1582
 5959SOL    HW129339   0.383   2.109  10.105  0.7957  2.3565 -3.2145
 5959SOL    HW229340   0.482   2.042  10.189  0.1547  0.6551  0.8825
 5960SOL     OW29341   3.043   2.870   2.243 -0.8095  0.4988  0.1503
 5960SOL    HW129342   3.128   2.828   2.236 -0.8110  0.8375 -1.8774
 5960SOL    HW229343   3.052   2.915   2.327  5.9557  0.3647 -0.5098
 5961SOL     OW29344   3.899   2.920   5.594 -0.2118  0.6746 -0.5710
 5961SOL    HW129345   3.805   2.929   5.611  0.3786  2.6202  1.6015
 5961SOL    HW229346   3.924   2.850   5.655  1.5889  2.5483  0.8209
 5962SOL     OW29347   0.688   3.755   6.708 -0.5792 -0.2266  0.1548
 5962SOL    HW129348   0.739   3.680   6.677  1.5346  0.1486  2.6092
 5962SOL    HW229349   0.607   3.730   6.664 -0.7314  2.4630 -1.0958
 5963SOL     OW29350   1.375   2.714   4.094 -0.1859 -0.6380  0.2158
 5963SOL    HW129351   1.447   2.674   4.143  1.6493 -0.0214 -2.0368
 5963SOL    HW229352   1.394   2.693   4.003 -2.0714  1.0936 -0.5713
 5964SOL     OW29353   4.304   1.104   2.143  0.3078 -0.1066  0.3293
 5964SOL    HW129354   4.280   1.188   2.104  2.0381  0.5300  0.6225
 5964SOL    HW229355   4.284   1.120   2.236  0.6975  0.8646  0.2526
 5965SOL     OW29356   3.367   2.995   1.383  0.1554  0.3912 -0.0751
 5965SOL    HW129357   3.381   3.029   1.471  1.8245 -0.7326  0.0837
 5965SOL    HW229358   3.310   2.921   1.402  0.6512 -0.2375 -1.0612
 5966SOL     OW29359   0.872   4.156   3.127 -0.0514 -0.2891 -0.1118
 5966SOL    HW129360   0.872   4.062   3.110  2.6159 -0.3146  0.1146
 5966SOL    HW229361   0.777   4.163   3.124 -0.0974  0.1236  2.1459
 5967SOL     OW29362   2.862   2.410   6.302  1.1263 -0.2083 -0.1337
 5967SOL    HW129363   2.826   2.498   6.305  0.6400 -0.3160 -3.0111
 5967SOL    HW229364   2.889   2.412   6.210  0.6607 -0.1206 -0.2686
 5968SOL     OW29365   2.014   1.223   0.522 -0.8403 -0.4651  0.0562
 5968SOL    HW129366   1.935   1.237   0.573 -0.3753  0.7782  0.4391
 5968SOL    HW229367   1.983   1.239   0.433 -1.8673 -0.6505  0.3852
 5969SOL     OW29368   1.397   3.492   1.798  0.2604  0.0035  0.6525
 5969SOL    HW129369   1.476   3.533   1.762  1.6039 -1.5117  1.8163
 5969SOL    HW229370   1.393   3.414   1.741  1.9757  1.3005 -1.2630
 5970SOL     OW29371   1.918   0.497   4.287  0.5546 -0.5114  0.4244
 5970SOL    HW129372   1.987   0.449   4.333  0.3771 -1.4170 -0.2525
 5970SOL    HW229373   1.954   0.499   4.198 -1.1034 -1.0644 -0.2493
 5971SOL     OW29374   4.302   1.639   4.178 -0.1791 -0.1086 -0.2705
 5971SOL    HW129375   4.246   1.561   4.182 -1.6162  0.8636 -1.7127
 5971SOL    HW229376   4.287   1.657   4.086  1.5721  2.3512 -0.0769
 5972SOL     OW29377   4.555   1.955   5.079  0.1488 -0.3571 -0.0411
 5972SOL    HW129378   4.645   1.936   5.051  0.1317 -1.7027  0.8058
 5972SOL    HW229379   4.557   1.981   5.172 -0.5661  0.7591 -0.3326
 5973SOL     OW29380   0.046   2.732  16.555 -0.3136  0.0601 -0.0224
 5973SOL    HW129381   4.723   2.776  16.484 -1.0155 -0.2739  0.2298
 5973SOL    HW229382   0.045   2.803  16.619  1.1884 -0.7726  0.9291
 5974SOL     OW29383   2.326   4.211  17.591 -0.2166 -0.0585  0.0102
 5974SOL    HW129384   2.399   4.213  17.653 -1.0226  1.0499  0.9311
 5974SOL    HW229385   2.260   4.261  17.638  0.1990 -1.2725  1.8558
 5975SOL     OW29386   4.116   4.146  15.890  0.3138 -0.5114 -0.1446
 5975SOL    HW129387   4.055   4.115  15.957 -0.8082 -0.1416 -1.0018
 5975SOL    HW229388   4.186   4.193  15.936  0.8624 -0.0933 -1.4171
 5976SOL     OW29389   4.230   4.010  14.301 -0.2566  0.5975 -0.2909
 5976SOL    HW129390   4.247   3.933  14.246 -0.6871  0.2304  0.0853
 5976SOL    HW229391   4.196   4.079  14.244 -0.2630  0.9057  0.0857
 5977SOL     OW29392   3.200   2.171  10.328 -0.1167  0.1142  0.2827
 5977SOL    HW129393   3.142   2.247  10.331 -0.4094 -0.1100  0.2915
 5977SOL    HW229394   3.286   2.195  10.362  1.4799 -0.6993 -3.0853
 5978SOL     OW29395   3.573   2.149   5.811 -0.4835  0.1685 -0.7556
 5978SOL    HW129396   3.590   2.094   5.735  2.3478  1.8648 -1.3551
 5978SOL    HW229397   3.539   2.077   5.864 -0.6401  0.8748  0.1025
 5979SOL     OW29398   3.706   4.467   7.558 -0.3655 -0.2033  1.2964
 5979SOL    HW129399   3.743   4.379   7.553 -1.3164 -0.4283 -1.6691
 5979SOL    HW229400   3.765   4.513   7.618  1.4671 -0.2105 -0.5060
 5980SOL     OW29401   1.199   2.276   5.190 -0.2044 -0.5769 -0.3995
 5980SOL    HW129402   1.109   2.252   5.171 -1.4052  2.7061  1.1069
 5980SOL    HW229403   1.250   2.226   5.127 -0.0486 -2.4598  1.2129
 5981SOL     OW29404   0.675   4.110   0.714  0.4354  1.0324 -0.1523
 5981SOL    HW129405   0.663   4.117   0.808  0.9547  1.1058 -0.0935
 5981SOL    HW229406   0.715   4.194   0.691 -0.2382  0.8834 -1.9155
 5982SOL     OW29407   1.337   0.666  11.738 -0.0032  0.0084 -0.9162
 5982SOL    HW129408   1.349   0.572  11.721  1.1895  0.1631 -0.9133
 5982SOL    HW229409   1.411   0.690  11.794 -0.7920  0.0592  0.1200
 5983SOL     OW29410   1.400   2.597  12.577  0.0477  0.1058  0.3352
 5983SOL    HW129411   1.324   2.651  12.598 -0.9512 -0.3320 -2.1420
 5983SOL    HW229412   1.352   2.518  12.552  1.0133 -0.1352 -0.7431
 5984SOL     OW29413   1.761   2.542   6.622 -0.2088 -0.5721  0.3525
 5984SOL    HW129414   1.766   2.448   6.643 -0.2902 -1.1788 -2.3098
 5984SOL    HW229415   1.667   2.556   6.625 -0.2547 -1.3451  2.5883
 5985SOL     OW29416   3.467   0.745  16.823  0.2420  0.0183 -0.2566
 5985SOL    HW129417   3.465   0.650  16.836 -0.0885  0.1739  0.8743
 5985SOL    HW229418   3.560   0.762  16.808  0.0894  1.5439  0.5427
 5986SOL     OW29419   0.334   4.205  16.054 -0.2987  0.1632 -0.3924
 5986SOL    HW129420   0.411   4.182  16.106 -2.9895 -0.6840  3.2281
 5986SOL    HW229421   0.323   4.297  16.079 -0.8598  0.0112 -0.0976
 5987SOL     OW29422   4.100   3.488   5.988 -0.5309  0.4583 -0.2413
 5987SOL    HW129423   4.103   3.548   5.913  1.0104 -0.3211 -0.8121
 5987SOL    HW229424   4.013   3.451   5.973  0.3534 -1.9911  0.5403
 5988SOL     OW29425   2.802   2.967   8.233  0.4585 -0.2930 -0.0440
 5988SOL    HW129426   2.815   3.061   8.248 -2.3543  0.0081  0.4170
 5988SOL    HW229427   2.873   2.932   8.287 -0.6139  0.4443  1.8403
 5989SOL     OW29428   0.712   0.455   5.876 -0.3347 -0.0298 -0.7078
 5989SOL    HW129429   0.664   0.486   5.799  0.1187  2.1524 -0.1122
 5989SOL    HW229430   0.658   0.446   5.954  0.7582 -2.1721 -0.1954
 5990SOL     OW29431   3.573   1.101  14.634  0.5811  0.5478  0.0071
 5990SOL    HW129432   3.579   1.197  14.628  2.3743  0.3828 -0.9597
 5990SOL    HW229433   3.635   1.081  14.564  0.0621  0.8310 -0.5327
 5991SOL     OW29434   1.684   1.676   7.668 -0.1555  0.0480  0.3437
 5991SOL    HW129435   1.671   1.717   7.754  1.6678 -0.9920  1.1249
 5991SOL    HW229436   1.595   1.641   7.664 -0.0481 -0.0636 -0.8191
 5992SOL     OW29437   0.561   4.177   3.108  0.2821 -0.0818  0.0671
 5992SOL    HW129438   0.498   4.235   3.067  0.0022  0.7775  1.7397
 5992SOL    HW229439   0.533   4.197   3.197  0.2078  0.1431 -0.0083
 5993SOL     OW29440   4.538   0.025   5.275  0.1147  0.4672  0.6204
 5993SOL    HW129441   4.583   0.000   5.356 -0.3717 -1.1341  0.4019
 5993SOL    HW229442   4.465   4.686   5.277  2.4628 -2.3631 -1.0476
 5994SOL     OW29443   0.833   0.040   7.613 -0.3883 -0.6925 -0.0755
 5994SOL    HW129444   0.771   0.009   7.547  1.4065 -0.7542 -1.7356
 5994SOL    HW229445   0.774   0.048   7.687  0.7496  2.1435  0.5428
 5995SOL     OW29446   0.757   2.654   7.253 -0.0909 -0.6454 -0.0431
 5995SOL    HW129447   0.700   2.705   7.310 -0.5103 -1.8292  0.5835
 5995SOL    HW229448   0.701   2.598   7.199 -0.6133  1.3527 -1.6020
 5996SOL     OW29449   3.033   2.986   1.607 -0.1468 -0.3343 -0.1470
 5996SOL    HW129450   2.992   3.026   1.530  0.5276 -0.8092 -0.7554
 5996SOL    HW229451   2.970   2.923   1.642 -1.8249 -0.0177 -2.6162
 5997SOL     OW29452   1.753   3.908   1.586 -0.1669  0.1551 -0.0549
 5997SOL    HW129453   1.668   3.871   1.611 -0.2714  1.3990  1.3701
 5997SOL    HW229454   1.719   3.995   1.569  0.1344  0.4787  0.9997
 5998SOL     OW29455   1.995   2.601   2.759 -0.2733  0.9198 -0.2585
 5998SOL    HW129456   1.961   2.666   2.821 -2.6095  0.1925 -0.7734
 5998SOL    HW229457   1.935   2.623   2.688 -1.5896 -0.3045  0.4706
 5999SOL     OW29458   1.505   2.285  15.782  0.0097  0.6132 -0.2641
 5999SOL    HW129459   1.425   2.291  15.730 -0.3467  2.2672  0.4569
 5999SOL    HW229460   1.538   2.375  15.774 -0.3802  0.5756 -2.1136
 6000SOL     OW29461   3.704   1.601   5.385  0.0762 -0.7469  0.9029
 6000SOL    HW129462   3.663   1.596   5.299 -0.0555  2.2911  0.7716
 6000SOL    HW229463   3.780   1.660   5.381 -0.5505 -0.2046 -2.8189
 6001SOL     OW29464   2.225   1.829   3.093 -0.2206  0.4472  0.1287
 6001SOL    HW129465   2.175   1.906   3.120  0.1630  0.2543  1.4097
 6001SOL    HW229466   2.198   1.757   3.151 -2.2568 -1.2240 -2.9286
 6002SOL     OW29467   0.407   1.098   4.456  0.2855  0.4416  0.0865
 6002SOL    HW129468   0.460   1.118   4.379 -0.9270 -0.0122 -0.8627
 6002SOL    HW229469   0.392   1.189   4.483 -1.5784  0.1592  0.0379
 6003SOL     OW29470   1.112   1.823   6.533  0.0181 -0.3770  0.3040
 6003SOL    HW129471   1.197   1.859   6.510 -0.2248  0.4849  0.7420
 6003SOL    HW229472   1.044   1.870   6.485 -0.1886 -1.7572 -0.7366
 6004SOL     OW29473   3.971   1.591  12.973  0.5183 -0.1059  0.5774
 6004SOL    HW129474   4.033   1.664  12.968  1.4144 -0.9330 -0.1410
 6004SOL    HW229475   4.016   1.512  12.944 -2.0863 -0.6372 -2.0329
 6005SOL     OW29476   0.162   0.342   3.673  0.4698  0.4180  0.4158
 6005SOL    HW129477   0.074   0.377   3.681  0.0475 -1.4687  3.7354
 6005SOL    HW229478   0.150   0.274   3.607  0.6805 -0.8456  1.6855
 6006SOL     OW29479   4.378   2.265   6.715 -0.0235 -0.0049 -0.6098
 6006SOL    HW129480   4.311   2.223   6.770 -0.9031  1.6922 -0.3953
 6006SOL    HW229481   4.349   2.241   6.627  0.1415 -0.4041 -0.5540
 6007SOL     OW29482   2.961   1.269   4.774  0.0429  0.6047 -0.1133
 6007SOL    HW129483   2.941   1.219   4.854  1.5463  0.8729  0.4177
 6007SOL    HW229484   3.034   1.212   4.750 -0.2648  0.1266  0.0656
 6008SOL     OW29485   0.837   4.368   0.933 -0.4466  0.3408 -0.2942
 6008SOL    HW129486   0.869   4.326   0.854  0.7723  2.1535 -0.7646
 6008SOL    HW229487   0.797   4.294   0.979 -1.1044  0.0100 -1.4131
 6009SOL     OW29488   0.294   2.247   1.251  0.0459 -0.0067  0.1573
 6009SOL    HW129489   0.203   2.260   1.275 -0.6869 -1.4736 -1.9198
 6009SOL    HW229490   0.292   2.223   1.159 -1.4389 -0.5851  0.3484
 6010SOL     OW29491   4.498   2.190   2.535 -0.3646 -0.5016 -0.1632
 6010SOL    HW129492   4.578   2.196   2.586 -0.4040  0.7450 -0.2544
 6010SOL    HW229493   4.493   2.277   2.496  0.3615 -0.2073  0.4098
 6011SOL     OW29494   1.581   2.025  13.021 -0.3928 -0.1283  0.2977
 6011SOL    HW129495   1.595   1.934  12.997  3.3927  0.2979  0.9958
 6011SOL    HW229496   1.554   2.056  12.934 -0.3875 -1.0540 -0.0342
 6012SOL     OW29497   1.455   3.175   3.627  0.1829  0.1334 -0.0572
 6012SOL    HW129498   1.522   3.243   3.631 -0.8335  1.1373  0.1763
 6012SOL    HW229499   1.470   3.133   3.542 -1.2117 -0.6202  0.0719
 6013SOL     OW29500   2.108   2.710   7.311  0.2702 -0.1204 -0.2143
 6013SOL    HW129501   2.190   2.693   7.265  1.0760  3.2644  0.0303
 6013SOL    HW229502   2.060   2.738   7.233 -0.1798  1.3693  0.5986
 6014SOL     OW29503   2.414   1.227   4.502 -0.4931 -0.6624 -0.1637
 6014SOL    HW129504   2.452   1.181   4.576 -0.1421 -1.1213 -0.6266
 6014SOL    HW229505   2.384   1.154   4.447  2.0438 -1.4246 -0.5209
 6015SOL     OW29506   0.474   2.262   3.190  0.4702  0.3813  0.1350
 6015SOL    HW129507   0.550   2.238   3.244 -0.9617  0.3727  2.1704
 6015SOL    HW229508   0.431   2.177   3.202  0.0454  0.8541  1.9148
 6016SOL     OW29509   0.499   3.163   4.232  0.2266  0.2780  0.3122
 6016SOL    HW129510   0.455   3.219   4.169 -0.7110  1.0968  1.6921
 6016SOL    HW229511   0.583   3.207   4.249 -1.2406  3.0626  0.2010
 6017SOL     OW29512   2.564   4.307   5.338 -0.4639 -0.2361  0.3097
 6017SOL    HW129513   2.609   4.291   5.421 -1.6812 -0.1075  0.9889
 6017SOL    HW229514   2.473   4.318   5.367 -0.8961  2.2290 -1.9529
 6018SOL     OW29515   3.294   0.436   6.589 -0.1152 -0.0717  0.4097
 6018SOL    HW129516   3.221   0.495   6.606 -2.1989 -1.8871 -2.2421
 6018SOL    HW229517   3.259   0.348   6.606 -2.6901  0.7919 -0.5827
 6019SOL     OW29518   1.787   2.968  13.792 -0.5892 -0.3407 -0.1661
 6019SOL    HW129519   1.779   3.032  13.722  1.0934 -0.2865 -0.2952
 6019SOL    HW229520   1.875   2.986  13.824 -0.8002  1.1090 -0.4081
 6020SOL     OW29521   0.014   4.113   8.402 -0.1359  0.4865 -0.1268
 6020SOL    HW129522   0.089   4.058   8.428  1.0958  1.6038 -1.3130
 6020SOL    HW229523   0.021   4.200   8.442 -2.3644 -0.4915  2.4298
 6021SOL     OW29524   0.637   3.167   4.567  0.5935 -0.7271  0.2826
 6021SOL    HW129525   0.644   3.077   4.535  0.7245 -0.2899 -0.9167
 6021SOL    HW229526   0.562   3.161   4.626  1.4104 -1.1393  1.2805
 6022SOL     OW29527   4.482   4.469  13.896 -0.1544  0.2122  0.0163
 6022SOL    HW129528   4.454   4.528  13.966 -2.2156 -1.3390  0.4910
 6022SOL    HW229529   4.458   4.388  13.941  3.2580 -0.7327  0.1828
 6023SOL     OW29530   3.479   1.777   3.571 -0.0893 -0.2738 -0.1538
 6023SOL    HW129531   3.442   1.742   3.490  0.2251  2.3392 -1.4352
 6023SOL    HW229532   3.417   1.736   3.631 -0.1536 -1.9449 -1.3740
 6024SOL     OW29533   1.621   1.210   3.221 -0.3130 -0.1087 -0.2622
 6024SOL    HW129534   1.635   1.298   3.185  1.2324  1.0556  3.1720
 6024SOL    HW229535   1.584   1.231   3.306 -0.4462  0.6146 -0.4955
 6025SOL     OW29536   2.986   2.154   6.464  0.5417 -0.0418 -0.6232
 6025SOL    HW129537   2.911   2.188   6.513 -0.1056 -2.5162  0.1230
 6025SOL    HW229538   2.945   2.109   6.390  0.5550 -0.7450 -0.2094
 6026SOL     OW29539   0.015   0.548   9.104 -0.1869 -0.2169 -0.1242
 6026SOL    HW129540   0.104   0.557   9.138 -0.1478  1.2320 -0.6210
 6026SOL    HW229541   0.019   0.606   9.029 -1.3250  2.2934  1.7781
 6027SOL     OW29542   4.534   0.624   0.074 -0.1165  0.0954  0.7694
 6027SOL    HW129543   4.520   0.589   0.162 -1.4299 -0.2292  0.4342
 6027SOL    HW229544   4.513   0.716   0.091  0.7082  0.3199  0.5966
 6028SOL     OW29545   4.459   0.326  10.035 -0.1831 -0.1161 -0.6659
 6028SOL    HW129546   4.423   0.242  10.009  3.0313 -1.4451 -0.7834
 6028SOL    HW229547   4.395   0.363  10.097 -0.6187 -1.6121 -0.2157
 6029SOL     OW29548   1.141   1.009   2.027 -0.1487 -0.0307 -0.1742
 6029SOL    HW129549   1.232   1.030   2.003  0.2711 -2.0786 -0.4654
 6029SOL    HW229550   1.134   0.913   2.025  1.8596 -0.1751 -1.0973
 6030SOL     OW29551   3.963   1.429   2.052  0.2017  0.2222  0.3875
 6030SOL    HW129552   4.044   1.441   2.003  0.1034  3.3619  1.0113
 6030SOL    HW229553   3.957   1.492   2.123  0.6858 -0.8784  1.4063
 6031SOL     OW29554   0.494   4.291   6.937 -0.7573 -0.1471 -0.4818
 6031SOL    HW129555   0.560   4.286   6.869 -0.3470  1.3310 -0.2005
 6031SOL    HW229556   0.519   4.371   6.984 -0.9187 -0.5486  0.2894
 6032SOL     OW29557   2.218   3.088  10.851  0.1060 -0.0307 -0.3961
 6032SOL    HW129558   2.191   3.161  10.795 -0.7953  0.0233  0.0986
 6032SOL    HW229559   2.291   3.053  10.801  1.9480  0.6623  1.8109
 6033SOL     OW29560   1.937   4.661   4.015  0.0740  0.3457 -0.3862
 6033SOL    HW129561   1.916   4.714   4.092 -1.5815 -2.4818  1.1417
 6033SOL    HW229562   1.928   4.714   3.936  1.8114 -0.1172 -0.8890
 6034SOL     OW29563   3.923   2.293   9.236  0.5309  0.0061 -0.1543
 6034SOL    HW129564   3.965   2.378   9.242 -2.2718  1.1822  3.2006
 6034SOL    HW229565   3.848   2.308   9.294 -0.7619 -0.7114 -1.6371
 6035SOL     OW29566   1.640   3.324   4.109 -0.0326  0.6805 -0.2197
 6035SOL    HW129567   1.587   3.403   4.124 -1.4799 -0.5175  0.9725
 6035SOL    HW229568   1.637   3.306   4.015  2.1410  0.6384 -0.2809
 6036SOL     OW29569   1.980   3.049   7.631  0.1590  0.5847  0.0623
 6036SOL    HW129570   2.017   2.962   7.614  1.6874  1.1894  0.3316
 6036SOL    HW229571   2.035   3.082   7.702  0.3458  2.4048 -0.9280
 6037SOL     OW29572   2.709   1.670   6.057 -0.1464  0.0682 -0.4229
 6037SOL    HW129573   2.678   1.757   6.030  0.5821  0.0636 -1.2953
 6037SOL    HW229574   2.802   1.687   6.072  0.3065 -1.3025 -1.6618
 6038SOL     OW29575   3.402   1.362  15.235  0.1420  0.2694 -0.3948
 6038SOL    HW129576   3.336   1.431  15.242 -0.9578 -0.8968  0.7191
 6038SOL    HW229577   3.344   1.286  15.227  1.3184 -0.7430  0.8290
 6039SOL     OW29578   2.984   2.702   2.969  0.3166  0.7603  0.2845
 6039SOL    HW129579   2.936   2.635   3.018  0.9544  1.3003  1.6566
 6039SOL    HW229580   3.023   2.750   3.043  2.0640  1.4636 -1.0869
 6040SOL     OW29581   1.489   1.003   5.384  0.0560  0.0682  0.6849
 6040SOL    HW129582   1.479   0.981   5.292 -1.5141  1.2923  0.5577
 6040SOL    HW229583   1.583   0.992   5.401  0.2516 -1.7621 -1.5707
 6041SOL     OW29584   1.906   4.110   2.455 -0.4031  0.4249  0.0250
 6041SOL    HW129585   1.903   4.175   2.385 -1.1588  1.6149  1.1739
 6041SOL    HW229586   1.840   4.052   2.417 -1.3553 -0.2017  2.6392
 6042SOL     OW29587   1.149   4.601   7.127  0.3977  0.3092 -0.3698
 6042SOL    HW129588   1.221   4.648   7.085  1.5183 -0.4362  0.7416
 6042SOL    HW229589   1.144   4.667   7.196  0.7786 -0.1098  0.0519
 6043SOL     OW29590   0.141   3.977   4.281 -0.5133  0.3846  0.0704
 6043SOL    HW129591   0.127   3.991   4.188 -2.9766 -0.9422  0.2228
 6043SOL    HW229592   0.164   4.066   4.307  1.8389 -0.4714  0.8702
 6044SOL     OW29593   1.905   4.116   9.566 -0.4450  0.4649  0.0456
 6044SOL    HW129594   1.885   4.189   9.624 -1.8254  0.2523 -0.1670
 6044SOL    HW229595   1.914   4.048   9.632 -1.3679 -0.8060 -1.1313
 6045SOL     OW29596   4.418   4.346   3.123 -0.0693  0.2680  0.0667
 6045SOL    HW129597   4.449   4.376   3.038  1.4242  0.8419  0.8247
 6045SOL    HW229598   4.345   4.404   3.144  0.9390  1.2774  0.7538
 6046SOL     OW29599   0.281   1.920   5.842  0.0929 -0.2893 -0.0146
 6046SOL    HW129600   0.265   1.873   5.924 -0.4887  0.7676  0.4730
 6046SOL    HW229601   0.343   1.856   5.806 -0.4584 -0.3649 -0.8139
 6047SOL     OW29602   1.980   3.892   8.391 -0.2511  0.1410 -0.1217
 6047SOL    HW129603   2.030   3.897   8.309 -0.2227 -0.4448 -0.1442
 6047SOL    HW229604   1.959   3.799   8.405 -0.0281  0.1004 -0.0533
 6048SOL     OW29605   0.789   3.490   5.767  0.4262 -0.0256  0.2410
 6048SOL    HW129606   0.765   3.415   5.712  2.8314 -1.0117  0.5153
 6048SOL    HW229607   0.882   3.509   5.754  0.9045 -1.7597  1.1375
 6049SOL     OW29608   3.057   2.074  16.881 -0.0199  0.1268 -0.3323
 6049SOL    HW129609   3.091   2.027  16.805 -0.8406  0.7849 -1.1011
 6049SOL    HW229610   3.065   2.016  16.956 -1.5899 -0.9102 -0.9761
 6050SOL     OW29611   1.677   1.566   0.741  0.1471 -0.0827 -0.3053
 6050SOL    HW129612   1.742   1.527   0.682  0.5209 -0.7203  0.5343
 6050SOL    HW229613   1.692   1.660   0.734 -0.5351 -0.1371 -2.7312
 6051SOL     OW29614   2.339   3.854  15.885 -0.3077 -0.4200  0.7585
 6051SOL    HW129615   2.258   3.820  15.847  1.3789 -1.9446 -1.4572
 6051SOL    HW229616   2.357   3.781  15.944  0.1503 -0.9850 -0.0851
 6052SOL     OW29617   3.746   2.778   2.546  0.4182 -0.5435 -0.5419
 6052SOL    HW129618   3.710   2.777   2.457  0.5993 -2.7491 -0.5699
 6052SOL    HW229619   3.831   2.813   2.519 -0.6591  2.6682  0.1352
 6053SOL     OW29620   2.517   0.129   7.042 -0.1028  0.0256 -0.2818
 6053SOL    HW129621   2.495   0.137   7.135  0.7484 -0.8837 -0.0026
 6053SOL    HW229622   2.578   0.055   7.049 -0.1017  0.1057  0.5681
 6054SOL     OW29623   1.711   4.342   2.995 -0.2961 -0.2812  0.0782
 6054SOL    HW129624   1.698   4.291   2.915  0.9870  2.4170 -1.8561
 6054SOL    HW229625   1.632   4.309   3.038 -0.3308  0.5619  0.6585
 6055SOL     OW29626   1.813   4.575   1.736  0.5520  0.4274 -0.1834
 6055SOL    HW129627   1.855   4.646   1.686 -0.7788  0.0452 -1.8261
 6055SOL    HW229628   1.809   4.612   1.824  2.6568  0.5258 -0.1187
 6056SOL     OW29629   3.460   4.373   6.401  0.3348 -0.1080  0.5081
 6056SOL    HW129630   3.486   4.460   6.432  0.2069  0.4366 -0.8813
 6056SOL    HW229631   3.536   4.352   6.346 -0.9474 -1.2072 -0.8391
 6057SOL     OW29632   0.391   2.142   2.918  0.4266  0.1215  0.2366
 6057SOL    HW129633   0.329   2.214   2.921 -0.8781 -0.9975 -0.0643
 6057SOL    HW229634   0.456   2.160   2.986 -0.1230  0.3911  0.6819
 6058SOL     OW29635   1.993   1.535  17.461 -0.1920 -0.0420  0.5298
 6058SOL    HW129636   1.931   1.607  17.453 -1.1558 -1.1187 -1.5404
 6058SOL    HW229637   2.075   1.577  17.433  0.6721 -1.2415  1.2479
 6059SOL     OW29638   0.910   3.650   1.733 -0.0932  0.1550 -0.0987
 6059SOL    HW129639   1.006   3.650   1.733 -0.0866 -0.4047  0.6790
 6059SOL    HW229640   0.894   3.558   1.711 -1.9167  0.5605 -0.4951
 6060SOL     OW29641   4.496   1.186   6.076 -0.4767  0.2765  0.2851
 6060SOL    HW129642   4.527   1.237   6.001  0.7601 -0.1035  0.5405
 6060SOL    HW229643   4.408   1.221   6.094 -0.7503 -0.0615 -0.3788
 6061SOL     OW29644   4.536   3.992   5.461 -0.0144 -0.2280  0.1600
 6061SOL    HW129645   4.460   4.043   5.491  0.0670  0.8612 -1.4920
 6061SOL    HW229646   4.601   4.060   5.445  0.6853 -0.8579  0.3254
 6062SOL     OW29647   2.738   1.059   5.377  0.2807 -0.0647  0.4000
 6062SOL    HW129648   2.703   0.983   5.330  1.6316 -0.2794 -0.2400
 6062SOL    HW229649   2.813   1.027   5.427 -0.7977  1.3071  2.9263
 6063SOL     OW29650   2.868   1.583   8.266 -0.0394  0.2012  0.0890
 6063SOL    HW129651   2.902   1.629   8.344  2.8264 -0.0570 -1.0002
 6063SOL    HW229652   2.928   1.596   8.192  1.1467 -2.7459  0.5497
 6064SOL     OW29653   1.739   4.209   2.753 -0.3533 -0.3141  0.0196
 6064SOL    HW129654   1.765   4.120   2.729 -1.0485 -0.4631 -0.1942
 6064SOL    HW229655   1.652   4.208   2.713 -0.6038  2.9666  0.4741
 6065SOL     OW29656   1.134   2.223   4.039  0.3037 -0.3807 -0.3758
 6065SOL    HW129657   1.127   2.313   4.069  0.5389 -0.8747  1.1428
 6065SOL    HW229658   1.072   2.231   3.966 -0.5332 -0.9625  0.2677
 6066SOL     OW29659   3.098   0.007   3.795  0.2986  0.0936 -0.3709
 6066SOL    HW129660   3.099   4.645   3.839  0.8848 -0.2635 -1.0693
 6066SOL    HW229661   3.113   0.001   3.701  2.6747  2.8122 -0.1616
 6067SOL     OW29662   2.156   2.816   1.608 -0.0226 -0.3245 -0.0016
 6067SOL    HW129663   2.067   2.846   1.628  0.5701 -0.2759  2.4997
 6067SOL    HW229664   2.140   2.757   1.534 -1.4725 -1.3748  1.1350
 6068SOL     OW29665   1.170   0.380   5.731 -0.4688  0.1296 -0.3451
 6068SOL    HW129666   1.264   0.381   5.713  0.0123  0.1265  2.1147
 6068SOL    HW229667   1.135   0.326   5.660  0.3083  0.1444 -0.7450
 6069SOL     OW29668   4.264   3.814   2.281 -0.4811  0.2141  0.0270
 6069SOL    HW129669   4.262   3.719   2.294  0.1752  0.4294  1.6666
 6069SOL    HW229670   4.358   3.829   2.296 -0.3010 -0.2254 -0.6522
 6070SOL     OW29671   2.927   4.603   9.541  0.0802 -0.3746  0.6005
 6070SOL    HW129672   2.894   4.643   9.621 -0.7613  0.1342  0.0037
 6070SOL    HW229673   2.968   4.521   9.567  1.0885 -0.1195 -0.1755
 6071SOL     OW29674   2.102   4.070  13.441  0.4042 -0.2200 -0.0319
 6071SOL    HW129675   2.193   4.039  13.434 -0.7268 -3.2207 -1.1481
 6071SOL    HW229676   2.052   4.004  13.393 -0.5043  0.9088 -0.6486
 6072SOL     OW29677   1.702   1.011   2.396 -1.1360  0.1707  0.2973
 6072SOL    HW129678   1.746   0.927   2.410 -1.9525 -0.1353  1.0163
 6072SOL    HW229679   1.758   1.071   2.444 -1.3191  0.1036  0.5980
 6073SOL     OW29680   2.189   2.461   8.368 -0.3117 -0.5852  0.0271
 6073SOL    HW129681   2.114   2.474   8.426 -0.0877 -0.7695  0.3624
 6073SOL    HW229682   2.251   2.418   8.427 -0.2710  0.9117  1.0892
 6074SOL     OW29683   2.174   3.334  15.458  0.3184  0.4888 -0.1265
 6074SOL    HW129684   2.119   3.296  15.390 -1.7928 -1.1370  2.4894
 6074SOL    HW229685   2.130   3.418  15.465 -0.3305  0.0091  1.5171
 6075SOL     OW29686   4.409   1.628   3.246 -0.0978  0.6843 -0.2574
 6075SOL    HW129687   4.451   1.713   3.259  1.3107  0.0806 -0.8367
 6075SOL    HW229688   4.385   1.636   3.153  3.1144 -1.5353 -1.2893
 6076SOL     OW29689   1.400   3.888   7.982 -0.0062 -0.1404  0.1861
 6076SOL    HW129690   1.459   3.929   8.046  0.2555  0.2411 -0.2985
 6076SOL    HW229691   1.405   3.950   7.910  0.1817  2.5003  2.4756
 6077SOL     OW29692   1.735   4.105  16.734 -0.1272 -0.2203 -0.0378
 6077SOL    HW129693   1.713   4.019  16.699 -0.1402  0.9129 -2.7961
 6077SOL    HW229694   1.762   4.148  16.652 -0.8953  1.3102  0.5027
 6078SOL     OW29695   1.083   0.301  11.456  0.1783 -0.3519 -0.0918
 6078SOL    HW129696   1.009   0.352  11.490  0.7033 -0.6723  1.5385
 6078SOL    HW229697   1.035   0.242  11.398  1.0681 -1.2039  0.0410
 6079SOL     OW29698   4.123   2.641  15.934 -0.4054 -0.4971 -0.2119
 6079SOL    HW129699   4.174   2.560  15.933 -0.6350 -0.6371 -0.3970
 6079SOL    HW229700   4.182   2.696  15.881 -0.3831 -0.5073 -0.1977
 6080SOL     OW29701   3.649   4.258  13.532 -0.0059  0.3242 -0.0511
 6080SOL    HW129702   3.662   4.335  13.588 -0.1493  0.4525 -0.1932
 6080SOL    HW229703   3.595   4.197  13.583  1.9980 -0.4692  1.1439
 6081SOL     OW29704   1.688   4.285   3.329  0.0918 -0.0015 -0.3232
 6081SOL    HW129705   1.736   4.325   3.257  1.1339  1.2237  1.0385
 6081SOL    HW229706   1.693   4.191   3.311  1.3161  0.2783 -1.4172
 6082SOL     OW29707   4.231   2.107   2.522 -0.1018  0.5103 -0.5173
 6082SOL    HW129708   4.311   2.116   2.574  0.5405 -1.6918 -1.1338
 6082SOL    HW229709   4.255   2.025   2.478  0.5310 -0.1554  1.0571
 6083SOL     OW29710   2.191   2.619  11.611 -0.0608 -0.4223 -0.5645
 6083SOL    HW129711   2.123   2.628  11.544 -0.4184  1.9217  0.1360
 6083SOL    HW229712   2.259   2.558  11.581 -1.6006 -1.4371 -2.0124
 6084SOL     OW29713   2.209   0.265  13.906  0.1354  0.6226 -1.1005
 6084SOL    HW129714   2.227   0.248  13.999  0.6925 -0.2213 -1.3598
 6084SOL    HW229715   2.294   0.307  13.889  1.7421 -1.5944  1.4367
 6085SOL     OW29716   0.514   0.986   8.034 -0.6626 -0.1122 -0.3864
 6085SOL    HW129717   0.522   0.906   8.085  1.6612  0.4247  0.0862
 6085SOL    HW229718   0.471   1.043   8.098  0.1950  0.8964 -0.6923
 6086SOL     OW29719   4.643   2.147  13.154 -0.3650 -0.1933  0.1977
 6086SOL    HW129720   4.566   2.189  13.116  0.5834  1.3290 -0.0420
 6086SOL    HW229721   4.701   2.223  13.154  0.0645 -0.5179 -1.5069
 6087SOL     OW29722   0.735   0.239  11.505  0.1906  0.0087 -0.0284
 6087SOL    HW129723   0.787   0.318  11.521 -0.9717  0.7158  0.2895
 6087SOL    HW229724   0.667   0.240  11.573  2.0224 -0.2517  1.7964
 6088SOL     OW29725   0.046   0.603   3.284 -0.2414 -0.0670  0.2491
 6088SOL    HW129726   0.071   0.687   3.245  0.7519 -0.6023 -0.2576
 6088SOL    HW229727   0.129   0.562   3.307 -0.9672 -0.8511  1.4698
 6089SOL     OW29728   1.629   1.172   9.357 -0.1510 -0.5263 -0.0423
 6089SOL    HW129729   1.579   1.125   9.424 -0.3563 -0.7497 -0.3528
 6089SOL    HW229730   1.684   1.109   9.312  0.1878  0.5920 -1.1992
 6090SOL     OW29731   0.410   2.276   0.715  0.4995 -0.0504 -0.0347
 6090SOL    HW129732   0.428   2.202   0.659 -0.9696  0.0111 -0.5948
 6090SOL    HW229733   0.376   2.226   0.789  1.1990  0.0508  0.3551
 6091SOL     OW29734   1.560   2.599   0.687 -0.6369 -0.0081  1.2913
 6091SOL    HW129735   1.599   2.686   0.699  0.5771 -0.3638 -0.0478
 6091SOL    HW229736   1.627   2.545   0.645  1.1048  2.8499  0.3872
 6092SOL     OW29737   0.894   2.439   3.529 -0.3786  0.5581  0.1945
 6092SOL    HW129738   0.916   2.519   3.482  1.0952  0.1960  0.2578
 6092SOL    HW229739   0.800   2.440   3.514 -0.3119  1.4263 -0.1986
 6093SOL     OW29740   4.675   2.030  16.130  0.2678 -0.0705  0.1782
 6093SOL    HW129741   4.603   1.973  16.104  0.0554 -0.1919  1.0252
 6093SOL    HW229742   4.642   2.118  16.112 -1.0732 -0.8775 -1.2766
 6094SOL     OW29743   0.353   0.009   5.109 -0.0888  0.0429 -0.7672
 6094SOL    HW129744   0.263   0.041   5.101 -0.4510 -1.0065 -0.9676
 6094SOL    HW229745   0.358   4.719   5.204  1.3106 -0.9386 -0.9762
 6095SOL     OW29746   1.383   0.145   5.488  0.6256 -0.0220 -0.4200
 6095SOL    HW129747   1.326   0.072   5.463 -0.3617  0.5790  0.0857
 6095SOL    HW229748   1.335   0.219   5.453  2.6496  1.2614 -0.5088
 6096SOL     OW29749   1.015   2.111   4.451 -0.7471  0.0485  0.2109
 6096SOL    HW129750   0.981   2.041   4.507 -0.0317 -0.8053 -0.4171
 6096SOL    HW229751   1.110   2.113   4.461 -0.7462 -1.2121  0.5252
 6097SOL     OW29752   3.284   4.503   7.480  0.2792  0.7192 -0.2940
 6097SOL    HW129753   3.299   4.471   7.569  1.4948  0.3976 -0.6187
 6097SOL    HW229754   3.316   4.427   7.431  0.1183  1.9030 -2.2311
 6098SOL     OW29755   0.399   1.771   3.033 -0.2404 -0.3053  0.6010
 6098SOL    HW129756   0.427   1.680   3.037  1.0378  0.0341 -0.5888
 6098SOL    HW229757   0.479   1.820   3.011 -1.2054  0.4606 -1.2457
 6099SOL     OW29758   1.206   3.711   5.531  0.9167 -0.2519  0.2940
 6099SOL    HW129759   1.158   3.700   5.449 -0.5545 -1.9947  1.3821
 6099SOL    HW229760   1.250   3.794   5.511  1.9408 -0.2014  2.7313
 6100SOL     OW29761   4.724   0.759   7.297  0.2492  0.2657  0.3439
 6100SOL    HW129762   0.002   0.832   7.235 -0.6675  1.0517  1.2315
 6100SOL    HW229763   4.657   0.700   7.262  2.2502 -0.4987 -2.2163
 6101SOL     OW29764   1.049   0.680  16.647 -0.4705 -0.1654 -0.8087
 6101SOL    HW129765   1.053   0.767  16.608 -0.7143  0.7826  1.2630
 6101SOL    HW229766   1.092   0.621  16.585 -0.6392 -0.0054 -1.0750
 6102SOL     OW29767   0.602   2.035  16.084 -0.7233 -0.4424  0.7649
 6102SOL    HW129768   0.693   2.066  16.080 -1.3511  1.6481  2.4868
 6102SOL    HW229769   0.607   1.966  16.150 -0.5140 -0.4740  0.7150
 6103SOL     OW29770   4.422   3.763   8.801  0.1751 -0.6110  0.1643
 6103SOL    HW129771   4.374   3.799   8.727 -1.7330 -1.3253  1.0399
 6103SOL    HW229772   4.349   3.725   8.851 -1.9482  1.1495 -1.6111
 6104SOL     OW29773   1.203   3.890  14.298 -0.6461 -0.0668  0.5170
 6104SOL    HW129774   1.297   3.906  14.298 -0.0973 -3.2106 -0.4792
 6104SOL    HW229775   1.172   3.968  14.253  1.6680  0.0885 -0.8168
 6105SOL     OW29776   1.976   2.831   2.572 -0.4152  0.5460 -0.2305
 6105SOL    HW129777   2.040   2.781   2.521 -0.6719  1.8330 -1.8180
 6105SOL    HW229778   2.000   2.916   2.536 -1.4190  0.7703 -0.3798
 6106SOL     OW29779   0.926   0.658   6.225  0.4207  0.4632  0.1964
 6106SOL    HW129780   0.937   0.696   6.313  1.3205 -2.4721  1.3383
 6106SOL    HW229781   0.994   0.591   6.228  0.8548  0.9655  1.7687
 6107SOL     OW29782   0.228   2.855  15.860 -0.1377  0.0389 -0.2629
 6107SOL    HW129783   0.283   2.781  15.883 -0.7240 -0.0547  0.7996
 6107SOL    HW229784   0.298   2.916  15.839 -0.5764 -0.2818 -2.7440
 6108SOL     OW29785   1.228   4.373   4.659 -0.1182  0.1564  0.4780
 6108SOL    HW129786   1.306   4.420   4.690  0.0392 -0.2038  0.6394
 6108SOL    HW229787   1.257   4.283   4.639 -2.6446 -0.8655  1.5339
 6109SOL     OW29788   4.149   4.292   6.569  0.5409 -0.1716  0.4857
 6109SOL    HW129789   4.071   4.256   6.613  0.2647  0.6136  0.6446
 6109SOL    HW229790   4.159   4.227   6.498  0.4521 -0.4265  0.7052
 6110SOL     OW29791   0.828   2.234   7.755 -0.7197 -0.7240 -0.2718
 6110SOL    HW129792   0.824   2.168   7.824 -3.0984 -0.8236 -0.4869
 6110SOL    HW229793   0.870   2.308   7.799  0.6638 -2.2807  1.0374
 6111SOL     OW29794   0.542   3.910  11.092  0.0932 -0.0656  0.6745
 6111SOL    HW129795   0.573   3.957  11.014 -0.9951  1.2382  1.0349
 6111SOL    HW229796   0.604   3.951  11.153 -2.4844  1.3084  2.3399
 6112SOL     OW29797   2.447   4.617  12.786 -0.0060 -0.0526 -0.0172
 6112SOL    HW129798   2.372   4.619  12.845  1.2529  2.0212  1.5048
 6112SOL    HW229799   2.486   4.531  12.804  2.1608  1.1122  0.7926
 6113SOL     OW29800   3.623   2.508   2.479  0.1834 -0.3692 -0.5407
 6113SOL    HW129801   3.542   2.518   2.529  1.2020 -1.2116  1.2591
 6113SOL    HW229802   3.627   2.587   2.424 -1.4804  0.4023  0.4179
 6114SOL     OW29803   2.931   1.749  10.376  0.3267  0.0727 -0.2154
 6114SOL    HW129804   2.913   1.663  10.415 -2.2709  1.2691  1.2293
 6114SOL    HW229805   2.980   1.782  10.452  0.2326 -0.4684  0.0755
 6115SOL     OW29806   1.454   2.041  14.227  0.2635  0.5883 -0.0004
 6115SOL    HW129807   1.451   2.032  14.322 -1.1739 -1.9492 -0.3033
 6115SOL    HW229808   1.368   2.008  14.202  0.7299 -0.6548  0.0623
 6116SOL     OW29809   0.073   0.601   0.053  0.3944  0.5599  0.0473
 6116SOL    HW129810   0.073   0.611  17.654 -0.4979  0.4624  0.0394
 6116SOL    HW229811   4.702   0.590   0.062  0.2362  2.4099  0.6076
 6117SOL     OW29812   3.771   0.383  16.015  0.2419 -0.6914 -0.1406
 6117SOL    HW129813   3.852   0.409  15.972 -0.4284  1.5623 -0.0747
 6117SOL    HW229814   3.803   0.341  16.094  0.3841 -0.7763 -0.2431
 6118SOL     OW29815   2.631   2.334   5.118 -0.3851  0.5058 -0.2518
 6118SOL    HW129816   2.574   2.297   5.050  2.7903 -1.9895 -1.5818
 6118SOL    HW229817   2.586   2.303   5.196 -2.3663  1.2803 -1.0821
 6119SOL     OW29818   4.613   3.043   4.405  1.0333 -0.5384  0.5152
 6119SOL    HW129819   4.519   3.045   4.423  0.7930 -1.0082 -0.6900
 6119SOL    HW229820   4.644   3.130   4.380  1.8353 -0.1709  2.7511
 6120SOL     OW29821   4.573   4.332   5.500  0.2996 -0.5901  0.0365
 6120SOL    HW129822   4.531   4.416   5.483 -1.2410 -0.9916  1.9549
 6120SOL    HW229823   4.496   4.277   5.513  0.6453 -1.0094  0.3043
 6121SOL     OW29824   1.994   3.977   0.943  0.1319  0.4341  0.8217
 6121SOL    HW129825   1.920   4.006   0.889 -0.1427 -0.2904  0.8145
 6121SOL    HW229826   1.947   3.918   1.002  1.5158 -1.5432 -0.0772
 6122SOL     OW29827   3.499   1.401  16.024  0.4699  0.0399  0.5644
 6122SOL    HW129828   3.432   1.383  15.958 -0.3531 -1.5070  1.8336
 6122SOL    HW229829   3.465   1.350  16.098  0.5097  0.3086  0.7648
 6123SOL     OW29830   2.511   1.519   9.891 -0.1208 -0.1450  0.0825
 6123SOL    HW129831   2.533   1.577   9.818  0.6641  1.1140  1.3066
 6123SOL    HW229832   2.594   1.478   9.915  1.2271  2.2488 -0.4974
 6124SOL     OW29833   1.996   2.496   0.599 -0.1306  0.4933  0.2214
 6124SOL    HW129834   2.027   2.563   0.659 -0.5743  0.1055  0.8793
 6124SOL    HW229835   1.904   2.517   0.580 -0.1325  0.3635  0.0793
 6125SOL     OW29836   3.924   0.336  12.741  0.1943 -0.6903  0.6356
 6125SOL    HW129837   3.874   0.359  12.820 -0.0557  1.6803 -0.2110
 6125SOL    HW229838   3.982   0.411  12.732 -0.2662 -0.6078 -1.6495
 6126SOL     OW29839   2.648   1.226  10.287 -0.1031  0.2894 -0.1286
 6126SOL    HW129840   2.715   1.271  10.338  1.0401 -1.6416  0.0661
 6126SOL    HW229841   2.697   1.164  10.234 -0.2118  0.7239 -0.7305
 6127SOL     OW29842   3.009   3.966  16.991 -0.4024  0.3752 -0.2290
 6127SOL    HW129843   2.928   3.919  16.974  0.8174 -1.7393 -0.2233
 6127SOL    HW229844   2.994   3.980  17.084  0.2031 -0.8442  0.0560
 6128SOL     OW29845   4.690   4.328  10.783  0.0101 -0.1379  0.6556
 6128SOL    HW129846   4.647   4.263  10.728  0.4619  2.4806 -2.8488
 6128SOL    HW229847   4.629   4.402  10.779  0.7847  0.2600 -4.2021
 6129SOL     OW29848   0.595   1.700   3.398 -0.0942 -0.0468 -0.1477
 6129SOL    HW129849   0.592   1.787   3.437  1.3197  0.3105 -0.8555
 6129SOL    HW229850   0.542   1.648   3.459 -0.5673  1.3592  0.6321
 6130SOL     OW29851   0.998   2.851   1.708 -0.4498  0.6052 -0.2949
 6130SOL    HW129852   1.006   2.759   1.735 -1.1179  1.5197  2.9470
 6130SOL    HW229853   0.939   2.844   1.633 -1.4261 -1.1126  0.6258
 6131SOL     OW29854   2.113   0.385   5.217 -0.2609 -0.0771  0.1402
 6131SOL    HW129855   2.035   0.394   5.271  0.9524 -1.5939  2.1707
 6131SOL    HW229856   2.099   0.297   5.182  0.6061 -0.7453  1.4476
 6132SOL     OW29857   3.387   2.399  13.425  0.2346 -0.1889  0.6914
 6132SOL    HW129858   3.417   2.449  13.501  1.2723 -1.3574  1.0450
 6132SOL    HW229859   3.406   2.309  13.450 -0.5504 -0.1268  1.5093
 6133SOL     OW29860   2.219   2.116   5.641  0.1054 -0.2525 -0.2585
 6133SOL    HW129861   2.282   2.162   5.697 -1.2025  1.1528  0.0652
 6133SOL    HW229862   2.187   2.050   5.701 -0.6781  0.4042  0.0436
 6134SOL     OW29863   2.927   0.158   8.216 -0.2199 -0.1060  0.1706
 6134SOL    HW129864   2.903   0.208   8.138  1.4430 -1.5862 -1.2881
 6134SOL    HW229865   2.907   0.220   8.285  0.7188  0.2925  0.0811
 6135SOL     OW29866   1.318   0.181   6.241 -1.0188 -0.5037 -0.4175
 6135SOL    HW129867   1.390   0.187   6.177 -1.1574  0.0539 -0.5245
 6135SOL    HW229868   1.241   0.160   6.188  1.0788 -2.8270 -2.5533
 6136SOL     OW29869   3.979   1.489   9.471  0.2098  0.1499  0.7456
 6136SOL    HW129870   3.935   1.572   9.491 -1.4859 -0.7542  0.7875
 6136SOL    HW229871   3.907   1.454   9.419 -0.0164  0.4064  0.8883
 6137SOL     OW29872   2.297   0.153   0.250 -0.6109  0.1392  0.2509
 6137SOL    HW129873   2.233   0.217   0.280  0.3780  1.3041 -0.1041
 6137SOL    HW229874   2.265   0.065   0.267  3.4895 -1.7393 -1.7985
 6138SOL     OW29875   0.924   2.225  13.227  0.4060  0.0359  0.5449
 6138SOL    HW129876   0.959   2.141  13.257 -0.8902 -0.0786  1.6976
 6138SOL    HW229877   0.864   2.246  13.298 -0.0116  0.2805  0.1181
 6139SOL     OW29878   0.899   4.556   2.694 -0.2287 -0.2218 -0.2616
 6139SOL    HW129879   0.839   4.481   2.693  0.6086 -0.8616 -4.5479
 6139SOL    HW229880   0.854   4.610   2.630 -1.4753  1.0144  1.6953
 6140SOL     OW29881   1.950   3.093  12.651  0.0014 -0.2270  0.3827
 6140SOL    HW129882   1.889   3.054  12.588  0.3882  0.4924 -0.4342
 6140SOL    HW229883   1.958   3.186  12.629  1.2255 -0.8733 -1.9095
 6141SOL     OW29884   2.942   1.992   6.014  0.3086  0.0098  0.1116
 6141SOL    HW129885   2.975   1.904   6.027  1.4196  0.3640 -0.3455
 6141SOL    HW229886   2.921   2.007   6.106  1.5145 -0.7723  0.5110
 6142SOL     OW29887   3.851   2.701   3.394 -0.3181  0.0033  0.5549
 6142SOL    HW129888   3.818   2.741   3.475  0.2200  0.0811  0.7333
 6142SOL    HW229889   3.837   2.608   3.411 -1.1535 -0.0952 -0.6768
 6143SOL     OW29890   3.675   0.457   5.966  0.4309  0.0592 -0.6861
 6143SOL    HW129891   3.723   0.374   5.967 -1.9644 -1.3127 -0.6905
 6143SOL    HW229892   3.728   0.514   6.021 -0.6233 -0.4446  0.8324
 6144SOL     OW29893   1.461   3.497  11.505 -0.3763  0.0090  0.2760
 6144SOL    HW129894   1.508   3.540  11.433  1.5213 -2.3793  0.0774
 6144SOL    HW229895   1.368   3.505  11.486 -0.4333 -0.0218  0.5381
 6145SOL     OW29896   4.198   0.541  14.228 -0.1101 -0.4589 -0.2255
 6145SOL    HW129897   4.221   0.461  14.181  2.5180  1.1463 -1.6867
 6145SOL    HW229898   4.102   0.536  14.230 -0.1495 -0.6119 -2.8319
 6146SOL     OW29899   2.885   3.444  15.874 -0.3247 -0.6036  0.3182
 6146SOL    HW129900   2.797   3.466  15.903 -0.5077 -1.3416  0.3258
 6146SOL    HW229901   2.905   3.511  15.808  1.0239 -0.5714  0.7468
 6147SOL     OW29902   1.039   4.420   0.003 -0.1545  0.6951 -0.1007
 6147SOL    HW129903   1.131   4.417  17.676  0.3310 -0.3514  1.9301
 6147SOL    HW229904   1.016   4.512  17.682  1.6120  1.2401  0.5013
 6148SOL     OW29905   0.550   0.090  16.925  0.3401  0.2008 -0.4657
 6148SOL    HW129906   0.601   0.023  16.878 -0.0207 -0.7091  0.4424
 6148SOL    HW229907   0.502   0.132  16.853  0.7554 -0.7450 -1.2982
 6149SOL     OW29908   0.400   2.793   7.649  0.1519  0.3271 -0.6573
 6149SOL    HW129909   0.474   2.799   7.588  1.3374 -1.6961  0.6082
 6149SOL    HW229910   0.337   2.843   7.597 -2.0178  0.9136  2.5562
 6150SOL     OW29911   0.737   0.404  16.233  0.4958  0.1639  0.0987
 6150SOL    HW129912   0.812   0.367  16.280  1.5707  1.1479 -0.8287
 6150SOL    HW229913   0.677   0.331  16.245 -1.2689  2.0885  2.9813
 6151SOL     OW29914   2.999   0.875   6.613 -0.6780 -0.1226 -0.7313
 6151SOL    HW129915   2.990   0.891   6.519 -0.6560  3.1011 -0.1780
 6151SOL    HW229916   2.907   0.896   6.632 -1.0298 -2.0934 -0.2047
 6152SOL     OW29917   1.318   3.725   3.338 -0.3783 -0.0096 -0.1253
 6152SOL    HW129918   1.264   3.685   3.270  0.4502 -0.1119 -0.7275
 6152SOL    HW229919   1.248   3.775   3.380 -1.6706  0.4982 -2.8973
 6153SOL     OW29920   1.998   2.230   4.135 -0.4738 -0.4653 -0.4331
 6153SOL    HW129921   2.012   2.160   4.198 -1.6324 -1.4427 -1.2692
 6153SOL    HW229922   2.049   2.186   4.067  0.0273  1.0305 -1.0416
 6154SOL     OW29923   3.394   3.134   1.148 -0.3856  0.0238  0.0771
 6154SOL    HW129924   3.312   3.178   1.167  0.2968  0.8546  1.1133
 6154SOL    HW229925   3.381   3.061   1.209 -1.4641  0.8704  0.8404
 6155SOL     OW29926   2.206   3.939   7.971  0.3729  0.0660 -0.1474
 6155SOL    HW129927   2.225   3.941   8.064 -0.2413  1.8210 -0.0653
 6155SOL    HW229928   2.218   4.027   7.936  0.1420 -0.2104 -0.9223
 6156SOL     OW29929   2.567   1.837   9.196 -0.3800  0.0156  0.0838
 6156SOL    HW129930   2.593   1.922   9.232  2.0280 -0.5197 -0.3917
 6156SOL    HW229931   2.566   1.851   9.101 -1.6162 -0.8603 -0.0295
 6157SOL     OW29932   2.805   1.497   2.213  0.0727  0.3972 -0.2918
 6157SOL    HW129933   2.881   1.533   2.258 -0.7831  2.0651 -0.1773
 6157SOL    HW229934   2.756   1.576   2.189  0.8193  0.9183 -0.0800
 6158SOL     OW29935   4.090   3.212  14.413 -0.8044  1.4653 -0.2527
 6158SOL    HW129936   4.082   3.285  14.474 -1.1916 -1.0343  2.7127
 6158SOL    HW229937   4.009   3.165  14.435 -0.1014  0.7986  0.9115
 6159SOL     OW29938   0.203   0.100   4.471  0.0659 -0.1740 -0.5468
 6159SOL    HW129939   0.128   0.139   4.426 -0.1303 -0.8851 -0.8345
 6159SOL    HW229940   0.164   0.022   4.509 -0.7185  0.1148 -0.7574
 6160SOL     OW29941   1.871   4.319   1.729 -0.1005  0.0611  0.0074
 6160SOL    HW129942   1.854   4.411   1.711  0.9964  0.3953  0.6461
 6160SOL    HW229943   1.868   4.323   1.825  2.0045  1.3645  0.0118
 6161SOL     OW29944   1.706   3.497   4.382 -0.0073 -0.2157  0.1679
 6161SOL    HW129945   1.744   3.432   4.442 -1.7461  0.5550  2.0912
 6161SOL    HW229946   1.690   3.448   4.302  1.4726 -2.2693  1.1097
 6162SOL     OW29947   4.425   0.864   9.600 -0.6055  0.0333 -0.2469
 6162SOL    HW129948   4.351   0.904   9.554 -1.5414 -0.8610  0.4610
 6162SOL    HW229949   4.386   0.778   9.619  1.5353 -0.7307  0.6539
 6163SOL     OW29950   2.015   3.318  15.225 -0.1419 -0.1260  0.3452
 6163SOL    HW129951   2.029   3.224  15.238 -0.3897 -0.2792 -0.4608
 6163SOL    HW229952   1.920   3.327  15.226 -0.2153 -1.0783  2.1938
 6164SOL     OW29953   2.464   4.177   7.397  0.7712  0.4695  0.6410
 6164SOL    HW129954   2.434   4.124   7.471 -0.8033  0.2485 -0.1687
 6164SOL    HW229955   2.379   4.218   7.381 -0.0996 -1.1049  1.2645
 6165SOL     OW29956   4.051   1.245   2.823 -0.2734 -0.2068  0.7038
 6165SOL    HW129957   4.012   1.287   2.900  0.0594 -0.2929  0.9201
 6165SOL    HW229958   3.977   1.249   2.763  0.6051  2.0099 -0.2365
 6166SOL     OW29959   3.848   4.017  13.589 -0.3810 -0.6244 -0.1679
 6166SOL    HW129960   3.910   3.991  13.521 -1.5907  0.3613 -1.6320
 6166SOL    HW229961   3.848   4.111  13.574 -0.1934 -0.7331 -0.8398
 6167SOL     OW29962   4.374   4.043   2.833 -0.4105  0.1781 -0.6756
 6167SOL    HW129963   4.345   4.065   2.922  0.5149  0.5764 -0.4714
 6167SOL    HW229964   4.435   4.116   2.818  1.0819 -0.6539  1.2441
 6168SOL     OW29965   0.467   3.808   6.398 -0.0836 -0.3514  0.7586
 6168SOL    HW129966   0.473   3.737   6.334 -0.3355  1.3108 -1.1240
 6168SOL    HW229967   0.495   3.873   6.334 -0.8105  0.2625  1.0705
 6169SOL     OW29968   1.005   2.205   4.830 -0.0041  0.2938 -0.1735
 6169SOL    HW129969   1.058   2.285   4.834  0.0427  0.2024  0.9755
 6169SOL    HW229970   1.073   2.142   4.806 -0.7045 -0.4543 -0.1788
 6170SOL     OW29971   0.422   1.251   2.902  0.2596 -0.1752 -0.4264
 6170SOL    HW129972   0.401   1.299   2.822  0.0355  0.9545  0.3118
 6170SOL    HW229973   0.491   1.314   2.923 -1.1982  0.8112  1.3608
 6171SOL     OW29974   0.015   0.646   8.831  0.0775  0.4595 -0.1135
 6171SOL    HW129975   0.068   0.724   8.813 -0.3522  0.9667  0.7949
 6171SOL    HW229976   0.036   0.587   8.758 -0.0122  1.7130 -1.1606
 6172SOL     OW29977   2.657   0.522   5.238 -0.1236  0.1575  0.1571
 6172SOL    HW129978   2.614   0.488   5.160  0.8424 -0.7090  0.0015
 6172SOL    HW229979   2.606   0.471   5.301  1.0561  0.9512  1.7927
 6173SOL     OW29980   0.176   0.880  11.778 -0.4562 -0.2688  0.0272
 6173SOL    HW129981   0.234   0.821  11.731  1.0070  1.3723 -0.2302
 6173SOL    HW229982   0.214   0.872  11.865  1.3018  0.0330 -0.7254
 6174SOL     OW29983   0.723   0.051   2.779 -0.1516 -0.3881  0.6908
 6174SOL    HW129984   0.768   0.080   2.700  0.0026  0.4136  1.0775
 6174SOL    HW229985   0.772   0.099   2.845 -1.1796  0.4749  0.8252
 6175SOL     OW29986   2.709   4.089   6.699  0.2072 -0.4233 -0.0398
 6175SOL    HW129987   2.794   4.125   6.673 -0.1010 -1.5472 -2.5097
 6175SOL    HW229988   2.673   4.072   6.613 -0.5225 -0.3688  0.2556
 6176SOL     OW29989   4.122   1.391  12.888  0.5443 -0.3640  0.0845
 6176SOL    HW129990   4.197   1.332  12.879  0.2372  0.1099 -5.1791
 6176SOL    HW229991   4.060   1.336  12.935 -0.1024  0.6437  0.4112
 6177SOL     OW29992   3.388   0.839   4.757 -0.0892 -0.0320  0.5644
 6177SOL    HW129993   3.405   0.745   4.762 -1.0558 -0.2020  0.7023
 6177SOL    HW229994   3.325   0.834   4.684 -2.1279 -0.8089  2.3875
 6178SOL     OW29995   3.132   3.755  10.564  0.3135  0.6253  0.1419
 6178SOL    HW129996   3.210   3.705  10.538 -0.3776  0.4275 -1.5555
 6178SOL    HW229997   3.171   3.800  10.639  1.8032 -2.4999  1.2290
 6179SOL     OW29998   0.715   0.410   7.309  0.5101 -0.5586 -0.7244
 6179SOL    HW129999   0.623   0.385   7.301  0.1502  0.1252  1.3068
 6179SOL    HW230000   0.723   0.364   7.393 -1.6799  0.0398 -0.1748
 6180SOL     OW30001   1.705   2.512   8.437  0.7788 -0.6546  0.3577
 6180SOL    HW130002   1.791   2.505   8.477  0.2679  2.6811  2.0403
 6180SOL    HW230003   1.730   2.468   8.355  2.1871 -0.1631  0.5320
 6181SOL     OW30004   4.288   0.982   5.143 -0.1906  0.3101  0.2519
 6181SOL    HW130005   4.253   0.951   5.226  1.7297 -0.0129  0.9372
 6181SOL    HW230006   4.330   0.901   5.114 -1.2416  0.3301 -1.3637
 6182SOL     OW30007   4.017   1.452   6.131  0.2594  0.1449  0.2432
 6182SOL    HW130008   4.066   1.502   6.197 -0.4635  0.9862  0.1422
 6182SOL    HW230009   3.945   1.512   6.113  0.0898 -0.1068  0.0856
 6183SOL     OW30010   3.656   4.480   2.824 -1.0013 -0.4484  0.0984
 6183SOL    HW130011   3.672   4.570   2.795 -0.0872 -0.4900  0.4676
 6183SOL    HW230012   3.666   4.431   2.742  0.0701 -0.8674  0.4779
 6184SOL     OW30013   2.467   0.610   4.898  0.6032  0.2782  0.2819
 6184SOL    HW130014   2.408   0.567   4.959 -1.2659  2.7718  0.2401
 6184SOL    HW230015   2.456   0.552   4.822 -0.7289 -0.0037  0.7000
 6185SOL     OW30016   1.481   2.379   7.561  0.1805  0.1520 -0.1873
 6185SOL    HW130017   1.558   2.384   7.504  0.1708  2.6809  0.0245
 6185SOL    HW230018   1.414   2.415   7.504 -0.2632 -1.2832 -0.5608
 6186SOL     OW30019   3.658   0.318   3.407  0.2245 -0.0211  0.6384
 6186SOL    HW130020   3.619   0.256   3.469 -2.2418 -0.5185 -1.4025
 6186SOL    HW230021   3.638   0.401   3.450 -1.8160 -0.5546  0.7120
 6187SOL     OW30022   2.905   1.504  16.805  0.1683 -0.2365 -0.0262
 6187SOL    HW130023   2.832   1.495  16.866 -0.4268  0.1490 -0.6966
 6187SOL    HW230024   2.968   1.527  16.874 -1.4628  2.4616  0.5617
 6188SOL     OW30025   0.163   1.661   3.470  0.5365  0.2140 -0.3221
 6188SOL    HW130026   0.251   1.645   3.504 -0.3785 -1.3379  1.3031
 6188SOL    HW230027   0.163   1.749   3.434 -0.8045  0.3977  0.1533
 6189SOL     OW30028   4.546   4.092   4.272 -0.1682 -0.2476  0.2443
 6189SOL    HW130029   4.529   4.002   4.300 -0.8354 -0.8076 -2.0185
 6189SOL    HW230030   4.462   4.136   4.289  0.3836  1.5927 -1.7975
 6190SOL     OW30031   1.376   2.443   0.867  0.2295 -0.2205  0.1742
 6190SOL    HW130032   1.419   2.422   0.783  0.9245  0.1193  0.4414
 6190SOL    HW230033   1.406   2.533   0.884  3.1912 -0.9477 -1.0819
 6191SOL     OW30034   4.636   0.533   8.142  0.9369 -0.6660  0.4752
 6191SOL    HW130035   4.620   0.487   8.059  1.6153 -1.3141  0.7049
 6191SOL    HW230036   4.562   0.594   8.144  0.2710 -1.4365 -0.6715
 6192SOL     OW30037   0.913   2.597   8.825 -0.2935 -0.1511 -0.0508
 6192SOL    HW130038   0.913   2.579   8.919  0.6965 -0.0932 -0.0394
 6192SOL    HW230039   0.826   2.630   8.804 -0.1137  0.4073  0.0667
 6193SOL     OW30040   3.607   4.251   1.768 -0.6331 -0.7385 -0.2915
 6193SOL    HW130041   3.657   4.284   1.693  1.4553 -1.6316  0.6821
 6193SOL    HW230042   3.659   4.177   1.801  1.3883  0.6818 -0.2652
 6194SOL     OW30043   2.970   0.911   9.761 -0.3712 -0.8372  0.4901
 6194SOL    HW130044   2.883   0.872   9.749 -1.9089  2.7163  0.0968
 6194SOL    HW230045   2.972   0.954   9.675  1.0266 -1.6581  0.1100
 6195SOL     OW30046   2.831   1.877   8.510 -0.2739  0.5034  0.0643
 6195SOL    HW130047   2.908   1.896   8.458 -0.2302 -0.9267 -0.3868
 6195SOL    HW230048   2.862   1.892   8.600  0.0355 -1.2041  0.2520
 6196SOL     OW30049   1.437   0.652   4.963 -0.2226 -0.1402 -0.2213
 6196SOL    HW130050   1.459   0.579   5.021  0.7052  2.4907  2.7541
 6196SOL    HW230051   1.446   0.607   4.879  2.6932 -0.1942  0.1162
 6197SOL     OW30052   3.077   1.107   6.132 -0.2879  0.0787  0.0612
 6197SOL    HW130053   3.153   1.070   6.088 -1.2115 -0.6360 -0.9327
 6197SOL    HW230054   3.053   1.176   6.070  1.1830  0.8375  0.3302
 6198SOL     OW30055   0.131   3.200   4.969  0.2868 -0.2519 -0.1625
 6198SOL    HW130056   0.047   3.246   4.970 -0.7533 -2.1386  0.6244
 6198SOL    HW230057   0.156   3.205   4.877 -0.6890 -2.1131 -0.5245
 6199SOL     OW30058   4.092   1.941   3.650 -0.0011 -0.2158  0.6716
 6199SOL    HW130059   4.052   1.910   3.569  1.4555 -0.9724  0.2493
 6199SOL    HW230060   4.185   1.944   3.629 -0.0097  0.1273  0.6929
 6200SOL     OW30061   0.716   2.675   3.802  0.4933 -0.0528 -0.1288
 6200SOL    HW130062   0.699   2.721   3.720 -0.0471  1.7021  0.9495
 6200SOL    HW230063   0.777   2.726   3.856  0.3928 -0.1661  0.0930
 6201SOL     OW30064   3.784   2.603   4.782 -0.0215  0.5349 -0.2563
 6201SOL    HW130065   3.791   2.534   4.716  2.5343  0.7759 -0.2404
 6201SOL    HW230066   3.769   2.676   4.722 -3.1825 -0.2276 -0.4028
 6202SOL     OW30067   4.463   2.943   2.674  0.0998  0.5906 -0.1564
 6202SOL    HW130068   4.443   2.890   2.597  0.7543  0.3316 -0.1429
 6202SOL    HW230069   4.557   2.940   2.690 -0.0514  0.6664  0.7707
 6203SOL     OW30070   0.498   2.755  13.458 -0.4471  0.4762  0.4274
 6203SOL    HW130071   0.580   2.708  13.472  0.0378  0.8952 -0.9579
 6203SOL    HW230072   0.432   2.713  13.513 -2.1346  1.8319 -0.5362
 6204SOL     OW30073   0.877   1.617   7.919 -0.1993  0.0202  0.5649
 6204SOL    HW130074   0.834   1.560   7.983  1.6505 -0.8432  1.0679
 6204SOL    HW230075   0.810   1.673   7.882 -0.2176 -1.3129 -1.4243
 6205SOL     OW30076   4.314   4.326   6.211 -0.6356 -0.6265  0.2709
 6205SOL    HW130077   4.375   4.317   6.284 -0.3165 -2.7061 -0.2425
 6205SOL    HW230078   4.234   4.283   6.243 -0.4161  0.0008  1.6485
 6206SOL     OW30079   0.772   0.227  15.411 -0.1610 -0.4635  0.1210
 6206SOL    HW130080   0.801   0.312  15.443 -0.1262 -0.3626 -0.1842
 6206SOL    HW230081   0.724   0.252  15.333  0.0474  1.9913  0.7745
 6207SOL     OW30082   0.710   4.699  15.199  0.1633 -0.0570 -0.0638
 6207SOL    HW130083   0.763   0.036  15.147 -0.1951 -0.5600 -1.0155
 6207SOL    HW230084   0.769   4.677  15.271  2.0599 -1.7165 -2.1121
 6208SOL     OW30085   2.349   0.298  17.544  0.1562 -0.5614 -0.2573
 6208SOL    HW130086   2.383   0.360  17.609  0.5281 -0.8019 -0.2249
 6208SOL    HW230087   2.283   0.260  17.602  1.3888  0.6441  1.9481
 6209SOL     OW30088   3.329   2.678   6.197  0.4316 -0.0435  0.5381
 6209SOL    HW130089   3.283   2.594   6.198  0.6646 -0.1742  0.0174
 6209SOL    HW230090   3.310   2.720   6.114  0.2390  0.4585  0.8359
 6210SOL     OW30091   0.000   0.952   7.109  0.0145 -0.4920  0.1517
 6210SOL    HW130092   4.632   0.965   7.086  0.1161  1.4142  0.8633
 6210SOL    HW230093   0.018   1.041   7.138 -0.7895  0.6630 -2.9648
 6211SOL     OW30094   0.028   0.603  13.642  0.4342 -0.0593  0.1161
 6211SOL    HW130095   0.090   0.534  13.667 -0.4567 -0.6219  0.7853
 6211SOL    HW230096   0.070   0.681  13.678 -2.1382  1.4394 -0.1401
 6212SOL     OW30097   3.576   3.779   0.306 -0.3486  0.1133 -0.4714
 6212SOL    HW130098   3.483   3.757   0.319  0.3384 -2.4793  0.1189
 6212SOL    HW230099   3.593   3.731   0.225  0.7166 -2.3256  1.1840
 6213SOL     OW30100   4.347   1.916   3.573 -0.6041  0.1798 -0.6353
 6213SOL    HW130101   4.428   1.960   3.549 -0.6259  0.4341 -0.2497
 6213SOL    HW230102   4.368   1.865   3.651 -1.4356 -0.7360 -0.9960
 6214SOL     OW30103   0.852   4.347   6.747  0.4278  0.1299 -0.3662
 6214SOL    HW130104   0.842   4.438   6.719  2.0831  0.6547  0.7648
 6214SOL    HW230105   0.919   4.365   6.813  0.4827 -0.3798 -0.2818
 6215SOL     OW30106   2.004   3.421   9.876  0.0082 -0.3879 -0.2314
 6215SOL    HW130107   2.096   3.418   9.904 -0.7784 -1.2221  2.3066
 6215SOL    HW230108   1.978   3.330   9.888 -0.1678 -0.1470  1.2803
 6216SOL     OW30109   3.495   0.785   2.287 -0.1377  0.4117 -0.4107
 6216SOL    HW130110   3.544   0.769   2.368 -0.1509 -0.1246 -0.5111
 6216SOL    HW230111   3.566   0.753   2.232 -0.7804 -0.6536 -0.6119
 6217SOL     OW30112   1.649   3.532  15.059 -0.0495 -0.2405  0.1484
 6217SOL    HW130113   1.703   3.466  15.104  0.2654 -0.5006 -0.6009
 6217SOL    HW230114   1.582   3.479  15.016 -0.0900  1.8067 -2.3006
 6218SOL     OW30115   3.248   2.245   6.842 -0.1683 -0.2927 -0.4250
 6218SOL    HW130116   3.161   2.209   6.860  0.0117 -0.8677 -0.6899
 6218SOL    HW230117   3.250   2.248   6.746  0.0476  0.3497 -0.3977
 6219SOL     OW30118   4.316   4.442   2.621 -0.0376  0.1555  0.3525
 6219SOL    HW130119   4.353   4.515   2.572 -2.6864  1.0833 -0.2454
 6219SOL    HW230120   4.287   4.489   2.699  2.1089 -0.8755  1.7427
 6220SOL     OW30121   0.620   4.213  10.210  0.8778  0.2825 -0.1457
 6220SOL    HW130122   0.637   4.191  10.301 -0.4315  3.9028  0.9519
 6220SOL    HW230123   0.671   4.290  10.185  0.1225  0.5501 -0.8778
 6221SOL     OW30124   1.816   0.970  12.089 -0.5108  0.1330  0.1762
 6221SOL    HW130125   1.813   0.898  12.152  1.3880 -1.2788 -1.3558
 6221SOL    HW230126   1.724   0.974  12.061  0.7011 -1.2158 -3.9766
 6222SOL     OW30127   0.100   3.164   2.042 -0.2316 -0.3311  0.3980
 6222SOL    HW130128   0.131   3.127   1.960  0.1130 -0.2820  0.5062
 6222SOL    HW230129   0.083   3.084   2.091  1.6709 -1.6419 -1.0830
 6223SOL     OW30130   2.216   0.228   4.143 -0.3373  0.3014  0.0825
 6223SOL    HW130131   2.297   0.200   4.100 -0.9021  0.6649 -1.1864
 6223SOL    HW230132   2.177   0.293   4.086  0.0405  0.4135 -0.0501
 6224SOL     OW30133   2.109   3.346  17.497  0.1411  0.0525 -0.2999
 6224SOL    HW130134   2.105   3.417  17.561  2.0656 -0.9094  0.9036
 6224SOL    HW230135   2.203   3.344  17.479  0.5239  1.1219  1.5344
 6225SOL     OW30136   4.374   3.509  13.922  0.1845  0.2062 -0.0758
 6225SOL    HW130137   4.288   3.486  13.888  2.0339 -1.3896 -3.7099
 6225SOL    HW230138   4.413   3.428  13.954  0.1384 -0.5976 -2.0152
 6226SOL     OW30139   2.498   0.304   4.345 -0.8084 -0.0825 -0.9450
 6226SOL    HW130140   2.445   0.224   4.353 -0.6789 -0.1094 -0.3201
 6226SOL    HW230141   2.564   0.281   4.410 -0.1199  0.7934 -1.3407
 6227SOL     OW30142   1.002   3.088   5.390  0.8716  0.8609 -0.3359
 6227SOL    HW130143   0.917   3.045   5.382  0.3923  2.0379 -1.5809
 6227SOL    HW230144   0.966   3.174   5.411  1.6766  0.4824  2.5088
 6228SOL     OW30145   3.399   1.773  12.539  0.1637 -0.2983 -0.2831
 6228SOL    HW130146   3.421   1.687  12.502 -0.1835 -1.4056  2.1021
 6228SOL    HW230147   3.319   1.756  12.589 -1.2979  0.3122 -2.3700
 6229SOL     OW30148   2.429   2.233   8.225  0.6536  0.5392  0.8457
 6229SOL    HW130149   2.361   2.291   8.190 -1.0120 -1.6047  0.5397
 6229SOL    HW230150   2.378   2.182   8.288 -1.3880 -0.1315 -1.3294
 6230SOL     OW30151   4.641   2.939   4.810 -0.2326  0.0989 -0.1764
 6230SOL    HW130152   4.651   3.031   4.788  1.3505 -0.0739 -0.1821
 6230SOL    HW230153   4.546   2.940   4.797 -0.4568  2.8309  1.6426
 6231SOL     OW30154   0.952   0.166  11.247 -0.0386 -0.3072 -0.2498
 6231SOL    HW130155   0.931   0.093  11.189  0.8894  0.7774 -1.9302
 6231SOL    HW230156   0.902   0.237  11.209  1.5874  0.7207 -0.4770
 6232SOL     OW30157   4.144   1.784   1.908 -0.6829 -0.0600  0.2741
 6232SOL    HW130158   4.199   1.764   1.983 -0.6535 -2.2921 -0.3507
 6232SOL    HW230159   4.203   1.782   1.832  0.6968  2.3414  1.2700
 6233SOL     OW30160   3.971   4.285  11.837  0.0829 -0.1295  0.2399
 6233SOL    HW130161   3.948   4.329  11.919 -2.3693 -0.5127 -0.2501
 6233SOL    HW230162   3.884   4.275  11.798  1.3442 -0.9370 -2.4035
 6234SOL     OW30163   1.228   2.345  13.192 -0.0931 -0.8147  0.1252
 6234SOL    HW130164   1.257   2.332  13.282 -2.1087  0.4674  0.9344
 6234SOL    HW230165   1.149   2.290  13.194 -0.1922 -0.7317 -1.4917
 6235SOL     OW30166   1.245   0.742  11.127  0.1977 -0.2659  0.7780
 6235SOL    HW130167   1.340   0.734  11.119  0.2385  0.7485  0.3125
 6235SOL    HW230168   1.241   0.815  11.189 -1.5246 -1.2716  1.8616
 6236SOL     OW30169   3.141   0.686   2.773 -0.0830  0.1959  0.1194
 6236SOL    HW130170   3.097   0.699   2.857  1.0710 -0.5935  0.8420
 6236SOL    HW230171   3.067   0.675   2.714 -0.4388  0.2264  0.5562
 6237SOL     OW30172   0.917   1.676   0.148  0.4505 -0.6240 -0.4978
 6237SOL    HW130173   0.902   1.765   0.119 -4.5924 -1.4241 -0.2604
 6237SOL    HW230174   0.832   1.643   0.176  0.9037  0.5818  2.3369
 6238SOL     OW30175   0.181   1.260   6.587  0.2532  0.1533  0.0008
 6238SOL    HW130176   0.101   1.263   6.640  0.4511  2.8646  0.1391
 6238SOL    HW230177   0.199   1.353   6.578 -0.8042  0.4699  1.1062
 6239SOL     OW30178   1.398   1.847   8.814  0.5006 -0.5415 -0.4179
 6239SOL    HW130179   1.351   1.779   8.764  0.7676 -1.0984  0.0901
 6239SOL    HW230180   1.362   1.837   8.902  1.7948 -1.9991 -0.0624
 6240SOL     OW30181   4.412   1.486   6.208  0.1483 -0.6990  0.3603
 6240SOL    HW130182   4.414   1.531   6.123  1.5471 -0.5782  0.4537
 6240SOL    HW230183   4.505   1.464   6.203 -0.0788 -1.3739 -0.9921
 6241SOL     OW30184   2.772   4.536   1.167 -0.0853 -0.4025 -0.3054
 6241SOL    HW130185   2.785   4.442   1.172  0.5513 -0.2574  0.8624
 6241SOL    HW230186   2.837   4.572   1.228  0.3714  0.3565 -1.2427
 6242SOL     OW30187   1.303   3.070  12.687  0.4697 -0.0835  0.0415
 6242SOL    HW130188   1.369   3.078  12.757 -1.8722  1.7003  2.0463
 6242SOL    HW230189   1.353   3.114  12.618 -0.3921  1.0949  0.1690
 6243SOL     OW30190   2.137   3.231   2.616 -0.3702  0.4446  0.3540
 6243SOL    HW130191   2.149   3.176   2.539  0.6496 -0.1833  0.9483
 6243SOL    HW230192   2.224   3.272   2.609 -0.8609  1.1959 -1.3613
 6244SOL     OW30193   2.326   1.311   5.663 -0.0745  0.6389  0.4869
 6244SOL    HW130194   2.354   1.267   5.583 -0.4528 -1.3785  1.4650
 6244SOL    HW230195   2.401   1.300   5.721 -0.0607 -1.7851  0.0243
 6245SOL     OW30196   1.448   3.592   9.300 -0.5253 -0.2076  0.2248
 6245SOL    HW130197   1.466   3.621   9.389  3.5140  0.2154 -0.7579
 6245SOL    HW230198   1.471   3.674   9.256  0.6061 -0.1037  1.0369
 6246SOL     OW30199   2.739   3.457   8.670  0.2939 -0.3401 -0.3550
 6246SOL    HW130200   2.647   3.482   8.666  0.8927  1.7220 -1.3411
 6246SOL    HW230201   2.780   3.536   8.707 -2.0412  0.2992  0.8403
 6247SOL     OW30202   1.815   3.660   1.870  0.5483 -0.1198 -0.3700
 6247SOL    HW130203   1.905   3.637   1.892  1.2586  0.7599 -2.3367
 6247SOL    HW230204   1.764   3.630   1.945  0.8422  2.7911  0.9810
 6248SOL     OW30205   2.719   0.117   4.187 -0.4673 -0.3175  0.2426
 6248SOL    HW130206   2.701   0.188   4.125 -1.6083  0.4823  1.4934
 6248SOL    HW230207   2.744   0.051   4.122 -0.3919 -0.2698  0.2236
 6249SOL     OW30208   1.492   3.639   1.429 -0.9239  0.0586  0.1117
 6249SOL    HW130209   1.532   3.712   1.381  0.6471  0.7982  2.5313
 6249SOL    HW230210   1.509   3.666   1.519 -1.5608 -1.2174  0.6140
 6250SOL     OW30211   1.448   1.861   1.405 -0.1967  0.0022 -0.3321
 6250SOL    HW130212   1.389   1.827   1.338  0.6582  0.4796 -1.3233
 6250SOL    HW230213   1.418   1.813   1.482 -0.8554 -0.1864 -0.7040
 6251SOL     OW30214   0.734   2.496   6.042 -0.1464 -0.9479 -0.0868
 6251SOL    HW130215   0.763   2.565   6.100  0.5101 -0.8516 -0.5259
 6251SOL    HW230216   0.750   2.422   6.101  2.0496 -1.0696 -0.8309
 6252SOL     OW30217   2.934   2.572   3.975  0.3401  0.2553  0.1651
 6252SOL    HW130218   2.964   2.558   4.065 -1.1818 -0.5186  0.5576
 6252SOL    HW230219   2.871   2.641   3.999 -0.2387 -0.1105 -0.3082
 6253SOL     OW30220   4.489   1.734  17.401  0.0372  0.2248 -0.5899
 6253SOL    HW130221   4.429   1.764  17.468 -1.2093  0.0522 -1.6234
 6253SOL    HW230222   4.479   1.808  17.342  0.7580 -0.3633 -1.4664
 6254SOL     OW30223   3.748   1.063  10.906  1.2061 -0.1727  0.8474
 6254SOL    HW130224   3.725   1.121  10.979 -1.7333 -0.1433 -0.1226
 6254SOL    HW230225   3.724   0.983  10.953  0.2507 -0.3414  0.0588
 6255SOL     OW30226   4.401   3.409   7.945  0.2186 -0.2302  0.6722
 6255SOL    HW130227   4.411   3.364   8.028  0.4990 -1.7566 -0.1831
 6255SOL    HW230228   4.400   3.503   7.964  1.3196 -0.0171 -0.3092
 6256SOL     OW30229   0.868   1.660   0.689 -0.3740 -0.0941  0.4561
 6256SOL    HW130230   0.780   1.689   0.667 -0.2384 -1.1944 -1.4582
 6256SOL    HW230231   0.847   1.575   0.727  0.4689 -1.0553 -1.2363
 6257SOL     OW30232   2.248   0.309   7.490 -0.4797  0.0641 -0.7486
 6257SOL    HW130233   2.157   0.282   7.498 -0.3487 -0.0661  0.3399
 6257SOL    HW230234   2.279   0.296   7.580 -2.9260  0.6880  0.1676
 6258SOL     OW30235   4.314   1.171   7.432  0.0373 -0.6150 -0.0353
 6258SOL    HW130236   4.257   1.248   7.429  0.1897 -0.4634  1.0959
 6258SOL    HW230237   4.255   1.101   7.458  0.3487 -0.9347 -0.1883
 6259SOL     OW30238   2.046   1.751   1.801 -0.7196 -0.0681  0.3977
 6259SOL    HW130239   1.993   1.715   1.872 -2.8054  1.3211 -0.4795
 6259SOL    HW230240   1.982   1.781   1.738 -1.1314 -0.5089  0.6037
 6260SOL     OW30241   0.314   1.658   8.272  0.1407 -0.1925  0.1096
 6260SOL    HW130242   0.314   1.730   8.209  2.8441 -0.9951 -0.7856
 6260SOL    HW230243   0.396   1.670   8.319  0.6962  1.9843 -1.3788
 6261SOL     OW30244   4.620   2.726  15.355  0.4394  0.1114  0.1191
 6261SOL    HW130245   4.647   2.724  15.263 -2.1433  2.1370 -0.6812
 6261SOL    HW230246   4.619   2.820  15.373 -0.4734 -0.0239  0.7903
 6262SOL     OW30247   0.299   2.904   0.929 -0.2302 -0.0774 -0.7963
 6262SOL    HW130248   0.385   2.864   0.944  0.0762  0.1729 -1.8676
 6262SOL    HW230249   0.243   2.828   0.913 -0.0233 -0.8138  2.0832
 6263SOL     OW30250   1.083   2.106  17.519  0.0332  0.1212  0.1940
 6263SOL    HW130251   1.062   2.074  17.431  0.5388  1.3381 -0.3801
 6263SOL    HW230252   0.999   2.109  17.564 -0.0875 -1.9856  0.1126
 6264SOL     OW30253   2.543   1.202  17.676  0.0662 -0.2960  0.1046
 6264SOL    HW130254   2.456   1.201   0.019  0.1710  3.2892  0.3764
 6264SOL    HW230255   2.548   1.294  17.652 -0.8187 -0.0291  0.9398
 6265SOL     OW30256   0.225   1.370   2.195  0.1327  0.0973 -0.2692
 6265SOL    HW130257   0.236   1.343   2.286 -0.6507  1.4455  0.2217
 6265SOL    HW230258   0.133   1.396   2.190 -0.7288 -2.6138  1.0291
 6266SOL     OW30259   3.949   0.127   7.966 -0.0087  0.0773 -0.7181
 6266SOL    HW130260   4.043   0.143   7.968  0.2562 -1.1066 -3.7315
 6266SOL    HW230261   3.929   0.213   7.931 -0.7073 -0.1586 -0.9176
 6267SOL     OW30262   1.201   1.219  15.584  0.2247  1.0148 -0.1551
 6267SOL    HW130263   1.125   1.193  15.636  0.9183 -0.3348  0.1817
 6267SOL    HW230264   1.228   1.132  15.556  0.9032  0.9296  0.7265
 6268SOL     OW30265   1.096   3.743  16.908  0.0471 -0.3524  0.0524
 6268SOL    HW130266   1.110   3.649  16.905 -0.7734 -0.5399  1.9895
 6268SOL    HW230267   1.101   3.757  17.002 -1.6298  1.3181 -0.0831
 6269SOL     OW30268   3.835   1.607  13.236  0.3925  0.1703  0.4856
 6269SOL    HW130269   3.912   1.617  13.292  2.2339 -1.7286 -1.7245
 6269SOL    HW230270   3.879   1.624  13.153 -0.5046 -1.2591 -0.2744
 6270SOL     OW30271   2.924   1.402  16.053  0.2990 -0.4216 -0.4890
 6270SOL    HW130272   2.995   1.432  15.996 -0.7992  0.2940 -1.4739
 6270SOL    HW230273   2.867   1.368  15.983 -1.0108  1.2116 -0.2059
 6271SOL     OW30274   3.922   3.736   2.591  0.3526 -0.0114  0.1706
 6271SOL    HW130275   3.936   3.683   2.513  0.2100 -1.1895  0.9504
 6271SOL    HW230276   3.989   3.801   2.571  0.7185 -0.6704 -0.7435
 6272SOL     OW30277   3.791   0.204   9.556  0.2382 -0.2904 -0.0050
 6272SOL    HW130278   3.733   0.128   9.555 -1.7002  1.1678  0.0290
 6272SOL    HW230279   3.738   0.267   9.506  2.5219  1.4317 -0.2311
 6273SOL     OW30280   2.284   3.575   7.688  0.4548 -0.1605  0.4123
 6273SOL    HW130281   2.301   3.548   7.778  1.0038 -1.9914 -0.2277
 6273SOL    HW230282   2.330   3.518   7.627  0.0005  0.6588 -0.6970
 6274SOL     OW30283   2.748   3.249   5.739 -0.1535 -0.9307  0.3883
 6274SOL    HW130284   2.714   3.329   5.699  1.8709 -0.3844 -0.2398
 6274SOL    HW230285   2.818   3.232   5.676 -2.4503 -0.6314 -2.2411
 6275SOL     OW30286   3.900   2.847  13.055 -0.0392  0.4012 -0.7098
 6275SOL    HW130287   3.870   2.923  13.004 -0.7425 -0.4433 -1.5349
 6275SOL    HW230288   3.821   2.798  13.076  1.3461 -1.8108 -0.7392
 6276SOL     OW30289   1.762   4.659   6.948  0.9472  0.3831  0.0289
 6276SOL    HW130290   1.676   4.620   6.936  0.7470  0.6607  0.5400
 6276SOL    HW230291   1.742   4.692   7.036 -0.7136  2.3398 -1.0781
 6277SOL     OW30292   3.031   4.031   5.955 -0.7978  0.1519  0.2044
 6277SOL    HW130293   3.098   4.044   5.887 -1.4300  2.8274  0.0703
 6277SOL    HW230294   3.010   3.938   5.951  0.0653 -0.0554  0.5882
 6278SOL     OW30295   2.373   2.076  10.858 -0.2591  0.0890 -0.0868
 6278SOL    HW130296   2.417   2.161  10.859 -0.7755  0.3284  2.3301
 6278SOL    HW230297   2.287   2.102  10.891 -0.0066 -0.2484  0.8365
 6279SOL     OW30298   2.385   4.565   8.736 -0.7573  0.0319 -0.4070
 6279SOL    HW130299   2.402   4.623   8.661  1.5182  1.5445  1.2667
 6279SOL    HW230300   2.364   4.481   8.696 -1.5306  0.3970 -0.7796
 6280SOL     OW30301   0.236   3.502  13.477  0.2731 -0.0482  0.8145
 6280SOL    HW130302   0.246   3.454  13.560 -2.7062 -1.9448  0.0613
 6280SOL    HW230303   0.150   3.475  13.447  0.8050 -0.1338 -0.6180
 6281SOL     OW30304   2.211   1.319   2.968 -0.3558 -0.0605  0.4797
 6281SOL    HW130305   2.259   1.333   2.886  2.4441  0.0523  2.1357
 6281SOL    HW230306   2.263   1.380   3.020  2.7865 -0.6913 -1.9357
 6282SOL     OW30307   4.400   4.621  10.432  0.3847 -0.0961  0.2248
 6282SOL    HW130308   4.365   4.560  10.497 -0.0046 -0.5555 -0.4155
 6282SOL    HW230309   4.483   4.578  10.415  0.0394 -0.9264  0.6194
 6283SOL     OW30310   1.176   4.684  10.492  0.2632  0.0118 -0.3091
 6283SOL    HW130311   1.157   4.627  10.417 -0.0187  0.4296 -0.5575
 6283SOL    HW230312   1.152   0.048  10.464  0.1181  0.2894  0.7141
 6284SOL     OW30313   4.591   2.901   5.356  0.2635  0.1464  0.4309
 6284SOL    HW130314   4.681   2.930   5.342 -0.4889  1.4740 -1.7304
 6284SOL    HW230315   4.559   2.917   5.267  0.8505  1.6274  0.4810
 6285SOL     OW30316   2.040   2.855  11.983 -0.3078  0.6595 -0.5662
 6285SOL    HW130317   2.072   2.802  12.056 -0.5842  0.2928 -0.7127
 6285SOL    HW230318   1.948   2.868  12.005  0.4670  0.2911  2.8972
 6286SOL     OW30319   0.241   4.419   7.921  0.1516 -0.2733 -0.3448
 6286SOL    HW130320   0.335   4.433   7.930  0.5487 -2.3071 -1.3171
 6286SOL    HW230321   0.208   4.504   7.950  2.3091  0.5162 -0.1626
 6287SOL     OW30322   3.818   4.425   4.520  0.3277 -0.2758  0.0887
 6287SOL    HW130323   3.725   4.443   4.533  0.7125  0.2421  2.0489
 6287SOL    HW230324   3.813   4.337   4.556  1.5647  0.0096  0.9462
 6288SOL     OW30325   0.889   4.619  16.451  0.0241 -1.3855  0.0306
 6288SOL    HW130326   0.906   4.554  16.383 -0.6441 -1.9664  0.4095
 6288SOL    HW230327   0.820   4.579  16.505  0.2364 -1.8002 -0.0015
 6289SOL     OW30328   2.460   4.381   6.090  0.1124  0.0898 -0.6323
 6289SOL    HW130329   2.379   4.419   6.057  0.8452  0.7740 -1.6683
 6289SOL    HW230330   2.485   4.464   6.131  2.0534 -0.9631  0.3166
 6290SOL     OW30331   2.898   4.141   0.314 -0.4991 -0.0078 -0.2770
 6290SOL    HW130332   2.860   4.207   0.372 -3.3067 -0.9063 -1.0853
 6290SOL    HW230333   2.848   4.151   0.233  0.3566 -0.7064 -0.8917
 6291SOL     OW30334   3.003   3.370   7.807  0.6338  0.3317  0.1072
 6291SOL    HW130335   3.014   3.391   7.715  2.1170  0.1069  0.2410
 6291SOL    HW230336   2.917   3.328   7.805  0.6909  0.2139  0.1299
 6292SOL     OW30337   4.691   1.709   5.946 -0.1598 -0.1807 -0.5520
 6292SOL    HW130338   4.692   1.793   5.900  3.0115 -1.0368 -2.0944
 6292SOL    HW230339   0.044   1.725   6.001 -0.8830 -1.2379  0.7484
 6293SOL     OW30340   0.158   2.553   2.234 -0.4610  0.6426 -0.0589
 6293SOL    HW130341   0.184   2.552   2.142  1.9531  0.2371  0.6087
 6293SOL    HW230342   0.241   2.521   2.270  0.5970 -0.6083 -3.5970
 6294SOL     OW30343   2.708   3.280   0.148 -0.6470  0.5286  0.1011
 6294SOL    HW130344   2.768   3.317   0.212 -2.5624 -0.2184  2.3665
 6294SOL    HW230345   2.754   3.209   0.104 -2.6424 -0.6828 -0.0642
 6295SOL     OW30346   2.153   3.434   8.167  0.0664 -0.1609 -0.2015
 6295SOL    HW130347   2.107   3.374   8.109  0.9809 -0.8406 -0.2299
 6295SOL    HW230348   2.098   3.438   8.245  3.0680  0.5616  1.8808
 6296SOL     OW30349   2.484   4.301   4.144 -0.0948 -0.1349  0.0192
 6296SOL    HW130350   2.491   4.273   4.053  2.6804 -0.0670  0.1877
 6296SOL    HW230351   2.451   4.388   4.123 -1.5636 -0.8212 -0.4608
 6297SOL     OW30352   0.643   4.293   3.595 -0.0711  0.2046 -0.0955
 6297SOL    HW130353   0.635   4.384   3.624 -0.7298  0.1526 -0.1055
 6297SOL    HW230354   0.735   4.295   3.570  0.1108 -3.1036  0.3691
 6298SOL     OW30355   3.920   3.398   7.489  0.6728  0.0369  0.0302
 6298SOL    HW130356   3.899   3.483   7.529 -2.2821 -0.1045 -1.2002
 6298SOL    HW230357   3.954   3.347   7.562  0.0853  0.2815  0.4792
 6299SOL     OW30358   0.874   3.734   3.534 -0.1150  0.3312  0.3088
 6299SOL    HW130359   0.817   3.752   3.608 -1.4332 -1.9264 -0.1445
 6299SOL    HW230360   0.846   3.647   3.504  0.4427  0.3616 -0.3070
 6300SOL     OW30361   2.048   2.344   4.898  0.0385 -0.1685  0.2273
 6300SOL    HW130362   2.130   2.295   4.901  1.2192  1.7645 -1.4949
 6300SOL    HW230363   2.031   2.364   4.990 -0.3972  0.2359  0.0603
 6301SOL     OW30364   0.730   0.210   8.401 -0.2356  0.2598  0.5148
 6301SOL    HW130365   0.759   0.213   8.492  1.6135 -0.9670 -0.0479
 6301SOL    HW230366   0.804   0.169   8.357 -1.5819 -0.5093 -1.0653
 6302SOL     OW30367   4.598   2.577   6.084  1.2142 -0.3537 -0.1622
 6302SOL    HW130368   4.585   2.621   6.168 -0.8832  0.7890 -1.0947
 6302SOL    HW230369   4.516   2.595   6.037  0.3802 -1.0529  1.0312
 6303SOL     OW30370   0.991   3.543  13.159 -0.0195 -0.0649  0.2718
 6303SOL    HW130371   0.900   3.528  13.186  0.0324 -1.9371 -0.5842
 6303SOL    HW230372   1.042   3.467  13.187  1.9353  0.8685 -0.7310
 6304SOL     OW30373   2.324   1.454   6.494 -0.2980  0.4327 -0.3832
 6304SOL    HW130374   2.229   1.464   6.498 -0.3738 -1.3285  2.0786
 6304SOL    HW230375   2.347   1.529   6.550  0.6054  0.3727 -0.6711
 6305SOL     OW30376   0.384   1.377   4.502  0.3752 -0.3182 -0.1285
 6305SOL    HW130377   0.403   1.450   4.443  0.1197 -1.1675 -1.2824
 6305SOL    HW230378   0.309   1.406   4.554 -0.1278  2.7848 -2.6262
 6306SOL     OW30379   0.020   1.660   4.398  0.1769 -0.2939  0.7143
 6306SOL    HW130380   0.021   1.662   4.494 -0.8148 -2.0209  0.7690
 6306SOL    HW230381   4.656   1.696   4.382 -0.6172 -2.0711  1.1281
 6307SOL     OW30382   1.084   4.147   5.834 -0.3103  0.3120 -0.3060
 6307SOL    HW130383   1.028   4.108   5.901 -0.6163 -0.7587 -1.1778
 6307SOL    HW230384   1.026   4.211   5.793  0.1063  0.1237 -1.1919
 6308SOL     OW30385   1.171   1.635   9.032 -0.1641  0.1051  0.0067
 6308SOL    HW130386   1.186   1.637   8.937  3.6416 -1.7134  0.5421
 6308SOL    HW230387   1.108   1.563   9.032  1.0036 -0.9099  0.6991
 6309SOL     OW30388   3.786   0.282   2.712 -0.1050 -0.1842 -0.1364
 6309SOL    HW130389   3.760   0.270   2.804 -0.9558 -0.2294 -0.3835
 6309SOL    HW230390   3.716   0.343   2.689  0.1701 -0.2688 -1.1597
 6310SOL     OW30391   4.125   3.900   4.792 -0.2200 -0.4190  0.1964
 6310SOL    HW130392   4.145   3.817   4.834  0.4609 -0.3050  0.1074
 6310SOL    HW230393   4.155   3.884   4.702 -2.3558  0.9110 -0.7585
 6311SOL     OW30394   2.496   3.232   1.616 -0.2263 -0.4406  0.3160
 6311SOL    HW130395   2.435   3.179   1.565  1.1757  0.0851 -1.8997
 6311SOL    HW230396   2.491   3.204   1.708 -0.4579 -0.4857  0.2893
 6312SOL     OW30397   1.385   3.325  17.111 -0.0402 -0.2894 -0.2807
 6312SOL    HW130398   1.386   3.271  17.190  0.1718  0.0294 -0.0644
 6312SOL    HW230399   1.394   3.261  17.040 -2.6239 -0.0043 -0.8716
 6313SOL     OW30400   0.538   3.631  11.088  0.3399 -0.4064 -0.5355
 6313SOL    HW130401   0.474   3.608  11.156 -0.2984  2.1641 -0.2748
 6313SOL    HW230402   0.536   3.726  11.097 -0.3480 -0.4914  0.2305
 6314SOL     OW30403   1.518   2.753  12.351 -0.2204  0.0408  0.1503
 6314SOL    HW130404   1.510   2.684  12.417 -0.1626  0.6818  0.8310
 6314SOL    HW230405   1.463   2.822  12.389  1.2916  1.4005 -0.1463
 6315SOL     OW30406   3.818   0.714   8.320  0.0425  0.2160  0.6219
 6315SOL    HW130407   3.730   0.709   8.282  0.3065  3.7225 -0.3897
 6315SOL    HW230408   3.847   0.623   8.307  0.9523  0.2894  2.2203
 6316SOL     OW30409   4.677   4.686   0.282  0.4492  0.4479 -0.3418
 6316SOL    HW130410   4.722   0.011   0.213  1.3231 -2.3895 -1.7819
 6316SOL    HW230411   0.003   4.604   0.294  0.3687  0.3632 -0.5774
 6317SOL     OW30412   0.159   3.755   3.866 -0.7391 -0.0434  0.7305
 6317SOL    HW130413   0.093   3.763   3.797  0.4808  1.0546 -0.2920
 6317SOL    HW230414   0.120   3.697   3.932 -1.0405 -2.6123 -1.7493
 6318SOL     OW30415   2.530   4.718  17.117 -0.0674  0.1078 -0.4002
 6318SOL    HW130416   2.466   4.673  17.172  0.3044  1.0387  0.7961
 6318SOL    HW230417   2.547   4.652  17.050 -1.3169 -0.6934  0.0836
 6319SOL     OW30418   2.768   0.843   1.255 -0.2927 -0.1636  0.3678
 6319SOL    HW130419   2.797   0.823   1.165  0.0472  3.4342 -0.3128
 6319SOL    HW230420   2.758   0.937   1.247  1.4096  0.1465  1.8135
 6320SOL     OW30421   3.317   0.500   3.316  0.5052  0.6344  0.2991
 6320SOL    HW130422   3.321   0.548   3.233  1.4783  0.1402  0.0586
 6320SOL    HW230423   3.372   0.546   3.379  1.1129  2.5599 -1.6508
 6321SOL     OW30424   1.004   0.589   8.677 -0.1880  0.0588  0.2836
 6321SOL    HW130425   1.069   0.579   8.608 -0.1245 -0.0419  0.3582
 6321SOL    HW230426   1.053   0.646   8.736 -0.3501  1.1540 -0.6393
 6322SOL     OW30427   4.308   0.731   7.321 -0.1630  0.3901  0.1518
 6322SOL    HW130428   4.248   0.759   7.252 -0.7664 -0.2750  0.4008
 6322SOL    HW230429   4.269   0.653   7.360  0.1297 -0.4193 -1.1960
 6323SOL     OW30430   2.533   4.277   1.471 -0.8240  0.0793 -0.2735
 6323SOL    HW130431   2.552   4.269   1.564 -1.4123  0.3342 -0.1311
 6323SOL    HW230432   2.499   4.192   1.446  0.8368 -0.4910 -0.6214
 6324SOL     OW30433   4.046   0.549   3.862 -0.4188 -0.5867  0.2174
 6324SOL    HW130434   4.129   0.567   3.819 -0.2889  0.8767  1.0590
 6324SOL    HW230435   4.071   0.535   3.954 -0.0180  1.8231  0.4673
 6325SOL     OW30436   3.112   2.734  13.875 -0.0825 -0.1057 -0.2420
 6325SOL    HW130437   3.189   2.718  13.821  0.5176  1.6854  0.0575
 6325SOL    HW230438   3.094   2.827  13.860  1.6197  0.3760  0.7085
 6326SOL     OW30439   2.379   3.625   1.781  0.8269  0.5352  0.0108
 6326SOL    HW130440   2.319   3.559   1.816  1.1841 -1.1091 -2.4514
 6326SOL    HW230441   2.364   3.696   1.843  0.6588 -0.2565  0.8752
 6327SOL     OW30442   1.315   3.341  13.941  0.0682  0.3449  0.2131
 6327SOL    HW130443   1.318   3.363  14.034 -0.7115 -0.7506  0.4956
 6327SOL    HW230444   1.399   3.384  13.920  1.0742 -0.5935  2.3346
 6328SOL     OW30445   3.473   1.895   9.289  0.1182 -0.3141  0.0711
 6328SOL    HW130446   3.517   1.973   9.256 -1.2885  0.0241 -1.0201
 6328SOL    HW230447   3.400   1.892   9.226  0.2115 -0.6753 -0.0193
 6329SOL     OW30448   0.081   1.875   1.876 -0.4941  0.0473  0.3816
 6329SOL    HW130449   0.062   1.969   1.876  0.8683  0.3120 -2.5049
 6329SOL    HW230450   4.719   1.834   1.867 -0.8122  0.7650  0.2180
 6330SOL     OW30451   3.133   2.925   3.404 -0.1366 -0.2558  0.2036
 6330SOL    HW130452   3.186   3.005   3.412  1.5859 -1.3173 -0.5967
 6330SOL    HW230453   3.084   2.930   3.486 -0.8958 -1.2834 -0.1956
 6331SOL     OW30454   0.030   3.832   8.932 -0.2932  0.1256 -0.0846
 6331SOL    HW130455   0.067   3.801   9.015 -0.4584  0.0447 -0.0413
 6331SOL    HW230456   0.028   3.927   8.945  2.4117  0.2458 -0.5324
 6332SOL     OW30457   2.507   0.680  16.477  0.3887  0.1053 -0.0609
 6332SOL    HW130458   2.572   0.740  16.513 -0.2615  0.7579  0.0226
 6332SOL    HW230459   2.536   0.685  16.385 -0.0449  0.8793 -0.1519
 6333SOL     OW30460   3.366   3.819   5.953 -0.0250 -0.1305  0.4313
 6333SOL    HW130461   3.437   3.772   5.997 -0.2825  0.0111  0.9932
 6333SOL    HW230462   3.290   3.764   5.971  1.6159 -1.8894  1.9512
 6334SOL     OW30463   2.304   0.991  10.002  0.3524  0.3958  0.3809
 6334SOL    HW130464   2.334   0.988  10.093  3.3470 -2.3556 -0.7210
 6334SOL    HW230465   2.340   1.075   9.974 -1.4181  0.5849 -1.3384
 6335SOL     OW30466   1.832   2.121  15.343  0.6913 -0.1007 -0.4313
 6335SOL    HW130467   1.829   2.187  15.412 -0.3370 -1.2667  0.6415
 6335SOL    HW230468   1.869   2.172  15.270 -0.9649  2.6596  0.6624
 6336SOL     OW30469   1.389   0.183  12.737  0.4589 -0.7164  0.1757
 6336SOL    HW130470   1.430   0.228  12.810  2.3536  0.1418 -1.4052
 6336SOL    HW230471   1.298   0.205  12.755 -0.4368 -2.2321 -2.4896
 6337SOL     OW30472   1.449   0.227   7.445 -0.0544  0.4107 -0.0015
 6337SOL    HW130473   1.536   0.191   7.461 -0.5770 -0.8267  0.0116
 6337SOL    HW230474   1.390   0.177   7.501  2.0869 -2.3025 -0.1814
 6338SOL     OW30475   0.506   3.121   7.844  0.3367  0.2802 -0.1723
 6338SOL    HW130476   0.471   3.096   7.758 -0.7219  4.1381 -0.8567
 6338SOL    HW230477   0.476   3.210   7.857  0.1237  0.4517 -1.7755
 6339SOL     OW30478   2.282   3.558   7.964 -0.2186 -0.2624  0.0235
 6339SOL    HW130479   2.196   3.600   7.966 -0.1658 -0.3087  3.5474
 6339SOL    HW230480   2.267   3.491   8.030 -0.6875  0.3113  0.4854
 6340SOL     OW30481   1.267   2.911  15.014  0.3995  0.3821 -0.4563
 6340SOL    HW130482   1.332   2.859  14.967  0.9172 -0.8844  1.6581
 6340SOL    HW230483   1.310   2.997  15.013  1.1528  0.0182  0.8324
 6341SOL     OW30484   1.090   0.794  17.482  0.1922  0.1461  0.2788
 6341SOL    HW130485   1.175   0.835  17.466 -0.7185  0.8560 -2.9030
 6341SOL    HW230486   1.071   0.833  17.567  0.6539 -0.4020  0.6289
 6342SOL     OW30487   4.194   1.772   3.403 -0.2300  0.2344 -0.0736
 6342SOL    HW130488   4.244   1.705   3.356 -0.4899  1.2699 -1.8330
 6342SOL    HW230489   4.260   1.812   3.461  0.6069 -0.9420 -0.2075
 6343SOL     OW30490   0.659   2.102   0.064  0.2750  0.6257 -0.1807
 6343SOL    HW130491   0.593   2.171   0.059  0.6520  1.0947  1.1865
 6343SOL    HW230492   0.595   2.031   0.072  0.1442  0.8501  0.8020
 6344SOL     OW30493   0.684   4.297   4.646  0.1796 -0.0235  0.6721
 6344SOL    HW130494   0.624   4.247   4.590  0.5137  0.5384 -0.1740
 6344SOL    HW230495   0.771   4.260   4.633 -0.2117 -0.1396 -1.5304
 6345SOL     OW30496   1.553   0.058   9.682 -0.0684  0.2434 -0.1549
 6345SOL    HW130497   1.626   0.036   9.623 -1.7548 -0.0296 -2.1682
 6345SOL    HW230498   1.487   4.715   9.661  2.1090 -1.5572 -1.2708
 6346SOL     OW30499   0.229   2.648   0.939  0.1239  0.4682  0.3939
 6346SOL    HW130500   0.149   2.598   0.960  2.6421 -3.7397 -0.0790
 6346SOL    HW230501   0.296   2.596   0.983  0.9511  0.9365 -0.3348
 6347SOL     OW30502   0.159   1.645  16.500 -0.1247 -0.4421  0.2356
 6347SOL    HW130503   0.218   1.603  16.438  0.4052  3.4290 -1.8821
 6347SOL    HW230504   0.224   1.668  16.566  0.6354  0.3064 -0.7728
 6348SOL     OW30505   2.514   4.710   0.481  0.2792 -0.1916  0.1753
 6348SOL    HW130506   2.512   0.023   0.570 -1.0873  2.4694 -0.9404
 6348SOL    HW230507   2.456   4.635   0.489 -1.0073  0.7081 -0.7567
 6349SOL     OW30508   2.321   2.707   7.156 -0.0962 -0.3879  0.3420
 6349SOL    HW130509   2.408   2.673   7.133 -0.7465  0.0566 -2.6930
 6349SOL    HW230510   2.330   2.802   7.163  2.5313 -0.6383  0.5509
 6350SOL     OW30511   0.740   2.392   1.813  0.3859 -0.4887 -0.1867
 6350SOL    HW130512   0.826   2.352   1.801  0.6976 -0.0624  0.6331
 6350SOL    HW230513   0.724   2.436   1.729  0.7471 -0.6137 -0.3208
 6351SOL     OW30514   3.217   2.054   6.065  0.0584 -0.2602 -0.2821
 6351SOL    HW130515   3.202   1.974   6.115 -1.4071 -0.0457 -0.3545
 6351SOL    HW230516   3.226   2.016   5.977 -0.3541 -0.6911 -0.1392
 6352SOL     OW30517   4.542   3.889   7.952  0.2413 -0.4127  0.3959
 6352SOL    HW130518   4.628   3.868   7.988  1.6256  1.5922 -1.6592
 6352SOL    HW230519   4.545   3.985   7.947  2.3685 -0.5506 -1.1352
 6353SOL     OW30520   3.520   0.383   2.696 -0.2116  0.1495  0.0773
 6353SOL    HW130521   3.426   0.386   2.680 -0.2611  1.5103  0.6204
 6353SOL    HW230522   3.519   0.433   2.778  0.4710 -2.8702  1.9457
 6354SOL     OW30523   2.608   0.190  12.630 -0.0738  0.1037 -0.1549
 6354SOL    HW130524   2.690   0.161  12.671  0.9640  1.4377 -1.3025
 6354SOL    HW230525   2.544   0.177  12.700 -0.1935  3.1019  0.2855
 6355SOL     OW30526   1.114   1.768   6.817 -0.8169 -0.1743 -0.4034
 6355SOL    HW130527   1.121   1.797   6.727  0.5347  2.3934  0.5363
 6355SOL    HW230528   1.156   1.843   6.859  1.9376 -2.4288  0.8582
 6356SOL     OW30529   4.463   4.073   5.800  0.4627  0.1438  0.4125
 6356SOL    HW130530   4.440   3.980   5.800 -0.0087  0.2626  0.1778
 6356SOL    HW230531   4.422   4.108   5.879 -0.1760  0.8137 -0.2133
 6357SOL     OW30532   2.387   3.253   5.750  0.1590  0.1054 -0.3493
 6357SOL    HW130533   2.407   3.347   5.750 -1.4383  0.4299 -2.2676
 6357SOL    HW230534   2.295   3.243   5.775 -0.2581  0.2597 -1.8413
 6358SOL     OW30535   4.448   3.560   4.160  0.4301  0.1371  0.1022
 6358SOL    HW130536   4.443   3.517   4.245  1.9675 -3.5811 -1.7022
 6358SOL    HW230537   4.539   3.546   4.133  0.4711 -2.5887  1.6852
 6359SOL     OW30538   4.215   0.303   5.148 -0.2873 -0.4437  0.4612
 6359SOL    HW130539   4.290   0.354   5.176 -0.6104  0.1719  0.2140
 6359SOL    HW230540   4.251   0.234   5.093  1.7562  0.1307  1.0923
 6360SOL     OW30541   0.810   4.001   6.632 -0.7452  0.0506  0.4950
 6360SOL    HW130542   0.891   4.008   6.582  0.0560  0.3824  1.8437
 6360SOL    HW230543   0.775   3.913   6.618 -0.8548  0.4379 -1.7037
 6361SOL     OW30544   2.894   0.086  10.236  0.1141 -0.2845  0.2979
 6361SOL    HW130545   2.821   0.132  10.195  1.3259 -0.8648 -2.5092
 6361SOL    HW230546   2.945   0.050  10.163  1.3441 -0.8204  1.4121
 6362SOL     OW30547   0.349   2.724   2.097  0.0289  0.5514  0.1007
 6362SOL    HW130548   0.383   2.785   2.162 -2.3887  3.0157 -0.9522
 6362SOL    HW230549   0.426   2.704   2.044 -0.8859 -1.5367 -0.4598
 6363SOL     OW30550   1.268   2.858   2.409  0.4924 -0.8152  0.2595
 6363SOL    HW130551   1.283   2.791   2.342 -0.9804 -1.7364  0.8490
 6363SOL    HW230552   1.286   2.799   2.482  0.3014 -2.4283 -1.0112
 6364SOL     OW30553   2.810   1.423   7.891  0.0755 -0.4776  0.4056
 6364SOL    HW130554   2.814   1.471   7.809 -0.9826 -0.2754  0.4771
 6364SOL    HW230555   2.881   1.464   7.940  0.8940 -1.7398  0.2807
 6365SOL     OW30556   3.904   0.169   5.630 -0.1766 -0.3631 -0.0023
 6365SOL    HW130557   3.835   0.150   5.566  0.5166  0.1183 -0.8744
 6365SOL    HW230558   3.979   0.142   5.577 -0.6842 -1.6638 -0.0599
 6366SOL     OW30559   3.872   1.045   6.159  0.1673  0.8901 -0.0939
 6366SOL    HW130560   3.953   1.030   6.207  0.2790 -3.5958 -1.6232
 6366SOL    HW230561   3.855   0.953   6.137 -3.1011  1.4859  0.0333
 6367SOL     OW30562   4.441   0.127   7.306 -0.0429 -0.1645 -0.6432
 6367SOL    HW130563   4.476   0.215   7.296  0.9951 -0.5881 -0.8399
 6367SOL    HW230564   4.383   0.122   7.230  1.5466 -1.4084 -1.7930
 6368SOL     OW30565   4.326   3.778   1.646 -0.4197 -0.7385  0.0207
 6368SOL    HW130566   4.270   3.778   1.567  0.5069 -1.5275 -0.6410
 6368SOL    HW230567   4.375   3.858   1.629 -0.5388  0.0662  3.6158
 6369SOL     OW30568   0.858   3.257   4.776  0.6699 -0.1623 -0.7124
 6369SOL    HW130569   0.796   3.186   4.760  0.2007  0.0506  0.1565
 6369SOL    HW230570   0.930   3.221   4.724  2.6166  1.3645  0.9205
 6370SOL     OW30571   1.694   2.687   7.270 -0.0798  0.1711  0.0402
 6370SOL    HW130572   1.760   2.618   7.270  2.2080  2.3519  1.1573
 6370SOL    HW230573   1.725   2.738   7.345 -0.4755 -0.1615  0.4212
 6371SOL     OW30574   4.690   0.477   8.409 -0.1665 -0.0025 -0.0050
 6371SOL    HW130575   4.605   0.518   8.428 -0.6283  0.2696 -2.6673
 6371SOL    HW230576   4.684   0.476   8.314  1.3798  4.3057 -0.1452
 6372SOL     OW30577   3.230   1.527   6.028 -0.3058  0.3295  0.2524
 6372SOL    HW130578   3.309   1.580   6.045  0.2230  0.0640 -1.3583
 6372SOL    HW230579   3.215   1.530   5.934 -1.3908 -0.3842  0.4151
 6373SOL     OW30580   0.577   4.440  17.425  0.2624 -0.0356  0.2030
 6373SOL    HW130581   0.545   4.382  17.495 -0.4170 -1.0434 -0.9437
 6373SOL    HW230582   0.671   4.434  17.441 -0.2270  1.2106  3.4700
 6374SOL     OW30583   4.391   2.832  12.277  0.8042 -0.0198  0.1611
 6374SOL    HW130584   4.463   2.788  12.322  1.3982 -1.1455 -1.8899
 6374SOL    HW230585   4.322   2.766  12.281  1.2881 -0.4609  1.2242
 6375SOL     OW30586   3.987   2.719   3.144 -0.1662 -0.0924 -0.0882
 6375SOL    HW130587   3.909   2.730   3.198  0.0325  0.6005  0.0456
 6375SOL    HW230588   4.042   2.783   3.189 -3.3132  3.3083 -1.0989
 6376SOL     OW30589   3.722   1.046   5.316  0.3111 -0.4185 -0.0273
 6376SOL    HW130590   3.807   1.081   5.289 -0.7424  2.5301  0.5124
 6376SOL    HW230591   3.725   1.060   5.410  1.0625  3.2086 -0.5550
 6377SOL     OW30592   1.761   3.452   5.188  0.6050 -0.5606 -0.2495
 6377SOL    HW130593   1.797   3.468   5.101  1.9435  0.7446  0.5361
 6377SOL    HW230594   1.693   3.520   5.189  0.1637 -1.0072  1.8580
 6378SOL     OW30595   4.668   4.415   5.036 -1.0977 -0.1599 -0.2331
 6378SOL    HW130596   4.671   4.408   4.940  0.0666  0.4007 -0.2327
 6378SOL    HW230597   4.654   4.510   5.045 -0.4759 -0.1247  0.2958
 6379SOL     OW30598   1.860   3.191   3.500  0.6150  0.1886 -0.4731
 6379SOL    HW130599   1.895   3.230   3.420 -0.7702  1.2363 -0.5625
 6379SOL    HW230600   1.861   3.096   3.487 -1.1297  0.0622  0.3606
 6380SOL     OW30601   1.190   1.338   1.354 -0.4224 -0.7405  0.1904
 6380SOL    HW130602   1.284   1.322   1.339 -0.1307  0.5742  0.6774
 6380SOL    HW230603   1.161   1.380   1.273 -1.0986  0.1500  0.9055
 6381SOL     OW30604   3.964   4.635   4.069  0.2617  0.3318 -0.1645
 6381SOL    HW130605   4.016   4.598   4.140  2.0133  2.1216 -0.5204
 6381SOL    HW230606   3.880   4.599   4.099  0.5865  1.6381  2.2832
 6382SOL     OW30607   3.136   2.986   8.476 -0.5581 -0.0600 -0.0958
 6382SOL    HW130608   3.081   2.911   8.452  2.0618 -1.9386 -0.1488
 6382SOL    HW230609   3.063   3.045   8.497 -1.5493 -0.1980 -3.0691
 6383SOL     OW30610   3.944   2.756   7.921 -0.0003 -0.5183 -0.2439
 6383SOL    HW130611   3.935   2.843   7.960  0.1215 -0.1630 -1.0028
 6383SOL    HW230612   3.945   2.782   7.829 -2.6718  0.2999 -0.0478
 6384SOL     OW30613   3.089   2.452   9.124  0.0060  0.1131 -0.8744
 6384SOL    HW130614   3.149   2.515   9.164  1.8055 -1.6002 -0.9130
 6384SOL    HW230615   3.111   2.457   9.031  1.2299  0.4080 -0.5631
 6385SOL     OW30616   1.905   3.934   9.773  0.2548 -0.1024 -0.3399
 6385SOL    HW130617   1.900   3.838   9.771  0.0019 -0.1932  3.8164
 6385SOL    HW230618   1.934   3.954   9.862 -2.3525  2.4988 -0.1039
 6386SOL     OW30619   0.353   3.035   5.008 -0.2961 -0.1163 -0.1288
 6386SOL    HW130620   0.420   3.100   4.989 -0.7840  0.1506 -0.9095
 6386SOL    HW230621   0.283   3.077   4.959 -0.8793  1.5568  2.1072
 6387SOL     OW30622   2.090   3.165   1.895 -0.3694 -0.1803  0.4962
 6387SOL    HW130623   2.013   3.187   1.842  0.6407  0.0042 -0.8882
 6387SOL    HW230624   2.046   3.108   1.959 -1.6120  0.2948  0.0767
 6388SOL     OW30625   2.399   3.845   6.179  0.2463 -0.2519 -0.5897
 6388SOL    HW130626   2.337   3.784   6.220  0.5056 -0.6132 -0.7290
 6388SOL    HW230627   2.375   3.928   6.219  1.6624  0.5333 -1.3979
 6389SOL     OW30628   3.560   0.418   0.056 -0.3496  0.3323  0.0973
 6389SOL    HW130629   3.479   0.373   0.078 -0.9394  0.6978 -1.3410
 6389SOL    HW230630   3.537   0.509   0.074  0.9437  1.2175 -2.6996
 6390SOL     OW30631   2.539   4.295   5.770 -0.2972  0.3291  0.0084
 6390SOL    HW130632   2.523   4.313   5.862 -1.5333 -3.2603  0.4716
 6390SOL    HW230633   2.632   4.316   5.762 -0.1329 -1.3139 -2.4103
 6391SOL     OW30634   3.610   4.039   2.615  0.2888 -0.2901  0.3621
 6391SOL    HW130635   3.599   3.961   2.561  2.3890  0.7125 -1.5607
 6391SOL    HW230636   3.706   4.044   2.622  0.2125  0.1910  1.0886
 6392SOL     OW30637   4.423   3.310   8.231 -0.4140  0.3790  0.0847
 6392SOL    HW130638   4.431   3.218   8.256 -1.5599  0.3034  0.1605
 6392SOL    HW230639   4.358   3.333   8.297 -1.6710  3.0479 -2.0906
 6393SOL     OW30640   2.477   4.395   1.990 -0.0364 -0.2585 -0.3515
 6393SOL    HW130641   2.449   4.318   2.039  1.2968 -0.1627  0.5753
 6393SOL    HW230642   2.426   4.460   2.037 -1.3287  1.7412 -4.5174
 6394SOL     OW30643   2.198   0.967   5.730 -0.5713 -0.0820  0.4126
 6394SOL    HW130644   2.158   1.003   5.651  1.3249 -1.7218 -1.2837
 6394SOL    HW230645   2.136   0.898   5.749 -1.8778  0.7417 -0.8804
 6395SOL     OW30646   3.377   2.187  15.597  0.8536  0.4684  0.2531
 6395SOL    HW130647   3.460   2.148  15.626  0.8404 -0.3884 -0.8548
 6395SOL    HW230648   3.397   2.249  15.528 -1.0241  2.7002  1.7120
 6396SOL     OW30649   0.203   4.168   8.200 -0.0398  0.5063 -0.1758
 6396SOL    HW130650   0.243   4.254   8.190 -1.0584  1.0065  0.2053
 6396SOL    HW230651   0.214   4.168   8.295 -1.8100  2.3565  0.0117
 6397SOL     OW30652   1.358   3.941  15.113  0.1960  0.4751  0.3138
 6397SOL    HW130653   1.368   3.846  15.116 -3.9061  0.1056  1.4598
 6397SOL    HW230654   1.330   3.952  15.022 -2.1724  0.8891  1.0999
 6398SOL     OW30655   2.505   4.418  16.383  0.1365  0.3485  0.3209
 6398SOL    HW130656   2.520   4.501  16.338  1.8277  0.0216  0.2716
 6398SOL    HW230657   2.442   4.375  16.326 -0.0053 -1.4212  1.8360
 6399SOL     OW30658   3.461   0.340   7.641  0.1390 -0.6841 -0.2500
 6399SOL    HW130659   3.467   0.308   7.551 -0.3749 -0.5199 -0.3406
 6399SOL    HW230660   3.473   0.264   7.698  1.5043 -1.1475 -1.1381
 6400SOL     OW30661   4.719   2.489  15.061 -0.1363  0.2221 -0.0029
 6400SOL    HW130662   0.012   2.417  15.122 -0.3522  0.3084  0.1557
 6400SOL    HW230663   0.017   2.440  14.981 -1.2165  1.9870 -1.3777
 6401SOL     OW30664   0.304   0.329   2.448  0.4497  0.2881 -0.1192
 6401SOL    HW130665   0.315   0.263   2.517 -0.3034 -0.7321 -0.9708
 6401SOL    HW230666   0.379   0.323   2.390 -0.1117 -0.4379 -0.7561
 6402SOL     OW30667   3.064   2.812  14.601 -0.4322 -0.3320 -0.4833
 6402SOL    HW130668   3.017   2.736  14.565  1.2266 -1.9707  0.8080
 6402SOL    HW230669   3.008   2.882  14.569  1.3845 -0.0814 -3.0604
 6403SOL     OW30670   1.341   3.010  11.055 -0.2546  0.5945  0.7259
 6403SOL    HW130671   1.380   2.924  11.040 -3.8958 -0.9529  0.2029
 6403SOL    HW230672   1.347   3.018  11.150  3.7995  1.0953  0.4322
 6404SOL     OW30673   4.538   4.379   8.555  0.2056 -0.0628  0.0790
 6404SOL    HW130674   4.505   4.318   8.621 -1.2411 -1.2391 -1.7189
 6404SOL    HW230675   4.472   4.448   8.564  1.0498  0.7332  0.1644
 6405SOL     OW30676   1.867   2.916  11.545  0.3285 -0.0291  0.2628
 6405SOL    HW130677   1.788   2.937  11.496  1.1156  0.5776 -0.7440
 6405SOL    HW230678   1.819   2.860  11.606 -1.4385  2.7024  1.3511
 6406SOL     OW30679   4.543   1.924  11.082 -0.2752 -0.5216  0.3303
 6406SOL    HW130680   4.586   1.993  11.033  0.9693 -1.3450  0.2634
 6406SOL    HW230681   4.577   1.850  11.031  3.5405  1.4944 -0.0246
 6407SOL     OW30682   0.265   1.221  12.001  0.4328  0.4508 -0.4107
 6407SOL    HW130683   0.290   1.143  12.050 -0.8691  0.9387  1.0349
 6407SOL    HW230684   0.281   1.194  11.911 -1.0414 -0.1076 -0.5177
 6408SOL     OW30685   2.232   0.862  11.151 -0.0785 -0.0869 -0.1701
 6408SOL    HW130686   2.256   0.814  11.230 -3.3356 -2.1541 -0.4428
 6408SOL    HW230687   2.270   0.813  11.078  1.0288  2.6165 -1.3809
 6409SOL     OW30688   3.848   2.805   6.839 -0.2342  0.1842  0.4445
 6409SOL    HW130689   3.782   2.742   6.868  0.9845 -1.1299  0.3918
 6409SOL    HW230690   3.807   2.890   6.824  2.8620  1.8174  1.3550
 6410SOL     OW30691   0.846   1.610   9.064  0.1373 -0.0241  0.0416
 6410SOL    HW130692   0.912   1.549   9.030 -0.7382 -0.1029 -1.5116
 6410SOL    HW230693   0.776   1.630   9.002 -0.9241 -0.2614  1.1567
 6411SOL     OW30694   2.737   2.588   5.530 -0.1977  0.0518 -0.2390
 6411SOL    HW130695   2.692   2.569   5.448 -0.1560  0.0096 -0.2525
 6411SOL    HW230696   2.818   2.537   5.527  0.3001  0.9526 -2.3751
 6412SOL     OW30697   1.875   0.704   3.326  0.0647 -0.0836 -0.7648
 6412SOL    HW130698   1.854   0.775   3.387  0.9046 -1.3907  1.0727
 6412SOL    HW230699   1.894   0.753   3.246 -0.9569  0.3519 -0.7454
 6413SOL     OW30700   1.294   2.275   6.011 -0.4286 -0.5934  0.5623
 6413SOL    HW130701   1.343   2.298   5.931  0.4418  1.6372  1.7417
 6413SOL    HW230702   1.250   2.194   5.984 -0.5229  0.3584 -2.1443
 6414SOL     OW30703   4.481   4.156  17.229 -0.1625  0.2282 -0.0641
 6414SOL    HW130704   4.392   4.129  17.250 -0.4223  1.3371  0.2568
 6414SOL    HW230705   4.461   4.210  17.153  2.4209 -0.3080 -1.1184
 6415SOL     OW30706   1.681   3.095   8.245 -0.4645 -0.4083 -0.5543
 6415SOL    HW130707   1.731   3.129   8.171 -0.1385  0.2815 -0.0113
 6415SOL    HW230708   1.737   3.025   8.277  0.2943  0.8195  0.8097
 6416SOL     OW30709   2.558   1.722   1.302 -0.2848 -0.0410  0.3539
 6416SOL    HW130710   2.618   1.796   1.293 -0.4032 -0.0137 -0.1668
 6416SOL    HW230711   2.624   1.653   1.310 -0.4087 -0.3588 -1.3353
 6417SOL     OW30712   0.540   4.030   4.238  0.2620 -0.4093  0.3271
 6417SOL    HW130713   0.612   4.000   4.293  1.4073 -0.1980 -1.0442
 6417SOL    HW230714   0.463   4.024   4.294  0.2146  3.1776  0.6390
 6418SOL     OW30715   0.919   2.432   5.772  0.4006  0.0580  0.1176
 6418SOL    HW130716   0.910   2.379   5.851  1.4223  0.1111  0.2687
 6418SOL    HW230717   1.007   2.467   5.790  0.8893  0.1079 -2.4188
 6419SOL     OW30718   2.885   3.106   3.167  0.4604 -0.1767 -0.4319
 6419SOL    HW130719   2.827   3.157   3.223  0.6018 -1.3439  0.7841
 6419SOL    HW230720   2.884   3.158   3.087 -1.8945 -2.0302 -1.5843
 6420SOL     OW30721   2.119   2.495   4.133 -0.4522  0.5548  0.6536
 6420SOL    HW130722   2.116   2.401   4.152  0.2890  1.0111  3.0358
 6420SOL    HW230723   2.185   2.526   4.194  0.0993  0.2727  0.2075
 6421SOL     OW30724   1.946   1.689  15.326  0.3762  0.0528 -0.3314
 6421SOL    HW130725   1.889   1.760  15.295  0.9755  0.6877  0.0288
 6421SOL    HW230726   1.909   1.616  15.278  3.6356 -0.0822 -2.6065
 6422SOL     OW30727   1.506   3.415   5.899  0.0144 -0.3584 -0.3135
 6422SOL    HW130728   1.575   3.382   5.841  0.6443 -1.3836  1.0162
 6422SOL    HW230729   1.565   3.453   5.965  0.8804  0.1095 -1.3406
 6423SOL     OW30730   0.847   2.269  17.600 -0.1048  0.9592 -0.2797
 6423SOL    HW130731   0.783   2.227  17.657 -1.1193  0.8423 -1.5098
 6423SOL    HW230732   0.893   2.321  17.665  1.2615 -2.0196  1.1764
 6424SOL     OW30733   4.355   4.675   3.667  0.2748  0.2784  0.0955
 6424SOL    HW130734   4.347   0.046   3.660 -2.5733 -0.0181 -0.5568
 6424SOL    HW230735   4.334   4.639   3.580 -0.7303 -1.7482  1.1665
 6425SOL     OW30736   0.193   1.780   0.127  0.4775  0.0594  0.5415
 6425SOL    HW130737   0.099   1.794   0.115  0.7102  2.1884  1.3245
 6425SOL    HW230738   0.218   1.774   0.035  0.7354 -0.8007  0.6676
 6426SOL     OW30739   0.722   0.066   9.840  0.3388 -0.5638 -0.7127
 6426SOL    HW130740   0.680   4.707   9.815 -4.0402  1.3429  0.2600
 6426SOL    HW230741   0.649   0.126   9.826 -0.2613 -0.6766  1.9786
 6427SOL     OW30742   1.365   0.209  11.664 -0.7376 -0.0568 -0.2656
 6427SOL    HW130743   1.418   0.281  11.699 -0.9566 -0.4660  0.9057
 6427SOL    HW230744   1.414   0.196  11.583  1.4766  0.7199  0.9619
 6428SOL     OW30745   0.353   2.447  12.334 -0.4912 -0.3115  0.1204
 6428SOL    HW130746   0.338   2.482  12.247 -1.9130 -2.0495 -0.3239
 6428SOL    HW230747   0.421   2.382  12.314 -1.2507 -1.0936  0.0691
 6429SOL     OW30748   0.236   0.631   7.254 -0.0421 -0.1410 -0.4095
 6429SOL    HW130749   0.159   0.682   7.277 -0.4274 -0.3150 -1.3105
 6429SOL    HW230750   0.204   0.570   7.188  0.7147  0.6888 -1.5338
 6430SOL     OW30751   1.706   2.229   2.706  0.1503  0.1969 -0.2364
 6430SOL    HW130752   1.760   2.253   2.781 -1.3521  0.5469  0.7410
 6430SOL    HW230753   1.678   2.314   2.672  0.3697  0.8126  1.1492
 6431SOL     OW30754   3.976   0.202  10.304  0.5294 -0.5246  0.5697
 6431SOL    HW130755   4.050   0.146  10.282  0.1372 -1.0409  0.5751
 6431SOL    HW230756   3.943   0.205  10.214 -0.1585 -0.4623  0.8259
 6432SOL     OW30757   3.670   0.733   9.293  0.1073 -0.1201 -0.2166
 6432SOL    HW130758   3.604   0.700   9.232 -1.8221  0.7661  1.3859
 6432SOL    HW230759   3.611   0.723   9.368  1.0418  1.8250  0.7687
 6433SOL     OW30760   0.830   2.015   8.503 -0.7723 -0.0623  0.5494
 6433SOL    HW130761   0.920   1.990   8.521 -0.6517 -0.7517 -0.9560
 6433SOL    HW230762   0.817   1.961   8.425  0.7201  0.3450  0.0304
 6434SOL     OW30763   2.445   0.513   4.594  0.0590 -0.0207 -0.1659
 6434SOL    HW130764   2.510   0.443   4.603 -0.8008 -0.9025 -0.7211
 6434SOL    HW230765   2.479   0.568   4.524  1.4853 -2.2579 -1.2387
 6435SOL     OW30766   3.978   3.174   5.576  0.0634 -0.5019 -0.0858
 6435SOL    HW130767   3.963   3.194   5.668  0.7489  0.5220 -0.2027
 6435SOL    HW230768   3.956   3.081   5.587 -1.4454  0.1114  1.9771
 6436SOL     OW30769   2.151   1.126   7.878 -0.0570 -0.1243  0.5718
 6436SOL    HW130770   2.129   1.218   7.861  2.3035  0.6808  1.9521
 6436SOL    HW230771   2.202   1.141   7.957  1.2287 -1.0004 -0.0892
 6437SOL     OW30772   4.551   0.105   3.108  0.4791  0.4531  0.1020
 6437SOL    HW130773   4.645   0.100   3.125  0.8111  2.3218 -1.0894
 6437SOL    HW230774   4.505   0.071   3.184 -0.5159  1.3512 -0.0933
 6438SOL     OW30775   1.516   4.061   8.376  0.0519  0.7701  0.6188
 6438SOL    HW130776   1.439   4.088   8.327  0.7462 -1.7851 -1.8464
 6438SOL    HW230777   1.518   3.968   8.354 -0.0696  0.7493  0.6968
 6439SOL     OW30778   3.994   2.992  10.828 -0.1661 -0.6142 -0.1206
 6439SOL    HW130779   3.964   3.052  10.896  0.0608 -0.7595  0.1077
 6439SOL    HW230780   4.087   2.992  10.848 -0.2504 -3.7938  0.2502
 6440SOL     OW30781   0.334   4.612  16.900  0.2056 -0.4803  0.1110
 6440SOL    HW130782   0.259   4.668  16.919  1.0228  1.1373 -1.4103
 6440SOL    HW230783   0.412   4.655  16.936  0.2287  1.4919 -2.2887
 6441SOL     OW30784   3.267   0.275  10.356 -0.3585 -0.5807 -0.0799
 6441SOL    HW130785   3.360   0.255  10.346 -0.1838  0.7131 -0.9968
 6441SOL    HW230786   3.249   0.270  10.450 -0.6320 -0.4800 -0.1262
 6442SOL     OW30787   2.090   0.571   4.995 -0.0028 -0.4769 -0.8426
 6442SOL    HW130788   2.082   0.477   5.010  1.2901 -0.5194 -0.4334
 6442SOL    HW230789   2.102   0.563   4.900 -0.9464  1.3076 -1.1201
 6443SOL     OW30790   1.094   4.197   3.874 -0.5144 -0.7001  0.4741
 6443SOL    HW130791   1.120   4.158   3.957  1.6688  0.2962  0.2828
 6443SOL    HW230792   1.002   4.171   3.872 -0.3034 -1.4123  0.3013
 6444SOL     OW30793   3.314   0.822   6.628  0.0468 -0.5200 -0.2940
 6444SOL    HW130794   3.342   0.901   6.674 -2.8878  1.3391 -1.6846
 6444SOL    HW230795   3.222   0.839   6.607  0.3374  2.6091  1.0312
 6445SOL     OW30796   2.108   0.551   1.802 -0.4434  0.2796 -0.3703
 6445SOL    HW130797   2.100   0.460   1.776  0.8647  0.2397 -0.6368
 6445SOL    HW230798   2.028   0.559   1.854 -1.4857 -0.5348 -1.8525
 6446SOL     OW30799   0.198   3.343   9.395 -0.4872  0.1641 -0.4399
 6446SOL    HW130800   0.244   3.337   9.479 -2.2952 -3.2884  0.2760
 6446SOL    HW230801   0.186   3.250   9.376 -0.0847 -0.0317  0.2680
 6447SOL     OW30802   3.577   3.941   6.135 -0.7771 -0.4571 -0.1077
 6447SOL    HW130803   3.509   4.008   6.138  0.6829  1.0025  0.0574
 6447SOL    HW230804   3.538   3.869   6.184 -0.3813 -0.4161  0.2677
 6448SOL     OW30805   3.242   2.526   2.954  0.2392  0.4366 -0.3234
 6448SOL    HW130806   3.264   2.452   2.896  0.2847  0.6023 -0.5180
 6448SOL    HW230807   3.226   2.596   2.891 -1.2671  2.2018  2.0507
 6449SOL     OW30808   2.698   1.222   1.513 -0.6745 -0.4955 -0.4488
 6449SOL    HW130809   2.765   1.162   1.547 -0.1301  1.0879  1.2354
 6449SOL    HW230810   2.645   1.247   1.588  0.1142 -0.9588  0.2582
 6450SOL     OW30811   3.682   1.501  12.962  0.1848 -0.8493 -0.2415
 6450SOL    HW130812   3.773   1.529  12.947 -0.9718  1.3626 -3.1366
 6450SOL    HW230813   3.683   1.502  13.058  0.1135  0.4941 -0.2546
 6451SOL     OW30814   2.275   3.694  10.162 -0.2869  0.4470 -0.4638
 6451SOL    HW130815   2.285   3.727  10.072  0.0906 -0.3975 -0.7312
 6451SOL    HW230816   2.305   3.767  10.216  1.0775 -0.0646 -0.5378
 6452SOL     OW30817   3.681   1.757   8.167  0.3140  0.2153 -0.0590
 6452SOL    HW130818   3.693   1.689   8.234  1.2234  0.0472 -0.3967
 6452SOL    HW230819   3.706   1.703   8.092  0.2552  0.7553 -0.4638
 6453SOL     OW30820   3.541   3.254   8.628 -0.1918 -0.4255  0.4250
 6453SOL    HW130821   3.615   3.253   8.688  0.3815 -0.3793 -0.2875
 6453SOL    HW230822   3.546   3.168   8.587  1.0147 -0.5226  0.7812
 6454SOL     OW30823   0.561   2.786  11.037  0.1815  0.0344 -0.2444
 6454SOL    HW130824   0.539   2.713  10.979 -0.6318  1.7083 -2.0262
 6454SOL    HW230825   0.564   2.859  10.976  2.0493  2.3561  2.6077
 6455SOL     OW30826   4.518   2.498   6.493 -0.2519  0.4659 -0.2217
 6455SOL    HW130827   4.580   2.469   6.560 -0.7356  0.8987  0.4195
 6455SOL    HW230828   4.453   2.527   6.558  1.3750  0.9190  1.1853
 6456SOL     OW30829   0.430   2.561   1.097 -0.1061  0.0020  0.1484
 6456SOL    HW130830   0.500   2.500   1.120 -0.8739 -0.9362 -0.0135
 6456SOL    HW230831   0.380   2.545   1.177  0.4492  1.9110  0.8714
 6457SOL     OW30832   0.197   4.279  12.071  0.4123  0.6362 -0.1217
 6457SOL    HW130833   0.229   4.251  11.985 -1.4085 -1.4406 -0.1216
 6457SOL    HW230834   0.274   4.290  12.128  0.4273 -0.7128  0.1192
 6458SOL     OW30835   0.618   1.195  11.227  0.0880  0.1357 -0.0460
 6458SOL    HW130836   0.607   1.270  11.168  0.5869  1.1300  1.1052
 6458SOL    HW230837   0.526   1.177  11.250 -0.1130  4.0737  2.2733
 6459SOL     OW30838   0.772   3.328   9.957  0.1860  0.6520  0.1371
 6459SOL    HW130839   0.817   3.407   9.988  1.2502 -0.3106  1.0073
 6459SOL    HW230840   0.798   3.317   9.865  1.0298 -1.1783  0.6041
 6460SOL     OW30841   0.345   0.162  16.434 -0.1555  0.4847 -0.0833
 6460SOL    HW130842   0.257   0.142  16.400 -0.3838  1.1490  0.1143
 6460SOL    HW230843   0.363   0.243  16.388  1.4435 -1.6835 -3.3033
 6461SOL     OW30844   1.962   1.704   6.769  0.4163  0.3458  0.4875
 6461SOL    HW130845   1.917   1.646   6.830  0.7552 -0.3065  0.1178
 6461SOL    HW230846   2.054   1.694   6.795  1.2335  0.4533 -2.2954
 6462SOL     OW30847   2.912   4.221   9.916 -0.5359  0.2030 -0.6019
 6462SOL    HW130848   2.931   4.150   9.978  0.3028 -1.8234 -3.1696
 6462SOL    HW230849   2.986   4.281   9.930 -2.5350  1.9420  2.6885
 6463SOL     OW30850   3.602   0.000   8.973 -0.0317 -0.3051  0.3357
 6463SOL    HW130851   3.577   4.720   9.065 -0.9196 -0.4737  0.0889
 6463SOL    HW230852   3.668   4.655   8.968  4.0676  3.8229 -2.6860
 6464SOL     OW30853   0.905   4.665   5.183 -0.0816  0.3717 -0.4005
 6464SOL    HW130854   0.825   4.623   5.152 -0.7942  0.2977  1.5873
 6464SOL    HW230855   0.923   0.003   5.111 -2.5017 -0.0729 -1.3819
 6465SOL     OW30856   4.246   1.299   8.328 -0.3894 -0.0268 -0.2716
 6465SOL    HW130857   4.227   1.208   8.351 -2.5573  0.5356  0.1946
 6465SOL    HW230858   4.159   1.336   8.344 -0.9216 -1.8484  1.0762
 6466SOL     OW30859   1.634   1.896  12.585 -0.4913  0.2174  0.3501
 6466SOL    HW130860   1.651   1.931  12.497 -0.0755 -0.1182  0.2928
 6466SOL    HW230861   1.613   1.804  12.569  0.8732  0.0953 -0.8657
 6467SOL     OW30862   2.283   0.171   4.984 -0.3566  0.2308  0.0366
 6467SOL    HW130863   2.309   0.081   4.965  1.0439  0.8417 -0.9293
 6467SOL    HW230864   2.214   0.169   5.051 -0.9203 -0.8293 -0.5862
 6468SOL     OW30865   0.118   0.205   2.134  0.0139  0.1085 -0.1875
 6468SOL    HW130866   0.135   0.234   2.044  1.0278 -0.5126 -0.1988
 6468SOL    HW230867   0.110   0.110   2.119  2.8346 -0.6786  3.3281
 6469SOL     OW30868   2.150   0.126   3.586 -0.1617  0.7314  0.4659
 6469SOL    HW130869   2.216   0.182   3.627 -0.6569 -0.3745  2.7322
 6469SOL    HW230870   2.159   0.125   3.490  0.0786  2.7439  0.4839
 6470SOL     OW30871   3.950   0.847  17.489 -1.2667  0.0485  1.2090
 6470SOL    HW130872   3.926   0.754  17.483  1.9232 -0.7824  1.2939
 6470SOL    HW230873   3.914   0.861  17.577  2.9760 -0.6416  3.0406
 6471SOL     OW30874   1.649   3.528   8.575 -0.0705 -0.3735  0.1127
 6471SOL    HW130875   1.679   3.453   8.523 -0.7721 -0.9640  0.5577
 6471SOL    HW230876   1.661   3.499   8.665 -2.0196  1.9331  1.1070
 6472SOL     OW30877   2.085   4.245  12.190  0.2491  0.2771  0.1272
 6472SOL    HW130878   2.173   4.209  12.192 -0.6302 -1.7966  1.3084
 6472SOL    HW230879   2.071   4.263  12.097 -2.0216 -0.4762  0.3077
 6473SOL     OW30880   0.313   0.262  11.605 -0.1563 -0.1985  0.5031
 6473SOL    HW130881   0.324   0.260  11.510  0.5528 -1.4580  0.6063
 6473SOL    HW230882   0.234   0.209  11.620  1.1373 -1.9713  1.0423
 6474SOL     OW30883   2.059   1.712   6.282 -0.0217 -0.4368 -0.1916
 6474SOL    HW130884   2.009   1.793   6.279 -0.7423 -0.8622  0.3047
 6474SOL    HW230885   2.026   1.672   6.201  0.8195 -0.7751 -0.3722
 6475SOL     OW30886   3.564   0.333   7.343 -0.5839  0.4297  0.1044
 6475SOL    HW130887   3.610   0.302   7.264 -1.3452 -1.2886  0.3489
 6475SOL    HW230888   3.636   0.359   7.400  0.1147  0.6832 -0.8795
 6476SOL     OW30889   3.026   4.505   1.592  0.5561 -0.1202  0.1174
 6476SOL    HW130890   3.095   4.509   1.525  0.2038  1.9363 -0.1075
 6476SOL    HW230891   3.049   4.547   1.674 -1.4528  3.4534 -1.1811
 6477SOL     OW30892   4.040   1.564   8.170  0.0732 -0.2107 -0.7518
 6477SOL    HW130893   4.016   1.585   8.260 -2.6359  0.3349 -1.6051
 6477SOL    HW230894   3.970   1.505   8.144 -1.3782 -0.2796  3.3065
 6478SOL     OW30895   2.170   2.291   8.141  0.0574  0.0755  0.1579
 6478SOL    HW130896   2.175   2.367   8.198 -0.0273  0.5382 -0.4473
 6478SOL    HW230897   2.078   2.265   8.152  0.1554  0.1885  1.2320
 6479SOL     OW30898   1.000   3.639   4.220  0.0905 -0.2530 -0.8911
 6479SOL    HW130899   1.087   3.654   4.184  0.4846 -1.2643 -0.3744
 6479SOL    HW230900   1.000   3.543   4.227  1.8251 -0.3120 -1.6637
 6480SOL     OW30901   1.419   0.015   6.523 -0.0590 -0.3495 -0.7390
 6480SOL    HW130902   1.387   0.097   6.560 -0.3686 -0.0110 -1.7430
 6480SOL    HW230903   1.349   4.723   6.460 -0.1090  0.0543 -0.7849
 6481SOL     OW30904   4.135   0.469   5.611 -0.2435 -0.4803  0.0798
 6481SOL    HW130905   4.075   0.445   5.540  1.3926  1.0284 -1.8096
 6481SOL    HW230906   4.078   0.528   5.659  0.8268  0.2766  0.4116
 6482SOL     OW30907   0.351   3.808   3.629 -0.1414  0.5257 -0.6457
 6482SOL    HW130908   0.293   3.791   3.704  0.6225 -0.2408 -0.2297
 6482SOL    HW230909   0.343   3.727   3.578 -1.9487  1.7069 -2.2282
 6483SOL     OW30910   4.559   2.456   5.379 -0.0924 -0.0807  0.3717
 6483SOL    HW130911   4.548   2.535   5.431 -0.0613  0.3088 -0.2144
 6483SOL    HW230912   4.648   2.474   5.351  0.1299 -0.6509  0.7165
 6484SOL     OW30913   1.166   4.282   3.439  0.1046  0.0360  0.3111
 6484SOL    HW130914   1.197   4.373   3.446 -1.9202  0.7424  0.3067
 6484SOL    HW230915   1.222   4.249   3.369 -1.2858 -1.0226 -0.2902
 6485SOL     OW30916   1.488   1.369   4.299 -0.4079 -0.1712 -0.0624
 6485SOL    HW130917   1.444   1.329   4.375  0.1217 -0.6075  0.0157
 6485SOL    HW230918   1.487   1.461   4.326  0.3313 -0.5274  1.1785
 6486SOL     OW30919   2.103   0.456   6.507  0.3525 -0.3922 -0.1460
 6486SOL    HW130920   2.066   0.421   6.589  0.3593 -0.9259 -0.3689
 6486SOL    HW230921   2.064   0.395   6.445 -0.1919 -0.9504  0.7402
 6487SOL     OW30922   3.861   1.927  10.129  0.1524  0.1764  0.0053
 6487SOL    HW130923   3.780   1.948  10.177 -0.7031 -1.0360 -0.9112
 6487SOL    HW230924   3.904   1.884  10.202  2.2957 -1.3225 -2.1450
 6488SOL     OW30925   4.323   4.466   7.210 -0.0589  0.4070 -0.0175
 6488SOL    HW130926   4.296   4.393   7.266 -1.8349  0.5733 -0.6572
 6488SOL    HW230927   4.283   4.540   7.257  1.7430  0.2130  1.8188
 6489SOL     OW30928   3.390   4.101   6.305 -0.3208 -0.5814 -0.4134
 6489SOL    HW130929   3.295   4.110   6.299 -0.2891  1.3820  2.0164
 6489SOL    HW230930   3.404   4.189   6.340  4.3331 -1.4846  0.0794
 6490SOL     OW30931   0.029   3.052   7.355  0.4921 -0.3250  0.0091
 6490SOL    HW130932   4.672   3.084   7.396 -0.5085 -0.1860 -2.0511
 6490SOL    HW230933   4.714   2.971   7.320 -0.3669  0.8812 -1.8826
 6491SOL     OW30934   3.046   1.189   7.816 -0.1270  0.0315  0.1914
 6491SOL    HW130935   2.998   1.157   7.740 -0.7167 -1.3742  1.1479
 6491SOL    HW230936   3.090   1.105   7.835 -2.2571 -1.1273 -0.0025
 6492SOL     OW30937   1.455   3.355   0.816  0.3990 -0.4030  0.7903
 6492SOL    HW130938   1.534   3.300   0.817 -0.1939 -1.2541  0.7242
 6492SOL    HW230939   1.433   3.354   0.909 -1.3563 -1.1796  0.3688
 6493SOL     OW30940   2.384   2.634   5.055  0.1512  0.3870  0.4521
 6493SOL    HW130941   2.397   2.674   4.969  0.2443  1.0396  0.7688
 6493SOL    HW230942   2.454   2.678   5.103  1.1393 -1.5089  0.7366
 6494SOL     OW30943   3.447   4.180   8.110 -0.0209 -0.2861  0.4462
 6494SOL    HW130944   3.423   4.112   8.046  0.9430 -0.8193  0.6536
 6494SOL    HW230945   3.414   4.149   8.195 -0.1240 -1.2160  0.0651
 6495SOL     OW30946   1.052   3.957   7.417 -0.1245 -0.1403  0.6593
 6495SOL    HW130947   1.080   3.866   7.422 -0.4527 -0.3894 -1.8491
 6495SOL    HW230948   1.064   3.969   7.323 -1.3817  0.2617  0.5451
 6496SOL     OW30949   4.075   4.208   5.613  0.6704 -0.4731 -0.1501
 6496SOL    HW130950   4.017   4.224   5.538 -0.6542 -1.0918  0.7580
 6496SOL    HW230951   4.044   4.120   5.634  0.6832  0.0586  2.0411
 6497SOL     OW30952   2.230   1.075   4.740  0.0770 -0.3466 -0.5542
 6497SOL    HW130953   2.307   1.037   4.699  0.3086  0.0364 -0.4701
 6497SOL    HW230954   2.280   1.107   4.815 -0.5730  0.4018 -0.4318
 6498SOL     OW30955   4.546   1.568  17.599  0.0601 -0.5244  0.0008
 6498SOL    HW130956   4.621   1.514  17.573 -1.0679 -0.7729 -2.6152
 6498SOL    HW230957   4.522   1.626  17.527 -0.3095  0.7054  1.1108
 6499SOL     OW30958   2.881   3.355   8.459  0.2974 -0.0596  0.0840
 6499SOL    HW130959   2.935   3.435   8.451  0.1083  0.0650  0.0553
 6499SOL    HW230960   2.811   3.375   8.521  0.0211 -1.0674  0.0901
 6500SOL     OW30961   0.244   2.468   4.143 -0.5660 -0.3389  0.0889
 6500SOL    HW130962   0.200   2.498   4.223 -0.6971 -1.7775  0.5591
 6500SOL    HW230963   0.335   2.479   4.171 -0.7435  1.5417 -0.0342
 6501SOL     OW30964   1.052   3.647   6.150  0.3477  0.0851 -0.2950
 6501SOL    HW130965   1.090   3.730   6.121 -1.1078  1.6090  2.2054
 6501SOL    HW230966   0.973   3.672   6.197 -0.0351  3.3758 -2.7188
 6502SOL     OW30967   4.380   3.385   8.607  0.2839 -0.5175  0.2159
 6502SOL    HW130968   4.431   3.307   8.629  0.4578  0.3859  2.9816
 6502SOL    HW230969   4.448   3.451   8.596 -0.3313  0.0959  0.0428
 6503SOL     OW30970   3.484   4.267   0.729 -0.5195 -0.7275  0.0645
 6503SOL    HW130971   3.448   4.356   0.729  0.5681 -0.2917  0.0070
 6503SOL    HW230972   3.545   4.276   0.657  0.8191 -1.2073  1.1396
 6504SOL     OW30973   0.824   4.393   8.302 -0.1574 -0.0197  0.4076
 6504SOL    HW130974   0.747   4.444   8.326 -1.7052 -1.5951 -1.1894
 6504SOL    HW230975   0.878   4.396   8.381 -0.3020  2.4388  0.4120
 6505SOL     OW30976   2.242   3.151  14.532  0.1463  0.1787 -0.1632
 6505SOL    HW130977   2.149   3.165  14.547  0.4245  0.0955  1.7185
 6505SOL    HW230978   2.231   3.061  14.503  0.6560 -0.6108  2.0424
 6506SOL     OW30979   1.879   1.583   9.798  0.5893 -0.1795  0.3234
 6506SOL    HW130980   1.886   1.646   9.870 -1.8088 -0.7910  1.1152
 6506SOL    HW230981   1.945   1.520   9.825 -0.7253 -1.7965 -0.2305
 6507SOL     OW30982   3.172   3.179  13.135  0.1421 -0.1005 -0.0461
 6507SOL    HW130983   3.226   3.216  13.066 -1.7869  0.7964 -1.0759
 6507SOL    HW230984   3.234   3.140  13.197 -0.7831  0.4605  1.2270
 6508SOL     OW30985   0.857   1.076   0.489 -0.2612 -0.1024  0.0677
 6508SOL    HW130986   0.831   1.093   0.580 -0.2023 -3.3999  0.6785
 6508SOL    HW230987   0.774   1.049   0.452  0.6434 -0.4887 -1.6586
 6509SOL     OW30988   1.507   2.095  12.760 -0.6044  0.7896  0.4586
 6509SOL    HW130989   1.559   2.175  12.758  0.9253 -0.2076  0.3926
 6509SOL    HW230990   1.530   2.055  12.676  1.6949  1.8183  0.5967
 6510SOL     OW30991   0.205   0.611   3.979 -0.1919 -0.8038 -0.2525
 6510SOL    HW130992   0.130   0.628   4.036  1.6805  1.2600  1.5678
 6510SOL    HW230993   0.174   0.629   3.890 -3.5974 -2.0662  0.6613
 6511SOL     OW30994   0.434   1.271   4.919  0.2106 -0.1955 -0.1949
 6511SOL    HW130995   0.368   1.336   4.898 -0.3180 -0.7912 -0.3814
 6511SOL    HW230996   0.416   1.249   5.010 -0.4142 -1.4391 -0.6194
 6512SOL     OW30997   1.201   3.438   8.092 -0.2751  0.5020 -0.2344
 6512SOL    HW130998   1.108   3.424   8.108 -0.3234  0.7562 -0.2837
 6512SOL    HW230999   1.198   3.532   8.070  2.6268  0.0382 -2.6022
 6513SOL     OW31000   3.240   1.314   6.660  0.5170  0.1922 -0.4456
 6513SOL    HW131001   3.245   1.350   6.749  0.9786  2.4507 -1.3926
 6513SOL    HW231002   3.181   1.242   6.682 -1.0204  1.8441  0.9371
 6514SOL     OW31003   2.952   0.840   5.128 -0.1256 -0.6228  0.6120
 6514SOL    HW131004   2.964   0.845   5.033  1.3499 -1.3388  0.7540
 6514SOL    HW231005   2.864   0.878   5.128  0.3425  0.4764 -1.7330
 6515SOL     OW31006   3.637   0.736   7.204 -0.0345  0.7721 -0.7441
 6515SOL    HW131007   3.612   0.730   7.111 -1.1923  0.3204 -0.3996
 6515SOL    HW231008   3.612   0.826   7.225 -0.7487  0.6464 -1.0350
 6516SOL     OW31009   3.532   0.859   4.473 -0.0004 -0.6199  0.1866
 6516SOL    HW131010   3.554   0.768   4.494  1.1074 -0.5799 -0.7853
 6516SOL    HW231011   3.583   0.908   4.537  1.4519  0.0304 -1.4358
 6517SOL     OW31012   3.282   1.762   5.164  0.0938  0.1698 -0.1987
 6517SOL    HW131013   3.312   1.728   5.248 -0.8568 -0.5119 -0.1312
 6517SOL    HW231014   3.347   1.730   5.102  0.5534  1.5861 -0.4417
 6518SOL     OW31015   3.184   2.531   4.251  0.1851  0.6689 -0.1078
 6518SOL    HW131016   3.208   2.623   4.246  3.5594 -0.2519 -1.1611
 6518SOL    HW231017   3.223   2.490   4.329 -2.4724 -0.9130  0.3745
 6519SOL     OW31018   0.729   2.966   2.652  0.0681  0.2211  0.0467
 6519SOL    HW131019   0.812   3.012   2.663 -0.7058  1.2911  1.4683
 6519SOL    HW231020   0.683   3.024   2.591  0.9875  0.3813 -0.4962
 6520SOL     OW31021   1.917   3.269   0.842  0.0531  0.2159 -0.4923
 6520SOL    HW131022   1.973   3.318   0.903 -0.5077  2.5307 -1.8156
 6520SOL    HW231023   1.971   3.202   0.801 -2.0570 -0.8762 -1.4957
 6521SOL     OW31024   2.087   1.862  14.398  0.4491  0.3022  0.2816
 6521SOL    HW131025   2.038   1.793  14.355 -0.2644  0.0773  1.4571
 6521SOL    HW231026   2.040   1.939  14.365  1.0481  1.1283  1.3303
 6522SOL     OW31027   0.100   3.562   4.577  0.2709 -0.1198  0.5514
 6522SOL    HW131028   0.029   3.526   4.630  0.2352 -0.7643  0.0785
 6522SOL    HW231029   0.073   3.638   4.526 -0.6321  0.0729  1.3207
 6523SOL     OW31030   2.733   4.671   0.914 -0.6348  0.3204 -0.2501
 6523SOL    HW131031   2.780   4.617   0.977  0.5729  1.8868  0.1705
 6523SOL    HW231032   2.710   0.023   0.968  0.4379 -0.4179  1.2369
 6524SOL     OW31033   2.007   0.900   8.461 -0.7943 -0.5324 -0.2500
 6524SOL    HW131034   1.961   0.889   8.377  1.1507 -0.0950 -1.3735
 6524SOL    HW231035   2.087   0.945   8.434 -1.1196  1.7331  2.6281
 6525SOL     OW31036   2.494   2.749  13.257  0.1238 -0.2856 -0.2320
 6525SOL    HW131037   2.576   2.706  13.230 -1.1037 -1.1500 -2.5863
 6525SOL    HW231038   2.503   2.843  13.238  2.6000 -0.2417  1.0822
 6526SOL     OW31039   0.731   1.875   3.822  0.4179  0.2287  0.6432
 6526SOL    HW131040   0.758   1.947   3.880  0.5798 -1.2249  2.3843
 6526SOL    HW231041   0.766   1.795   3.862 -1.1852 -0.6155  0.3578
 6527SOL     OW31042   0.455   4.370  12.157 -0.3398  0.0602 -0.1639
 6527SOL    HW131043   0.439   4.386  12.064  1.2279 -0.0492 -0.4578
 6527SOL    HW231044   0.548   4.356  12.142 -0.5507  1.1755 -2.5525
 6528SOL     OW31045   3.414   2.999   5.869 -0.2961 -0.1095  0.0146
 6528SOL    HW131046   3.478   2.937   5.832  0.1848 -0.1141  0.8416
 6528SOL    HW231047   3.418   3.060   5.797  2.1744  0.7633  0.8911
 6529SOL     OW31048   2.076   0.619  10.767 -0.2694  0.0878 -0.2140
 6529SOL    HW131049   1.995   0.656  10.732  0.9847  2.2820 -0.8196
 6529SOL    HW231050   2.063   0.640  10.859 -1.4083  0.0168 -0.3548
 6530SOL     OW31051   0.297   3.565  10.243  0.1025  0.1547  0.2799
 6530SOL    HW131052   0.383   3.526  10.226  1.5353  3.3127  0.3168
 6530SOL    HW231053   0.309   3.595  10.333 -0.2680  0.0494  0.3664
 6531SOL     OW31054   1.332   0.875   3.976  0.2854 -0.2553  0.1284
 6531SOL    HW131055   1.283   0.819   3.916  2.2484 -0.4466 -1.2931
 6531SOL    HW231056   1.330   0.827   4.059 -2.4634 -0.1714  0.1388
 6532SOL     OW31057   4.705   2.691   4.747 -0.2656 -0.1764 -0.0647
 6532SOL    HW131058   4.644   2.702   4.674 -0.9940  0.3684  0.6266
 6532SOL    HW231059   4.709   2.776   4.790 -1.0608 -0.1724  0.0029
 6533SOL     OW31060   3.387   4.509   0.723  0.2752 -0.8171 -0.5266
 6533SOL    HW131061   3.407   4.563   0.646 -1.2106  0.0385 -0.3036
 6533SOL    HW231062   3.303   4.546   0.747  0.7518 -1.5880  2.3604
 6534SOL     OW31063   1.877   0.154   4.499 -0.0194  0.3457 -0.0667
 6534SOL    HW131064   1.796   0.203   4.493 -0.5720 -0.6833 -0.8572
 6534SOL    HW231065   1.922   0.192   4.575 -1.0728  2.0504 -0.2907
 6535SOL     OW31066   2.933   2.875   5.356 -0.5236  0.0035 -0.0833
 6535SOL    HW131067   2.874   2.902   5.286 -1.2877  0.3427  0.6868
 6535SOL    HW231068   2.907   2.783   5.358 -2.8292  0.6786  0.9414
 6536SOL     OW31069   1.517   3.244   4.520  0.1648 -0.5027 -0.1040
 6536SOL    HW131070   1.604   3.206   4.508  0.5321  0.3059  0.0494
 6536SOL    HW231071   1.528   3.294   4.600  2.0275 -0.7072 -0.2303
 6537SOL     OW31072   0.149   4.429   7.023 -0.1809  0.2982  0.1200
 6537SOL    HW131073   0.164   4.400   7.113 -2.1897 -0.3281  0.2556
 6537SOL    HW231074   0.171   4.350   6.973 -0.2054  0.7816 -0.6503
 6538SOL     OW31075   4.262   1.493   0.811 -0.2168 -0.5078  0.3328
 6538SOL    HW131076   4.175   1.458   0.829 -0.4650 -2.2807 -4.3822
 6538SOL    HW231077   4.249   1.575   0.763 -1.4082 -0.5057  0.6602
 6539SOL     OW31078   2.347   3.267  17.208  0.0721  0.1091 -0.5901
 6539SOL    HW131079   2.318   3.185  17.248  1.4803 -0.7634 -1.3392
 6539SOL    HW231080   2.358   3.314  17.291 -0.8346  0.6406 -0.7733
 6540SOL     OW31081   0.394   0.066   5.595 -0.5303  0.0160 -0.0650
 6540SOL    HW131082   0.489   0.065   5.583 -0.6218 -0.5046 -0.7339
 6540SOL    HW231083   0.390   0.071   5.690 -0.9702 -2.1048  0.0209
 6541SOL     OW31084   4.550   2.348   1.770  0.2237  0.0167 -0.3748
 6541SOL    HW131085   4.457   2.337   1.752  0.2132  0.4132 -0.5776
 6541SOL    HW231086   4.546   2.344   1.866 -4.0279 -0.8878 -0.6139
 6542SOL     OW31087   1.007   3.917   1.398 -0.2455  0.1269  0.0865
 6542SOL    HW131088   0.987   3.823   1.397 -1.4413  0.3854  0.0066
 6542SOL    HW231089   1.102   3.919   1.387 -0.5629  0.7795 -2.5061
 6543SOL     OW31090   3.138   3.374   5.680  0.3894 -0.3227  0.3096
 6543SOL    HW131091   3.084   3.338   5.610 -0.7681  0.1247  0.9733
 6543SOL    HW231092   3.204   3.425   5.633  0.1762 -0.8343 -0.5383
 6544SOL     OW31093   3.312   3.065  13.333  0.2105  0.1231 -0.3912
 6544SOL    HW131094   3.331   3.109  13.416  0.0627  0.4424 -0.5246
 6544SOL    HW231095   3.334   2.973  13.346 -1.1266 -0.0462  0.5970
 6545SOL     OW31096   4.113   4.011   5.946 -0.1177 -0.2522  0.2770
 6545SOL    HW131097   4.200   4.048   5.961 -0.9742  1.5647  0.7498
 6545SOL    HW231098   4.081   4.038   6.032  1.8171 -0.6264  1.1030
 6546SOL     OW31099   4.371   4.605  15.959  0.2509  0.4898  0.4648
 6546SOL    HW131100   4.458   4.592  15.998  0.2194  1.5471  0.8974
 6546SOL    HW231101   4.350   4.512  15.951 -0.6380  0.6875  0.5276
 6547SOL     OW31102   2.461   3.886   2.596  0.6604 -0.3564  0.8044
 6547SOL    HW131103   2.442   3.793   2.587  0.9417 -0.3041 -0.2497
 6547SOL    HW231104   2.380   3.929   2.623  1.2733  0.8635  0.7467
 6548SOL     OW31105   1.174   3.420   2.253  0.2776  0.3401  0.4685
 6548SOL    HW131106   1.184   3.326   2.239  3.8020  0.5239  1.7103
 6548SOL    HW231107   1.195   3.422   2.347 -3.9947  0.8748  1.3809
 6549SOL     OW31108   2.433   1.047   1.480 -0.0841  0.6454  0.1130
 6549SOL    HW131109   2.354   1.008   1.443 -0.4971  2.6675 -1.1464
 6549SOL    HW231110   2.405   1.074   1.568  0.7614 -1.7324  1.0953
 6550SOL     OW31111   0.307   3.348   1.146  0.0071 -0.0174  0.5161
 6550SOL    HW131112   0.272   3.360   1.234 -0.0080  0.3486  0.4605
 6550SOL    HW231113   0.257   3.272   1.118  1.2697 -1.0251  0.9867
 6551SOL     OW31114   4.230   2.583   8.763  0.1260 -0.1834 -0.4385
 6551SOL    HW131115   4.230   2.676   8.783  0.3534 -0.1665 -0.5179
 6551SOL    HW231116   4.281   2.545   8.835 -1.1611  0.0728  0.6222
 6552SOL     OW31117   2.989   0.412   0.401  0.2571 -0.4803  0.2651
 6552SOL    HW131118   3.056   0.346   0.417  0.4623  0.3016  2.6080
 6552SOL    HW231119   2.959   0.380   0.316  1.3645 -1.7968  0.3660
 6553SOL     OW31120   1.177   1.273   7.314 -0.1576 -0.0691 -0.7209
 6553SOL    HW131121   1.182   1.322   7.396 -0.5876 -1.9704  0.4507
 6553SOL    HW231122   1.207   1.192   7.355  0.4393  0.3205 -0.3913
 6554SOL     OW31123   0.204   2.294   9.885  0.1282  0.5001 -0.3334
 6554SOL    HW131124   0.218   2.383   9.918  1.2533 -0.2371  1.1962
 6554SOL    HW231125   0.201   2.247   9.969  1.6914 -0.8182 -1.0150
 6555SOL     OW31126   4.239   4.174   5.097 -0.2529 -0.2978 -0.3783
 6555SOL    HW131127   4.217   4.115   5.169 -0.3755  1.1164  0.7518
 6555SOL    HW231128   4.309   4.221   5.143  0.0105  0.1294 -1.2310
 6556SOL     OW31129   1.907   0.440   1.943 -0.3493  0.1074 -0.1487
 6556SOL    HW131130   1.821   0.400   1.958 -1.0847  2.1038  1.0671
 6556SOL    HW231131   1.949   0.377   1.885  1.4558  0.7318  0.5079
 6557SOL     OW31132   1.648   4.604  10.563 -0.2450  0.0532 -0.3364
 6557SOL    HW131133   1.634   4.519  10.604  0.1072 -1.8465 -4.1323
 6557SOL    HW231134   1.596   4.608  10.482 -0.4007  0.6912 -0.2080
 6558SOL     OW31135   3.259   4.426   4.449 -0.8877  0.4318  0.1356
 6558SOL    HW131136   3.204   4.485   4.501 -0.6878 -1.3763  2.4046
 6558SOL    HW231137   3.222   4.451   4.364  0.9335  2.8709  0.0586
 6559SOL     OW31138   0.354   1.657   2.411  0.1912  0.2532 -0.2937
 6559SOL    HW131139   0.387   1.705   2.487  1.2066 -0.6910 -0.1335
 6559SOL    HW231140   0.408   1.578   2.412  1.0113  0.8339  1.8182
 6560SOL     OW31141   0.860   1.880   5.955  0.2427 -0.6687  0.0323
 6560SOL    HW131142   0.927   1.866   6.022 -0.0330 -1.5548  0.1334
 6560SOL    HW231143   0.804   1.810   5.991 -0.1746  0.3345  1.3363
 6561SOL     OW31144   0.101   4.109  17.656  0.1862  0.0514  0.0778
 6561SOL    HW131145   0.024   4.055  17.636  1.0156 -1.1436  0.1207
 6561SOL    HW231146   0.051   4.167   0.017 -2.1112  0.1680 -2.0371
 6562SOL     OW31147   4.587   0.579   1.199 -0.5936 -0.1270  0.0404
 6562SOL    HW131148   4.607   0.547   1.111  1.8790  0.5718  0.3669
 6562SOL    HW231149   4.669   0.547   1.238 -0.5775 -0.4528 -0.2571
 6563SOL     OW31150   0.097   3.924   9.440  0.0049 -0.0741  0.7573
 6563SOL    HW131151   0.038   3.928   9.365  1.3071 -1.6865 -0.3606
 6563SOL    HW231152   0.162   3.994   9.433  0.9655 -0.9234  1.3065
 6564SOL     OW31153   0.335   1.662   6.900 -0.2808 -0.1742  0.2264
 6564SOL    HW131154   0.407   1.599   6.904 -0.2891 -0.1404  1.1013
 6564SOL    HW231155   0.390   1.737   6.882 -0.5463 -0.5813 -2.2083
 6565SOL     OW31156   1.729   0.899   6.407  0.2125  0.3019  0.2574
 6565SOL    HW131157   1.744   0.917   6.314 -1.2440  0.7246  0.0950
 6565SOL    HW231158   1.733   0.804   6.407 -1.2780  0.2459 -0.0042
 6566SOL     OW31159   4.181   1.407   3.233  0.3304 -0.6167 -0.3357
 6566SOL    HW131160   4.216   1.320   3.255 -0.0330 -0.7403 -0.2573
 6566SOL    HW231161   4.260   1.460   3.237 -0.0567 -0.0657 -0.0759
 6567SOL     OW31162   2.797   4.090   4.142 -0.6101  0.3265 -0.2572
 6567SOL    HW131163   2.813   4.054   4.055 -2.2388  0.6109 -0.6710
 6567SOL    HW231164   2.889   4.110   4.158 -0.4709 -1.2757  0.9253
 6568SOL     OW31165   1.704   1.743   7.366 -0.5136  0.2569  0.1329
 6568SOL    HW131166   1.654   1.765   7.445  2.3136 -2.7882  2.8054
 6568SOL    HW231167   1.649   1.794   7.307  0.8472 -1.3301 -2.5214
 6569SOL     OW31168   0.147   2.059   7.557 -0.1160  0.6010  0.8838
 6569SOL    HW131169   0.218   2.081   7.617 -1.0778  0.6760  1.9992
 6569SOL    HW231170   0.066   2.078   7.604 -1.5485 -1.4948 -0.7435
 6570SOL     OW31171   0.139   0.208   5.476  0.1237  0.7228 -0.1683
 6570SOL    HW131172   0.098   0.121   5.482  1.2348  0.1594 -0.7657
 6570SOL    HW231173   0.216   0.183   5.527 -0.8087 -4.2538 -1.2094
 6571SOL     OW31174   4.359   0.264   4.063 -0.0873  0.6807  0.2682
 6571SOL    HW131175   4.302   0.210   4.009  0.8042  2.4632 -2.4503
 6571SOL    HW231176   4.321   0.244   4.149 -0.2516  0.6688  0.1921
 6572SOL     OW31177   3.637   2.060   7.497  0.2401 -0.3775 -0.1573
 6572SOL    HW131178   3.687   2.042   7.577  0.4393 -1.4834 -0.5359
 6572SOL    HW231179   3.648   2.154   7.480 -0.6320 -0.1573  0.5381
 6573SOL     OW31180   1.257   1.201   3.455  0.1409  0.3304 -0.1153
 6573SOL    HW131181   1.225   1.143   3.524 -1.3108  0.9716 -0.2386
 6573SOL    HW231182   1.295   1.266   3.514 -0.4120 -0.1328  0.7498
 6574SOL     OW31183   2.529   0.904   6.023  0.0078  0.0743 -0.1180
 6574SOL    HW131184   2.520   0.945   5.937  2.2983 -0.0048 -0.3971
 6574SOL    HW231185   2.532   0.983   6.078  0.2021 -1.7020  2.4468
 6575SOL     OW31186   0.520   0.630   5.773 -0.1096  0.9152 -0.2772
 6575SOL    HW131187   0.518   0.682   5.692  1.1230 -1.9553 -2.1684
 6575SOL    HW231188   0.501   0.698   5.837 -1.7740  0.0190  0.1834
 6576SOL     OW31189   0.620   0.574  12.483 -0.4796  0.0830 -0.5790
 6576SOL    HW131190   0.573   0.502  12.526 -0.0075 -1.1215 -2.0754
 6576SOL    HW231191   0.646   0.530  12.402 -1.9119 -0.5528 -0.6922
 6577SOL     OW31192   4.154   3.625   7.117 -0.2481  0.2246 -0.4320
 6577SOL    HW131193   4.141   3.550   7.175  0.1371  0.9415  0.5773
 6577SOL    HW231194   4.169   3.693   7.183  0.5736 -2.7111  2.4387
 6578SOL     OW31195   2.722   2.562   6.538 -0.0558  0.1794 -0.3429
 6578SOL    HW131196   2.754   2.628   6.478 -0.1883 -0.5277 -1.1961
 6578SOL    HW231197   2.638   2.538   6.498 -1.0735  3.2696 -0.0539
 6579SOL     OW31198   3.003   3.065   4.728 -0.8723  0.2315 -0.8364
 6579SOL    HW131199   3.003   3.023   4.642 -2.2677  1.2778 -1.3566
 6579SOL    HW231200   3.085   3.114   4.725  0.2859 -1.7393 -1.3215
 6580SOL     OW31201   4.163   2.452  10.836 -1.0420  0.0191 -0.2863
 6580SOL    HW131202   4.104   2.377  10.829 -0.5554 -0.3574 -0.3467
 6580SOL    HW231203   4.152   2.489  10.923  1.4694 -0.3898  0.1952
 6581SOL     OW31204   2.553   4.124   3.302  0.1071  0.0964 -0.6164
 6581SOL    HW131205   2.508   4.171   3.232  1.5414  0.6749 -1.1491
 6581SOL    HW231206   2.628   4.083   3.258  1.2165  2.2510 -0.7048
 6582SOL     OW31207   3.230   2.002   5.609 -0.4609 -0.2037 -0.0127
 6582SOL    HW131208   3.295   1.980   5.543  1.6994  2.7497  1.1149
 6582SOL    HW231209   3.148   1.982   5.563  0.0581 -0.4339 -0.8288
 6583SOL     OW31210   0.778   2.320   9.005  0.4356 -0.1083 -0.0409
 6583SOL    HW131211   0.847   2.286   9.061 -0.3003 -0.1759  0.8097
 6583SOL    HW231212   0.770   2.413   9.029 -1.1299 -0.1023 -0.5526
 6584SOL     OW31213   4.428   4.487   5.775 -0.2384 -0.1775  0.1943
 6584SOL    HW131214   4.411   4.497   5.681  0.1391  0.1697  0.1620
 6584SOL    HW231215   4.364   4.418   5.791  1.4604 -1.7758 -0.0017
 6585SOL     OW31216   1.315   2.770  13.025 -0.3191  0.4708 -0.2196
 6585SOL    HW131217   1.324   2.675  13.035 -0.1033  0.3626 -1.5542
 6585SOL    HW231218   1.223   2.784  13.001  0.2528  0.9030 -2.1470
 6586SOL     OW31219   1.353   1.222   5.485  0.0123  0.3333  0.0175
 6586SOL    HW131220   1.372   1.131   5.460  1.6065  0.7368 -0.2599
 6586SOL    HW231221   1.262   1.241   5.461 -0.6460 -1.0594  1.4065
 6587SOL     OW31222   0.130   0.480   7.018 -0.4144 -0.7630  0.6744
 6587SOL    HW131223   0.080   0.403   6.991  0.7436 -0.9112 -1.0554
 6587SOL    HW231224   0.221   0.458   6.999  0.1164  1.8239  0.1935
 6588SOL     OW31225   1.831   1.384   5.446 -0.2622 -0.3798  0.3762
 6588SOL    HW131226   1.785   1.409   5.526 -0.7626  1.1768 -0.3876
 6588SOL    HW231227   1.752   1.369   5.395 -0.3753 -0.3047  0.5325
 6589SOL     OW31228   0.272   0.572  16.985  0.2081  0.1986 -0.5970
 6589SOL    HW131229   0.191   0.531  17.016  1.7390 -1.2755  1.4433
 6589SOL    HW231230   0.307   0.508  16.923  0.9773 -0.2133  0.2530
 6590SOL     OW31231   1.155   3.117  11.661 -0.0061 -0.2625 -0.3302
 6590SOL    HW131232   1.150   3.078  11.748 -2.3166 -0.1809 -0.4278
 6590SOL    HW231233   1.146   3.211  11.679  1.0420  0.3316 -3.0030
 6591SOL     OW31234   2.759   4.597  10.509  0.0436  0.7691  0.8900
 6591SOL    HW131235   2.758   4.640  10.594  2.1701  0.4729  1.0638
 6591SOL    HW231236   2.688   4.644  10.464 -0.1543 -1.9974 -1.6946
 6592SOL     OW31237   4.653   0.759   2.229  0.0698  0.9881 -0.4602
 6592SOL    HW131238   4.712   0.835   2.230  1.6473 -0.2381 -0.0304
 6592SOL    HW231239   4.578   0.790   2.280 -0.5501  1.0022 -1.3833
 6593SOL     OW31240   3.642   1.573   2.913 -0.1823 -0.3466 -0.4174
 6593SOL    HW131241   3.549   1.559   2.929  0.3165 -0.4211  2.4258
 6593SOL    HW231242   3.669   1.484   2.891  1.3494  0.1323 -0.4703
 6594SOL     OW31243   1.440   2.164  16.433  0.7698  0.8538 -0.3333
 6594SOL    HW131244   1.522   2.202  16.464  0.8130  0.3091  0.2278
 6594SOL    HW231245   1.469   2.084  16.388 -0.0240 -0.4397  1.4324
 6595SOL     OW31246   4.184   1.346  11.661  0.0250 -0.1988  0.2077
 6595SOL    HW131247   4.153   1.370  11.574 -0.3186  3.0087  1.1690
 6595SOL    HW231248   4.275   1.367  11.643 -0.2072  0.1344 -0.5775
 6596SOL     OW31249   0.093   4.110   5.270  0.5086 -0.2901  0.4839
 6596SOL    HW131250   0.052   4.069   5.193  3.0168  1.1635 -1.6264
 6596SOL    HW231251   0.122   4.194   5.235  1.1712 -0.4460  0.6560
 6597SOL     OW31252   4.633   4.493   7.639  0.6088  0.0186 -0.1676
 6597SOL    HW131253   4.602   4.548   7.567  1.1566 -0.2935 -0.6411
 6597SOL    HW231254   4.612   4.557   7.707  1.2498 -0.9366  0.9204
 6598SOL     OW31255   2.218   3.895   8.600 -0.4174 -0.4325  0.2642
 6598SOL    HW131256   2.224   3.836   8.675 -0.4690 -0.8972 -0.0994
 6598SOL    HW231257   2.242   3.835   8.529  2.2023 -2.2898  2.7341
 6599SOL     OW31258   0.734   4.342   2.739  0.0636  0.0890  0.5542
 6599SOL    HW131259   0.683   4.281   2.685  1.8607 -1.3947  0.5002
 6599SOL    HW231260   0.659   4.398   2.754 -0.0994  0.1943 -0.6371
 6600SOL     OW31261   2.979   4.055  11.207 -0.4440  0.0688  0.0137
 6600SOL    HW131262   2.996   4.149  11.213 -0.1496  0.0350 -0.2477
 6600SOL    HW231263   2.894   4.041  11.247 -0.5245 -2.3287 -1.0047
 6601SOL     OW31264   2.176   4.128  10.852  0.3048 -0.3065 -0.5110
 6601SOL    HW131265   2.082   4.115  10.843  0.3582 -0.7382 -0.4006
 6601SOL    HW231266   2.207   4.060  10.792  1.2081 -1.4174  1.2461
 6602SOL     OW31267   1.954   0.941   7.894 -0.0928 -0.4194  0.2168
 6602SOL    HW131268   2.034   0.992   7.883 -0.7007  0.7991  1.3932
 6602SOL    HW231269   1.981   0.892   7.972  0.3871  0.4811  0.6175
 6603SOL     OW31270   4.722   0.939  16.702  0.1266  0.2623 -0.3190
 6603SOL    HW131271   4.662   0.906  16.635  0.3270 -1.7263  0.4838
 6603SOL    HW231272   0.020   0.858  16.749  1.5847 -0.1485 -1.6666
 6604SOL     OW31273   4.272   2.086   5.427  0.6535 -0.2582  0.3510
 6604SOL    HW131274   4.248   2.151   5.361  0.7548 -2.1280 -1.5419
 6604SOL    HW231275   4.364   2.110   5.440  0.2577  2.4347 -1.6916
 6605SOL     OW31276   3.239   3.657   2.947 -0.0985  0.5374 -0.1079
 6605SOL    HW131277   3.306   3.714   2.986  0.5659  1.0866 -2.0663
 6605SOL    HW231278   3.290   3.588   2.905  1.8020  2.1494 -0.5026
 6606SOL     OW31279   2.726   4.703   8.646 -0.0554 -0.0484 -0.0093
 6606SOL    HW131280   2.708   4.671   8.734  0.4855  1.4791  0.6498
 6606SOL    HW231281   2.637   4.699   8.611  0.1805 -1.9715 -0.3823
 6607SOL     OW31282   0.124   1.299  10.313 -0.5659 -0.0163  0.1296
 6607SOL    HW131283   0.195   1.236  10.305  1.3641  2.3613 -1.2794
 6607SOL    HW231284   0.092   1.288  10.403 -0.4636  1.9591  0.4087
 6608SOL     OW31285   4.252   4.146   7.949  0.1836  0.1371 -0.1693
 6608SOL    HW131286   4.333   4.185   7.980  1.1743 -1.5821 -0.6169
 6608SOL    HW231287   4.240   4.083   8.020  2.8385 -0.2616 -0.0765
 6609SOL     OW31288   3.253   2.674   3.648 -0.3940  0.0947 -0.1188
 6609SOL    HW131289   3.223   2.762   3.669  0.5553  0.0150  1.5447
 6609SOL    HW231290   3.237   2.665   3.554  0.3324 -0.1309 -0.2234
 6610SOL     OW31291   3.812   2.763   6.398  0.2028 -0.2011 -0.2931
 6610SOL    HW131292   3.860   2.801   6.472  0.1869  1.1760 -0.9877
 6610SOL    HW231293   3.719   2.769   6.419 -0.3710 -0.4694 -2.8244
 6611SOL     OW31294   1.950   1.953   3.936 -0.3675  0.0026 -0.0997
 6611SOL    HW131295   1.963   1.892   4.009  1.0988 -0.2031 -0.5449
 6611SOL    HW231296   2.026   2.009   3.949 -0.4510  0.2107 -0.5087
 6612SOL     OW31297   1.091   2.135   1.118  0.0110 -0.1903  0.0300
 6612SOL    HW131298   1.175   2.168   1.085 -1.4289  1.9700 -1.4848
 6612SOL    HW231299   1.104   2.052   1.072  1.3546 -0.9196  1.7487
 6613SOL     OW31300   1.842   0.374   0.035  1.0055  0.4833  0.0350
 6613SOL    HW131301   1.847   0.397   0.128  0.3320  1.3868 -0.1510
 6613SOL    HW231302   1.934   0.362   0.011  0.7525  0.2394 -0.7847
 6614SOL     OW31303   3.612   0.372   9.433 -0.1477 -0.2590  0.0385
 6614SOL    HW131304   3.536   0.322   9.461 -0.8039  0.9986  0.4851
 6614SOL    HW231305   3.593   0.378   9.339  0.0354 -2.0364 -0.1175
 6615SOL     OW31306   0.868   4.536   8.044 -0.8074  0.0566 -0.0568
 6615SOL    HW131307   0.866   4.492   8.129  0.5228 -0.2007 -0.1567
 6615SOL    HW231308   0.961   4.546   8.024 -1.2242  1.0395 -1.5098
 6616SOL     OW31309   2.589   1.662  12.808  0.3440 -0.1695 -0.0872
 6616SOL    HW131310   2.587   1.735  12.869  0.2571  0.7088 -1.1287
 6616SOL    HW231311   2.507   1.684  12.763  0.1907 -1.8262 -0.6311
 6617SOL     OW31312   2.367   2.384   2.966  0.2147 -0.2023  0.5836
 6617SOL    HW131313   2.396   2.440   3.039  2.2674 -1.5442  0.7829
 6617SOL    HW231314   2.406   2.424   2.889 -1.4353  0.3425  0.0114
 6618SOL     OW31315   2.130   2.093   8.656 -0.1760  0.2900  0.5908
 6618SOL    HW131316   2.201   2.126   8.711 -0.3848  0.4214  0.7825
 6618SOL    HW231317   2.072   2.167   8.677 -0.4547 -0.2649  1.7960
 6619SOL     OW31318   2.179   4.001   7.230  0.2162  0.8291 -0.1443
 6619SOL    HW131319   2.138   3.951   7.158  2.0375 -1.9054  0.6941
 6619SOL    HW231320   2.216   4.077   7.185  0.8794  0.1004 -0.8386
 6620SOL     OW31321   0.130   3.477  14.369 -0.2931 -0.5638 -0.4673
 6620SOL    HW131322   0.116   3.391  14.410  2.6214 -1.7812 -2.0793
 6620SOL    HW231323   0.167   3.523  14.445 -0.2239  0.0769 -0.8934
 6621SOL     OW31324   2.780   3.154  11.060  0.3294  0.3423 -0.5576
 6621SOL    HW131325   2.838   3.083  11.088 -0.3357 -0.0386 -0.1518
 6621SOL    HW231326   2.738   3.119  10.981 -2.1743 -1.4657  1.5696
 6622SOL     OW31327   3.262   0.257   2.596  0.3741 -0.4172 -0.1948
 6622SOL    HW131328   3.212   0.229   2.520  1.5575 -0.9691 -0.7747
 6622SOL    HW231329   3.332   0.192   2.602  1.2263  0.4281 -1.1240
 6623SOL     OW31330   1.167   1.108   3.701  0.1590 -0.6116 -0.5176
 6623SOL    HW131331   1.176   1.135   3.792  1.0531 -0.5482 -0.6285
 6623SOL    HW231332   1.072   1.118   3.697 -0.0352 -1.9265  0.7940
 6624SOL     OW31333   1.489   4.279   3.971 -0.1361  0.6989  0.9121
 6624SOL    HW131334   1.408   4.325   3.991 -0.8894  0.1050 -0.7534
 6624SOL    HW231335   1.539   4.334   3.911 -1.8485  0.5031 -0.7068
 6625SOL     OW31336   1.023   4.014  10.966  0.0109  0.0236 -0.0882
 6625SOL    HW131337   1.067   4.086  11.011 -0.3262  1.2930 -1.8023
 6625SOL    HW231338   0.971   4.069  10.907 -0.0510  1.5118  1.3603
 6626SOL     OW31339   4.332   2.731  15.795 -0.6014 -0.2277  0.1599
 6626SOL    HW131340   4.399   2.728  15.863 -1.2270 -0.3813  0.7689
 6626SOL    HW231341   4.372   2.684  15.721  0.3679 -0.8040  1.0570
 6627SOL     OW31342   1.924   1.606   5.322 -0.0514  0.0645  0.5348
 6627SOL    HW131343   1.953   1.520   5.294  1.0737  0.2725  1.0831
 6627SOL    HW231344   1.887   1.581   5.406 -0.5545  1.5250  0.7611
 6628SOL     OW31345   2.061   0.593  16.835 -0.4246  0.0514 -0.5830
 6628SOL    HW131346   2.111   0.672  16.812 -0.9095  0.4028 -0.4285
 6628SOL    HW231347   1.997   0.634  16.893  1.6552  0.6272  1.2674
 6629SOL     OW31348   2.399   4.426   9.459 -0.3952  0.0309 -0.2042
 6629SOL    HW131349   2.424   4.421   9.551  1.1241  2.6856 -0.4658
 6629SOL    HW231350   2.481   4.465   9.428 -0.5231 -0.4495 -1.1620
 6630SOL     OW31351   3.501   1.501   8.198 -0.6491  0.1404  1.0042
 6630SOL    HW131352   3.428   1.496   8.136 -0.4395 -1.2010  0.8451
 6630SOL    HW231353   3.456   1.528   8.278  0.6744  3.2161  0.6837
 6631SOL     OW31354   1.980   2.823   5.043 -0.0205  0.1079  0.2907
 6631SOL    HW131355   2.026   2.896   5.084 -1.9357  1.1950  0.5068
 6631SOL    HW231356   1.926   2.863   4.975  0.1679 -0.5420 -0.2429
 6632SOL     OW31357   3.088   4.159   1.687 -0.0177 -0.4731 -0.0700
 6632SOL    HW131358   3.020   4.176   1.752  0.4507 -2.4968  0.9490
 6632SOL    HW231359   3.158   4.214   1.721  0.7119 -0.5262 -1.4936
 6633SOL     OW31360   4.663   2.219   7.097 -0.3500  0.0539  0.0113
 6633SOL    HW131361   4.582   2.213   7.148 -0.2971 -0.7690  0.0023
 6633SOL    HW231362   4.646   2.158   7.026 -2.0650 -3.1478  3.1567
 6634SOL     OW31363   2.494   0.285   1.974 -0.4350 -0.1731  0.5065
 6634SOL    HW131364   2.462   0.365   2.015  1.7355  0.2793  1.2755
 6634SOL    HW231365   2.428   0.277   1.905  1.0301 -2.1037 -0.6965
 6635SOL     OW31366   0.934   2.516   2.756  0.4338  0.6320 -0.4562
 6635SOL    HW131367   0.932   2.540   2.848 -0.7486 -1.6335  0.1113
 6635SOL    HW231368   0.874   2.579   2.716  0.1092 -0.3626 -1.5487
 6636SOL     OW31369   4.580   1.868  13.202 -0.5681  0.3650 -0.0965
 6636SOL    HW131370   4.490   1.876  13.236 -0.6914 -0.0261 -0.3294
 6636SOL    HW231371   4.607   1.957  13.180  2.6326 -0.6201 -0.1294
 6637SOL     OW31372   3.937   2.332   0.880 -0.7282 -0.6021 -0.0350
 6637SOL    HW131373   3.846   2.311   0.860 -1.0894  1.7812 -0.9323
 6637SOL    HW231374   3.922   2.387   0.958 -0.3620 -1.1474  0.4227
 6638SOL     OW31375   3.335   1.191   6.442 -0.8357  0.4161 -0.3716
 6638SOL    HW131376   3.247   1.201   6.405 -2.0328 -1.7401  1.8564
 6638SOL    HW231377   3.320   1.221   6.532 -0.9870  1.2860 -0.6909
 6639SOL     OW31378   0.050   3.505   8.101  0.0983 -0.3033 -0.2473
 6639SOL    HW131379   0.145   3.511   8.090  0.1702 -1.5978 -0.3741
 6639SOL    HW231380   0.014   3.526   8.015  0.3091  0.4431 -0.1468
 6640SOL     OW31381   4.371   4.180   5.549  0.2186  0.1062  0.4537
 6640SOL    HW131382   4.276   4.170   5.545  0.0535  1.9655 -0.2492
 6640SOL    HW231383   4.389   4.149   5.638  0.4505  1.5263  0.8942
 6641SOL     OW31384   0.142   0.250   4.191 -0.9139 -0.6248 -0.3732
 6641SOL    HW131385   0.058   0.211   4.166  0.1624 -1.3386 -2.8638
 6641SOL    HW231386   0.159   0.285   4.104 -0.2084 -1.6554 -0.6414
 6642SOL     OW31387   3.679   4.544   0.749 -0.1826  0.4069 -0.6266
 6642SOL    HW131388   3.680   4.553   0.654  1.5940 -0.5096 -0.7029
 6642SOL    HW231389   3.609   4.483   0.770  0.2665 -0.4851 -1.7183
 6643SOL     OW31390   4.070   2.262   7.928 -0.2988 -0.0551  0.6763
 6643SOL    HW131391   4.039   2.172   7.916 -0.8040  0.2405 -0.2801
 6643SOL    HW231392   4.070   2.297   7.839 -2.1428 -1.3486  0.1642
 6644SOL     OW31393   1.777   1.724  17.510  0.0889 -0.2768 -0.6787
 6644SOL    HW131394   1.856   1.773  17.532  0.4640 -1.0515 -0.2894
 6644SOL    HW231395   1.712   1.785  17.543 -1.4658 -1.9256 -0.7186
 6645SOL     OW31396   0.279   3.805  12.515 -0.6229 -0.3345 -0.0401
 6645SOL    HW131397   0.323   3.790  12.598 -0.5800  0.8704  0.1537
 6645SOL    HW231398   0.255   3.716  12.487 -2.7861 -0.0869  1.0179
 6646SOL     OW31399   1.124   1.772   5.586 -0.2798 -0.4202  0.5757
 6646SOL    HW131400   1.190   1.746   5.521  3.1479  2.8461  2.7396
 6646SOL    HW231401   1.135   1.713   5.660  1.3373 -1.8660 -0.8105
 6647SOL     OW31402   0.725   2.468   4.018  0.0659 -0.4574  0.2530
 6647SOL    HW131403   0.726   2.551   3.972  1.9943  1.1635  3.2571
 6647SOL    HW231404   0.768   2.411   3.955 -0.7223  0.8720 -1.4688
 6648SOL     OW31405   2.578   1.337  15.088  0.5651 -0.3599 -0.5150
 6648SOL    HW131406   2.561   1.262  15.145 -1.4415  0.6888  0.2682
 6648SOL    HW231407   2.546   1.401  15.152  0.4825 -0.2616 -0.6530
 6649SOL     OW31408   4.144   1.214   5.095 -0.4792  0.3775  0.1956
 6649SOL    HW131409   4.185   1.283   5.148  1.1224 -0.5813  0.2228
 6649SOL    HW231410   4.215   1.150   5.090 -0.2624  0.8774 -2.9330
 6650SOL     OW31411   3.798   1.094   7.814 -0.1097 -0.3294 -0.0172
 6650SOL    HW131412   3.760   1.025   7.869 -2.1964  0.1159 -0.9177
 6650SOL    HW231413   3.889   1.062   7.815  0.0480  0.1398  2.2682
 6651SOL     OW31414   2.883   3.548   2.606 -1.0563  0.2960  0.7560
 6651SOL    HW131415   2.932   3.589   2.534 -0.1628 -1.2385  0.4894
 6651SOL    HW231416   2.877   3.614   2.674 -2.9595  0.2960  0.5956
 6652SOL     OW31417   2.586   0.593   6.259 -0.1175 -0.4493  0.2473
 6652SOL    HW131418   2.500   0.551   6.254 -0.7519  0.5922  2.2465
 6652SOL    HW231419   2.652   0.525   6.250  0.4983  0.2985 -0.8667
 6653SOL     OW31420   0.517   1.589   7.780 -0.0968 -0.5898  0.1788
 6653SOL    HW131421   0.437   1.637   7.758  1.0737  0.9687 -0.6568
 6653SOL    HW231422   0.570   1.586   7.701 -0.6372  0.0527 -0.2061
 6654SOL     OW31423   3.284   0.421   4.618 -0.1899  0.6358  0.2743
 6654SOL    HW131424   3.332   0.345   4.652  0.8491  1.3463  0.3760
 6654SOL    HW231425   3.207   0.368   4.598 -0.0698 -0.0938  1.7462
 6655SOL     OW31426   3.291   0.734   0.362  0.1506  0.2155 -0.4142
 6655SOL    HW131427   3.240   0.722   0.442 -1.8092  1.5637 -1.4706
 6655SOL    HW231428   3.307   0.644   0.332  1.2551 -0.7751  3.0912
 6656SOL     OW31429   3.853   1.234  12.860 -0.9387 -0.0931 -0.1082
 6656SOL    HW131430   3.896   1.157  12.823 -0.6609 -0.0994  0.2256
 6656SOL    HW231431   3.823   1.279  12.782 -1.1570  0.3832  0.2544
 6657SOL     OW31432   3.642   3.724  16.541 -0.8543 -0.1379  0.2540
 6657SOL    HW131433   3.623   3.669  16.618 -1.4994  0.9966  0.9059
 6657SOL    HW231434   3.698   3.670  16.485  1.2341  1.5772  0.6675
 6658SOL     OW31435   2.413   3.497   0.378  0.0633 -0.1112 -0.1478
 6658SOL    HW131436   2.375   3.568   0.429 -0.7758 -0.0342 -0.8798
 6658SOL    HW231437   2.420   3.523   0.286  1.9172  1.4024  0.4053
 6659SOL     OW31438   2.443   1.041   3.037 -0.0668 -0.7033 -0.7275
 6659SOL    HW131439   2.451   1.128   3.077 -1.5175 -0.9815  0.1736
 6659SOL    HW231440   2.533   1.013   3.051  1.0987  3.2775 -0.1656
 6660SOL     OW31441   0.246   0.394   8.003  0.1394  0.2202  0.1307
 6660SOL    HW131442   0.289   0.384   7.918  0.6927  1.9120  0.2142
 6660SOL    HW231443   0.299   0.328   8.047 -0.5522 -1.0408 -0.9424
 6661SOL     OW31444   1.014   0.529   9.996  0.0982 -0.5300 -0.0380
 6661SOL    HW131445   1.090   0.532  10.054  0.5284  2.5158 -0.7772
 6661SOL    HW231446   0.995   0.617   9.964 -0.3228 -0.6823 -0.1993
 6662SOL     OW31447   0.229   1.664  16.823  0.1386  0.2288 -0.0611
 6662SOL    HW131448   0.316   1.679  16.860  0.2241  1.1032 -0.6111
 6662SOL    HW231449   0.244   1.577  16.786 -0.1563 -0.7679  2.2215
 6663SOL     OW31450   4.396   2.067  12.646  0.7865 -1.2609 -0.3692
 6663SOL    HW131451   4.447   2.024  12.578  1.2929  0.9539 -1.3938
 6663SOL    HW231452   4.460   2.060  12.717 -0.0847  1.9670  0.7475
 6664SOL     OW31453   1.689   0.041  15.257 -0.4717  0.1261 -0.4506
 6664SOL    HW131454   1.705   0.029  15.164 -1.6337 -2.5020 -0.3211
 6664SOL    HW231455   1.741   4.692  15.291  1.3069  1.4018 -0.4351
 6665SOL     OW31456   0.624   1.302  16.108  0.0939 -0.0341 -0.1543
 6665SOL    HW131457   0.659   1.215  16.123  3.9454  1.2554 -1.7292
 6665SOL    HW231458   0.530   1.282  16.106 -0.2180  1.3850  0.5417
 6666SOL     OW31459   0.759   4.000   2.618  0.3155 -0.0461  0.1860
 6666SOL    HW131460   0.703   4.010   2.695  0.4853 -0.9304  0.4331
 6666SOL    HW231461   0.741   3.908   2.597  0.7325  0.2040 -1.2376
 6667SOL     OW31462   3.485   3.483   3.273 -0.0875 -0.6174 -0.2276
 6667SOL    HW131463   3.565   3.503   3.225  0.0995 -0.4209  0.1658
 6667SOL    HW231464   3.458   3.568   3.309  1.0520 -0.7148  0.8387
 6668SOL     OW31465   4.356   3.038   8.278 -0.2310 -0.0549 -0.3949
 6668SOL    HW131466   4.266   3.018   8.305  0.1055 -1.1635 -0.0986
 6668SOL    HW231467   4.370   2.968   8.215 -0.9706 -0.2987 -0.2771
 6669SOL     OW31468   0.675   2.304   5.092  0.2744  0.8924  0.4649
 6669SOL    HW131469   0.719   2.376   5.138 -1.0953  1.0602  1.5048
 6669SOL    HW231470   0.597   2.344   5.056  0.7201 -2.0115 -3.7411
 6670SOL     OW31471   3.434   2.529   9.150  0.0984  0.4674  0.8764
 6670SOL    HW131472   3.453   2.623   9.147  1.1948  0.1614 -1.7438
 6670SOL    HW231473   3.368   2.520   9.218 -1.6201  0.4284 -0.7897
 6671SOL     OW31474   2.171   4.371   6.388 -0.1094  0.5024 -0.2443
 6671SOL    HW131475   2.187   4.465   6.390 -0.9864  0.6351  0.6195
 6671SOL    HW231476   2.165   4.352   6.482 -0.1453 -1.6227 -0.6731
 6672SOL     OW31477   2.340   2.011   7.832  0.0012 -0.3295  0.4966
 6672SOL    HW131478   2.390   1.940   7.792  1.4889  0.2770  1.2739
 6672SOL    HW231479   2.407   2.064   7.877 -0.3518 -0.2215  0.8923
 6673SOL     OW31480   1.941   4.713  10.897 -0.2072 -0.3676  0.0295
 6673SOL    HW131481   2.013   4.685  10.953  1.1060  2.9419 -0.0000
 6673SOL    HW231482   1.873   4.704  10.963 -0.8643  0.4940 -0.5291
 6674SOL     OW31483   1.503   4.500  11.597  0.3551 -0.1181 -0.0093
 6674SOL    HW131484   1.462   4.567  11.651  1.2320  1.3560 -1.1493
 6674SOL    HW231485   1.590   4.539  11.584 -0.4088  0.4825 -3.4954
 6675SOL     OW31486   1.828   1.360   4.226 -0.3054 -0.9274  0.1602
 6675SOL    HW131487   1.785   1.443   4.202 -1.2230 -1.5048 -0.1934
 6675SOL    HW231488   1.845   1.375   4.319 -0.0850  0.4636 -0.0946
 6676SOL     OW31489   1.705   1.337   5.673 -0.1266 -0.5640 -0.4344
 6676SOL    HW131490   1.628   1.282   5.689 -0.9068  0.2357 -1.3850
 6676SOL    HW231491   1.777   1.298   5.722 -0.7736 -2.0627 -0.6670
 6677SOL     OW31492   2.343   0.044   9.169 -0.2322  0.5468  0.2463
 6677SOL    HW131493   2.419   4.710   9.176  1.4029  2.5740 -0.7652
 6677SOL    HW231494   2.304   4.723   9.094  0.7460  2.9464 -1.6999
 6678SOL     OW31495   2.634   3.761  14.074  0.6598  0.6531 -0.0826
 6678SOL    HW131496   2.619   3.715  13.991 -3.2502  0.4183  0.7277
 6678SOL    HW231497   2.557   3.731  14.122 -0.7640  2.6406 -1.1344
 6679SOL     OW31498   3.778   4.667   5.263 -0.2685  0.0145 -0.2541
 6679SOL    HW131499   3.752   4.662   5.171 -0.5157 -0.4331 -0.1608
 6679SOL    HW231500   3.856   4.723   5.262  0.0631 -0.4535 -0.4774
 6680SOL     OW31501   4.604   1.031   5.784  0.7593  0.2961 -0.2648
 6680SOL    HW131502   4.667   1.081   5.835 -0.4012 -0.2295  1.6739
 6680SOL    HW231503   4.611   1.074   5.699 -1.4319  0.8787 -0.1508
 6681SOL     OW31504   4.474   3.671  16.609 -0.2238 -0.1345  0.2631
 6681SOL    HW131505   4.434   3.752  16.640  0.1040 -0.7062  2.1365
 6681SOL    HW231506   4.516   3.703  16.529  2.9446  1.0982  2.4731
 6682SOL     OW31507   1.067   3.394   4.492 -0.1586  0.0281 -0.2076
 6682SOL    HW131508   1.028   3.360   4.411  1.1247 -2.4594  0.2453
 6682SOL    HW231509   1.155   3.422   4.466 -0.4105  0.4032 -0.6537
 6683SOL     OW31510   1.584   2.523   5.639 -0.3545  1.3278 -0.1019
 6683SOL    HW131511   1.552   2.491   5.723 -1.7802 -1.4131 -1.7173
 6683SOL    HW231512   1.587   2.614   5.668  0.9915  1.6930 -1.4378
 6684SOL     OW31513   1.871   2.205   3.190 -0.0909  0.4178  0.0394
 6684SOL    HW131514   1.902   2.292   3.216 -0.8460  0.9134 -0.7158
 6684SOL    HW231515   1.781   2.206   3.222 -0.9121  0.8074 -2.2605
 6685SOL     OW31516   3.208   2.945  12.813  0.0651 -0.4894 -0.4006
 6685SOL    HW131517   3.260   3.017  12.850  0.8675 -1.5439  0.5092
 6685SOL    HW231518   3.192   2.985  12.727  3.1196  3.5401  0.8966
 6686SOL     OW31519   3.906   1.395   3.783 -0.5640 -0.2812  0.2860
 6686SOL    HW131520   3.983   1.451   3.774 -0.3228 -1.0522 -2.4974
 6686SOL    HW231521   3.935   1.320   3.730  0.8063  0.7389 -0.4220
 6687SOL     OW31522   3.312   2.315   7.291 -0.0250 -0.9340 -0.4080
 6687SOL    HW131523   3.348   2.354   7.370  0.5218  1.4359 -1.8409
 6687SOL    HW231524   3.389   2.273   7.252 -0.2162 -1.1983 -0.5013
 6688SOL     OW31525   3.428   1.737   4.488 -0.6017  0.4202  0.4009
 6688SOL    HW131526   3.345   1.702   4.520 -1.0544  0.7441 -0.4282
 6688SOL    HW231527   3.412   1.828   4.515 -1.4663  0.0091  1.2698
 6689SOL     OW31528   4.671   4.359  12.121 -0.6812  0.4453  0.1056
 6689SOL    HW131529   0.038   4.330  12.121 -1.2302 -1.3134  4.1671
 6689SOL    HW231530   4.679   4.397  12.034 -1.7868 -2.1596 -1.1290
 6690SOL     OW31531   2.778   4.016   5.084 -0.0099 -0.6834  0.1340
 6690SOL    HW131532   2.776   3.980   5.172 -1.1562 -0.3305  0.2549
 6690SOL    HW231533   2.693   4.059   5.073 -0.3738 -1.2438  0.8429
 6691SOL     OW31534   4.119   0.535   2.087  0.4886 -0.4277  0.4462
 6691SOL    HW131535   4.195   0.561   2.035  0.1370  0.1279  0.2127
 6691SOL    HW231536   4.092   0.448   2.059  0.3163 -0.2137 -0.0649
 6692SOL     OW31537   4.317   0.891   8.047  0.7185  0.1993 -0.3685
 6692SOL    HW131538   4.231   0.870   8.085  0.8986 -0.8319 -0.5356
 6692SOL    HW231539   4.311   0.987   8.039  2.0629  0.3619  0.6773
 6693SOL     OW31540   2.087   0.354   0.278  0.0284 -0.5052 -0.5109
 6693SOL    HW131541   1.995   0.380   0.287  0.6904  2.2533 -1.8946
 6693SOL    HW231542   2.100   0.363   0.183  1.4750  2.3610 -0.0324
 6694SOL     OW31543   1.521   3.482  13.406 -0.1031 -0.2994 -0.2281
 6694SOL    HW131544   1.582   3.427  13.357  1.2663 -0.4033  1.6282
 6694SOL    HW231545   1.552   3.470  13.495  2.9627  0.9565 -1.1217
 6695SOL     OW31546   3.768   4.479  16.346  0.2831 -0.2573  0.1173
 6695SOL    HW131547   3.810   4.452  16.265  0.0287  0.6415 -0.3174
 6695SOL    HW231548   3.759   4.396  16.393  2.1985  0.7269  2.2345
 6696SOL     OW31549   2.921   3.773   6.259 -0.2336 -0.5363 -0.3658
 6696SOL    HW131550   2.837   3.818   6.252 -0.2351 -0.2615  1.4508
 6696SOL    HW231551   2.925   3.752   6.165 -1.3698  1.4742 -0.8699
 6697SOL     OW31552   4.237   4.371   9.814  0.2253  0.2383 -0.1601
 6697SOL    HW131553   4.292   4.294   9.825 -0.6149 -0.4137 -0.4628
 6697SOL    HW231554   4.214   4.353   9.723 -1.7352 -2.2172  0.8253
 6698SOL     OW31555   3.736   0.096  16.737  0.3502 -0.6277  0.2836
 6698SOL    HW131556   3.728   0.076  16.830 -1.6083 -0.2453  0.1822
 6698SOL    HW231557   3.830   0.081  16.722  0.1643 -0.7122 -0.8007
 6699SOL     OW31558   1.646   2.482   6.043 -0.0472  0.1516 -0.0180
 6699SOL    HW131559   1.600   2.415   5.992  0.2278  0.2651 -0.4191
 6699SOL    HW231560   1.734   2.446   6.049 -0.2246 -0.2700  0.0291
 6700SOL     OW31561   3.962   1.331  16.697 -0.2831 -0.1842 -0.0994
 6700SOL    HW131562   3.887   1.371  16.741 -1.5069 -1.8867 -0.6263
 6700SOL    HW231563   4.030   1.354  16.761 -0.2837 -2.1695  0.6142
 6701SOL     OW31564   0.969   3.666   3.143  0.1492 -0.2082 -0.4598
 6701SOL    HW131565   0.995   3.594   3.201 -1.3677  0.4653  1.0573
 6701SOL    HW231566   1.017   3.631   3.068 -0.1432 -0.2933 -0.6090
 6702SOL     OW31567   4.711   2.889   6.035  0.2895  0.1627 -0.0761
 6702SOL    HW131568   4.618   2.910   6.030  0.4634  0.5280 -1.7770
 6702SOL    HW231569   0.024   2.977   6.021  0.3919  0.3328  1.3325
 6703SOL     OW31570   1.021   1.607   1.401 -0.3131  0.9129  0.3531
 6703SOL    HW131571   0.995   1.607   1.309 -0.3947 -0.6558  0.3760
 6703SOL    HW231572   1.003   1.517   1.428 -1.1891  1.0319  0.1749
 6704SOL     OW31573   4.662   1.167   2.898 -0.0700  0.1268  0.0970
 6704SOL    HW131574   0.012   1.223   2.923 -0.9214  1.0122  0.6229
 6704SOL    HW231575   4.708   1.087   2.873 -3.1352 -1.2483 -1.0978
 6705SOL     OW31576   3.135   1.815   2.878 -0.5439 -0.7684 -0.1277
 6705SOL    HW131577   3.141   1.728   2.840  1.8245 -0.5849 -0.1893
 6705SOL    HW231578   3.205   1.859   2.829 -0.5354 -1.4486 -0.7331
 6706SOL     OW31579   2.579   0.740  16.207  0.6937  0.0732  0.0483
 6706SOL    HW131580   2.510   0.807  16.203  1.3935  0.9313  2.0612
 6706SOL    HW231581   2.605   0.723  16.117  1.5529 -0.1660  0.3475
 6707SOL     OW31582   3.554   1.214   3.210 -0.2962 -1.4089 -0.0777
 6707SOL    HW131583   3.596   1.231   3.125  0.3346 -0.7262  0.3729
 6707SOL    HW231584   3.582   1.126   3.233  0.2199 -0.5031  2.6982
 6708SOL     OW31585   1.795   0.386   2.541  0.1122 -0.0250  0.6108
 6708SOL    HW131586   1.703   0.402   2.562  0.2704  1.2786  0.3086
 6708SOL    HW231587   1.823   0.333   2.615  1.3857  1.3510  1.0998
 6709SOL     OW31588   0.921   3.650   1.348 -0.0377  0.6909 -0.3919
 6709SOL    HW131589   0.900   3.571   1.299  0.8470  0.3212 -0.1811
 6709SOL    HW231590   1.017   3.645   1.349 -0.0764  0.5538  1.9257
 6710SOL     OW31591   4.420   3.374   2.977  0.0779  0.4668  0.0279
 6710SOL    HW131592   4.440   3.321   2.900 -3.6986  0.9563 -1.3051
 6710SOL    HW231593   4.336   3.412   2.953  0.2558  0.5491 -0.4544
 6711SOL     OW31594   0.291   1.855   5.179 -0.9708  0.2361  0.2619
 6711SOL    HW131595   0.218   1.846   5.119  0.1611  0.5369 -1.1774
 6711SOL    HW231596   0.310   1.948   5.188 -2.6663  0.4609  1.4199
 6712SOL     OW31597   0.706   3.388  10.864  0.3595  0.6798  0.2419
 6712SOL    HW131598   0.712   3.309  10.810 -1.9190  0.8434 -0.2411
 6712SOL    HW231599   0.762   3.443  10.809 -0.9680  2.0811  0.2955
 6713SOL     OW31600   4.613   3.236   6.225  0.4649 -0.7663 -0.4545
 6713SOL    HW131601   4.603   3.329   6.206  0.5874 -0.5018  0.7716
 6713SOL    HW231602   4.523   3.221   6.254  0.8492 -0.3954  0.9420
 6714SOL     OW31603   4.045   3.012   4.918 -0.4489  0.4418  0.0157
 6714SOL    HW131604   3.972   3.073   4.927  0.9925  1.7648  2.6780
 6714SOL    HW231605   4.089   3.020   5.002  0.9157  2.6277 -0.9232
 6715SOL     OW31606   0.330   3.598   2.273  0.2613 -0.4124  0.4996
 6715SOL    HW131607   0.275   3.527   2.306 -2.1884  0.1369 -2.4347
 6715SOL    HW231608   0.298   3.617   2.185 -0.8959 -0.9664  0.7963
 6716SOL     OW31609   4.106   2.124   2.124  0.4444 -0.4087  0.1453
 6716SOL    HW131610   4.044   2.089   2.060  0.9673  2.7030 -2.0739
 6716SOL    HW231611   4.106   2.054   2.189 -0.2600 -1.2269 -0.7308
 6717SOL     OW31612   0.947   4.663  13.745 -0.1774  0.8821 -0.4307
 6717SOL    HW131613   0.933   4.713  13.826 -0.7461  0.4559 -0.2683
 6717SOL    HW231614   1.042   4.648  13.754 -0.4015  1.3476  2.8471
 6718SOL     OW31615   0.072   3.106   3.431 -0.3377 -0.0852  0.5323
 6718SOL    HW131616   0.024   3.040   3.480 -1.2164  0.2967  0.1927
 6718SOL    HW231617   0.011   3.104   3.357 -1.6251 -4.0806  1.7399
 6719SOL     OW31618   4.149   0.405   2.950  0.0710  0.0043  0.2748
 6719SOL    HW131619   4.166   0.326   3.001  0.0911 -1.3884 -1.8498
 6719SOL    HW231620   4.199   0.477   2.986 -0.4400  1.0816 -1.1515
 6720SOL     OW31621   1.930   3.123  14.295 -0.6559  0.2156 -0.2914
 6720SOL    HW131622   1.936   3.137  14.390 -0.9649 -0.4008 -0.1819
 6720SOL    HW231623   1.877   3.195  14.262 -3.2387 -2.1200 -1.2437
 6721SOL     OW31624   1.312   0.492   3.409 -0.5869 -0.0375  0.7506
 6721SOL    HW131625   1.367   0.568   3.430 -1.4483  0.8038 -0.0206
 6721SOL    HW231626   1.342   0.470   3.321  0.6947  1.0409  0.9032
 6722SOL     OW31627   1.073   4.255   5.377 -0.1408  0.7723 -0.2736
 6722SOL    HW131628   0.980   4.273   5.392 -0.5802 -2.7094  1.2756
 6722SOL    HW231629   1.080   4.162   5.399  2.2592  1.7078  2.8320
 6723SOL     OW31630   3.861   4.091   2.600 -0.7019 -0.1139 -0.3237
 6723SOL    HW131631   3.906   4.040   2.532 -1.2171 -0.2878 -0.5331
 6723SOL    HW231632   3.932   4.136   2.647  0.7583 -1.5780 -1.1124
 6724SOL     OW31633   0.814   4.091  12.578  0.3972  0.2916 -0.9102
 6724SOL    HW131634   0.905   4.061  12.574  0.7458  1.2161  0.0409
 6724SOL    HW231635   0.825   4.171  12.630  1.3727 -0.0092 -0.6520
 6725SOL     OW31636   1.915   2.279   7.587 -0.0148 -0.5458  0.2521
 6725SOL    HW131637   1.940   2.311   7.500 -1.0499 -0.6170 -0.0753
 6725SOL    HW231638   1.996   2.278   7.637  0.9063  0.0844 -1.2455
 6726SOL     OW31639   2.264   0.019   5.737 -0.4668  0.4180  0.0640
 6726SOL    HW131640   2.353   0.054   5.737 -0.0169 -0.7543  2.3318
 6726SOL    HW231641   2.283   4.651   5.722 -0.1068  0.2045  1.8252
 6727SOL     OW31642   4.436   3.589   7.045 -0.3670 -0.4378  0.3120
 6727SOL    HW131643   4.465   3.617   6.959  1.5234 -0.7148  0.8521
 6727SOL    HW231644   4.519   3.592   7.094 -0.0563 -0.4381 -0.2156
 6728SOL     OW31645   1.822   1.173  14.868  0.0865 -0.2971 -0.3795
 6728SOL    HW131646   1.822   1.127  14.952  1.1484 -1.0920 -0.8105
 6728SOL    HW231647   1.898   1.137  14.823  1.2494  3.4087 -1.2811
 6729SOL     OW31648   2.057   0.356  11.999  0.3250 -0.5464 -0.1461
 6729SOL    HW131649   2.150   0.372  12.017  0.1821  1.6133 -1.3769
 6729SOL    HW231650   2.032   0.413  11.927 -2.9097  0.2513  1.5966
 6730SOL     OW31651   3.761   3.768  16.957 -0.7095 -0.0715  0.1519
 6730SOL    HW131652   3.673   3.735  16.939 -1.2370  0.8250  1.0741
 6730SOL    HW231653   3.736   3.861  16.959  0.0716  0.1302  0.4416
 6731SOL     OW31654   1.433   3.405   7.523 -0.4912  0.0992 -0.2572
 6731SOL    HW131655   1.373   3.376   7.454 -2.2474 -1.0563  1.7765
 6731SOL    HW231656   1.465   3.488   7.488 -0.0598 -0.0067 -0.1078
 6732SOL     OW31657   2.117   0.159   5.971 -0.8054 -0.2268 -0.3987
 6732SOL    HW131658   2.056   0.104   5.923 -2.3844 -0.1486  1.5470
 6732SOL    HW231659   2.193   0.150   5.913 -0.3821  1.2536 -0.0864
 6733SOL     OW31660   3.042   4.692   6.003 -0.3067 -0.5677 -0.4539
 6733SOL    HW131661   3.084   0.015   6.075  0.1939 -2.4271  0.4555
 6733SOL    HW231662   2.965   0.021   5.981  0.1367  0.3155  0.0804
 6734SOL     OW31663   3.117   1.113   5.787 -0.1127  0.2116 -0.0809
 6734SOL    HW131664   3.204   1.109   5.827  0.5343 -0.5855 -1.5770
 6734SOL    HW231665   3.101   1.207   5.784 -0.3440  0.1489 -1.0874
 6735SOL     OW31666   3.888   2.691  16.166  0.4390  0.5213  0.4628
 6735SOL    HW131667   3.935   2.731  16.240  1.2483  0.2855  0.0826
 6735SOL    HW231668   3.802   2.731  16.176 -0.5197 -1.1100 -1.2572
 6736SOL     OW31669   2.612   3.799   8.477 -0.4004 -0.9487  0.4930
 6736SOL    HW131670   2.555   3.747   8.534 -1.6200 -0.8442 -0.6301
 6736SOL    HW231671   2.621   3.751   8.395 -2.3420 -1.2260  0.4458
 6737SOL     OW31672   4.461   2.442   2.447  0.1024 -0.5472 -0.0878
 6737SOL    HW131673   4.463   2.500   2.370 -2.4575  0.1645  0.3568
 6737SOL    HW231674   4.529   2.479   2.503 -1.5306  2.3122  0.0455
 6738SOL     OW31675   2.100   3.719  15.830  0.1386 -0.6708  1.0028
 6738SOL    HW131676   2.062   3.712  15.917 -1.5080 -0.1147  0.3210
 6738SOL    HW231677   2.064   3.798  15.790  0.3944 -1.0348  0.0562
 6739SOL     OW31678   1.697   0.263   6.613  0.2369 -0.4069 -0.1159
 6739SOL    HW131679   1.667   0.246   6.702  0.8233 -1.4493 -0.1077
 6739SOL    HW231680   1.785   0.299   6.626 -0.3785  0.6648  1.0625
 6740SOL     OW31681   3.468   1.358   7.457 -0.5684 -0.1117 -0.4597
 6740SOL    HW131682   3.438   1.364   7.548  1.7487  0.1750  0.2611
 6740SOL    HW231683   3.454   1.445   7.418  2.5687  1.1077  1.1236
 6741SOL     OW31684   1.246   1.707   4.899  0.1056 -0.2897 -0.6606
 6741SOL    HW131685   1.220   1.709   4.991  0.0548 -0.2424 -0.6754
 6741SOL    HW231686   1.237   1.613   4.887  1.0157 -0.8490  3.1792
 6742SOL     OW31687   2.493   4.675   7.332 -0.6436  0.5047  0.1761
 6742SOL    HW131688   2.406   4.713   7.344 -1.0890 -0.5440  0.2211
 6742SOL    HW231689   2.540   0.014   7.388 -0.3582  2.6587 -2.4789
 6743SOL     OW31690   1.943   1.910   7.630 -0.6800 -0.6031 -0.7762
 6743SOL    HW131691   1.939   1.819   7.600 -1.3332 -1.5613  2.2036
 6743SOL    HW231692   1.997   1.956   7.565 -0.8109  0.8375  0.1510
 6744SOL     OW31693   4.387   3.957   4.052 -0.2705 -0.7887 -0.1899
 6744SOL    HW131694   4.388   4.051   4.035 -0.7078 -0.5024  1.3894
 6744SOL    HW231695   4.483   3.950   4.046 -0.3348 -1.9017  0.0957
 6745SOL     OW31696   0.522   0.898   6.794  0.0243 -0.4566 -0.2566
 6745SOL    HW131697   0.577   0.970   6.766  0.2206 -0.1987  0.7681
 6745SOL    HW231698   0.447   0.944   6.831  1.4251  2.1408 -0.6910
 6746SOL     OW31699   2.956   0.581   1.023 -0.1435 -0.0416 -0.5137
 6746SOL    HW131700   2.923   0.663   0.986 -0.8393  1.1846  2.7861
 6746SOL    HW231701   2.923   0.572   1.113  1.1584 -0.7708 -0.1111
 6747SOL     OW31702   0.432   1.492  16.622 -0.2614  0.2939 -0.1283
 6747SOL    HW131703   0.426   1.440  16.542  3.9056  0.3192 -0.4536
 6747SOL    HW231704   0.354   1.450  16.658  1.4524 -1.7905  1.1314
 6748SOL     OW31705   4.146   3.617   9.076  0.4070 -0.0889 -0.0414
 6748SOL    HW131706   4.165   3.628   9.169  3.7677  0.0068 -0.7253
 6748SOL    HW231707   4.097   3.535   9.079 -2.5428  1.6136 -1.2713
 6749SOL     OW31708   2.959   3.426   4.622 -0.2357 -0.1802 -0.4515
 6749SOL    HW131709   2.920   3.418   4.709 -0.2645 -1.8063 -0.6184
 6749SOL    HW231710   2.928   3.512   4.592 -2.9271 -0.2619  2.1817
 6750SOL     OW31711   0.522   4.647   9.715 -0.2841  0.0074 -0.4792
 6750SOL    HW131712   0.491   0.013   9.722  0.4498  0.4074 -2.1821
 6750SOL    HW231713   0.480   4.607   9.639  1.9105 -1.5563 -0.8705
 6751SOL     OW31714   0.720   0.204   5.161 -0.0946  0.1388  0.2042
 6751SOL    HW131715   0.751   0.293   5.144  0.7166  0.2167  2.1367
 6751SOL    HW231716   0.762   0.157   5.089  0.4878  1.7195 -0.4858
 6752SOL     OW31717   3.064   1.811  11.840 -0.1507  0.1668 -0.0486
 6752SOL    HW131718   3.014   1.892  11.848 -2.4590 -1.0398 -2.2386
 6752SOL    HW231719   3.095   1.813  11.930 -0.9308  0.0864  0.2214
 6753SOL     OW31720   1.686   4.148  12.090  0.6352 -0.2839 -0.3607
 6753SOL    HW131721   1.686   4.170  11.997  3.4420  0.4564 -0.1613
 6753SOL    HW231722   1.603   4.188  12.116 -0.3994 -1.2840 -2.1438
 6754SOL     OW31723   0.618   0.110   8.733  0.0470 -0.7397 -0.5580
 6754SOL    HW131724   0.556   0.183   8.728  1.1665  0.2950  0.2176
 6754SOL    HW231725   0.556   0.040   8.715  1.3503 -1.9840 -0.1939
 6755SOL     OW31726   4.126   0.506   4.107  0.1028  0.2359 -0.6407
 6755SOL    HW131727   4.205   0.476   4.152 -0.7596  0.2284  0.8978
 6755SOL    HW231728   4.069   0.521   4.183 -0.9941 -0.1611 -1.3924
 6756SOL     OW31729   4.604   2.470   2.961 -0.6076  0.2797 -0.1130
 6756SOL    HW131730   4.560   2.555   2.957  0.5028  1.0295  3.0961
 6756SOL    HW231731   4.687   2.493   3.003 -0.9777  0.2752  0.6285
 6757SOL     OW31732   0.411   3.046   0.182 -0.0754  0.0661 -0.1899
 6757SOL    HW131733   0.321   3.018   0.166 -1.1018  2.0632  2.1426
 6757SOL    HW231734   0.394   3.140   0.177 -1.4834 -0.1772 -0.1760
 6758SOL     OW31735   3.191   0.259   7.532 -0.4042  0.9658 -0.8356
 6758SOL    HW131736   3.198   0.173   7.490  0.1809  0.7624 -0.3316
 6758SOL    HW231737   3.268   0.311   7.509  2.1539 -1.0980  2.9291
 6759SOL     OW31738   0.525   2.194   9.318 -0.0873  0.0258 -0.4367
 6759SOL    HW131739   0.615   2.226   9.312 -0.6064  1.2343 -1.6832
 6759SOL    HW231740   0.485   2.256   9.257 -3.1054 -1.2293  0.2639
 6760SOL     OW31741   3.761   0.541   2.935  0.4694  0.2863 -0.5075
 6760SOL    HW131742   3.676   0.574   2.907 -0.0422 -1.1942 -0.7221
 6760SOL    HW231743   3.734   0.471   2.995 -2.3198  1.4270 -0.4412
 6761SOL     OW31744   0.071   3.130   9.969  0.1341 -0.0188 -0.0759
 6761SOL    HW131745   0.094   3.212  10.013  1.4377  0.3417 -1.4581
 6761SOL    HW231746   0.060   3.068  10.042  0.4491 -1.1278 -0.9598
 6762SOL     OW31747   3.347   0.067   4.383 -0.6397  0.1824 -0.0983
 6762SOL    HW131748   3.427   0.101   4.423 -0.5620 -1.3846  1.0816
 6762SOL    HW231749   3.315   0.022   4.461 -1.4380  0.2041 -0.4150
 6763SOL     OW31750   3.456   3.329   4.925  0.2560  0.3467 -0.1146
 6763SOL    HW131751   3.479   3.331   4.832 -2.2587  1.4354 -0.6946
 6763SOL    HW231752   3.383   3.268   4.934  1.2087 -0.6031  1.2306
 6764SOL     OW31753   2.793   2.219   3.037 -0.0488  0.1613 -0.2630
 6764SOL    HW131754   2.842   2.158   2.981  0.0054 -0.6293  0.6573
 6764SOL    HW231755   2.758   2.160   3.103 -1.4634  1.9198  0.5499
 6765SOL     OW31756   2.334   1.754  11.351 -0.7689  0.4657 -0.3729
 6765SOL    HW131757   2.266   1.695  11.384  1.8332 -1.0039  2.4151
 6765SOL    HW231758   2.343   1.811  11.428 -2.1942  0.6272 -0.3343
 6766SOL     OW31759   0.134   3.137   1.017  0.4285 -0.0875 -0.0693
 6766SOL    HW131760   0.194   3.062   1.024  0.0240 -0.3368  0.7223
 6766SOL    HW231761   0.091   3.119   0.934  1.0405 -0.9249 -0.2091
 6767SOL     OW31762   2.079   1.785   5.565  0.0575  0.3319 -0.3573
 6767SOL    HW131763   2.135   1.737   5.625 -2.3897 -0.8975  0.9492
 6767SOL    HW231764   2.004   1.726   5.573 -0.7128  1.6214  1.9987
 6768SOL     OW31765   3.960   4.662   6.810  0.2010 -0.0598  0.1389
 6768SOL    HW131766   4.039   4.694   6.767 -0.7715  1.9751 -0.1209
 6768SOL    HW231767   3.995   4.650   6.898 -1.7488  1.3081  1.1079
 6769SOL     OW31768   2.427   3.900   5.918 -0.2657 -0.0114  0.2047
 6769SOL    HW131769   2.422   3.889   6.013 -0.0053  1.3831  0.3808
 6769SOL    HW231770   2.343   3.940   5.896  0.2643  1.2420  0.4471
 6770SOL     OW31771   0.324   1.344  14.393 -0.5748 -0.9700 -0.3641
 6770SOL    HW131772   0.413   1.309  14.386 -0.0254  0.5038 -0.7147
 6770SOL    HW231773   0.285   1.302  14.469 -1.8269 -1.3091 -1.1964
 6771SOL     OW31774   0.416   4.523   9.484  0.6048 -0.2694 -0.1157
 6771SOL    HW131775   0.349   4.547   9.421  1.7217  0.7052 -0.9185
 6771SOL    HW231776   0.490   4.516   9.424  1.4700 -0.8449  1.0019
 6772SOL     OW31777   2.394   0.773   9.664 -0.0741 -0.3289 -0.1137
 6772SOL    HW131778   2.475   0.786   9.713  0.3370 -0.9740 -0.6255
 6772SOL    HW231779   2.344   0.852   9.682 -0.9248 -0.6078 -1.2545
 6773SOL     OW31780   4.512   1.275   4.456 -1.1440  0.5538 -0.0328
 6773SOL    HW131781   4.485   1.366   4.446  1.0133  1.2399  0.4534
 6773SOL    HW231782   4.451   1.253   4.526  0.6842 -1.3272  0.9799
 6774SOL     OW31783   0.880   2.669   5.354  0.1619 -1.1167 -1.1897
 6774SOL    HW131784   0.805   2.711   5.311 -1.1533 -1.1437  1.0728
 6774SOL    HW231785   0.862   2.707   5.440  3.0171  0.0371 -1.1041
 6775SOL     OW31786   2.942   2.409   3.357  0.0377 -0.0199  0.2943
 6775SOL    HW131787   2.984   2.336   3.311 -0.4050 -0.6450  0.8855
 6775SOL    HW231788   2.861   2.369   3.387 -0.6789  0.1882 -1.3610
 6776SOL     OW31789   3.618   3.076   2.747 -0.1535 -0.1233 -0.2540
 6776SOL    HW131790   3.558   3.008   2.777  2.9855 -1.0652  3.8291
 6776SOL    HW231791   3.701   3.028   2.758  0.8322  1.2740 -1.5184
 6777SOL     OW31792   2.487   0.144  12.888  0.1216 -0.1846  0.4326
 6777SOL    HW131793   2.491   0.053  12.857 -1.7400 -0.2137  0.2775
 6777SOL    HW231794   2.527   0.134  12.974 -0.3318  0.8297  0.7539
 6778SOL     OW31795   3.651   3.998   0.428  0.6147 -0.0955  0.2488
 6778SOL    HW131796   3.746   4.008   0.437  0.3776  2.1013  0.2497
 6778SOL    HW231797   3.640   3.913   0.386  0.8955  0.6861 -1.3925
 6779SOL     OW31798   3.762   3.955   1.033  0.2229  0.0004  0.1744
 6779SOL    HW131799   3.748   3.861   1.034  0.5877 -0.0605 -0.6421
 6779SOL    HW231800   3.717   3.982   1.113 -1.1206 -1.8717  0.0628
 6780SOL     OW31801   2.490   2.324   5.647 -0.2102  0.1687 -0.1975
 6780SOL    HW131802   2.555   2.386   5.679  0.2423 -0.6037  0.3798
 6780SOL    HW231803   2.429   2.388   5.609  2.0991  0.9620 -2.5272
 6781SOL     OW31804   1.961   3.768   7.668 -0.1365 -0.2023  0.1743
 6781SOL    HW131805   1.950   3.858   7.699  1.6856  0.9568 -2.5852
 6781SOL    HW231806   2.008   3.786   7.587 -2.3781  3.2113 -0.3399
 6782SOL     OW31807   4.054   1.055   6.747 -0.0921  0.3153  0.3448
 6782SOL    HW131808   4.087   1.101   6.669  0.0581  0.7696  0.6735
 6782SOL    HW231809   4.016   1.128   6.796  0.7984  1.2548 -0.3588
 6783SOL     OW31810   0.942   3.799  17.174 -0.5038  0.1123 -0.5754
 6783SOL    HW131811   0.988   3.883  17.169 -0.1960 -0.0053  0.1335
 6783SOL    HW231812   0.852   3.824  17.195 -0.5354 -0.0710 -0.4967
 6784SOL     OW31813   2.532   3.721   4.282 -0.3536  0.5123  0.4083
 6784SOL    HW131814   2.465   3.709   4.214 -0.5829  0.4562  0.6431
 6784SOL    HW231815   2.536   3.816   4.295 -0.3292  0.6582 -0.7231
 6785SOL     OW31816   0.982   2.897   9.918  0.2989 -0.0937 -0.3162
 6785SOL    HW131817   1.029   2.976   9.889  1.6540 -1.2508 -1.2420
 6785SOL    HW231818   0.949   2.880   9.830  0.0088 -2.2485  0.2336
 6786SOL     OW31819   4.678   2.995  15.392  0.1773 -0.0650  0.2393
 6786SOL    HW131820   0.020   2.960  15.451 -0.4624  0.4652  1.2836
 6786SOL    HW231821   4.695   3.089  15.403  3.4634 -0.3766 -2.2873
 6787SOL     OW31822   0.117   0.089   6.086 -0.0437 -0.0713  0.2086
 6787SOL    HW131823   0.152   0.070   5.999 -0.0790  3.0757 -0.4928
 6787SOL    HW231824   0.024   0.091   6.063 -0.3816 -1.0197  1.4550
 6788SOL     OW31825   2.298   2.080   8.413 -0.2294 -0.3727  0.5324
 6788SOL    HW131826   2.299   1.986   8.433  1.8848 -0.9449 -2.3369
 6788SOL    HW231827   2.229   2.078   8.347  1.4366 -2.4655 -1.1431
 6789SOL     OW31828   3.971   3.542   2.091  0.0624 -0.1809 -0.4526
 6789SOL    HW131829   4.009   3.480   2.029 -0.6218 -0.0832 -0.9658
 6789SOL    HW231830   3.893   3.496   2.124 -1.0065  2.1979  0.3641
 6790SOL     OW31831   0.078   2.391   1.824  0.1369  0.7951 -0.2719
 6790SOL    HW131832   4.709   2.389   1.800  0.8260  1.1367 -3.0199
 6790SOL    HW231833   0.067   2.448   1.899  1.3315  2.0167 -1.0261
 6791SOL     OW31834   3.437   2.592   8.804 -0.1240 -0.1272  0.5527
 6791SOL    HW131835   3.452   2.687   8.804  1.2706 -0.3520 -0.4497
 6791SOL    HW231836   3.525   2.555   8.795 -1.7279 -3.5158 -1.1625
 6792SOL     OW31837   2.103   3.835   2.836  0.0371  0.0195  0.1404
 6792SOL    HW131838   2.084   3.757   2.889 -0.9341 -0.3579 -0.7582
 6792SOL    HW231839   2.041   3.893   2.880  0.1690  0.7755 -0.6602
 6793SOL     OW31840   0.861   0.804   4.825  0.3314 -0.3849  0.0819
 6793SOL    HW131841   0.801   0.731   4.814 -0.0408 -0.1624  0.5928
 6793SOL    HW231842   0.809   0.866   4.876 -2.1958 -2.5126  0.0581
 6794SOL     OW31843   2.739   3.075   4.751  0.1032  0.3784  0.2224
 6794SOL    HW131844   2.744   2.993   4.800  0.0821 -1.1957 -2.4189
 6794SOL    HW231845   2.832   3.088   4.731  0.1202  2.4697  1.7371
 6795SOL     OW31846   0.340   4.676  13.477  0.0194  0.5062  0.0020
 6795SOL    HW131847   0.401   4.624  13.531 -1.9244 -1.2709  0.4686
 6795SOL    HW231848   0.387   4.700  13.398 -2.0644  1.1466 -1.0181
 6796SOL     OW31849   0.379   4.110   5.959 -0.1875  0.2172 -0.2096
 6796SOL    HW131850   0.451   4.129   5.900 -0.3483 -1.7264 -1.0354
 6796SOL    HW231851   0.318   4.169   5.915  0.6281  1.1225 -0.1065
 6797SOL     OW31852   0.173   0.820   1.441 -0.2957  0.2617  0.0608
 6797SOL    HW131853   0.195   0.825   1.534  2.0023 -1.8937 -0.3708
 6797SOL    HW231854   0.249   0.767   1.418 -0.1426 -0.0532  1.2463
 6798SOL     OW31855   0.611   0.845  11.552 -0.4695  0.2063 -0.4162
 6798SOL    HW131856   0.682   0.803  11.600 -2.3027 -2.1748  0.2333
 6798SOL    HW231857   0.533   0.818  11.601 -0.4625  2.2026  0.7375
 6799SOL     OW31858   0.389   2.756   7.034  0.0513  0.4059 -0.7492
 6799SOL    HW131859   0.309   2.703   7.037  0.2432  0.1300 -0.4916
 6799SOL    HW231860   0.355   2.842   7.058 -1.7781 -1.0964  2.0049
 6800SOL     OW31861   1.562   3.710   1.684  0.4167  0.0521  0.1421
 6800SOL    HW131862   1.639   3.695   1.739 -1.2335 -1.2111  2.1072
 6800SOL    HW231863   1.514   3.762   1.748  0.0665  0.3009 -0.3256
 6801SOL     OW31864   2.511   4.568   5.706 -0.1905 -0.2991 -0.8279
 6801SOL    HW131865   2.575   4.547   5.639  2.7408  1.8140  1.3284
 6801SOL    HW231866   2.534   4.650   5.750 -2.0808  0.2601 -0.8476
 6802SOL     OW31867   3.755   2.716   7.691 -0.5785 -0.2062 -0.4699
 6802SOL    HW131868   3.718   2.793   7.648  1.1341  0.9634  0.1208
 6802SOL    HW231869   3.819   2.686   7.626  0.3473 -0.5728  0.6150
 6803SOL     OW31870   4.235   1.348  13.507 -0.2754  0.1516  0.2138
 6803SOL    HW131871   4.205   1.292  13.579  0.1698 -0.8830 -0.4107
 6803SOL    HW231872   4.303   1.292  13.470 -1.1817 -0.1706 -0.9489
 6804SOL     OW31873   1.429   2.946   5.883 -0.2732 -0.2201  0.6752
 6804SOL    HW131874   1.428   2.937   5.978  0.6592  0.9648  0.7945
 6804SOL    HW231875   1.516   2.985   5.879  0.6645 -2.2719  0.8431
 6805SOL     OW31876   2.292   2.962  16.419 -0.0165  0.0105  0.6722
 6805SOL    HW131877   2.316   2.944  16.328  0.7387  0.4578  0.7780
 6805SOL    HW231878   2.199   2.937  16.420 -0.3442  1.0632 -2.6572
 6806SOL     OW31879   4.149   3.863   4.222  0.6943  0.5841 -0.7559
 6806SOL    HW131880   4.173   3.805   4.150  2.2828 -0.3615  0.5500
 6806SOL    HW231881   4.192   3.944   4.192  1.1675 -0.0845 -1.8830
 6807SOL     OW31882   1.143   4.721   3.944  0.2344  0.3653  0.6672
 6807SOL    HW131883   1.049   0.001   3.957 -0.3574 -1.2006 -3.0647
 6807SOL    HW231884   1.176   0.064   4.004  2.9235 -0.3644 -0.0024
 6808SOL     OW31885   3.532   4.462  14.303 -0.0481 -0.4351 -0.7975
 6808SOL    HW131886   3.560   4.378  14.338  0.8912 -0.1974 -0.9676
 6808SOL    HW231887   3.454   4.480  14.356  1.1199 -1.7691  1.3742
 6809SOL     OW31888   1.276   0.133  11.233  0.1112  0.0221  0.1267
 6809SOL    HW131889   1.205   0.129  11.296 -0.2816  1.1238 -0.2564
 6809SOL    HW231890   1.240   0.200  11.175  1.8845  0.4492 -0.4873
 6810SOL     OW31891   3.485   4.339   7.616 -0.3848  0.0705  0.1572
 6810SOL    HW131892   3.556   4.395   7.586  3.1316 -3.8078  1.1500
 6810SOL    HW231893   3.450   4.313   7.531  0.1494 -0.4783  0.1063
 6811SOL     OW31894   2.749   0.591   8.522  0.2498  0.0229 -0.2040
 6811SOL    HW131895   2.661   0.554   8.534  0.5036 -1.0064 -1.5716
 6811SOL    HW231896   2.788   0.574   8.608  0.2325 -1.1727 -0.4215
 6812SOL     OW31897   4.456   1.873  13.482  0.0123 -0.2938 -0.1654
 6812SOL    HW131898   4.368   1.846  13.459  0.2378 -1.2756  0.1115
 6812SOL    HW231899   4.451   1.869  13.578 -2.8683 -0.0857 -0.3248
 6813SOL     OW31900   2.310   1.509   9.604  0.2710  0.3923 -0.0873
 6813SOL    HW131901   2.281   1.505   9.513  0.6833 -0.5307 -0.1735
 6813SOL    HW231902   2.275   1.593   9.635 -1.1416  0.1736 -1.1099
 6814SOL     OW31903   1.778   0.637  17.660  0.1662 -0.6052 -0.3450
 6814SOL    HW131904   1.815   0.592  17.584 -0.3773  3.1003 -2.8248
 6814SOL    HW231905   1.786   0.565   0.025 -0.7052  0.1661  0.6819
 6815SOL     OW31906   4.259   1.788   8.662 -0.2398  0.3123  0.1186
 6815SOL    HW131907   4.224   1.708   8.622  2.7570 -0.6869 -0.5342
 6815SOL    HW231908   4.317   1.752   8.729  0.5438 -0.3302 -0.9017
 6816SOL     OW31909   0.733   0.358   1.424  0.1811 -0.3742 -0.4366
 6816SOL    HW131910   0.708   0.280   1.473  2.4416 -0.6696  0.2712
 6816SOL    HW231911   0.826   0.368   1.446 -0.0439 -1.1179  0.8455
 6817SOL     OW31912   0.012   0.703  16.850 -0.4426  0.3149 -0.1292
 6817SOL    HW131913   0.066   0.721  16.928  0.8061 -0.3646 -0.8334
 6817SOL    HW231914   4.650   0.725  16.886 -0.2142  3.2040 -1.3504
 6818SOL     OW31915   1.140   2.806  16.264  0.2970  0.1695  0.1649
 6818SOL    HW131916   1.064   2.851  16.301  1.1863  1.3895  0.5291
 6818SOL    HW231917   1.094   2.732  16.225 -1.6668  1.2896  0.3400
 6819SOL     OW31918   2.921   3.414   7.295 -0.7337  0.2940 -0.7081
 6819SOL    HW131919   2.933   3.444   7.385  2.6941  1.3733 -1.5246
 6819SOL    HW231920   2.897   3.500   7.260 -0.2276  0.7827  0.1267
 6820SOL     OW31921   1.369   3.231   2.517  0.1204  0.1421  0.4101
 6820SOL    HW131922   1.446   3.198   2.470  0.2536 -0.2716  0.9198
 6820SOL    HW231923   1.302   3.199   2.457  0.4901  0.5436 -0.2168
 6821SOL     OW31924   3.606   0.743   2.755  0.5775  0.2212 -0.2777
 6821SOL    HW131925   3.538   0.772   2.694  2.3970  1.5282 -1.6838
 6821SOL    HW231926   3.676   0.727   2.692  1.5688  0.2122  0.8275
 6822SOL     OW31927   4.136   1.059   2.994 -1.1445 -0.8198 -0.3600
 6822SOL    HW131928   4.230   1.077   2.999 -0.9426 -2.1821  0.6376
 6822SOL    HW231929   4.114   1.120   2.923  0.6293 -0.0818 -0.2932
 6823SOL     OW31930   1.919   3.074   4.712  0.1441 -0.1458 -0.3592
 6823SOL    HW131931   1.930   3.136   4.785 -1.8354 -0.1827 -0.0387
 6823SOL    HW231932   2.010   3.044   4.703  0.8149  1.2945  1.5925
 6824SOL     OW31933   3.980   0.202   1.808  0.3381  0.2641 -0.7464
 6824SOL    HW131934   4.050   0.159   1.760  0.2239  1.4185 -1.9554
 6824SOL    HW231935   4.011   0.192   1.898 -0.9226  1.6014 -0.1499
 6825SOL     OW31936   4.163   3.791   8.132  0.0325 -0.1136  0.6487
 6825SOL    HW131937   4.196   3.871   8.173  0.8293  0.6450 -1.4903
 6825SOL    HW231938   4.069   3.809   8.133  0.2319  0.9251  1.2304
 6826SOL     OW31939   0.932   0.065   3.673  0.1698 -0.1928  0.6588
 6826SOL    HW131940   0.943   0.028   3.761  0.9365 -1.8546 -0.1451
 6826SOL    HW231941   0.966   4.718   3.619 -2.2575 -0.9478  0.0899
 6827SOL     OW31942   3.036   0.680   3.923  0.9147  0.6944 -0.6375
 6827SOL    HW131943   3.106   0.631   3.878  1.5978  1.2092 -0.1319
 6827SOL    HW231944   3.011   0.732   3.847  0.1011  0.2204 -0.6929
 6828SOL     OW31945   2.118   1.994   9.434 -0.4880  0.5542 -0.0014
 6828SOL    HW131946   2.066   2.029   9.361  0.6581 -1.0624 -1.6213
 6828SOL    HW231947   2.137   1.902   9.417 -2.9691  0.1616 -0.7116
 6829SOL     OW31948   2.567   1.564   7.633  0.1847 -0.0660  0.1169
 6829SOL    HW131949   2.559   1.497   7.566  0.8800  1.0909 -1.1135
 6829SOL    HW231950   2.657   1.547   7.660  0.7269  1.3161 -0.8124
 6830SOL     OW31951   2.868   1.949   9.061 -0.0891 -0.0321  0.4087
 6830SOL    HW131952   2.916   1.974   9.140  0.7439  0.4602 -0.2538
 6830SOL    HW231953   2.862   1.853   9.061  1.6440 -0.1391  1.1148
 6831SOL     OW31954   1.664   3.699  10.454  0.7084 -0.2261  0.1477
 6831SOL    HW131955   1.669   3.734  10.366 -0.2667 -0.0662  0.1596
 6831SOL    HW231956   1.709   3.615  10.444 -1.6790 -1.4367 -0.4167
 6832SOL     OW31957   0.211   1.217   3.594 -0.4864  0.7039 -0.1630
 6832SOL    HW131958   0.243   1.158   3.526  0.4162 -0.0342  0.9005
 6832SOL    HW231959   0.297   1.252   3.618  0.9936 -2.2960 -1.0854
 6833SOL     OW31960   0.301   0.650   5.176 -0.4643  0.0976 -0.4223
 6833SOL    HW131961   0.238   0.720   5.158 -1.1996 -0.5551 -0.3920
 6833SOL    HW231962   0.277   0.623   5.265 -0.3696 -0.4168 -0.5593
 6834SOL     OW31963   1.216   2.455   7.467  0.5274  0.0056 -0.5214
 6834SOL    HW131964   1.186   2.368   7.494 -1.9201  1.0305  0.0160
 6834SOL    HW231965   1.193   2.515   7.538 -1.5623 -1.4761  0.0520
 6835SOL     OW31966   4.173   4.027   3.859 -0.2370  0.0035 -0.0060
 6835SOL    HW131967   4.245   4.056   3.915 -0.1625  0.0885 -0.1433
 6835SOL    HW231968   4.211   3.940   3.845 -1.0518 -0.6225  1.7201
 6836SOL     OW31969   0.842   4.500   4.750 -0.4702 -0.1342 -0.3176
 6836SOL    HW131970   0.885   4.508   4.665  1.4099 -0.3432  0.6167
 6836SOL    HW231971   0.771   4.446   4.715 -1.6773  0.2517  1.4815
 6837SOL     OW31972   0.041   1.935   3.665 -0.4253  0.3201 -0.0834
 6837SOL    HW131973   0.132   1.931   3.636 -0.8204 -1.3300 -1.0793
 6837SOL    HW231974   0.054   1.922   3.759  0.6989 -0.9938 -0.4175
 6838SOL     OW31975   2.439   3.454  11.623  0.5467  0.5802 -0.5808
 6838SOL    HW131976   2.472   3.396  11.691 -1.0017  0.0441 -0.2960
 6838SOL    HW231977   2.470   3.414  11.541  0.1517 -0.1703 -0.3606
 6839SOL     OW31978   2.908   0.275   7.489 -0.0676  0.5308 -0.1203
 6839SOL    HW131979   2.896   0.226   7.408  3.7627  0.9495 -0.9022
 6839SOL    HW231980   3.003   0.277   7.496 -0.2996 -0.6917  3.3800
 6840SOL     OW31981   2.650   4.159   0.968 -0.4922 -0.2255  0.6437
 6840SOL    HW131982   2.597   4.082   0.948 -1.6927  1.7224 -3.7081
 6840SOL    HW231983   2.574   4.210   0.997  0.7089 -0.2770  3.8809
 6841SOL     OW31984   3.193   2.840  16.492  0.3612  0.3668 -0.7970
 6841SOL    HW131985   3.125   2.830  16.559 -0.4842 -0.1490 -1.7396
 6841SOL    HW231986   3.142   2.865  16.416  0.7012  2.7310 -0.2547
 6842SOL     OW31987   2.399   2.052   0.236  0.3100  0.3265  0.8777
 6842SOL    HW131988   2.476   2.108   0.245  1.2469 -0.6345 -1.0709
 6842SOL    HW231989   2.432   2.008   0.157  0.9760  1.5363  0.4740
 6843SOL     OW31990   0.128   1.044  13.266 -0.4846  0.2556 -0.4070
 6843SOL    HW131991   0.091   1.122  13.307  1.2071  0.3556  0.9346
 6843SOL    HW231992   0.090   0.972  13.318 -2.3235  1.4991 -0.0417
 6844SOL     OW31993   1.202   3.872   6.011 -0.0927 -0.3532 -0.4531
 6844SOL    HW131994   1.166   3.853   5.925  1.1472 -3.6029 -0.2430
 6844SOL    HW231995   1.291   3.878   5.977 -0.0048 -0.6623 -0.2752
 6845SOL     OW31996   0.560   4.664  11.954 -0.1169  0.6596 -0.1765
 6845SOL    HW131997   0.500   4.590  11.965  0.8729  0.1818  1.9150
 6845SOL    HW231998   0.549   4.681  11.860 -0.4079 -1.1760 -0.4733
 6846SOL     OW31999   3.494   2.783   9.079 -0.0689  0.4121  0.3389
 6846SOL    HW132000   3.416   2.837   9.093 -1.7743 -1.7795 -0.6054
 6846SOL    HW232001   3.500   2.783   8.983  0.0382  0.9751  0.3496
 6847SOL     OW32002   1.761   0.452   6.943  0.4189  0.1874 -0.7960
 6847SOL    HW132003   1.732   0.362   6.962  0.4536  0.0395 -1.4629
 6847SOL    HW232004   1.851   0.452   6.975 -0.4224 -1.7921  1.6023
 6848SOL     OW32005   1.538   3.985   3.062  0.2171 -0.5856  0.1558
 6848SOL    HW132006   1.446   4.000   3.040 -0.5205 -1.0629  2.8675
 6848SOL    HW232007   1.554   3.897   3.027  0.2450 -0.5271  0.0219
 6849SOL     OW32008   0.468   0.491   3.068  0.3366  0.2218  0.4370
 6849SOL    HW132009   0.415   0.540   3.006 -0.1762 -0.3368  0.4311
 6849SOL    HW232010   0.435   0.526   3.151 -0.9158 -0.3544  0.1802
 6850SOL     OW32011   3.381   1.596   3.380 -0.0197 -0.0505  0.5690
 6850SOL    HW132012   3.310   1.532   3.374  0.7398 -0.7591 -0.8629
 6850SOL    HW232013   3.453   1.540   3.408  0.7454  1.5372  1.7842
 6851SOL     OW32014   1.609   0.892  16.278 -0.7190  0.6925 -0.2583
 6851SOL    HW132015   1.654   0.952  16.218 -1.5852  0.2006 -1.3997
 6851SOL    HW232016   1.689   0.871  16.327 -0.2221  2.0268 -0.4994
 6852SOL     OW32017   4.352   2.884   3.218  0.4271 -0.7849 -0.8134
 6852SOL    HW132018   4.265   2.861   3.184 -0.1312  1.2707 -0.8200
 6852SOL    HW232019   4.335   2.976   3.240  0.7128 -0.8613 -0.3005
 6853SOL     OW32020   0.402   3.147  16.028  0.0000 -0.0693  0.3589
 6853SOL    HW132021   0.355   3.162  15.947  1.1670  1.6237 -0.0080
 6853SOL    HW232022   0.457   3.224  16.039  1.0048 -0.8674  0.9387
 6854SOL     OW32023   2.815   1.235   4.041  0.3116  0.4052  0.1743
 6854SOL    HW132024   2.850   1.175   4.107 -2.1559  0.2903  1.3811
 6854SOL    HW232025   2.733   1.266   4.080 -1.2821 -0.5148 -2.4386
 6855SOL     OW32026   3.688   1.481  17.153 -0.4390 -0.0652 -0.1381
 6855SOL    HW132027   3.657   1.399  17.192  1.7143 -0.7897  0.0464
 6855SOL    HW232028   3.682   1.463  17.059 -1.1162  1.9141 -0.4689
 6856SOL     OW32029   0.634   0.674   5.343  0.2258  0.1792 -0.0476
 6856SOL    HW132030   0.624   0.717   5.259 -1.8809 -1.5586 -0.6938
 6856SOL    HW232031   0.614   0.742   5.408  0.6461  0.7356 -0.5150
 6857SOL     OW32032   1.767   0.165  12.707 -0.0171 -0.0403 -0.1321
 6857SOL    HW132033   1.733   0.210  12.630  3.1016 -1.9461 -2.5919
 6857SOL    HW232034   1.737   0.076  12.687  2.6347 -1.0816  0.5559
 6858SOL     OW32035   1.518   3.065   5.286  0.2370 -0.0768 -0.1293
 6858SOL    HW132036   1.579   2.994   5.305  0.6250  0.4412  0.5834
 6858SOL    HW232037   1.434   3.020   5.276  0.1900 -0.4599  2.0181
 6859SOL     OW32038   4.053   1.151   8.028 -0.6835 -0.4046 -0.1009
 6859SOL    HW132039   4.035   1.089   7.957  0.2170  1.3434 -1.8504
 6859SOL    HW232040   4.135   1.186   7.993  0.4188 -1.1052  1.7822
 6860SOL     OW32041   4.631   2.493  16.624 -0.0728  0.6360 -0.0841
 6860SOL    HW132042   4.614   2.489  16.718  1.8757 -1.4660  0.1807
 6860SOL    HW232043   4.678   2.576  16.622  0.3355  0.3051 -3.0522
 6861SOL     OW32044   1.114   3.243  14.908 -0.5090  0.6131 -0.3569
 6861SOL    HW132045   1.115   3.153  14.875 -0.3256 -0.5357  2.7069
 6861SOL    HW232046   1.053   3.272  14.841 -0.9744 -3.4250 -1.6562
 6862SOL     OW32047   2.524   2.765   3.604 -0.0917 -0.3903 -0.1052
 6862SOL    HW132048   2.487   2.706   3.669  1.1273 -1.1286 -0.0767
 6862SOL    HW232049   2.611   2.793   3.634  0.1235  0.1194 -1.1884
 6863SOL     OW32050   2.489   3.411  15.332  0.0848 -0.1687 -1.0976
 6863SOL    HW132051   2.433   3.389  15.406 -0.7265 -1.7374 -2.1752
 6863SOL    HW232052   2.570   3.447  15.367 -0.1383  0.2291 -0.9844
 6864SOL     OW32053   2.270   4.358   7.331  0.4937 -0.3324  0.0825
 6864SOL    HW132054   2.303   4.341   7.243  1.2633 -0.8676  0.4668
 6864SOL    HW232055   2.239   4.448   7.327  2.3167  0.3985  2.1713
 6865SOL     OW32056   4.323   1.217  12.860  0.1894  0.3351 -0.0244
 6865SOL    HW132057   4.292   1.129  12.840 -0.5515  0.2930  1.3917
 6865SOL    HW232058   4.409   1.221  12.817  0.2803 -0.5747  0.0642
 6866SOL     OW32059   3.545   3.953  16.682  0.2164  0.0748 -0.3275
 6866SOL    HW132060   3.626   3.959  16.734 -0.9917  1.6520  1.3920
 6866SOL    HW232061   3.570   3.872  16.638  1.4990 -1.0338  2.4052
 6867SOL     OW32062   2.871   4.401   3.410  0.6836  0.2661  0.0133
 6867SOL    HW132063   2.934   4.338   3.373  0.1616  0.0823 -0.5444
 6867SOL    HW232064   2.904   4.473   3.357  1.9778 -1.2490 -1.2285
 6868SOL     OW32065   0.208   3.768   8.352  0.3646 -0.1717 -0.1072
 6868SOL    HW132066   0.264   3.718   8.292 -0.2364 -1.0212  0.0456
 6868SOL    HW232067   0.161   3.820   8.287 -1.4391 -2.0320 -0.3028
 6869SOL     OW32068   2.417   4.424   4.495  0.1431  0.5264  0.3420
 6869SOL    HW132069   2.371   4.347   4.461  0.1533  0.5152  0.3531
 6869SOL    HW232070   2.502   4.394   4.460 -0.7795  0.6953 -2.0417
 6870SOL     OW32071   2.160   2.129   3.927 -0.6205 -0.1053 -0.9536
 6870SOL    HW132072   2.167   2.195   3.857 -0.7269 -0.2243 -1.0766
 6870SOL    HW232073   2.244   2.085   3.915 -0.1038  0.4292  0.8233
 6871SOL     OW32074   0.490   3.623   6.574 -0.6597  1.0302 -0.0390
 6871SOL    HW132075   0.494   3.673   6.493 -0.6689  0.6789 -0.2571
 6871SOL    HW232076   0.413   3.660   6.618  0.1853  2.3716  0.3091
 6872SOL     OW32077   1.499   2.957   2.626 -0.4688 -0.2860  0.2169
 6872SOL    HW132078   1.483   2.895   2.696  1.4847 -0.7234  0.2586
 6872SOL    HW232079   1.424   2.938   2.568 -0.5796 -1.5949  0.8180
 6873SOL     OW32080   1.019   4.377   2.374 -0.0288 -0.0767  0.1407
 6873SOL    HW132081   0.964   4.449   2.405  0.0085  0.4802 -1.0955
 6873SOL    HW232082   0.968   4.300   2.397 -1.6878  1.1686  0.5886
 6874SOL     OW32083   0.012   3.306   2.729  0.0829 -0.0194 -0.2921
 6874SOL    HW132084   0.084   3.367   2.715  0.0327  0.2943  0.8327
 6874SOL    HW232085   4.706   3.313   2.638  0.7265 -0.3259 -0.5269
 6875SOL     OW32086   3.161   3.387   6.531 -0.0994 -0.7242  0.0155
 6875SOL    HW132087   3.123   3.474   6.522  1.0126 -0.2908 -0.4613
 6875SOL    HW232088   3.094   3.325   6.561 -1.2800  1.9951  3.0195
 6876SOL     OW32089   1.885   1.104   3.293  0.0889  0.1738  0.3110
 6876SOL    HW132090   1.916   1.052   3.219  0.1222  0.2167  0.2951
 6876SOL    HW232091   1.822   1.165   3.253 -0.1854 -0.7669 -0.6818
 6877SOL     OW32092   1.393   1.604   4.116 -0.4796 -0.4254 -0.3028
 6877SOL    HW132093   1.302   1.575   4.121 -0.9435  1.3945  1.7529
 6877SOL    HW232094   1.393   1.696   4.143  2.0397 -0.2721 -0.8029
 6878SOL     OW32095   1.090   0.135   8.887  0.2068  0.5102 -0.1558
 6878SOL    HW132096   1.139   0.203   8.840  0.4849  2.0434  2.3189
 6878SOL    HW232097   1.036   0.110   8.812 -0.0433 -1.1241  0.5671
 6879SOL     OW32098   4.530   1.469  13.674  0.7131  0.0159 -0.0305
 6879SOL    HW132099   4.522   1.502  13.763  1.1528 -0.8055  0.3141
 6879SOL    HW232100   4.512   1.376  13.689 -0.8653  0.0222 -1.8801
 6880SOL     OW32101   0.555   3.737   3.332 -0.1852  0.2785  0.3421
 6880SOL    HW132102   0.592   3.704   3.414  0.2276  1.1088  0.4831
 6880SOL    HW232103   0.501   3.812   3.355 -2.3102 -1.0333 -0.3527
 6881SOL     OW32104   3.183   2.284   5.685 -0.0668  0.1916  0.4269
 6881SOL    HW132105   3.093   2.279   5.715  0.4545 -1.9158  1.6069
 6881SOL    HW232106   3.205   2.195   5.657  1.2816  0.9146 -0.8093
 6882SOL     OW32107   0.469   4.307  16.386  0.2686 -0.0779  0.1116
 6882SOL    HW132108   0.421   4.244  16.440  0.2539  1.3245  1.7326
 6882SOL    HW232109   0.557   4.271  16.391 -0.2957 -1.7288 -1.4032
 6883SOL     OW32110   2.640   0.696   0.247  0.1526 -0.4309  0.5892
 6883SOL    HW132111   2.729   0.693   0.282  0.2430  1.1541  0.4615
 6883SOL    HW232112   2.602   0.750   0.316  0.1815  0.5479 -0.1804
 6884SOL     OW32113   1.331   0.102   8.674 -0.8389 -0.1084  0.1944
 6884SOL    HW132114   1.347   0.175   8.734 -0.2298  0.2376 -0.3961
 6884SOL    HW232115   1.417   0.101   8.631 -0.7465  3.3497  0.3525
 6885SOL     OW32116   3.073   4.169   1.013  0.2519  0.1724  0.1739
 6885SOL    HW132117   2.991   4.212   0.988  0.6774  0.3537 -0.9256
 6885SOL    HW232118   3.125   4.172   0.933  1.5659 -0.0128  1.0145
 6886SOL     OW32119   3.872   2.304   6.829  0.4469 -0.0662  0.1351
 6886SOL    HW132120   3.912   2.384   6.796  0.0880 -0.1142 -0.4199
 6886SOL    HW232121   3.811   2.324   6.901 -0.4061  1.0517 -0.9020
 6887SOL     OW32122   2.883   1.797   3.937  0.6219  0.1894  0.2547
 6887SOL    HW132123   2.892   1.885   3.900 -1.6260 -0.2873 -1.4441
 6887SOL    HW232124   2.800   1.790   3.985  1.0814 -2.5130  0.6351
 6888SOL     OW32125   2.589   2.759   5.160 -0.2406 -0.1759  0.4095
 6888SOL    HW132126   2.657   2.826   5.151 -0.3359 -0.2378 -0.8512
 6888SOL    HW232127   2.559   2.769   5.250 -0.6612 -0.2843  0.2821
 6889SOL     OW32128   0.662   1.835   4.931 -0.0242 -0.7858  0.3308
 6889SOL    HW132129   0.721   1.900   4.969 -0.8766 -0.9402  1.9168
 6889SOL    HW232130   0.719   1.809   4.858 -0.6118 -1.8915  0.2710
 6890SOL     OW32131   2.384   3.996   4.061 -0.0274  0.2359  0.4308
 6890SOL    HW132132   2.381   4.056   3.986 -0.4603  1.3646  1.3520
 6890SOL    HW232133   2.390   3.915   4.011 -0.4159 -0.8973  2.1999
 6891SOL     OW32134   3.047   4.666   4.129 -0.1076  0.5712 -0.4267
 6891SOL    HW132135   3.018   4.603   4.195  0.4025 -0.1168 -0.8577
 6891SOL    HW232136   3.045   4.599   4.061 -1.4042 -1.3225  1.4948
 6892SOL     OW32137   4.631   2.886  16.390 -0.9431 -0.4771 -0.1089
 6892SOL    HW132138   4.611   2.799  16.356  1.6874 -1.2968  0.4621
 6892SOL    HW232139   4.546   2.930  16.393 -0.5107  0.3782 -0.7863
 6893SOL     OW32140   3.450   4.465  15.626 -0.3274  0.1688 -0.2146
 6893SOL    HW132141   3.368   4.439  15.585  1.7513 -4.1246 -1.5386
 6893SOL    HW232142   3.434   4.424  15.711  0.4597 -0.0609 -0.1829
 6894SOL     OW32143   2.617   0.392   8.816  0.3564 -0.2450 -0.2345
 6894SOL    HW132144   2.679   0.382   8.744  1.4717  3.1166  0.2727
 6894SOL    HW232145   2.584   0.481   8.809 -1.5107 -0.7631  1.9238
 6895SOL     OW32146   1.530   4.292   6.476 -0.0479  0.0472  0.0452
 6895SOL    HW132147   1.517   4.219   6.537 -3.1637 -1.2741 -2.1846
 6895SOL    HW232148   1.450   4.290   6.424 -1.6517  2.4343  2.4749
 6896SOL     OW32149   3.207   2.765   3.998 -0.0442  0.5165  0.1705
 6896SOL    HW132150   3.187   2.809   3.915 -1.4389  1.4835  1.0112
 6896SOL    HW232151   3.300   2.746   3.997  0.3147  2.1964  1.8027
 6897SOL     OW32152   0.629   1.470  12.194 -0.4011  0.3111  0.3375
 6897SOL    HW132153   0.611   1.560  12.167 -3.3642 -0.1839  0.7128
 6897SOL    HW232154   0.587   1.481  12.279  1.2418  1.3119  1.0308
 6898SOL     OW32155   1.899   4.287   6.810  0.1071 -0.0585  0.3147
 6898SOL    HW132156   1.933   4.266   6.723 -3.2090  0.0987 -0.9902
 6898SOL    HW232157   1.808   4.262   6.799 -0.3345  0.6833  2.2605
 6899SOL     OW32158   1.199   4.610   6.412 -0.4228  0.4968 -0.6660
 6899SOL    HW132159   1.123   4.665   6.396 -1.2706 -0.9054 -1.4377
 6899SOL    HW232160   1.225   4.601   6.320  1.7135 -0.8986  0.0806
 6900SOL     OW32161   2.926   3.134   3.819  0.2911  0.8072 -0.0209
 6900SOL    HW132162   3.000   3.171   3.868  0.8579 -0.2044 -0.1232
 6900SOL    HW232163   2.953   3.156   3.729 -1.1895  1.8145 -0.2198
 6901SOL     OW32164   3.121   2.529  13.539  0.0067 -0.1738 -0.0065
 6901SOL    HW132165   3.175   2.608  13.551  0.4997 -0.6695  1.0654
 6901SOL    HW232166   3.090   2.512  13.628 -1.8955 -0.8788 -0.8316
 6902SOL     OW32167   0.584   3.529   7.783  0.2634 -0.4119  0.2676
 6902SOL    HW132168   0.676   3.537   7.806  0.0071  0.5819  0.9305
 6902SOL    HW232169   0.562   3.619   7.760  0.2468 -0.7418 -0.9966
 6903SOL     OW32170   0.528   0.331   0.320  0.4323  0.1408 -0.3265
 6903SOL    HW132171   0.450   0.384   0.336 -1.4977 -3.8358  3.7282
 6903SOL    HW232172   0.593   0.386   0.364  0.9318  0.1590 -1.0930
 6904SOL     OW32173   4.069   0.646   4.768  0.3482 -0.1438  0.2743
 6904SOL    HW132174   4.018   0.727   4.777  3.1309  1.8134 -1.5357
 6904SOL    HW232175   4.147   0.666   4.820  1.5543 -1.1058 -1.1719
 6905SOL     OW32176   2.012   1.972   6.743 -0.6712 -0.6770  0.1847
 6905SOL    HW132177   1.995   1.878   6.743  1.3070 -1.0304  1.0495
 6905SOL    HW232178   1.992   1.995   6.834 -1.5917 -1.1531  0.0976
 6906SOL     OW32179   3.085   0.065   2.530  0.3607  0.0571 -0.2293
 6906SOL    HW132180   3.057   4.697   2.527 -1.2756  0.5086  1.4851
 6906SOL    HW232181   3.088   0.081   2.625 -2.3167 -0.8588 -0.0081
 6907SOL     OW32182   1.590   2.311   5.836 -0.1631 -0.3962 -0.3150
 6907SOL    HW132183   1.640   2.246   5.787  0.4923 -1.0750  1.2458
 6907SOL    HW232184   1.509   2.295   5.787 -0.0534  1.1804 -0.9989
 6908SOL     OW32185   4.261   2.766   4.943  0.1860 -0.4215  0.7794
 6908SOL    HW132186   4.204   2.738   5.015 -1.1912 -0.5204 -0.3431
 6908SOL    HW232187   4.280   2.679   4.908 -2.6854 -1.6980  2.3511
 6909SOL     OW32188   0.140   1.244  15.444  0.5040 -0.0736 -0.0363
 6909SOL    HW132189   0.076   1.306  15.410  2.7735  1.2071 -1.9883
 6909SOL    HW232190   0.199   1.236  15.369 -0.1072  0.8602 -0.6012
 6910SOL     OW32191   4.244   3.040   4.042  0.2780  0.2333 -0.4395
 6910SOL    HW132192   4.233   2.968   4.104  1.8109  0.9528  0.6652
 6910SOL    HW232193   4.203   3.008   3.962 -0.0488 -1.3795  0.3727
 6911SOL     OW32194   1.771   0.973  10.911 -0.1315  0.0164  0.8815
 6911SOL    HW132195   1.727   1.052  10.944  2.6351  1.7553  0.4575
 6911SOL    HW232196   1.847   1.009  10.866 -1.9934  2.0782 -0.6396
 6912SOL     OW32197   0.316   3.343   9.637  0.1083  0.2000  0.3498
 6912SOL    HW132198   0.389   3.373   9.692  0.4185 -0.8127  0.4939
 6912SOL    HW232199   0.249   3.358   9.704 -1.6241  0.7704 -1.5154
 6913SOL     OW32200   4.166   0.266   3.215  0.4813 -0.0688  0.2781
 6913SOL    HW132201   4.145   0.352   3.253 -1.3002 -1.1736  1.7560
 6913SOL    HW232202   4.248   0.261   3.264  1.6864  0.2314 -1.6948
 6914SOL     OW32203   0.624   1.023  14.872  0.1107 -0.0645  0.0889
 6914SOL    HW132204   0.712   1.014  14.835  0.1753  2.2712 -0.3485
 6914SOL    HW232205   0.581   1.027  14.787 -0.1511 -1.6461  0.1516
 6915SOL     OW32206   0.418   1.558   7.424  1.0613 -0.0921 -0.0753
 6915SOL    HW132207   0.368   1.480   7.445  0.4802  0.7534  1.6996
 6915SOL    HW232208   0.505   1.520   7.414  0.8750 -0.4375 -0.3568
 6916SOL     OW32209   3.296   3.501  14.772 -0.1160  0.1123  0.1632
 6916SOL    HW132210   3.245   3.540  14.700  0.9384 -2.6531 -2.0733
 6916SOL    HW232211   3.335   3.426  14.726 -0.1679 -0.4045  0.9687
 6917SOL     OW32212   0.718   1.955  17.359 -0.3274 -0.3351  0.5771
 6917SOL    HW132213   0.705   1.893  17.287  2.9144  1.2887 -1.4173
 6917SOL    HW232214   0.785   1.907  17.408 -1.1214 -0.2950  1.6942
 6918SOL     OW32215   0.023   3.800   6.203  0.5554 -0.0435  0.3936
 6918SOL    HW132216   4.656   3.776   6.218  0.4486  0.6777  0.8821
 6918SOL    HW232217   0.070   3.750   6.270  1.7562  0.3800 -0.1271
 6919SOL     OW32218   2.299   2.788   4.571 -0.2461  0.1415 -1.1760
 6919SOL    HW132219   2.230   2.722   4.577  0.3907 -0.3869  0.3518
 6919SOL    HW232220   2.364   2.722   4.549  0.7111  0.4629  0.7407
 6920SOL     OW32221   4.402   4.254   8.755 -0.3220 -0.0993 -0.2069
 6920SOL    HW132222   4.316   4.294   8.747  0.3594  1.6070  0.9474
 6920SOL    HW232223   4.390   4.183   8.818  1.1393 -0.6219 -0.5253
 6921SOL     OW32224   1.092   2.495   4.161  0.5403  0.1313  0.6746
 6921SOL    HW132225   1.016   2.534   4.204 -1.6954 -1.6245 -1.6646
 6921SOL    HW232226   1.096   2.542   4.078  1.2800  0.2849  0.7965
 6922SOL     OW32227   0.800   0.391   8.695 -0.3090 -0.1672 -0.2181
 6922SOL    HW132228   0.725   0.450   8.684 -0.4932 -0.4075 -0.2444
 6922SOL    HW232229   0.871   0.452   8.718 -0.6564 -0.1903  0.8829
 6923SOL     OW32230   3.390   1.630   7.502  0.0731  0.2926  0.2512
 6923SOL    HW132231   3.398   1.725   7.508  0.5438  0.2080  1.0125
 6923SOL    HW232232   3.441   1.594   7.574 -0.1122  0.4765  0.4735
 6924SOL     OW32233   4.203   2.693   8.301 -0.2388  0.4010  0.4214
 6924SOL    HW132234   4.248   2.646   8.372  2.4229  1.1018 -0.8257
 6924SOL    HW232235   4.140   2.625   8.277  0.2403 -0.6306  2.0662
 6925SOL     OW32236   0.034   1.778   5.306 -0.0834 -0.3230  0.3422
 6925SOL    HW132237   0.125   1.808   5.302 -0.6710  1.8287  2.7042
 6925SOL    HW232238   4.702   1.852   5.330  1.2938  0.9281 -0.3225
 6926SOL     OW32239   1.017   2.659   7.711 -0.2831  0.4234  0.3945
 6926SOL    HW132240   1.105   2.667   7.749 -0.0185 -0.1030 -0.1067
 6926SOL    HW232241   1.013   2.753   7.693 -0.1938  0.4657  0.6038
 6927SOL     OW32242   3.385   3.745   5.634 -0.3381 -0.2288  0.0801
 6927SOL    HW132243   3.426   3.753   5.720 -1.4139 -2.6608  0.8275
 6927SOL    HW232244   3.341   3.828   5.617  1.5837  0.8024  0.1590
 6928SOL     OW32245   0.867   2.560   9.094  0.1013  0.6146 -0.0952
 6928SOL    HW132246   0.870   2.648   9.132  0.9889 -0.2406  1.8251
 6928SOL    HW232247   0.893   2.508   9.170  1.0140  1.4657  0.1746
 6929SOL     OW32248   0.624   0.857  11.892 -0.1560 -0.3040 -0.1109
 6929SOL    HW132249   0.561   0.916  11.849 -0.9837 -1.9253 -1.1177
 6929SOL    HW232250   0.668   0.921  11.949  0.3187  0.1417 -0.9651
 6930SOL     OW32251   1.308   4.496  14.517  0.3980  0.0428 -0.1278
 6930SOL    HW132252   1.309   4.455  14.430 -2.5085 -1.5855  0.5861
 6930SOL    HW232253   1.236   4.439  14.548  0.4873  0.1061  0.1956
 6931SOL     OW32254   2.501   0.619   2.153 -0.1292 -0.6681  0.1086
 6931SOL    HW132255   2.414   0.608   2.116  1.0909 -1.7315 -2.4476
 6931SOL    HW232256   2.528   0.695   2.100  1.4510 -0.5329  1.1043
 6932SOL     OW32257   2.749   0.586   1.918 -0.4169  0.4504  0.1220
 6932SOL    HW132258   2.773   0.635   1.839 -0.2507  0.9412  0.4718
 6932SOL    HW232259   2.685   0.653   1.944 -0.3637  0.7996 -0.6546
 6933SOL     OW32260   0.153   3.655   6.418  0.0514  0.0811  0.2207
 6933SOL    HW132261   0.187   3.566   6.408 -0.8261 -0.0556 -1.5143
 6933SOL    HW232262   0.148   3.651   6.514  2.8407 -1.3086  0.3221
 6934SOL     OW32263   0.938   2.157   3.366 -0.5863  0.3616  0.0243
 6934SOL    HW132264   0.982   2.222   3.421 -1.8895  1.6111 -0.4123
 6934SOL    HW232265   1.017   2.112   3.337  0.4948  2.3047  0.0090
 6935SOL     OW32266   3.476   1.715   4.865 -0.1789 -0.3575 -0.7367
 6935SOL    HW132267   3.508   1.788   4.812  0.0393  0.1641  0.1010
 6935SOL    HW232268   3.456   1.652   4.796 -0.1892 -1.7573  0.5411
 6936SOL     OW32269   0.659   4.198   6.236  0.4346  0.3276  0.1353
 6936SOL    HW132270   0.731   4.164   6.289  1.0359  2.4333  0.6771
 6936SOL    HW232271   0.606   4.122   6.212 -0.5043  1.8235 -2.6171
 6937SOL     OW32272   2.855   1.702   1.383  0.4157  0.4205 -0.4027
 6937SOL    HW132273   2.846   1.607   1.392  0.5689  0.2865 -1.6233
 6937SOL    HW232274   2.948   1.715   1.365  0.4249  0.8935 -0.0175
 6938SOL     OW32275   1.510   3.063  14.727  0.0387  0.5624 -0.5787
 6938SOL    HW132276   1.529   3.156  14.740  0.3254  0.2067  1.5026
 6938SOL    HW232277   1.447   3.050  14.798  0.1887  1.8188 -0.2038
 6939SOL     OW32278   3.205   0.029   8.040 -0.2732 -0.1921 -0.5730
 6939SOL    HW132279   3.170   0.077   8.115  3.2187  3.7243 -1.5081
 6939SOL    HW232280   3.169   0.078   7.966 -1.9909 -0.2375  0.2252
 6940SOL     OW32281   1.261   0.915   8.024  0.2737 -0.2055  0.4469
 6940SOL    HW132282   1.345   0.912   8.070  0.8704  3.6761 -0.3305
 6940SOL    HW232283   1.273   0.847   7.958  0.0152  0.3352 -0.1593
 6941SOL     OW32284   0.975   0.689   2.419 -0.3340  0.3745  0.2725
 6941SOL    HW132285   0.986   0.765   2.362 -1.2283  1.4101  1.4714
 6941SOL    HW232286   0.891   0.647   2.398  0.5930 -0.8380 -0.9726
 6942SOL     OW32287   1.228   2.731   4.322  0.0603  0.2666  0.3760
 6942SOL    HW132288   1.282   2.656   4.344  1.8808  1.3864 -0.2310
 6942SOL    HW232289   1.261   2.755   4.235  0.4772 -0.6002  0.2973
 6943SOL     OW32290   2.163   2.687  12.152  0.6627  0.1189 -0.5291
 6943SOL    HW132291   2.193   2.703  12.241 -1.4200 -2.2481  0.5903
 6943SOL    HW232292   2.253   2.677  12.121  1.6887  2.6572  1.5729
 6944SOL     OW32293   1.893   0.217  11.202 -0.4584 -0.2005 -0.4434
 6944SOL    HW132294   1.841   0.196  11.279 -0.3715 -0.9960 -0.6016
 6944SOL    HW232295   1.877   0.140  11.148 -2.5599  0.6029 -0.9638
 6945SOL     OW32296   4.470   2.227   2.240 -0.2236  0.1094 -0.0231
 6945SOL    HW132297   4.474   2.133   2.256  0.2713  0.0443 -0.5343
 6945SOL    HW232298   4.441   2.265   2.323 -0.6993  3.4561 -1.7010
 6946SOL     OW32299   1.013   0.385   6.201 -0.5686  0.0230  0.0209
 6946SOL    HW132300   1.073   0.311   6.202 -0.6465 -0.0425 -0.1356
 6946SOL    HW232301   1.025   0.417   6.112 -1.9771  1.8066  0.4438
 6947SOL     OW32302   3.981   1.263   9.064  0.1190 -0.4870 -0.2633
 6947SOL    HW132303   3.929   1.343   9.057 -0.4488 -0.9027 -0.7298
 6947SOL    HW232304   4.038   1.291   9.136 -1.0706 -1.7392  1.1453
 6948SOL     OW32305   0.050   3.670  11.369 -0.5252  0.0268  0.0631
 6948SOL    HW132306   0.080   3.589  11.411 -0.9674  0.6775  1.6270
 6948SOL    HW232307   0.066   3.727  11.445 -1.0261  0.2681 -0.0119
 6949SOL     OW32308   0.726   3.437   6.838 -0.1568 -0.0455 -0.1519
 6949SOL    HW132309   0.691   3.377   6.904 -0.8277  1.9191  1.2888
 6949SOL    HW232310   0.683   3.397   6.763  0.4376 -0.3703 -0.3148
 6950SOL     OW32311   2.332   0.605  13.765  0.5892 -0.9679  0.0285
 6950SOL    HW132312   2.331   0.640  13.854 -0.7202 -0.7193 -0.0815
 6950SOL    HW232313   2.376   0.520  13.768  0.2491 -1.1617 -0.4177
 6951SOL     OW32314   1.945   4.209  15.320  0.7141 -0.1913 -0.0586
 6951SOL    HW132315   1.936   4.141  15.253 -2.0512  0.5572 -0.4655
 6951SOL    HW232316   1.980   4.277  15.262 -0.7596 -1.0164 -1.9193
 6952SOL     OW32317   3.174   2.669   3.389 -0.1090  0.0213 -0.7437
 6952SOL    HW132318   3.168   2.765   3.393  0.2868  0.0095  0.1212
 6952SOL    HW232319   3.086   2.646   3.358 -1.4487  0.9168  2.3749
 6953SOL     OW32320   2.222   1.501   4.034 -0.0304 -0.0055  0.8098
 6953SOL    HW132321   2.299   1.485   3.979 -2.3215 -1.0729 -2.1059
 6953SOL    HW232322   2.205   1.408   4.051 -2.1543  0.0597 -0.9894
 6954SOL     OW32323   1.700   3.027   1.828 -0.0840  0.1001  0.3587
 6954SOL    HW132324   1.621   3.043   1.879 -0.2972 -1.2928  0.4612
 6954SOL    HW232325   1.708   3.106   1.773  0.0681 -0.3208 -0.2268
 6955SOL     OW32326   4.605   1.978   0.696 -0.2879  0.3294 -0.2556
 6955SOL    HW132327   4.529   1.919   0.705  0.5341 -0.0652  4.1244
 6955SOL    HW232328   4.585   2.028   0.617  1.3537 -0.8708 -1.4448
 6956SOL     OW32329   3.080   4.331   8.489  0.5310 -0.1154 -0.2512
 6956SOL    HW132330   3.003   4.329   8.433 -1.3893  0.4322  2.3655
 6956SOL    HW232331   3.147   4.372   8.434 -0.2027  0.7837 -0.4561
 6957SOL     OW32332   4.111   0.895   2.101 -0.0159 -0.4396 -0.1858
 6957SOL    HW132333   4.181   0.955   2.127 -0.8256 -0.2674  1.6377
 6957SOL    HW232334   4.156   0.846   2.033  1.2809 -1.3064  1.2793
 6958SOL     OW32335   3.601   4.159   7.178 -0.2266  0.5056 -0.2138
 6958SOL    HW132336   3.559   4.244   7.162  1.4171  1.3426 -0.1468
 6958SOL    HW232337   3.601   4.120   7.090 -1.2742 -0.8242  0.3911
 6959SOL     OW32338   4.110   3.999   3.104 -0.9832 -0.3591  0.2245
 6959SOL    HW132339   4.199   3.969   3.118 -0.6035  0.5208 -0.2650
 6959SOL    HW232340   4.051   3.925   3.117 -1.5157  0.0254  0.0246
 6960SOL     OW32341   0.024   2.983  12.080  0.4729  0.1640  0.1999
 6960SOL    HW132342   4.664   2.990  12.126  0.4568  0.4756  0.1207
 6960SOL    HW232343   0.082   2.959  12.152  0.3983 -1.6771 -0.3462
 6961SOL     OW32344   1.805   2.328   6.832 -0.1376  0.4142  0.4897
 6961SOL    HW132345   1.809   2.233   6.840 -0.9984  0.5006  2.0386
 6961SOL    HW232346   1.713   2.345   6.854 -1.2651 -2.9489 -1.6678
 6962SOL     OW32347   1.464   3.916   0.038 -0.1715  0.0226 -0.1872
 6962SOL    HW132348   1.470   3.890  17.643  6.3323  1.9141 -0.2732
 6962SOL    HW232349   1.383   3.881   0.076 -0.0796 -0.0618 -0.0727
 6963SOL     OW32350   3.301   2.087   4.150 -0.3695  0.0873 -0.6742
 6963SOL    HW132351   3.217   2.041   4.161  0.0469 -0.6787 -0.7234
 6963SOL    HW232352   3.312   2.067   4.057  1.3591  0.9599 -0.6548
 6964SOL     OW32353   2.480   0.011   6.784 -1.0109 -0.2727 -0.1765
 6964SOL    HW132354   2.497   0.069   6.859  0.7151 -1.6289  0.4933
 6964SOL    HW232355   2.549   0.034   6.721  0.7729 -2.5478  0.9586
 6965SOL     OW32356   2.797   0.432   6.219  0.4671  0.5409 -0.0438
 6965SOL    HW132357   2.828   0.441   6.129  0.2654 -0.9243 -0.2673
 6965SOL    HW232358   2.832   0.510   6.262  1.6920  0.7131 -1.3594
 6966SOL     OW32359   3.779   1.019   3.830 -0.1427  0.0249 -0.1691
 6966SOL    HW132360   3.770   0.933   3.790  0.3148  0.2260 -0.6962
 6966SOL    HW232361   3.694   1.039   3.868 -0.1480 -3.1530  1.5682
 6967SOL     OW32362   1.359   3.004   6.161  0.7644  0.6751 -0.7417
 6967SOL    HW132363   1.340   2.911   6.169  0.9794  0.7566  0.6149
 6967SOL    HW232364   1.330   3.029   6.249  0.3016 -1.7893 -0.1993
 6968SOL     OW32365   4.104   0.561   6.938  0.2661 -0.0390 -0.0707
 6968SOL    HW132366   4.187   0.547   6.893 -0.3092  0.1292 -1.1837
 6968SOL    HW232367   4.123   0.648   6.974  0.6092 -0.5774  1.0477
 6969SOL     OW32368   1.894   1.923   1.015  0.2057  0.3596  0.9581
 6969SOL    HW132369   1.810   1.880   1.032 -0.4483  1.4092  0.3889
 6969SOL    HW232370   1.918   1.882   0.932 -1.5862  0.4511  0.4065
 6970SOL     OW32371   0.680   3.983   7.686  0.8650  0.6106 -0.1767
 6970SOL    HW132372   0.723   4.016   7.608  1.7617  0.8170  0.4049
 6970SOL    HW232373   0.750   4.001   7.749 -0.6944 -2.7602  2.5671
 6971SOL     OW32374   3.935   3.691  12.979 -0.1085  0.2791  0.3440
 6971SOL    HW132375   3.890   3.626  13.034  2.0088  1.2172  3.1651
 6971SOL    HW232376   3.960   3.639  12.903 -2.0355 -0.5691  0.2666
 6972SOL     OW32377   1.903   2.189   8.038 -0.2714  0.0373 -0.5435
 6972SOL    HW132378   1.871   2.239   7.962 -0.5423 -0.2103 -0.5925
 6972SOL    HW232379   1.876   2.101   8.011 -1.5141  0.1511  0.3636
 6973SOL     OW32380   0.475   4.499   6.728  0.1261 -0.5129 -0.6040
 6973SOL    HW132381   0.381   4.498   6.745 -0.1325 -0.5196 -2.0854
 6973SOL    HW232382   0.482   4.406   6.706 -2.7349 -0.8629  0.0332
 6974SOL     OW32383   2.209   0.340   2.516 -0.0357  0.2113  0.1488
 6974SOL    HW132384   2.290   0.383   2.488  0.5277 -1.9575 -1.5730
 6974SOL    HW232385   2.235   0.248   2.522 -1.4505  0.0055  3.5570
 6975SOL     OW32386   2.696   0.060  13.494 -0.2356  0.6944  0.1336
 6975SOL    HW132387   2.699   0.105  13.579 -2.1206 -0.5957  0.8840
 6975SOL    HW232388   2.625   4.720  13.509  0.3127 -0.1395 -0.8338
 6976SOL     OW32389   4.178   0.726  13.062 -0.6579  0.2728  0.3864
 6976SOL    HW132390   4.158   0.660  13.129 -0.4786 -0.9568 -0.7693
 6976SOL    HW232391   4.113   0.795  13.075  1.3116  2.3133 -0.6806
 6977SOL     OW32392   2.222   2.803   6.472 -0.1717 -0.0734 -0.7688
 6977SOL    HW132393   2.193   2.713   6.486 -2.8957  0.8648 -0.3156
 6977SOL    HW232394   2.196   2.816   6.380 -3.2803  1.7637  0.3785
 6978SOL     OW32395   0.569   0.759   5.093  0.3147 -0.3664  0.0343
 6978SOL    HW132396   0.493   0.712   5.127 -0.4004  1.1290  0.4962
 6978SOL    HW232397   0.529   0.784   5.010  0.7254  1.2550  0.3167
 6979SOL     OW32398   1.871   2.564   3.089 -0.2148 -0.7837  0.0269
 6979SOL    HW132399   1.887   2.653   3.121  0.9714 -0.8503 -0.3763
 6979SOL    HW232400   1.960   2.530   3.077 -0.5417 -0.6050 -2.9079
 6980SOL     OW32401   3.550   3.723  16.193  0.0786  0.5486  0.5184
 6980SOL    HW132402   3.493   3.761  16.260  1.5833 -2.9679  3.8013
 6980SOL    HW232403   3.639   3.756  16.206 -0.8119  2.5483  1.5924
 6981SOL     OW32404   3.619   4.474   2.306  0.3491 -0.1984  0.3338
 6981SOL    HW132405   3.536   4.484   2.353 -0.1452 -0.0467 -0.5723
 6981SOL    HW232406   3.580   4.451   2.222  3.1803  0.2214 -1.0845
 6982SOL     OW32407   3.014   3.281   2.637 -0.0001  0.7881 -0.0110
 6982SOL    HW132408   3.018   3.365   2.591 -0.8469  0.2339 -1.0938
 6982SOL    HW232409   3.015   3.320   2.725 -0.5412  0.5371  0.1075
 6983SOL     OW32410   2.652   4.577   9.406  0.2439  0.2413 -0.2386
 6983SOL    HW132411   2.734   4.578   9.456  1.3081  0.3040 -1.9550
 6983SOL    HW232412   2.629   4.669   9.418 -1.2238  0.1992 -2.7619
 6984SOL     OW32413   3.086   2.823   6.468 -0.2348 -0.1136 -0.0035
 6984SOL    HW132414   3.061   2.814   6.377  0.0763  0.0875 -0.1106
 6984SOL    HW232415   3.142   2.900   6.459  2.7458 -2.2333  0.0963
 6985SOL     OW32416   4.197   3.906   7.571  0.3679 -0.0369  0.3480
 6985SOL    HW132417   4.181   3.993   7.609 -1.3220  0.9927 -2.7301
 6985SOL    HW232418   4.194   3.846   7.646  0.8611  1.2056  1.3653
 6986SOL     OW32419   0.089   3.019  13.042 -0.1489  0.2744 -0.2769
 6986SOL    HW132420   0.155   3.079  13.009  1.1427 -0.2674  1.3070
 6986SOL    HW232421   0.131   2.985  13.121 -2.0069 -1.5067 -0.0440
 6987SOL     OW32422   2.386   3.469   8.371 -0.2708  0.3844 -0.3114
 6987SOL    HW132423   2.376   3.432   8.459  1.4026 -1.3106 -0.8547
 6987SOL    HW232424   2.333   3.410   8.318 -0.5222 -0.5452  0.9779
 6988SOL     OW32425   0.794   0.764  11.713  0.5645 -0.5540 -0.2094
 6988SOL    HW132426   0.726   0.786  11.777  0.4887 -0.4786 -0.3151
 6988SOL    HW232427   0.872   0.812  11.742  0.1731 -1.5762  2.5386
 6989SOL     OW32428   1.282   2.319  12.447 -0.3320  0.1996 -0.5159
 6989SOL    HW132429   1.365   2.273  12.440  0.7172  2.0983 -0.5482
 6989SOL    HW232430   1.249   2.279  12.528 -0.2099 -1.7812 -1.4695
 6990SOL     OW32431   3.445   2.935  13.944  0.0466  0.3726  0.7247
 6990SOL    HW132432   3.515   2.988  13.906  1.7032 -1.4722  1.2240
 6990SOL    HW232433   3.456   2.849  13.903  0.7263  0.8861 -0.1692
 6991SOL     OW32434   1.732   0.936   4.378 -0.0763  0.2778 -0.0307
 6991SOL    HW132435   1.765   0.995   4.310 -0.3774  1.5765  0.9539
 6991SOL    HW232436   1.780   0.968   4.454 -1.6252 -0.4042  1.2595
 6992SOL     OW32437   1.640   0.743  11.659  0.0922  0.0548 -0.3797
 6992SOL    HW132438   1.675   0.830  11.640 -2.5679  0.9895 -0.9942
 6992SOL    HW232439   1.621   0.747  11.753  0.9181  0.0302 -0.2110
 6993SOL     OW32440   1.087   1.369   2.158 -0.1457  0.5674 -0.5032
 6993SOL    HW132441   1.034   1.357   2.080 -0.1646  2.7265 -0.8125
 6993SOL    HW232442   1.069   1.458   2.187 -1.5026 -0.7765  2.8373
 6994SOL     OW32443   3.589   2.561  13.650  0.4457  0.5580  0.2246
 6994SOL    HW132444   3.636   2.525  13.575 -0.8105 -4.7286  1.9481
 6994SOL    HW232445   3.652   2.528  13.714  2.5129  1.4306 -1.3615
 6995SOL     OW32446   1.374   0.595   4.034  0.0947 -0.4711 -0.1582
 6995SOL    HW132447   1.379   0.512   3.986  2.0234 -0.6183  0.2713
 6995SOL    HW232448   1.464   0.625   4.020 -0.0056  0.9104  2.1239
 6996SOL     OW32449   1.630   4.166   1.193  0.1142 -0.0611 -0.1388
 6996SOL    HW132450   1.689   4.242   1.186 -0.3918  0.2828 -0.7031
 6996SOL    HW232451   1.541   4.200   1.203 -0.2920 -1.0633 -0.3517
 6997SOL     OW32452   2.752   4.081   5.806 -0.5626 -0.3152 -0.1794
 6997SOL    HW132453   2.820   4.072   5.873 -0.8416  1.5459  0.3499
 6997SOL    HW232454   2.727   3.992   5.781  2.1593 -1.2017  0.2499
 6998SOL     OW32455   2.706   4.477   7.862 -0.3368 -0.3925  0.2149
 6998SOL    HW132456   2.661   4.444   7.784 -1.0100  1.2666 -0.0996
 6998SOL    HW232457   2.655   4.557   7.872  1.2477  0.7549 -1.1614
 6999SOL     OW32458   1.158   0.874   7.154 -0.3726 -0.0686  0.1906
 6999SOL    HW132459   1.235   0.854   7.101  0.8271  2.0154  1.1302
 6999SOL    HW232460   1.179   0.967   7.159  0.9850 -0.4028  0.6922
 7000SOL     OW32461   1.011   1.359   5.001  0.1183 -0.1453 -0.3667
 7000SOL    HW132462   0.924   1.337   4.968 -0.2269  1.7881 -0.7262
 7000SOL    HW232463   0.989   1.445   5.037 -1.0726 -0.6285  0.0608
 7001SOL     OW32464   0.135   4.066   3.961  0.2343  0.1684  0.1771
 7001SOL    HW132465   0.063   4.004   3.949  0.9174 -0.8931  1.5425
 7001SOL    HW232466   0.197   4.021   3.903 -0.9677 -0.5200 -0.5814
 7002SOL     OW32467   2.579   2.424   1.027  0.4743 -0.3380  0.3184
 7002SOL    HW132468   2.488   2.455   1.028  0.2057 -1.1210 -0.3286
 7002SOL    HW232469   2.628   2.503   1.007 -0.5110  0.9397  2.8578
 7003SOL     OW32470   0.330   0.290  12.510  0.7230  0.4206 -0.0545
 7003SOL    HW132471   0.337   0.203  12.550 -0.3660  0.8515  1.0795
 7003SOL    HW232472   0.395   0.333  12.565  1.1071 -1.5906  1.0627
 7004SOL     OW32473   1.330   3.254  13.491  0.6513  0.2658 -0.4221
 7004SOL    HW132474   1.260   3.272  13.554  2.9233  1.1856  1.8343
 7004SOL    HW232475   1.407   3.303  13.520 -0.3512 -0.3841  3.2773
 7005SOL     OW32476   0.410   3.962   7.019 -0.1604 -0.6443  0.0205
 7005SOL    HW132477   0.439   4.000   7.103  4.0545 -1.8821 -0.8620
 7005SOL    HW232478   0.492   3.983   6.975  0.4750 -2.5360  0.3409
 7006SOL     OW32479   0.426   2.968   5.287 -0.0953  0.0090 -0.0299
 7006SOL    HW132480   0.500   2.925   5.245  2.0533  2.3742  1.3459
 7006SOL    HW232481   0.354   2.965   5.224 -0.0509 -0.1662 -0.0719
 7007SOL     OW32482   0.595   2.043   1.686 -0.2627 -0.3400  0.3581
 7007SOL    HW132483   0.508   2.010   1.667  0.7944 -1.3968 -2.5192
 7007SOL    HW232484   0.588   2.134   1.658  0.3849 -0.7991 -1.2658
 7008SOL     OW32485   4.247   3.900   4.510  0.0830  0.1231 -0.2531
 7008SOL    HW132486   4.285   3.860   4.431 -0.6551  0.9759 -1.0366
 7008SOL    HW232487   4.289   3.986   4.500  1.1434 -0.2125  1.2804
 7009SOL     OW32488   2.320   2.208   7.351  0.1625 -0.3099  0.0836
 7009SOL    HW132489   2.290   2.286   7.304 -1.4035 -1.3866 -0.6798
 7009SOL    HW232490   2.362   2.253   7.425 -0.7887  0.1646  0.3409
 7010SOL     OW32491   1.124   1.763  11.018 -0.4231  0.0393  0.3120
 7010SOL    HW132492   1.132   1.846  10.971 -1.1108 -0.2647 -0.3501
 7010SOL    HW232493   1.212   1.725  11.024 -1.3793 -2.2908 -0.5472
 7011SOL     OW32494   2.415   1.237   6.720 -0.4839  0.2668 -0.2652
 7011SOL    HW132495   2.424   1.289   6.639 -1.4483  2.9412  1.3390
 7011SOL    HW232496   2.480   1.167   6.714 -1.0598 -0.4823  2.5966
 7012SOL     OW32497   4.043   2.568   6.840  0.0158  0.3531 -0.1973
 7012SOL    HW132498   3.982   2.641   6.849 -1.0386 -0.5580 -0.0254
 7012SOL    HW232499   4.104   2.577   6.913 -1.1111  0.7989  0.6793
 7013SOL     OW32500   1.056   4.223   6.335  0.3428 -0.1808 -0.1673
 7013SOL    HW132501   1.022   4.307   6.306  2.5683  0.9532  0.5046
 7013SOL    HW232502   1.004   4.162   6.282 -1.5368  1.0060  0.3100
 7014SOL     OW32503   1.409   0.167   3.032  0.2798 -0.3281  0.0343
 7014SOL    HW132504   1.347   0.170   2.959 -0.2302  1.5547  0.5447
 7014SOL    HW232505   1.438   0.077   3.020 -1.8506 -0.6996 -2.3564
 7015SOL     OW32506   4.494   2.832  10.125 -0.0090 -0.3882  0.7926
 7015SOL    HW132507   4.565   2.892  10.150 -0.3236  0.0441  0.6555
 7015SOL    HW232508   4.447   2.820  10.208 -0.7762 -2.1137  0.0907
 7016SOL     OW32509   1.849   2.281  14.480 -0.0100 -0.1528  0.1275
 7016SOL    HW132510   1.939   2.312  14.484 -0.7692  1.9975  0.8173
 7016SOL    HW232511   1.862   2.187  14.494  0.6498 -0.1294 -0.3026
 7017SOL     OW32512   3.107   3.282   4.441  0.7274 -0.8190  0.7771
 7017SOL    HW132513   3.101   3.192   4.473 -0.5471 -1.4287 -1.1435
 7017SOL    HW232514   3.036   3.333   4.481  1.0880  0.3344 -0.0557
 7018SOL     OW32515   4.114   4.407   0.214  0.0582  0.2805 -0.0706
 7018SOL    HW132516   4.204   4.375   0.211  0.3789  1.0175  1.9631
 7018SOL    HW232517   4.131   4.491   0.258 -0.4078 -0.8680  2.2681
 7019SOL     OW32518   0.538   0.618   6.826  0.1357  0.0285 -0.0620
 7019SOL    HW132519   0.595   0.618   6.749  0.2951 -0.6328  0.0609
 7019SOL    HW232520   0.500   0.703   6.805 -4.4354 -2.4928 -2.1109
 7020SOL     OW32521   1.375   1.716   5.488 -0.2680  0.6013 -0.2565
 7020SOL    HW132522   1.418   1.644   5.440 -0.0766  1.8954 -2.0267
 7020SOL    HW232523   1.425   1.721   5.569 -2.8297  0.5648  1.3134
 7021SOL     OW32524   4.494   1.815   5.646  0.0202  0.3557 -0.3304
 7021SOL    HW132525   4.477   1.826   5.739 -4.0488  2.2316 -1.2934
 7021SOL    HW232526   4.575   1.865   5.644  0.7961 -0.9392 -1.6361
 7022SOL     OW32527   4.590   0.440   9.287 -0.0033 -0.2398 -0.1040
 7022SOL    HW132528   4.626   0.472   9.204  0.9095  0.4046  0.5324
 7022SOL    HW232529   4.674   0.450   9.333  1.7262 -2.5257 -2.7171
 7023SOL     OW32530   3.203   2.308   1.992 -0.1531 -0.0723  0.0913
 7023SOL    HW132531   3.210   2.361   1.912  1.9971 -0.9080 -0.2620
 7023SOL    HW232532   3.245   2.224   1.972  0.9049  0.2203  1.0891
 7024SOL     OW32533   2.521   1.297   7.728  0.3205  0.2936 -0.2027
 7024SOL    HW132534   2.547   1.389   7.725  0.4112  0.2423 -0.8709
 7024SOL    HW232535   2.439   1.304   7.778  1.6519  0.6993  1.9245
 7025SOL     OW32536   2.436   3.268   7.962  0.0985  0.1942 -0.0259
 7025SOL    HW132537   2.470   3.282   7.874 -0.2361  3.3082  0.3668
 7025SOL    HW232538   2.429   3.355   8.001 -1.6967 -0.0309  0.1926
 7026SOL     OW32539   3.546   4.424   4.557  0.0097  0.4042 -0.1833
 7026SOL    HW132540   3.456   4.429   4.588 -0.2934 -1.0971 -0.8370
 7026SOL    HW232541   3.539   4.468   4.472 -0.4467 -2.1236 -1.4407
 7027SOL     OW32542   4.164   2.022   0.188  0.1570 -0.2956 -0.4428
 7027SOL    HW132543   4.111   2.072   0.250  0.1735 -1.9336  0.8881
 7027SOL    HW232544   4.245   2.059   0.223  0.3622 -1.0618 -0.1121
 7028SOL     OW32545   2.488   0.463   2.359  0.0299  0.3798 -0.0712
 7028SOL    HW132546   2.500   0.514   2.279  2.3984 -1.3522 -0.8501
 7028SOL    HW232547   2.513   0.531   2.422  3.1940 -0.7839 -0.0347
 7029SOL     OW32548   4.230   1.812   5.260  0.2961  0.1008  0.1140
 7029SOL    HW132549   4.258   1.892   5.304  0.2822  1.5298 -2.4327
 7029SOL    HW232550   4.209   1.751   5.331 -1.7145  1.5141  0.7196
 7030SOL     OW32551   1.766   4.586  15.568  0.2392  0.0625 -0.0676
 7030SOL    HW132552   1.770   4.576  15.473  0.6512 -2.9171  0.2684
 7030SOL    HW232553   1.688   4.533  15.583  1.0168 -0.7094  1.2847
 7031SOL     OW32554   4.048   1.756   0.144  0.4739 -0.1876 -0.3815
 7031SOL    HW132555   4.079   1.845   0.127 -2.4853  0.5314 -2.0263
 7031SOL    HW232556   4.112   1.702   0.097  0.8259 -1.3296  1.4084
 7032SOL     OW32557   2.567   1.589   6.418 -0.0347  0.2896  0.2788
 7032SOL    HW132558   2.489   1.603   6.364 -0.1274 -0.9303  0.0825
 7032SOL    HW232559   2.627   1.544   6.359 -0.3887  1.3059 -0.8412
 7033SOL     OW32560   0.074   0.588   6.616  0.1119 -0.4004 -0.2146
 7033SOL    HW132561   0.100   0.497   6.595 -0.4588 -0.1441 -2.0239
 7033SOL    HW232562   0.160   0.626   6.633 -0.9255  1.6582  0.3051
 7034SOL     OW32563   0.526   3.291   3.871  0.1373 -0.0424  0.5431
 7034SOL    HW132564   0.461   3.329   3.930 -0.5293  0.8721 -0.7674
 7034SOL    HW232565   0.479   3.222   3.823 -1.0112  3.4768 -3.4462
 7035SOL     OW32566   3.457   1.794   3.199  0.2862 -0.6675  0.1644
 7035SOL    HW132567   3.553   1.787   3.195  0.3279  0.2324 -0.2859
 7035SOL    HW232568   3.426   1.727   3.260  0.8290 -2.9896 -2.0927
 7036SOL     OW32569   1.316   1.903  15.023 -0.5733 -0.2359  0.4486
 7036SOL    HW132570   1.325   1.808  15.010  1.5145  0.1994 -1.3113
 7036SOL    HW232571   1.397   1.935  14.984 -0.7746 -0.7669 -0.4091
 7037SOL     OW32572   0.613   4.191  14.281  0.2098  0.7192  0.1252
 7037SOL    HW132573   0.593   4.279  14.315  2.2831  0.1543  2.8398
 7037SOL    HW232574   0.600   4.140  14.361  1.1610  0.0814 -0.1180
 7038SOL     OW32575   2.410   3.571   5.748  0.8180 -0.0432 -0.2934
 7038SOL    HW132576   2.326   3.614   5.761 -0.5345 -2.5324 -0.7303
 7038SOL    HW232577   2.448   3.587   5.834 -0.2628  2.0997 -0.2014
 7039SOL     OW32578   4.500   4.588   7.053 -0.3191 -0.3150  0.3881
 7039SOL    HW132579   4.429   4.545   7.101  1.5815 -1.8411  1.8384
 7039SOL    HW232580   4.532   4.517   6.996 -1.3694  1.0028 -1.8544
 7040SOL     OW32581   0.107   3.281  16.353  0.0808  0.7650  0.0014
 7040SOL    HW132582   0.084   3.226  16.428  0.8075  0.9920  0.3961
 7040SOL    HW232583   0.019   3.310  16.330  0.4752  1.8439 -0.1316
 7041SOL     OW32584   2.513   4.351   7.711 -0.6086 -0.8918  0.1881
 7041SOL    HW132585   2.421   4.328   7.695 -0.7860 -0.0104 -0.0507
 7041SOL    HW232586   2.543   4.333   7.622 -0.2123 -0.1385  0.1748
 7042SOL     OW32587   3.443   1.365   5.154  0.1206  0.1931 -0.0271
 7042SOL    HW132588   3.364   1.338   5.107 -0.2387 -1.3649  1.4558
 7042SOL    HW232589   3.487   1.288   5.120 -1.3921 -0.4437 -0.4976
 7043SOL     OW32590   3.761   2.579   5.517 -0.0695 -0.1652 -0.0945
 7043SOL    HW132591   3.847   2.567   5.558  0.8534 -0.9028 -2.2523
 7043SOL    HW232592   3.705   2.561   5.593 -3.5532 -0.3978 -2.7247
 7044SOL     OW32593   2.381   2.446   2.682 -0.2385 -0.2777  0.0674
 7044SOL    HW132594   2.298   2.405   2.705 -1.0316  0.7835 -0.9256
 7044SOL    HW232595   2.362   2.525   2.631  1.0992 -0.9008 -1.3805
 7045SOL     OW32596   1.789   1.063   6.617 -0.3080 -0.3254  0.2736
 7045SOL    HW132597   1.782   1.064   6.521 -1.4448 -1.9724  0.3359
 7045SOL    HW232598   1.761   0.974   6.639  1.8588 -0.7555  1.2399
 7046SOL     OW32599   1.504   2.552  16.904 -0.5065  0.0200 -0.2926
 7046SOL    HW132600   1.439   2.510  16.848  0.2351 -0.6364 -0.6649
 7046SOL    HW232601   1.486   2.515  16.990 -2.6639 -0.4187 -0.9476
 7047SOL     OW32602   3.887   2.486  13.843  0.1864 -0.1323  0.4386
 7047SOL    HW132603   3.845   2.550  13.902  0.1264  2.5453 -2.5394
 7047SOL    HW232604   3.916   2.429  13.915  0.9140  1.4726  1.4228
 7048SOL     OW32605   0.677   1.497   0.102 -0.1758 -0.4779 -0.0866
 7048SOL    HW132606   0.583   1.493   0.082  0.0559 -0.1082 -1.2488
 7048SOL    HW232607   0.673   1.416   0.152 -1.0522 -0.3913 -0.0070
 7049SOL     OW32608   0.455   4.082   5.313  0.0059 -0.1703  0.0777
 7049SOL    HW132609   0.434   4.011   5.253 -0.9884 -0.6216  0.9587
 7049SOL    HW232610   0.437   4.044   5.399 -1.7264 -0.2770 -0.3328
 7050SOL     OW32611   1.503   3.489   2.505  0.3617 -0.0926  0.5795
 7050SOL    HW132612   1.471   3.399   2.517 -2.1366  0.7234  0.0622
 7050SOL    HW232613   1.581   3.481   2.559 -0.0051 -0.4977  1.0494
 7051SOL     OW32614   0.118   1.314  10.840  0.3295  0.6444  0.6090
 7051SOL    HW132615   0.157   1.400  10.858 -1.3044  1.2135  1.4081
 7051SOL    HW232616   0.046   1.311  10.903 -0.5265 -1.2314 -0.4631
 7052SOL     OW32617   0.500   2.515   5.922 -0.0892  0.2490 -0.9772
 7052SOL    HW132618   0.521   2.508   5.829 -0.8437  0.0721 -1.1318
 7052SOL    HW232619   0.583   2.500   5.968  0.7606  2.6359 -1.7606
 7053SOL     OW32620   0.058   1.977   2.321 -0.4139 -0.2306  0.0534
 7053SOL    HW132621   0.108   1.918   2.264 -2.1408  0.8394 -2.5580
 7053SOL    HW232622   0.047   2.062   2.279  0.7319  0.8123  1.8711
 7054SOL     OW32623   4.426   4.189   3.917 -0.2180  0.5952 -0.0006
 7054SOL    HW132624   4.401   4.264   3.863 -3.0097 -0.7304 -0.5116
 7054SOL    HW232625   4.466   4.144   3.843 -0.4272 -1.0787  0.9178
 7055SOL     OW32626   1.552   1.562   5.895 -0.2447  0.2958  0.0813
 7055SOL    HW132627   1.502   1.490   5.855  0.7710  0.0600 -0.7420
 7055SOL    HW232628   1.564   1.535   5.986 -0.3523  0.0329  0.0184
 7056SOL     OW32629   0.940   1.608   2.192 -0.4098 -0.0144  0.1484
 7056SOL    HW132630   0.897   1.620   2.107  0.2491  0.2790 -0.1489
 7056SOL    HW232631   0.866   1.581   2.246 -0.0392 -1.0246  0.1490
 7057SOL     OW32632   2.077   2.020  15.041  0.2186 -0.2820 -0.7167
 7057SOL    HW132633   2.132   1.958  14.993  1.7440  0.7199 -0.2589
 7057SOL    HW232634   2.107   1.993  15.127 -0.4717  0.2821 -0.3061
 7058SOL     OW32635   4.551   3.750   2.891  0.2429 -0.2966 -0.1591
 7058SOL    HW132636   4.514   3.699   2.819 -0.4581 -0.1798  0.1129
 7058SOL    HW232637   4.615   3.688   2.927  0.0050 -1.0626 -1.0288
 7059SOL     OW32638   1.941   4.087   0.030  0.3371  0.3564  0.4677
 7059SOL    HW132639   1.864   4.047   0.071  1.1306 -0.7683  0.8623
 7059SOL    HW232640   1.916   4.087  17.634  0.0297 -2.4919  0.5639
 7060SOL     OW32641   4.543   2.861   7.424 -0.0409 -0.1184  0.0922
 7060SOL    HW132642   4.569   2.857   7.516 -1.5097  1.2902  0.5748
 7060SOL    HW232643   4.558   2.771   7.394  2.0637  0.5658 -0.8597
 7061SOL     OW32644   2.920   3.676   0.573 -0.1514 -0.0780 -0.7130
 7061SOL    HW132645   2.891   3.758   0.533  1.8688  0.3508 -1.2823
 7061SOL    HW232646   3.015   3.675   0.567 -0.0472  0.7232  0.6150
 7062SOL     OW32647   4.030   3.331   1.922 -0.5566 -0.3088 -0.1245
 7062SOL    HW132648   3.952   3.348   1.869  0.9470 -1.2364 -2.6203
 7062SOL    HW232649   4.010   3.237   1.929  1.8427 -0.8630 -0.8755
 7063SOL     OW32650   4.366   2.376   5.716  0.1379  0.5452 -0.1405
 7063SOL    HW132651   4.454   2.393   5.750  0.5015 -1.4641 -0.0986
 7063SOL    HW232652   4.331   2.465   5.716 -0.5768  0.2451  2.1552
 7064SOL     OW32653   0.226   0.327  17.261 -0.4820  0.1940  0.5810
 7064SOL    HW132654   0.196   0.389  17.194  1.4166 -0.2196 -0.6541
 7064SOL    HW232655   0.146   0.319  17.313  0.3367  0.1577  1.8211
 7065SOL     OW32656   3.329   3.897   8.673 -0.0283  0.1397  0.0691
 7065SOL    HW132657   3.279   3.955   8.730 -1.5840 -0.0989 -1.0525
 7065SOL    HW232658   3.349   3.823   8.732 -2.0710  0.5505  1.2789
 7066SOL     OW32659   4.575   1.912   2.720  0.0520  0.2402 -0.5671
 7066SOL    HW132660   4.530   1.941   2.800  1.8810 -0.4609  0.7075
 7066SOL    HW232661   4.613   1.995   2.693 -1.8089  1.2276 -0.1485
 7067SOL     OW32662   3.154   0.929  17.544 -0.1168 -0.1319 -0.1683
 7067SOL    HW132663   3.204   0.899  17.620  1.5794  4.2909  0.5132
 7067SOL    HW232664   3.189   1.013  17.514  0.2915  0.2896  1.4328
 7068SOL     OW32665   0.465   2.856   4.238  0.4487 -0.1607 -0.3760
 7068SOL    HW132666   0.549   2.813   4.247  0.6146  0.7133  2.2267
 7068SOL    HW232667   0.501   2.945   4.242 -0.1061 -0.0274  1.9289
 7069SOL     OW32668   3.544   0.692   0.011 -0.4466  0.7513 -0.3847
 7069SOL    HW132669   3.528   0.784   0.033  1.5488  0.5598  1.7426
 7069SOL    HW232670   3.640   0.695   0.006 -0.1344 -3.9769  3.5317
 7070SOL     OW32671   2.689   4.454   0.723 -0.3440 -0.2473  0.4551
 7070SOL    HW132672   2.594   4.439   0.729  0.2054 -4.2268 -0.3300
 7070SOL    HW232673   2.711   4.505   0.801 -1.9618  0.3522  0.5127
 7071SOL     OW32674   3.680   1.468  15.414  0.1796  0.7759 -0.9445
 7071SOL    HW132675   3.732   1.485  15.335  0.9883  2.8759  0.0464
 7071SOL    HW232676   3.662   1.559  15.434 -1.3146 -0.2233  2.2190
 7072SOL     OW32677   2.552   1.310  15.495 -0.4222  0.0898  0.0420
 7072SOL    HW132678   2.514   1.228  15.529  0.6584  0.1231  1.3356
 7072SOL    HW232679   2.638   1.280  15.463 -0.5282 -1.5907  1.3009
 7073SOL     OW32680   3.395   3.846  16.372 -0.5293 -0.2086  0.4084
 7073SOL    HW132681   3.340   3.816  16.445 -2.8757 -0.4751 -1.4644
 7073SOL    HW232682   3.467   3.879  16.426  0.3343 -2.0771  0.3989
 7074SOL     OW32683   3.736   2.771   4.559  0.4626 -0.0833 -0.0093
 7074SOL    HW132684   3.655   2.766   4.508  0.8754 -1.1323 -0.5757
 7074SOL    HW232685   3.790   2.793   4.483 -0.2120  1.0505 -0.1599
 7075SOL     OW32686   3.753   0.299  15.727 -0.1344  0.1569 -0.0548
 7075SOL    HW132687   3.821   0.232  15.730 -2.7721 -2.5288 -1.7753
 7075SOL    HW232688   3.714   0.284  15.641 -1.4470 -0.4215  0.6388
 7076SOL     OW32689   4.050   2.090   6.770  0.0841  0.4137  0.3545
 7076SOL    HW132690   3.999   2.171   6.770  1.7219  1.4501  0.0285
 7076SOL    HW232691   4.135   2.118   6.806  1.8473 -1.8881 -2.0538
 7077SOL     OW32692   4.637   2.544   2.630 -0.0857  0.3655  0.0485
 7077SOL    HW132693   4.610   2.574   2.717  0.7229 -1.3431  0.8810
 7077SOL    HW232694   4.723   2.581   2.615  0.4804 -1.0568 -0.2537
 7078SOL     OW32695   1.258   3.472   6.231 -0.4263  0.2263  0.3233
 7078SOL    HW132696   1.207   3.546   6.198 -1.3797 -0.9292 -0.7729
 7078SOL    HW232697   1.264   3.426   6.147  2.4150  0.3625  0.4443
 7079SOL     OW32698   4.310   0.789   1.936  0.9237  0.5421 -0.5041
 7079SOL    HW132699   4.361   0.870   1.939 -0.6980  1.5027  1.3577
 7079SOL    HW232700   4.366   0.731   1.989  1.2804  1.5760  0.2499
 7080SOL     OW32701   1.854   0.909   3.488 -0.2343 -0.0192  0.2063
 7080SOL    HW132702   1.849   0.977   3.421 -0.6740 -1.0216 -0.7799
 7080SOL    HW232703   1.813   0.965   3.555  0.1681  0.5720 -0.0469
 7081SOL     OW32704   0.181   2.376  15.470 -0.3800 -0.2037 -0.0521
 7081SOL    HW132705   0.173   2.303  15.531  1.4305  1.0506  1.7106
 7081SOL    HW232706   0.090   2.383  15.440 -0.5363  0.9029  0.6567
 7082SOL     OW32707   2.068   4.393  15.169 -0.4834  0.0719 -0.4961
 7082SOL    HW132708   2.096   4.406  15.078  0.8100 -1.0028 -0.2493
 7082SOL    HW232709   2.145   4.343  15.196 -0.0659  0.8187 -0.2928
 7083SOL     OW32710   2.497   1.427   5.418 -0.0737  0.1133  0.3127
 7083SOL    HW132711   2.481   1.342   5.378 -0.6839  0.0664  0.6581
 7083SOL    HW232712   2.557   1.457   5.349  0.4252 -0.5471  0.4699
 7084SOL     OW32713   3.663   2.060   5.363  0.1336  0.2131 -0.0136
 7084SOL    HW132714   3.667   2.140   5.311 -1.8856 -0.2348 -0.8951
 7084SOL    HW232715   3.747   2.082   5.402  0.6287 -0.8011 -0.5182
 7085SOL     OW32716   0.768   0.039  12.094  0.2212 -0.3664 -0.3191
 7085SOL    HW132717   0.707   4.722  12.033 -0.6234  1.2791 -0.5524
 7085SOL    HW232718   0.734   0.000  12.175 -0.1299 -1.5254 -1.0198
 7086SOL     OW32719   4.108   3.728  14.852  0.0683 -0.4716  0.7521
 7086SOL    HW132720   4.136   3.688  14.770  0.0640 -0.2959  0.6645
 7086SOL    HW232721   4.175   3.794  14.870 -0.0568 -0.9115  2.8713
 7087SOL     OW32722   1.693   4.136   8.844 -0.6570  0.1894 -0.2235
 7087SOL    HW132723   1.693   4.151   8.939 -1.9549 -1.1521 -0.0070
 7087SOL    HW232724   1.723   4.045   8.833 -1.2166 -0.2913  2.2581
 7088SOL     OW32725   4.388   3.021  16.402  0.2968 -0.1132 -0.3374
 7088SOL    HW132726   4.389   3.056  16.314  0.1531 -2.0458 -1.1153
 7088SOL    HW232727   4.306   2.972  16.406 -1.3595  2.6747 -0.1532
 7089SOL     OW32728   3.416   3.007   4.348  0.0223 -0.0880  0.0174
 7089SOL    HW132729   3.510   2.992   4.353  0.0935  1.1039  2.2295
 7089SOL    HW232730   3.417   3.098   4.379  1.4937 -0.3735  0.8066
 7090SOL     OW32731   0.153   3.119  16.143  0.3463 -0.3628 -0.4181
 7090SOL    HW132732   0.138   3.145  16.234  0.4071  2.1684 -1.1326
 7090SOL    HW232733   0.242   3.152  16.127 -0.2788  1.3098 -0.5312
 7091SOL     OW32734   4.568   3.927   9.714  0.2078  0.6679 -0.5881
 7091SOL    HW132735   4.607   3.841   9.727 -2.5533 -0.5354 -0.2228
 7091SOL    HW232736   4.514   3.927   9.794 -2.0849  0.7310 -2.1295
 7092SOL     OW32737   0.675   4.705   1.060 -0.2993  0.6944 -0.2764
 7092SOL    HW132738   0.689   0.045   0.990 -0.4899 -1.0681 -1.8957
 7092SOL    HW232739   0.647   4.638   0.998  0.0179  0.0089  0.3272
 7093SOL     OW32740   0.932   2.837   5.875 -0.2068  0.4546  0.1120
 7093SOL    HW132741   0.881   2.817   5.953 -2.1383 -0.1172 -1.3041
 7093SOL    HW232742   0.994   2.764   5.882 -0.1902  0.5063  0.4723
 7094SOL     OW32743   0.851   1.535   1.090  0.1047 -0.5588  0.2269
 7094SOL    HW132744   0.784   1.468   1.103  0.0542 -0.4544  0.4834
 7094SOL    HW232745   0.809   1.613   1.126  2.3780  0.1161  1.4166
 7095SOL     OW32746   0.175   3.844   3.152  0.3960  0.2158  0.2803
 7095SOL    HW132747   0.220   3.860   3.235  1.7447  2.5170 -0.8643
 7095SOL    HW232748   0.186   3.933   3.118 -1.5441  0.8639  1.3682
 7096SOL     OW32749   1.477   1.472   7.674  0.1038 -0.1346 -0.2380
 7096SOL    HW132750   1.548   1.414   7.646 -0.4897 -0.6889 -0.6103
 7096SOL    HW232751   1.469   1.450   7.767 -1.9560 -0.1418 -0.4174
 7097SOL     OW32752   3.651   2.210  14.126  0.3137 -0.4612  0.2545
 7097SOL    HW132753   3.713   2.138  14.142  1.2497  0.1735 -0.5019
 7097SOL    HW232754   3.698   2.274  14.073 -1.5873 -0.2917 -1.2186
 7098SOL     OW32755   1.517   4.112  15.258 -0.5195  1.0646  0.0384
 7098SOL    HW132756   1.442   4.065  15.222 -1.0932  2.8514 -1.1311
 7098SOL    HW232757   1.554   4.049  15.320 -1.2330  0.9668  0.3612
 7099SOL     OW32758   0.010   3.989   6.478 -0.2091  0.1445 -0.4139
 7099SOL    HW132759   0.052   4.038   6.407  0.1535  0.9314  0.3479
 7099SOL    HW232760   0.090   3.952   6.517  0.5108  1.8678 -0.2639
 7100SOL     OW32761   0.771   4.591   4.445  0.4030 -0.4056  0.1568
 7100SOL    HW132762   0.857   4.549   4.448  1.2115  1.5415  3.3627
 7100SOL    HW232763   0.784   4.667   4.500 -2.2500 -0.7213  1.2181
 7101SOL     OW32764   3.521   0.916   3.601  0.2248 -0.4995  0.6943
 7101SOL    HW132765   3.428   0.897   3.589 -0.2044  2.2914 -0.3604
 7101SOL    HW232766   3.507   0.983   3.669  0.2911  2.0443 -1.7948
 7102SOL     OW32767   1.786   0.838   8.187 -0.0852  0.1516  0.5444
 7102SOL    HW132768   1.809   0.928   8.209  0.3540  0.4365 -1.0892
 7102SOL    HW232769   1.719   0.812   8.251  0.4896 -2.4117  0.1023
 7103SOL     OW32770   2.629   0.711  16.939 -0.3556  0.3788 -0.6565
 7103SOL    HW132771   2.621   0.640  17.003  1.2612  1.2935  0.5539
 7103SOL    HW232772   2.669   0.667  16.863 -1.0199  0.2661 -0.9421
 7104SOL     OW32773   3.071   3.255   2.241  0.0783  0.5910 -0.0628
 7104SOL    HW132774   3.022   3.200   2.303  0.8820 -0.7067 -0.5616
 7104SOL    HW232775   3.127   3.309   2.297  0.8998 -2.0233  1.7026
 7105SOL     OW32776   4.200   3.895   8.457  0.2362 -0.1606  0.0655
 7105SOL    HW132777   4.179   3.951   8.532  0.9981  0.9222 -0.5434
 7105SOL    HW232778   4.127   3.834   8.469  1.3584 -1.5710 -0.2527
 7106SOL     OW32779   4.247   1.697   4.732 -0.4489 -0.1504 -0.0513
 7106SOL    HW132780   4.153   1.688   4.713 -1.0416  3.4704  1.1883
 7106SOL    HW232781   4.248   1.747   4.813  1.1793 -2.2774  1.2443
 7107SOL     OW32782   4.169   0.783   7.098 -1.0880 -0.6105  0.4966
 7107SOL    HW132783   4.190   0.871   7.065 -2.8644 -0.3958 -0.0616
 7107SOL    HW232784   4.075   0.786   7.114 -1.6213  0.1356 -2.7228
 7108SOL     OW32785   0.259   0.642   0.422 -0.1630  0.4690  0.2927
 7108SOL    HW132786   0.256   0.710   0.354 -0.7049  1.0497  0.8979
 7108SOL    HW232787   0.242   0.558   0.378 -1.1953  1.6642 -1.6135
 7109SOL     OW32788   2.255   2.122   5.172 -0.6512  0.9516 -0.1742
 7109SOL    HW132789   2.214   2.139   5.087 -2.8184 -2.6528  0.1373
 7109SOL    HW232790   2.187   2.150   5.234 -0.7035 -0.9310  0.6010
 7110SOL     OW32791   0.639   2.441   3.400 -0.0641 -0.2121  0.3181
 7110SOL    HW132792   0.565   2.423   3.457  1.4030  1.3254  2.7055
 7110SOL    HW232793   0.666   2.350   3.386 -1.8578 -0.5235 -1.0575
 7111SOL     OW32794   3.114   1.592  17.227 -0.1509 -0.3788  0.0218
 7111SOL    HW132795   3.173   1.595  17.302  0.1942  0.4338 -0.2906
 7111SOL    HW232796   3.051   1.651  17.269  0.0980 -1.0875  1.4119
 7112SOL     OW32797   1.411   0.230   4.742 -0.2142  0.1528  0.0911
 7112SOL    HW132798   1.451   0.291   4.803  1.6263 -0.2665 -0.6979
 7112SOL    HW232799   1.344   0.292   4.713 -1.1254  0.3476  2.6272
 7113SOL     OW32800   1.734   2.746  11.984 -0.4120 -0.2407  0.6075
 7113SOL    HW132801   1.795   2.686  12.026  0.8433 -0.6852 -1.8628
 7113SOL    HW232802   1.740   2.730  11.890 -2.7034 -2.2497  0.8023
 7114SOL     OW32803   0.715   3.453   8.717 -0.2304  0.4771  0.1576
 7114SOL    HW132804   0.699   3.414   8.803 -0.8195 -0.9010 -0.5812
 7114SOL    HW232805   0.799   3.416   8.691 -0.9186  1.0626 -2.8981
 7115SOL     OW32806   1.099   2.918   7.616  0.6699  0.6059  0.1751
 7115SOL    HW132807   1.072   2.968   7.539 -1.6462 -0.9308 -0.0039
 7115SOL    HW232808   1.119   2.993   7.672 -1.4178  1.9511 -0.9067
 7116SOL     OW32809   0.944   4.595  14.509 -0.4305  0.5339 -0.2513
 7116SOL    HW132810   0.893   4.675  14.496 -1.1406  0.1847  0.3894
 7116SOL    HW232811   0.919   4.582  14.601 -2.7347 -0.8938 -1.0974
 7117SOL     OW32812   1.720   4.013   3.281  0.4449 -0.4370  0.0550
 7117SOL    HW132813   1.660   3.970   3.342 -1.2514  1.1128 -0.5050
 7117SOL    HW232814   1.659   4.010   3.207  2.1523 -0.8691 -1.3249
 7118SOL     OW32815   2.122   0.755   5.192  0.2282  0.2669 -0.1675
 7118SOL    HW132816   2.029   0.742   5.213  0.6105 -1.5288  0.4739
 7118SOL    HW232817   2.130   0.691   5.121 -3.9726  2.0804 -2.2897
 7119SOL     OW32818   0.175   2.330   4.446 -0.0864 -0.4022  0.2191
 7119SOL    HW132819   0.254   2.309   4.496 -0.2505 -2.6534 -0.4879
 7119SOL    HW232820   0.185   2.424   4.432  1.3308 -0.3582  1.4947
 7120SOL     OW32821   0.102   3.811   8.618  0.5916 -0.1737  0.0477
 7120SOL    HW132822   0.129   3.903   8.622 -0.8375  0.1585  2.6163
 7120SOL    HW232823   0.148   3.788   8.537 -0.6581 -0.5446 -0.5527
 7121SOL     OW32824   0.238   3.407   6.311  0.0033 -0.5785  0.3563
 7121SOL    HW132825   0.183   3.353   6.369  0.3009 -1.6715 -0.3904
 7121SOL    HW232826   0.325   3.369   6.313  0.0442 -0.4245  1.6064
 7122SOL     OW32827   0.333   2.544   7.521  0.1861  0.1341  0.1270
 7122SOL    HW132828   0.352   2.635   7.545 -0.5449  0.2194  0.3858
 7122SOL    HW232829   0.401   2.530   7.455  1.1812  0.8378  1.0022
 7123SOL     OW32830   0.470   2.116   8.283 -0.1290 -0.0182  0.2493
 7123SOL    HW132831   0.408   2.189   8.279 -1.0131 -0.8489 -1.1236
 7123SOL    HW232832   0.496   2.133   8.374  2.0146  0.4553 -0.4620
 7124SOL     OW32833   2.812   4.598  15.912  0.3866  0.2398  0.5758
 7124SOL    HW132834   2.761   4.523  15.880  0.2481  1.0387 -1.1037
 7124SOL    HW232835   2.894   4.556  15.938  1.9390  2.2154 -1.2283
 7125SOL     OW32836   1.753   2.104   5.172  0.3428 -0.6533 -0.2781
 7125SOL    HW132837   1.722   2.195   5.170  0.9195 -0.3419  3.9659
 7125SOL    HW232838   1.814   2.103   5.246 -2.1232  0.5995  1.7788
 7126SOL     OW32839   4.429   3.647   3.674  0.0006  0.0674 -0.2984
 7126SOL    HW132840   4.345   3.691   3.666 -1.5788 -2.3304  2.7915
 7126SOL    HW232841   4.434   3.598   3.592  0.6523 -1.6442  0.7484
 7127SOL     OW32842   3.706   4.410   6.009 -0.2257 -0.0400  0.1382
 7127SOL    HW132843   3.740   4.481   6.063  1.9643  0.0058 -1.3184
 7127SOL    HW232844   3.782   4.377   5.962 -1.1086  0.4573 -1.6443
 7128SOL     OW32845   3.234   1.309  14.762  0.5371 -0.3947 -0.1684
 7128SOL    HW132846   3.142   1.329  14.744  0.5467 -0.6547 -0.5074
 7128SOL    HW232847   3.229   1.217  14.785 -0.9365 -0.6424 -1.4341
 7129SOL     OW32848   3.471   4.142   9.751  0.8063 -0.5534  0.2417
 7129SOL    HW132849   3.447   4.052   9.728  0.8305  0.0766 -2.2367
 7129SOL    HW232850   3.542   4.125   9.813 -1.1298 -1.3350  2.2299
 7130SOL     OW32851   1.566   2.027  15.246 -0.1774  0.0911  0.0238
 7130SOL    HW132852   1.590   2.092  15.312  1.1914  0.6721 -1.0484
 7130SOL    HW232853   1.562   2.078  15.166 -1.5748 -0.4995 -0.2814
 7131SOL     OW32854   2.592   1.599   8.192  0.2394 -0.2652 -0.1442
 7131SOL    HW132855   2.561   1.538   8.260  1.7526  0.7096  1.4068
 7131SOL    HW232856   2.687   1.597   8.202  0.7806  2.9908 -4.5619
 7132SOL     OW32857   1.778   0.074   3.462 -0.3762  0.1613 -0.3033
 7132SOL    HW132858   1.731   0.062   3.544 -0.6889 -4.6165 -1.1852
 7132SOL    HW232859   1.706   0.066   3.400 -0.9850 -1.4978  0.6046
 7133SOL     OW32860   3.765   2.579   8.169 -0.5818  0.1889  0.0782
 7133SOL    HW132861   3.828   2.614   8.233  0.3312 -1.3520  0.0357
 7133SOL    HW232862   3.768   2.646   8.101  0.3428 -0.0217 -0.0965
 7134SOL     OW32863   4.156   0.804   6.632 -0.6815 -0.3573  0.2241
 7134SOL    HW132864   4.134   0.887   6.675 -2.6364 -0.6527 -0.1958
 7134SOL    HW232865   4.239   0.839   6.601 -0.1992 -1.2023  0.5649
 7135SOL     OW32866   2.262   2.422   7.200 -0.7917 -0.0365 -0.2662
 7135SOL    HW132867   2.226   2.420   7.112  1.2467 -0.4915 -1.0884
 7135SOL    HW232868   2.267   2.516   7.215  0.4226  0.0302 -1.0493
 7136SOL     OW32869   1.214   1.669   8.349 -0.4147 -0.2838  0.3531
 7136SOL    HW132870   1.294   1.722   8.345  2.2488 -4.3019  0.3056
 7136SOL    HW232871   1.252   1.582   8.362  0.8702  0.0527 -1.1878
 7137SOL     OW32872   3.435   1.532  15.574 -0.0588 -0.3498 -0.0863
 7137SOL    HW132873   3.389   1.603  15.530  0.1730 -1.3976 -2.0134
 7137SOL    HW232874   3.467   1.477  15.502  0.1916 -1.4166  0.8304
 7138SOL     OW32875   4.080   1.890   2.286 -0.6740  0.4812  0.1177
 7138SOL    HW132876   4.159   1.847   2.318 -1.7167 -2.3836 -1.1304
 7138SOL    HW232877   4.028   1.822   2.242 -1.6278  0.8655  0.6569
 7139SOL     OW32878   4.471   0.790   5.043 -0.3119  0.7088 -0.1980
 7139SOL    HW132879   4.560   0.765   5.067 -0.0198  0.9141 -1.0601
 7139SOL    HW232880   4.487   0.854   4.974 -0.6107 -0.9170 -1.7746
 7140SOL     OW32881   4.013   3.695  16.894 -0.1835  0.3130 -0.0487
 7140SOL    HW132882   3.932   3.723  16.936  0.2978 -2.4586  2.7041
 7140SOL    HW232883   4.071   3.710  16.969 -0.1313 -1.2096  0.2191
 7141SOL     OW32884   3.620   0.364  17.456 -0.1122 -0.5665 -0.5715
 7141SOL    HW132885   3.595   0.424  17.526  0.3448 -1.5290  0.4128
 7141SOL    HW232886   3.537   0.320  17.441  0.1856 -2.0588  2.1610
 7142SOL     OW32887   0.747   0.759   7.768 -0.2880 -0.7753  0.3451
 7142SOL    HW132888   0.718   0.792   7.683  0.4448 -0.3253  0.2708
 7142SOL    HW232889   0.661   0.763   7.810  0.9526 -0.2215  2.8651
 7143SOL     OW32890   4.717   1.425   4.283  0.3347 -0.6758  0.2816
 7143SOL    HW132891   0.019   1.515   4.306 -0.6213 -0.4676  0.5132
 7143SOL    HW232892   4.624   1.427   4.303 -0.3658 -1.8412 -2.8035
 7144SOL     OW32893   2.815   2.697   7.636  0.0249 -0.2276  0.2518
 7144SOL    HW132894   2.840   2.633   7.703  0.9526  0.5654  0.6606
 7144SOL    HW232895   2.859   2.669   7.556 -0.0406 -2.9546  1.1570
 7145SOL     OW32896   0.495   1.881  10.266  0.3228 -0.0656  0.4353
 7145SOL    HW132897   0.413   1.843  10.234 -0.3991 -0.2585  2.5194
 7145SOL    HW232898   0.551   1.847  10.196 -0.2616 -0.3065  0.0795
 7146SOL     OW32899   3.358   1.047   2.018 -0.2081  0.1254 -0.8527
 7146SOL    HW132900   3.423   0.977   2.009  0.1432  0.1352  1.6387
 7146SOL    HW232901   3.354   1.040   2.113 -0.7616 -2.3881 -1.0519
 7147SOL     OW32902   4.188   1.080   7.036 -0.0585 -0.7065 -0.7756
 7147SOL    HW132903   4.150   1.134   6.966 -0.4826  0.7592  0.5928
 7147SOL    HW232904   4.155   1.131   7.110  1.4180 -0.2094 -0.4630
 7148SOL     OW32905   3.506   2.785   7.282  0.0766 -0.4720 -0.6716
 7148SOL    HW132906   3.492   2.850   7.213 -0.8391  0.9285  0.8278
 7148SOL    HW232907   3.474   2.833   7.358 -0.3858  1.2400 -1.9507
 7149SOL     OW32908   3.404   3.938   6.804 -0.0385 -0.1866  0.0000
 7149SOL    HW132909   3.397   3.947   6.708 -1.9358  0.7472  0.2117
 7149SOL    HW232910   3.468   4.007   6.821  0.0795 -1.4890  4.6397
 7150SOL     OW32911   0.836   2.562  12.614  0.1147 -0.3253  0.6205
 7150SOL    HW132912   0.892   2.622  12.566 -0.4035  1.0713  1.7613
 7150SOL    HW232913   0.895   2.502  12.660 -1.6250 -1.8523  0.8842
 7151SOL     OW32914   3.039   1.576   5.307 -0.1678  0.4495  0.0936
 7151SOL    HW132915   3.124   1.620   5.309 -0.2299  0.6121 -1.0917
 7151SOL    HW232916   2.980   1.651   5.310 -1.5277 -0.5322 -2.2566
 7152SOL     OW32917   4.089   3.769   3.821 -0.1109 -0.2488  0.4417
 7152SOL    HW132918   3.997   3.759   3.845  0.0357  1.9802  1.9511
 7152SOL    HW232919   4.132   3.746   3.903  0.4896  1.4243  0.5981
 7153SOL     OW32920   4.002   2.955   3.394  0.5750  0.8867  0.5025
 7153SOL    HW132921   4.018   2.984   3.304 -0.0285  0.2736  0.2051
 7153SOL    HW232922   3.946   3.030   3.414 -2.0396 -1.2899  1.2774
 7154SOL     OW32923   3.489   0.261   1.306  0.5200  0.4237  0.3437
 7154SOL    HW132924   3.447   0.222   1.383  0.7548 -3.0063 -1.2806
 7154SOL    HW232925   3.427   0.328   1.275 -1.9914 -0.7369  2.8451
 7155SOL     OW32926   2.123   1.701   4.650  0.2344 -0.0959  0.3908
 7155SOL    HW132927   2.189   1.724   4.715 -0.3640 -0.5215  1.1531
 7155SOL    HW232928   2.088   1.621   4.690  0.3706 -0.8204 -0.9678
 7156SOL     OW32929   0.472   3.093  15.729  0.3217  0.1244  0.1185
 7156SOL    HW132930   0.495   3.174  15.775  1.1701 -0.0329 -0.0311
 7156SOL    HW232931   0.414   3.114  15.656  0.0814  0.1403  0.3136
 7157SOL     OW32932   2.172   0.902   3.978  0.1513 -0.5392 -0.3652
 7157SOL    HW132933   2.181   0.840   3.906  1.7978  0.7291 -1.2632
 7157SOL    HW232934   2.264   0.924   3.996  0.6952 -2.4226 -0.8087
 7158SOL     OW32935   4.282   1.198  14.592 -0.2070  0.3959 -0.6803
 7158SOL    HW132936   4.288   1.142  14.669  1.3773  0.8468 -0.4743
 7158SOL    HW232937   4.335   1.141  14.536  0.5174 -0.6401  1.0906
 7159SOL     OW32938   2.637   2.265  15.852  0.0292 -0.4250 -0.1538
 7159SOL    HW132939   2.565   2.214  15.815 -1.4918  0.5629  1.4376
 7159SOL    HW232940   2.652   2.207  15.927 -1.4530 -0.3181  0.2382
 7160SOL     OW32941   3.372   3.572   1.643  0.4263 -0.0276  0.1547
 7160SOL    HW132942   3.400   3.615   1.724 -1.4371  0.7746  0.3729
 7160SOL    HW232943   3.302   3.518   1.681  1.7044 -2.1113 -0.4796
 7161SOL     OW32944   0.097   3.261   5.406  0.3713  0.4763  0.2943
 7161SOL    HW132945   0.158   3.334   5.420  1.7093 -0.1703 -2.2229
 7161SOL    HW232946   0.138   3.193   5.459  1.1505  0.9621  0.3153
 7162SOL     OW32947   3.714   3.141   7.720 -0.2196  0.0640  0.5207
 7162SOL    HW132948   3.623   3.137   7.750  0.3104 -0.7116  2.0391
 7162SOL    HW232949   3.743   3.203   7.787  2.2951  1.2427 -1.7191
 7163SOL     OW32950   1.197   4.237   8.597 -0.3563 -0.0326 -0.0051
 7163SOL    HW132951   1.233   4.192   8.673  0.5185  0.5887 -0.0463
 7163SOL    HW232952   1.263   4.306   8.586 -0.3386  0.2211  1.7838
 7164SOL     OW32953   2.225   0.930  10.730 -0.3631  0.6051 -0.1832
 7164SOL    HW132954   2.240   0.835  10.738  2.3489  1.1901  1.8457
 7164SOL    HW232955   2.288   0.966  10.792 -0.6571  1.3927 -0.3506
 7165SOL     OW32956   2.200   3.649   8.773 -0.4498 -0.5492 -0.8330
 7165SOL    HW132957   2.175   3.564   8.807 -4.4140  0.1762 -1.9592
 7165SOL    HW232958   2.146   3.695   8.837  1.9292  0.3852  0.4821
 7166SOL     OW32959   4.122   1.599   3.697 -0.0025 -0.0054  0.0205
 7166SOL    HW132960   4.052   1.664   3.703 -0.5374 -0.7224  1.4693
 7166SOL    HW232961   4.125   1.587   3.602  0.9005 -2.5210  0.3748
 7167SOL     OW32962   2.723   0.975   6.898 -0.0684  0.2127  0.5578
 7167SOL    HW132963   2.794   1.038   6.906 -0.4113  0.8191 -1.2279
 7167SOL    HW232964   2.703   0.994   6.806 -1.5300  0.7245  0.9854
 7168SOL     OW32965   3.441   3.782   5.370  0.0426 -0.0420 -0.1750
 7168SOL    HW132966   3.423   3.724   5.443 -1.5588  1.8027  0.8827
 7168SOL    HW232967   3.369   3.747   5.317 -0.0060 -1.1168  0.6064
 7169SOL     OW32968   2.825   3.970  15.769  0.4275  0.4154 -0.1561
 7169SOL    HW132969   2.782   4.010  15.693  2.7924 -0.0025 -1.7015
 7169SOL    HW232970   2.899   3.939  15.716  1.1258 -0.0075  1.0602
 7170SOL     OW32971   4.295   1.723   6.579  0.0303  0.2204 -0.2590
 7170SOL    HW132972   4.343   1.670   6.642  0.8585  2.7749  1.2641
 7170SOL    HW232973   4.227   1.760   6.635  1.7837  0.7256  1.5249
 7171SOL     OW32974   1.509   1.580   6.257 -0.5718  0.0885 -0.4300
 7171SOL    HW132975   1.457   1.640   6.204  1.2088 -0.1561 -2.4490
 7171SOL    HW232976   1.503   1.493   6.217 -1.6562 -0.4823  0.9571
 7172SOL     OW32977   1.801   1.329   3.495  0.2553  0.5002 -0.2556
 7172SOL    HW132978   1.712   1.358   3.472  0.5197  2.3819  1.0641
 7172SOL    HW232979   1.794   1.236   3.515 -1.4342  0.5469 -0.5987
 7173SOL     OW32980   1.244   1.090   7.750  0.3111  0.0236 -0.7998
 7173SOL    HW132981   1.230   1.041   7.831  0.2201 -1.7988 -1.9416
 7173SOL    HW232982   1.339   1.088   7.758  0.3946 -0.4101 -1.8973
 7174SOL     OW32983   0.825   0.538   5.093 -0.8738  1.0077 -0.0953
 7174SOL    HW132984   0.818   0.617   5.039 -0.8701 -0.2584 -1.9283
 7174SOL    HW232985   0.765   0.566   5.162 -0.7946 -1.4340  0.9684
 7175SOL     OW32986   3.730   4.345   1.085 -0.5697 -0.6876  0.4433
 7175SOL    HW132987   3.682   4.405   1.142 -0.4551 -0.2534  0.0812
 7175SOL    HW232988   3.768   4.287   1.151 -1.4737 -0.3991  1.2139
 7176SOL     OW32989   4.522   1.047   4.245 -0.5474 -0.2585 -0.5681
 7176SOL    HW132990   4.481   0.986   4.306  0.1344 -0.5608 -0.4141
 7176SOL    HW232991   4.535   1.126   4.298  1.0836  0.4715 -2.0471
 7177SOL     OW32992   4.427   0.663   7.734 -0.3955  0.3570  0.4068
 7177SOL    HW132993   4.502   0.613   7.768 -0.3142  2.2477  3.0401
 7177SOL    HW232994   4.359   0.613   7.780  0.8105 -0.4848  1.2949
 7178SOL     OW32995   1.919   4.172   4.392 -0.5925  0.0542  0.2779
 7178SOL    HW132996   1.885   4.171   4.302 -1.2979 -1.8432  0.5538
 7178SOL    HW232997   1.951   4.081   4.395 -1.1064 -0.1838 -1.2323
 7179SOL     OW32998   0.338   4.615   4.307  0.6966 -1.0406 -0.7113
 7179SOL    HW132999   0.308   4.685   4.365 -2.4916 -1.2376 -2.0968
 7179SOL    HW233000   0.260   4.604   4.252 -0.5616  0.9759  0.6700
 7180SOL     OW33001   0.268   0.230   0.458 -0.3989  0.4024  0.9470
 7180SOL    HW133002   0.351   0.200   0.495  0.8072 -0.0431 -2.1754
 7180SOL    HW233003   0.267   0.203   0.366 -2.2088 -0.1610  1.1264
 7181SOL     OW33004   1.924   0.248  10.292  0.2712  0.5555 -0.3667
 7181SOL    HW133005   1.957   0.223  10.205  1.4023  0.9434 -0.0367
 7181SOL    HW233006   1.834   0.248  10.259  0.8292 -0.3405 -1.9216
 7182SOL     OW33007   1.739   3.632  12.959  0.3590  0.1710 -0.2234
 7182SOL    HW133008   1.716   3.682  12.880 -1.6336 -1.9371 -0.9708
 7182SOL    HW233009   1.659   3.580  12.966 -0.4101  1.9371  3.7481
 7183SOL     OW33010   4.617   0.828   1.823  0.2862 -0.1898  0.3289
 7183SOL    HW133011   4.576   0.804   1.739 -2.2135 -2.4710  2.2057
 7183SOL    HW233012   4.562   0.898   1.856  0.4756  1.1497 -2.2079
 7184SOL     OW33013   3.680   0.549   2.351 -0.0486  0.3114  0.1712
 7184SOL    HW133014   3.757   0.528   2.405 -0.5362 -1.1723  0.2883
 7184SOL    HW233015   3.700   0.491   2.278 -1.8835  0.8866 -0.7637
 7185SOL     OW33016   3.547   0.967  11.091  0.0614 -0.0454 -0.6045
 7185SOL    HW133017   3.506   0.913  11.158  1.6559  1.1858  1.3816
 7185SOL    HW233018   3.569   1.043  11.145 -0.0966  1.4979 -2.7009
 7186SOL     OW33019   3.117   1.884   7.300 -0.1400 -0.1409  0.4967
 7186SOL    HW133020   3.100   1.906   7.392  1.7638  0.8521  0.6138
 7186SOL    HW233021   3.054   1.945   7.262  0.5827  0.8032  0.7965
 7187SOL     OW33022   3.636   0.708  15.271 -0.3988 -0.5237 -0.3851
 7187SOL    HW133023   3.634   0.659  15.353 -0.2061 -0.0254 -0.0845
 7187SOL    HW233024   3.593   0.635  15.225 -1.9569  0.7101 -0.8560
 7188SOL     OW33025   0.077   3.507  12.899 -0.0887  0.0048  0.1278
 7188SOL    HW133026   0.047   3.460  12.977  1.0533 -0.2025  0.4537
 7188SOL    HW233027   0.061   3.450  12.825 -1.2285  0.0988  0.3089
 7189SOL     OW33028   1.468   2.017   1.131 -0.1432 -0.1458  0.4306
 7189SOL    HW133029   1.491   2.007   1.223  1.2461  0.3900  0.1431
 7189SOL    HW233030   1.531   1.960   1.086 -0.4856  2.1013 -2.9178
 7190SOL     OW33031   3.607   4.653   8.272 -0.2997  0.0055 -0.2155
 7190SOL    HW133032   3.666   4.647   8.197 -0.4303  0.5946 -0.3673
 7190SOL    HW233033   3.526   4.619   8.234  0.1883  0.4161 -1.6170
 7191SOL     OW33034   1.896   2.863   1.758  0.4680 -0.3450 -0.6445
 7191SOL    HW133035   1.839   2.936   1.780  1.7428  0.7650 -1.0059
 7191SOL    HW233036   1.919   2.834   1.847  1.5531 -0.8517 -1.0936
 7192SOL     OW33037   3.066   2.577   2.265 -0.2147  0.5225  0.8755
 7192SOL    HW133038   3.080   2.483   2.279 -0.6417  0.2192 -0.7390
 7192SOL    HW233039   3.153   2.605   2.295  0.1296  0.6528 -0.2701
 7193SOL     OW33040   1.821   2.795   1.283 -0.4526 -0.2842 -0.0434
 7193SOL    HW133041   1.777   2.806   1.367 -2.1795  0.0521 -0.9752
 7193SOL    HW233042   1.852   2.885   1.278 -0.1361 -0.3012  1.7023
 7194SOL     OW33043   2.341   3.739   9.727 -0.0806 -0.0415  0.2470
 7194SOL    HW133044   2.330   3.776   9.815  2.7176  1.0311  0.1442
 7194SOL    HW233045   2.332   3.645   9.741  0.4778  0.2803  2.6818
 7195SOL     OW33046   3.072   0.610   6.678 -0.2738 -0.1039  0.4176
 7195SOL    HW133047   2.989   0.564   6.688 -0.9847  1.0456 -0.1388
 7195SOL    HW233048   3.041   0.699   6.658 -1.6337 -0.8975 -0.9341
 7196SOL     OW33049   1.640   3.318  17.317 -0.1396  0.4202 -0.1848
 7196SOL    HW133050   1.594   3.234  17.322  2.6190 -0.9525  1.7894
 7196SOL    HW233051   1.731   3.288  17.311 -0.2043  0.1296  0.3138
 7197SOL     OW33052   0.392   2.131   6.163 -0.4715  0.5158 -0.1483
 7197SOL    HW133053   0.446   2.210   6.161  0.4105 -0.0385  1.2996
 7197SOL    HW233054   0.323   2.163   6.222  1.9078  3.2691  1.1130
 7198SOL     OW33055   2.523   2.699   6.084  0.4958  0.6197  0.1269
 7198SOL    HW133056   2.616   2.721   6.079 -0.0228  2.8084  0.4375
 7198SOL    HW233057   2.485   2.754   6.016  0.0485  1.6400  1.2152
 7199SOL     OW33058   2.533   2.523   0.362 -0.1870  0.2979  0.0203
 7199SOL    HW133059   2.618   2.568   0.354  0.3186 -0.5034  0.8614
 7199SOL    HW233060   2.533   2.515   0.458  3.2785 -0.4745 -0.0427
 7200SOL     OW33061   4.353   4.534  15.054 -0.0869 -0.2263 -0.2167
 7200SOL    HW133062   4.326   4.622  15.026 -0.9455 -1.1636 -2.3380
 7200SOL    HW233063   4.437   4.546  15.098  0.6164 -1.7505 -1.1680
 7201SOL     OW33064   3.634   4.678  11.589  0.1223  0.8197  0.2003
 7201SOL    HW133065   3.672   0.016  11.526  1.4954 -0.6955 -0.4570
 7201SOL    HW233066   3.705   4.614  11.594 -0.8317 -0.3541 -0.8910
 7202SOL     OW33067   4.484   0.947  14.911 -0.1790 -0.2915  0.4443
 7202SOL    HW133068   4.478   0.858  14.875  0.4815 -0.2165  0.1607
 7202SOL    HW233069   4.537   0.930  14.989 -0.1684  2.5144  1.0431
 7203SOL     OW33070   0.661   4.542   0.848 -0.9534 -0.6074 -0.7848
 7203SOL    HW133071   0.713   4.464   0.864 -1.9545 -0.7061  1.8971
 7203SOL    HW233072   0.686   4.566   0.758 -1.6906 -1.6870 -1.2832
 7204SOL     OW33073   3.910   4.194   7.650 -0.0775  0.0647 -0.3919
 7204SOL    HW133074   4.005   4.193   7.650 -0.0654  1.2131  1.2095
 7204SOL    HW233075   3.889   4.204   7.743 -0.9139 -1.8355 -0.3851
 7205SOL     OW33076   4.491   1.290  13.191  0.4665  0.1860  0.0025
 7205SOL    HW133077   4.577   1.327  13.213  0.3238  0.6122 -0.1591
 7205SOL    HW233078   4.469   1.240  13.269  0.5122 -0.5766 -0.4745
 7206SOL     OW33079   2.897   3.449   4.895  0.2285 -0.3675 -0.2671
 7206SOL    HW133080   2.922   3.498   4.974  2.5642 -1.2205 -0.4946
 7206SOL    HW233081   2.807   3.475   4.872  0.4773  0.4839 -0.2919
 7207SOL     OW33082   2.120   2.404   2.054  0.2364 -0.0198  0.0175
 7207SOL    HW133083   2.181   2.471   2.086  0.4849  0.2518 -1.0204
 7207SOL    HW233084   2.144   2.401   1.961 -0.1592  0.2321 -0.0942
 7208SOL     OW33085   0.125   4.524   4.526 -0.1799  0.2458 -0.0276
 7208SOL    HW133086   0.206   4.511   4.476  0.0993 -0.9350  0.7475
 7208SOL    HW233087   0.071   4.452   4.493 -3.6709  1.7130  2.5764
 7209SOL     OW33088   1.970   0.910   2.111 -0.8831  0.0530 -0.0212
 7209SOL    HW133089   1.899   0.861   2.068 -0.2307 -1.6711  0.8964
 7209SOL    HW233090   1.955   0.875   2.198  2.2643  2.2378  1.3758
 7210SOL     OW33091   3.020   2.418  12.476 -0.1953  0.3290  0.0447
 7210SOL    HW133092   3.045   2.447  12.388 -1.1021  0.4629 -0.1713
 7210SOL    HW233093   3.084   2.348  12.487  1.5301  1.7463 -1.1769
 7211SOL     OW33094   2.525   2.523   3.934  0.0554 -0.3290 -0.2150
 7211SOL    HW133095   2.445   2.574   3.932 -1.3719 -2.5711 -0.5252
 7211SOL    HW233096   2.582   2.597   3.956 -0.5679 -0.2665  1.1729
 7212SOL     OW33097   0.460   1.629   3.880  0.3064 -0.1965  0.1492
 7212SOL    HW133098   0.543   1.671   3.860  1.3779 -2.5400 -0.3787
 7212SOL    HW233099   0.400   1.703   3.883 -1.1119 -1.3673  1.1938
 7213SOL     OW33100   0.204   2.117  10.135  0.1932  0.1673  0.0535
 7213SOL    HW133101   0.222   2.121  10.229 -1.9142  1.6179  0.3934
 7213SOL    HW233102   0.109   2.121  10.145  0.2071  2.2304 -0.6435
 7214SOL     OW33103   3.865   1.387   8.090 -0.2340  0.5310 -0.1096
 7214SOL    HW133104   3.901   1.301   8.065 -1.4653  0.0914 -0.3664
 7214SOL    HW233105   3.801   1.409   8.022 -2.3826  1.6316  2.3150
 7215SOL     OW33106   2.978   0.740   0.091  0.0159  0.4879  0.0233
 7215SOL    HW133107   2.953   0.734   0.183  0.6943  1.5791  0.2771
 7215SOL    HW233108   3.072   0.757   0.099  0.1552  0.3280 -1.1929
 7216SOL     OW33109   2.026   1.999   3.183 -0.1308 -0.3277 -0.1940
 7216SOL    HW133110   1.964   1.950   3.129 -1.2769  1.5800 -0.5748
 7216SOL    HW233111   1.984   2.084   3.183  1.4780  0.4726  0.7279
 7217SOL     OW33112   2.176   4.459   2.601 -0.5831 -0.5344  0.6559
 7217SOL    HW133113   2.195   4.509   2.681 -1.4117 -0.6403  0.9151
 7217SOL    HW233114   2.147   4.383   2.650 -4.6823 -1.2075 -2.8547
 7218SOL     OW33115   3.743   4.169   2.170 -0.1622 -0.5152 -0.1731
 7218SOL    HW133116   3.765   4.261   2.183 -1.3616 -0.0923 -1.1176
 7218SOL    HW233117   3.651   4.178   2.194 -0.5914 -0.2252 -1.9375
 7219SOL     OW33118   3.226   0.705   1.641 -0.3547 -0.4918 -0.0169
 7219SOL    HW133119   3.182   0.744   1.565  1.3352  2.5481  0.5818
 7219SOL    HW233120   3.157   0.648   1.676  0.0894 -0.1681  1.3635
 7220SOL     OW33121   1.248   3.062   3.350  0.4250  0.0385  0.4534
 7220SOL    HW133122   1.343   3.072   3.357  0.6966 -1.5084 -0.9204
 7220SOL    HW233123   1.229   3.058   3.444 -0.8713  1.2299  0.2603
 7221SOL     OW33124   1.482   2.481   2.786 -0.1890  0.1937  0.2470
 7221SOL    HW133125   1.549   2.500   2.720  0.5347  2.4211  1.6278
 7221SOL    HW233126   1.518   2.506   2.871 -0.3351 -0.5699  0.5270
 7222SOL     OW33127   4.476   3.380   9.817  0.2442  0.2695  0.0071
 7222SOL    HW133128   4.566   3.356   9.794  0.8460  3.0375 -0.5178
 7222SOL    HW233129   4.467   3.348   9.907  1.7168 -0.1327  0.0077
 7223SOL     OW33130   2.706   3.835   2.171  0.4680 -0.3233  0.0489
 7223SOL    HW133131   2.656   3.885   2.105  0.9942 -0.4495 -0.4472
 7223SOL    HW233132   2.772   3.902   2.189 -1.1865  1.2306  0.3443
 7224SOL     OW33133   0.139   3.674  13.845 -0.2783 -0.3448 -0.5836
 7224SOL    HW133134   0.230   3.684  13.817 -1.0646  0.2510 -3.0045
 7224SOL    HW233135   0.139   3.580  13.828 -0.8742 -0.0644 -2.1699
 7225SOL     OW33136   0.474   0.773   5.983  0.1685  0.5560  0.1759
 7225SOL    HW133137   0.398   0.775   6.041  0.7505 -0.6220  0.9855
 7225SOL    HW233138   0.530   0.715   6.034  2.1198  0.6384 -1.8470
 7226SOL     OW33139   0.717   1.233   2.724  0.1763 -0.0166 -0.3819
 7226SOL    HW133140   0.740   1.232   2.631 -1.6946  1.8267 -0.8505
 7226SOL    HW233141   0.646   1.169   2.723  1.9416 -1.9784 -1.5965
 7227SOL     OW33142   2.025   4.590   5.048  0.0832 -0.7028  0.5274
 7227SOL    HW133143   2.003   4.498   5.058 -1.5005 -0.6854 -2.9913
 7227SOL    HW233144   2.020   4.607   4.954 -1.6601  0.4805  0.8217
 7228SOL     OW33145   1.144   0.009  16.453  0.0352  0.1840  0.2456
 7228SOL    HW133146   1.150   0.007  16.358  1.7353  3.4302  0.2769
 7228SOL    HW233147   1.050   0.013  16.473  0.2045  0.4677  1.0008
 7229SOL     OW33148   2.548   0.527   1.525 -0.1746 -0.2849 -0.3966
 7229SOL    HW133149   2.488   0.454   1.541  1.4772 -1.4832  0.2508
 7229SOL    HW233150   2.623   0.476   1.496 -0.5214  0.3603 -2.3763
 7230SOL     OW33151   1.785   3.985  13.045  0.3964  0.4212 -0.2980
 7230SOL    HW133152   1.771   4.070  13.005  2.7640 -0.0514 -2.1201
 7230SOL    HW233153   1.692   3.964  13.054  0.6406 -0.8943 -0.8276
 7231SOL     OW33154   3.090   0.671  16.273  0.9219  0.2442  1.0610
 7231SOL    HW133155   3.038   0.747  16.246 -0.2895 -1.1853 -0.6032
 7231SOL    HW233156   3.180   0.696  16.251  0.3342  1.0422 -0.3804
 7232SOL     OW33157   3.645   0.631  16.173 -0.4265 -0.2968  0.0235
 7232SOL    HW133158   3.733   0.662  16.154 -1.0993  0.9189 -1.1387
 7232SOL    HW233159   3.640   0.563  16.105  0.6781  0.9727 -1.3130
 7233SOL     OW33160   2.577   3.681   2.348 -0.0300 -0.0169  0.0776
 7233SOL    HW133161   2.500   3.737   2.339  0.1188  0.5768  2.5608
 7233SOL    HW233162   2.639   3.722   2.287 -0.8216  1.5887  0.3518
 7234SOL     OW33163   3.364   2.673   6.983 -0.3114  0.2186  0.6162
 7234SOL    HW133164   3.394   2.763   6.973 -0.5143  0.3597  1.3297
 7234SOL    HW233165   3.271   2.678   6.960  0.1248 -0.1942 -1.2938
 7235SOL     OW33166   1.854   4.461   8.260  0.2789  0.1829  0.1700
 7235SOL    HW133167   1.849   4.522   8.334  2.4663 -0.4559  0.8235
 7235SOL    HW233168   1.799   4.519   8.207  0.4953 -1.5875 -1.9522
 7236SOL     OW33169   3.280   3.836   0.438  0.1846 -0.1361 -0.2860
 7236SOL    HW133170   3.231   3.849   0.358 -0.6084 -2.0009 -0.0873
 7236SOL    HW233171   3.314   3.925   0.451 -3.0893  1.2055 -0.8712
 7237SOL     OW33172   3.222   4.430   8.273 -0.2123  0.1176  1.2380
 7237SOL    HW133173   3.196   4.520   8.254 -1.7261 -0.6846 -0.4624
 7237SOL    HW233174   3.316   4.437   8.255 -0.5748 -1.3347 -1.1023
 7238SOL     OW33175   4.300   3.817   1.311  0.0377 -0.4195  0.0742
 7238SOL    HW133176   4.213   3.835   1.346 -2.3192 -3.2197 -4.3484
 7238SOL    HW233177   4.302   3.723   1.296 -0.5317 -0.5064  0.5486
 7239SOL     OW33178   4.373   3.549   2.406 -0.0082  0.3442  0.4390
 7239SOL    HW133179   4.430   3.490   2.456  1.4610  0.3760 -1.1897
 7239SOL    HW233180   4.288   3.511   2.428  0.3088 -0.1376  0.8329
 7240SOL     OW33181   2.388   0.860   6.886  0.0404  0.0241  0.1457
 7240SOL    HW133182   2.460   0.801   6.863 -0.8582 -1.4959  1.2163
 7240SOL    HW233183   2.385   0.914   6.807 -0.6947  0.9030  0.7696
 7241SOL     OW33184   0.999   0.934   8.148  0.2957  0.0660  0.0727
 7241SOL    HW133185   1.059   0.887   8.091 -1.5503 -1.1801 -0.8276
 7241SOL    HW233186   1.009   1.024   8.117 -3.0895  0.6396  0.6210
 7242SOL     OW33187   2.656   1.995  12.413 -0.6940 -0.4669 -0.4961
 7242SOL    HW133188   2.675   1.907  12.381  1.8237  0.0754 -0.4929
 7242SOL    HW233189   2.639   1.970  12.504 -0.8946  1.1696 -0.0851
 7243SOL     OW33190   2.283   3.910   1.796 -0.2028  0.0796  0.4741
 7243SOL    HW133191   2.287   3.998   1.758 -0.1360 -0.9343 -1.8437
 7243SOL    HW233192   2.271   3.928   1.889 -0.6815 -1.0703  0.6385
 7244SOL     OW33193   2.462   0.959  10.213 -0.2398 -0.0554  0.0947
 7244SOL    HW133194   2.543   0.928  10.172 -1.8946 -0.4176 -2.9466
 7244SOL    HW233195   2.421   0.886  10.260  2.2382 -0.8614  0.9878
 7245SOL     OW33196   1.391   0.297  11.023  0.2134 -0.1404  0.0705
 7245SOL    HW133197   1.300   0.324  11.030  1.0703  2.8761 -0.1832
 7245SOL    HW233198   1.379   0.241  10.946  0.0506 -0.4374  0.3170
 7246SOL     OW33199   4.191   4.341   5.801  0.3330 -0.4697  0.0862
 7246SOL    HW133200   4.164   4.290   5.724 -0.8999  0.1673  0.0820
 7246SOL    HW233201   4.115   4.399   5.803 -1.0049 -2.2455  1.4817
 7247SOL     OW33202   3.805   1.266   4.215 -0.6622 -0.0739 -0.0236
 7247SOL    HW133203   3.861   1.341   4.195 -0.1745 -0.4312 -0.0264
 7247SOL    HW233204   3.849   1.206   4.154 -0.0124  2.1881 -1.7526
 7248SOL     OW33205   3.504   1.205  14.325  0.0259  0.1613 -0.0560
 7248SOL    HW133206   3.428   1.146  14.333 -2.1019  2.7712 -0.9214
 7248SOL    HW233207   3.576   1.144  14.342 -1.3178 -1.3015  0.4425
 7249SOL     OW33208   3.402   1.067  10.428 -0.1075 -0.0099 -0.5968
 7249SOL    HW133209   3.411   1.022  10.344  0.3458 -0.9116 -0.0551
 7249SOL    HW233210   3.486   1.034  10.461  0.3814  1.2918 -0.5242
 7250SOL     OW33211   3.342   0.228   3.743  1.0284 -0.3428  0.5453
 7250SOL    HW133212   3.259   0.257   3.704  1.3834  0.2148  0.2110
 7250SOL    HW233213   3.320   0.154   3.800 -0.5874 -0.1885  0.1144
 7251SOL     OW33214   2.280   4.596   1.803 -0.1064  0.6908  0.2672
 7251SOL    HW133215   2.223   4.669   1.826  1.4524  2.7047 -2.2194
 7251SOL    HW233216   2.324   4.604   1.887 -1.5665  3.1917  0.8003
 7252SOL     OW33217   3.471   1.895  17.581 -0.0331 -0.0213 -0.1266
 7252SOL    HW133218   3.436   1.881  17.669 -1.8793  2.9090 -0.3842
 7252SOL    HW233219   3.460   1.808  17.544  1.8439  0.5653 -2.0921
 7253SOL     OW33220   3.822   0.514  15.177  0.7571 -0.7024  0.3861
 7253SOL    HW133221   3.812   0.609  15.175 -1.6274 -0.9238  2.3137
 7253SOL    HW233222   3.774   0.491  15.257 -0.8863  0.1280 -0.3649
 7254SOL     OW33223   1.129   4.513   5.853 -0.1843  0.0536 -0.6908
 7254SOL    HW133224   1.080   4.472   5.782  0.1799  0.3619 -1.1225
 7254SOL    HW233225   1.109   4.605   5.833  0.7950  0.3417 -0.3235
 7255SOL     OW33226   4.469   4.422   3.499  0.0976 -0.5852 -0.6304
 7255SOL    HW133227   4.399   4.487   3.497  0.6502  0.0595  1.0257
 7255SOL    HW233228   4.426   4.366   3.564 -1.3955  0.0845 -1.0274
 7256SOL     OW33229   4.684   3.958  16.883  0.3449  0.2755 -0.3641
 7256SOL    HW133230   0.000   4.035  16.923 -0.3010  1.0474 -1.2036
 7256SOL    HW233231   4.711   3.972  16.792  2.6671 -0.5914  0.2124
 7257SOL     OW33232   2.312   3.310   4.283 -0.3182 -0.9215  0.0013
 7257SOL    HW133233   2.383   3.355   4.328 -1.8267  1.2168  0.2540
 7257SOL    HW233234   2.357   3.226   4.289  1.8602  0.2098 -0.3987
 7258SOL     OW33235   2.729   1.756   3.492 -0.3489  0.7957 -0.1329
 7258SOL    HW133236   2.734   1.849   3.471 -1.3931  0.9630  0.3526
 7258SOL    HW233237   2.650   1.761   3.546 -0.8937 -0.6117 -0.7735
 7259SOL     OW33238   2.786   2.758   6.019 -0.0170 -0.2061 -0.1221
 7259SOL    HW133239   2.840   2.679   6.021  1.0564  0.5278 -0.3146
 7259SOL    HW233240   2.808   2.794   5.933 -0.2978  0.7311  0.2068
 7260SOL     OW33241   1.925   1.487   5.032  0.2542  0.0986 -0.0046
 7260SOL    HW133242   1.954   1.425   5.099  1.7711 -1.9233 -2.5556
 7260SOL    HW233243   1.832   1.486   5.053  0.4006 -2.0955  0.5369
 7261SOL     OW33244   1.844   3.292  12.878  0.2477  0.2674 -0.4426
 7261SOL    HW133245   1.906   3.364  12.866  0.1583  0.0623 -2.0276
 7261SOL    HW233246   1.888   3.220  12.835  0.0453  0.0968 -0.3648
 7262SOL     OW33247   3.754   3.424   6.641  0.6331 -0.3789  0.3075
 7262SOL    HW133248   3.830   3.435   6.585 -1.0969  0.1151 -1.9253
 7262SOL    HW233249   3.683   3.470   6.597  0.4712 -2.2676 -1.4009
 7263SOL     OW33250   3.768   2.148   3.529 -0.3769 -0.6763  0.5224
 7263SOL    HW133251   3.804   2.237   3.526  0.3284 -1.1817 -4.6026
 7263SOL    HW233252   3.777   2.139   3.624  0.3570  1.6114  0.6693
 7264SOL     OW33253   2.343   2.576  16.443  0.1376  0.0263 -0.0334
 7264SOL    HW133254   2.303   2.616  16.520 -2.6666  0.3714 -1.6874
 7264SOL    HW233255   2.346   2.483  16.466  1.2246  0.2826  0.8881
 7265SOL     OW33256   2.899   1.041   2.443  0.3157 -0.1033 -1.0104
 7265SOL    HW133257   2.828   1.086   2.489  1.4179 -0.6420  1.2180
 7265SOL    HW233258   2.861   1.025   2.357 -2.3489  0.2348  0.0904
 7266SOL     OW33259   0.508   1.100  11.840  0.0226  0.5791 -0.2303
 7266SOL    HW133260   0.518   1.176  11.898 -2.7901  2.3721 -2.1387
 7266SOL    HW233261   0.511   1.150  11.759  2.4341 -0.3578 -0.7481
 7267SOL     OW33262   3.026   0.225   0.727  0.1446 -0.2361 -0.0025
 7267SOL    HW133263   2.983   0.141   0.744 -0.2886 -0.0091  0.0314
 7267SOL    HW233264   2.958   0.274   0.772  1.1187 -0.1817  1.4091
 7268SOL     OW33265   1.450   4.645   2.718 -0.3238  0.0555 -0.2138
 7268SOL    HW133266   1.356   4.644   2.702 -0.2479 -1.3085 -0.5696
 7268SOL    HW233267   1.477   4.569   2.666 -1.7108 -1.2042  0.9223
 7269SOL     OW33268   4.640   4.655  16.027 -0.1594 -0.2832  0.8256
 7269SOL    HW133269   4.688   4.696  15.956  0.5553 -1.9429  0.3434
 7269SOL    HW233270   4.607   0.004  16.079  0.3973 -0.7749  1.8587
 7270SOL     OW33271   2.417   2.219   2.554 -0.2030 -0.2037 -0.2139
 7270SOL    HW133272   2.323   2.206   2.568 -0.3151 -0.5996 -1.3334
 7270SOL    HW233273   2.430   2.313   2.568  3.0139 -0.3368 -2.2801
 7271SOL     OW33274   4.677   0.536   3.731 -0.2003 -0.0045 -0.1589
 7271SOL    HW133275   4.601   0.553   3.676 -0.3894  1.3039  0.5036
 7271SOL    HW233276   4.632   0.527   3.815 -0.9167  0.7389 -0.4649
 7272SOL     OW33277   0.815   1.653   1.929 -0.0679 -0.1920 -0.1020
 7272SOL    HW133278   0.840   1.728   1.875 -1.0717 -0.4368 -0.9127
 7272SOL    HW233279   0.720   1.656   1.940 -0.0257  0.3889  0.0550
 7273SOL     OW33280   3.542   1.605   4.280  0.6781  0.0321 -0.0907
 7273SOL    HW133281   3.460   1.582   4.238 -0.6282  0.4388  2.2075
 7273SOL    HW233282   3.502   1.665   4.343 -0.5356  0.3991 -1.2269
 7274SOL     OW33283   3.524   1.764   6.758  0.7176 -0.0661 -0.1642
 7274SOL    HW133284   3.516   1.834   6.692  1.8800 -1.0624 -1.3757
 7274SOL    HW233285   3.549   1.681   6.718  0.9003 -0.8030  1.5078
 7275SOL     OW33286   4.351   4.545  14.619 -0.7652 -0.3569  0.0678
 7275SOL    HW133287   4.388   4.463  14.652  0.6408  0.0185 -0.5861
 7275SOL    HW233288   4.276   4.570  14.672 -0.3962  0.4553  0.1987
 7276SOL     OW33289   2.294   2.860   9.742  0.0331 -0.7708  0.3728
 7276SOL    HW133290   2.290   2.772   9.780  2.6545 -0.4825  1.2600
 7276SOL    HW233291   2.385   2.860   9.714 -0.6670  2.0114 -1.9412
 7277SOL     OW33292   2.332   3.823   0.234 -0.0309 -0.3936 -0.4267
 7277SOL    HW133293   2.268   3.880   0.191 -1.3150  0.3126  2.3895
 7277SOL    HW233294   2.416   3.863   0.211  1.1556 -2.5442  0.1504
 7278SOL     OW33295   3.706   0.996   9.150 -0.2482 -0.4944  0.0898
 7278SOL    HW133296   3.668   0.923   9.101  1.8136 -0.6344 -1.3222
 7278SOL    HW233297   3.745   1.045   9.077 -0.2689  2.0820  1.7972
 7279SOL     OW33298   1.026   1.751   6.130 -0.1367 -0.5490 -0.5497
 7279SOL    HW133299   1.023   1.663   6.093 -1.0170  0.1131 -2.0308
 7279SOL    HW233300   0.948   1.750   6.185  0.9131  2.7853  1.0267
 7280SOL     OW33301   1.698   0.641  10.951 -0.6563  0.0075 -0.0066
 7280SOL    HW133302   1.647   0.673  11.025 -1.4897 -0.8178 -0.2261
 7280SOL    HW233303   1.674   0.551  10.929 -3.3302  0.3048  1.6617
 7281SOL     OW33304   2.371   0.805   5.102  0.1561 -0.4064  0.0644
 7281SOL    HW133305   2.286   0.799   5.146 -0.7437  0.5755 -1.5659
 7281SOL    HW233306   2.379   0.714   5.072  0.2945 -0.5740  0.6081
 7282SOL     OW33307   2.738   3.153   3.500  0.1704  0.4764 -0.9130
 7282SOL    HW133308   2.684   3.119   3.571 -0.8669 -1.6672 -2.7085
 7282SOL    HW233309   2.828   3.124   3.519  0.5274  1.1137 -1.6010
 7283SOL     OW33310   3.586   3.210  12.648  0.1214  0.0989 -0.7330
 7283SOL    HW133311   3.600   3.220  12.742 -1.5834  0.1444 -0.4851
 7283SOL    HW233312   3.540   3.290  12.624  0.7298  0.7783  0.4231
 7284SOL     OW33313   3.147   4.172   8.252  0.1108  0.2272 -0.2371
 7284SOL    HW133314   3.052   4.179   8.264  0.1726 -1.9320  1.4506
 7284SOL    HW233315   3.182   4.261   8.261  0.6070 -0.2092  2.0819
 7285SOL     OW33316   2.159   0.024   4.529 -0.1513 -0.2356 -0.5187
 7285SOL    HW133317   2.127   0.114   4.533 -0.2045 -0.2728 -0.1110
 7285SOL    HW233318   2.092   4.692   4.490 -2.6484  0.0742  3.3445
 7286SOL     OW33319   0.570   4.513   5.448 -0.1129 -0.1430  0.1061
 7286SOL    HW133320   0.487   4.546   5.412  0.3066  1.6416  0.7449
 7286SOL    HW233321   0.626   4.571   5.396  0.5312 -0.1774  0.7613
 7287SOL     OW33322   4.625   2.146  10.489 -0.1383 -0.0964 -0.4985
 7287SOL    HW133323   4.616   2.204  10.413  0.6889  1.5206  0.6330
 7287SOL    HW233324   4.582   2.201  10.555  0.6505  0.0415 -0.0990
 7288SOL     OW33325   3.900   1.775   2.626  0.5537 -0.2627  0.6145
 7288SOL    HW133326   3.929   1.844   2.685  1.0100 -1.0965  1.3562
 7288SOL    HW233327   3.877   1.836   2.556 -1.6873  0.0191  1.5782
 7289SOL     OW33328   3.190   0.935  10.692 -0.0410  0.1896 -1.0841
 7289SOL    HW133329   3.266   0.990  10.713  1.3767 -1.6712 -1.2209
 7289SOL    HW233330   3.228   0.848  10.676 -0.0165  0.2818 -1.5386
 7290SOL     OW33331   4.664   2.860   9.344  0.0815  0.2267 -0.0871
 7290SOL    HW133332   4.666   2.772   9.306 -0.1150  0.9768 -1.8256
 7290SOL    HW233333   4.581   2.846   9.389  0.0272  0.7579 -0.0202
 7291SOL     OW33334   1.114   3.976   7.132  0.3780  0.3548 -0.5286
 7291SOL    HW133335   1.077   4.020   7.056 -2.8056 -0.6594  0.4574
 7291SOL    HW233336   1.151   3.892   7.106 -0.0863 -0.0225  0.0271
 7292SOL     OW33337   2.001   4.262   0.649 -0.1333  0.3250 -0.4611
 7292SOL    HW133338   2.033   4.197   0.586 -1.2558 -0.4570 -0.2196
 7292SOL    HW233339   2.085   4.284   0.689  0.2595 -2.4922  0.2833
 7293SOL     OW33340   1.716   4.267   8.008  0.3717 -0.2188 -0.3552
 7293SOL    HW133341   1.710   4.281   8.102 -0.8057 -2.2004 -0.1452
 7293SOL    HW233342   1.810   4.254   7.996  0.6980  0.9258  0.9873
 7294SOL     OW33343   3.179   0.422   0.934  0.3165 -0.3786  0.0830
 7294SOL    HW133344   3.106   0.478   0.961 -0.3580 -0.5637 -1.3300
 7294SOL    HW233345   3.198   0.455   0.846 -3.5437  0.1932 -0.5349
 7295SOL     OW33346   0.271   0.613   9.132 -0.4133 -0.6608  0.0685
 7295SOL    HW133347   0.336   0.625   9.062 -1.0647 -0.5324 -0.5113
 7295SOL    HW233348   0.333   0.601   9.204  1.1626  2.2593 -0.7939
 7296SOL     OW33349   2.434   4.669  16.226 -0.3562 -0.1866  0.0492
 7296SOL    HW133350   2.368   4.630  16.169  1.2232 -0.9123 -1.2883
 7296SOL    HW233351   2.376   0.003  16.277 -0.6966 -2.7931  2.5940
 7297SOL     OW33352   3.884   4.068  16.056  0.7410 -0.2325 -0.3401
 7297SOL    HW133353   3.791   4.064  16.032  0.6812  2.0702 -0.4382
 7297SOL    HW233354   3.888   4.155  16.096 -0.4928 -0.7018  0.8257
 7298SOL     OW33355   2.148   4.396   8.248 -0.1599  0.0018 -0.2231
 7298SOL    HW133356   2.122   4.416   8.158 -0.1413  1.7613  0.1708
 7298SOL    HW233357   2.094   4.461   8.291  1.2296  1.0561 -0.0776
 7299SOL     OW33358   3.047   4.442   6.837 -0.2608  0.3658  0.1708
 7299SOL    HW133359   2.990   4.392   6.895  0.3398  0.8433  1.1614
 7299SOL    HW233360   3.111   4.374   6.815 -0.6068  0.5383 -1.3945
 7300SOL     OW33361   1.713   2.753  11.107 -0.4444 -0.2208 -0.2483
 7300SOL    HW133362   1.790   2.807  11.128 -1.6829  2.7843 -3.3600
 7300SOL    HW233363   1.655   2.813  11.060 -1.6938 -0.2652  1.2345
 7301SOL     OW33364   2.612   3.649  13.802  0.6861 -0.2706 -0.4800
 7301SOL    HW133365   2.599   3.570  13.855  1.8396 -1.0051 -1.2960
 7301SOL    HW233366   2.617   3.622  13.711 -0.7774  2.2523 -1.3155
 7302SOL     OW33367   3.224   0.267   3.286  0.0103  0.2877 -0.0436
 7302SOL    HW133368   3.171   0.307   3.217 -0.5897 -0.0978  0.1935
 7302SOL    HW233369   3.268   0.348   3.311  0.5451 -0.0621  0.1507
 7303SOL     OW33370   1.188   3.158  11.380  0.3224 -0.6984 -0.1718
 7303SOL    HW133371   1.238   3.085  11.343  1.5450 -0.1507  0.3893
 7303SOL    HW233372   1.165   3.129  11.469  1.4095  2.5461  1.1751
 7304SOL     OW33373   1.230   0.972  11.268  0.0063 -0.2302 -0.0743
 7304SOL    HW133374   1.260   1.021  11.192  0.5130 -2.4974 -1.3405
 7304SOL    HW233375   1.159   1.029  11.296  1.8843  1.2336  1.7817
 7305SOL     OW33376   4.659   1.119   9.207 -0.6661  0.4250 -0.0679
 7305SOL    HW133377   4.688   1.045   9.153 -3.0310 -0.8878  0.4661
 7305SOL    HW233378   0.008   1.123   9.269 -1.8504  2.4484  1.1900
 7306SOL     OW33379   0.891   2.730  14.779 -0.3397  0.4432 -0.0544
 7306SOL    HW133380   0.883   2.645  14.822  1.8148  0.9916  1.4219
 7306SOL    HW233381   0.819   2.733  14.716  0.6724 -1.0531 -1.3155
 7307SOL     OW33382   2.928   3.998   7.005 -0.8928  0.1773 -0.2393
 7307SOL    HW133383   2.902   3.941   6.933 -1.2152 -0.1697  0.1505
 7307SOL    HW233384   3.015   4.024   6.977 -0.4619  0.3208  1.2276
 7308SOL     OW33385   0.511   0.388  17.311  0.0133 -0.1519  0.1944
 7308SOL    HW133386   0.537   0.386  17.219  0.0194 -2.1107  0.2592
 7308SOL    HW233387   0.425   0.347  17.309  0.7163 -1.4547 -2.1890
 7309SOL     OW33388   2.251   3.299   6.521 -0.5255  0.5751  0.0364
 7309SOL    HW133389   2.339   3.330   6.500 -0.5001  1.1873  1.0152
 7309SOL    HW233390   2.264   3.223   6.577 -2.4041  0.0569 -0.2035
 7310SOL     OW33391   2.109   2.030   3.468  0.3770 -0.0784 -0.5004
 7310SOL    HW133392   2.093   2.052   3.376  0.5420 -0.5347 -0.6376
 7310SOL    HW233393   2.090   1.937   3.466  2.2458 -0.4494 -0.7558
 7311SOL     OW33394   3.602   3.601   8.611 -0.5427 -0.3711 -0.2287
 7311SOL    HW133395   3.637   3.609   8.700  0.1568 -0.2879 -0.5116
 7311SOL    HW233396   3.520   3.556   8.632 -0.6796 -0.5700 -1.2219
 7312SOL     OW33397   0.975   3.986  15.782  0.4525 -0.0176 -0.0310
 7312SOL    HW133398   0.994   4.065  15.831  0.4167 -0.8754  1.3624
 7312SOL    HW233399   0.921   4.018  15.709 -1.4703  1.5833  2.1122
 7313SOL     OW33400   0.669   1.436   4.381  0.3246 -0.4976  0.5135
 7313SOL    HW133401   0.588   1.479   4.353  0.7500  0.9308  1.4955
 7313SOL    HW233402   0.646   1.346   4.357  1.6353 -0.4943 -0.8019
 7314SOL     OW33403   4.109   2.143  17.460 -0.0969  0.7240 -0.2947
 7314SOL    HW133404   4.081   2.214  17.403 -0.9090 -1.5308 -2.7051
 7314SOL    HW233405   4.132   2.083  17.389  1.1135  1.5113 -0.5610
 7315SOL     OW33406   3.936   3.288   5.042  0.5472 -0.5232  0.3455
 7315SOL    HW133407   3.849   3.323   5.062  1.0717  0.8038  0.2920
 7315SOL    HW233408   3.959   3.267   5.133 -0.6178 -1.4219  0.4479
 7316SOL     OW33409   1.518   3.131   0.096 -0.7210 -0.1971 -0.2150
 7316SOL    HW133410   1.471   3.072   0.037  0.9772 -0.8727 -0.8896
 7316SOL    HW233411   1.588   3.077   0.132  0.4927  0.7260 -1.2088
 7317SOL     OW33412   3.839   3.187   4.444 -0.6799 -0.2015 -0.1967
 7317SOL    HW133413   3.860   3.125   4.514 -1.3959  2.5385  2.4031
 7317SOL    HW233414   3.900   3.157   4.376 -1.9133 -1.8993 -0.5587
 7318SOL     OW33415   2.606   3.955  13.115  0.3912  0.2175  0.2123
 7318SOL    HW133416   2.658   4.009  13.175  0.3895 -0.2645  0.6452
 7318SOL    HW233417   2.540   3.922  13.176 -1.0999  0.3747 -1.3221
 7319SOL     OW33418   2.292   2.661   7.967  0.3413 -0.1606  0.0234
 7319SOL    HW133419   2.266   2.595   7.903 -1.3979 -0.3669  0.9303
 7319SOL    HW233420   2.228   2.654   8.038 -2.2599 -4.9118 -2.8520
 7320SOL     OW33421   1.611   0.860   6.738 -0.3382 -0.3840  0.9306
 7320SOL    HW133422   1.517   0.841   6.738 -0.8528  2.2126  2.3933
 7320SOL    HW233423   1.649   0.776   6.764 -1.5839 -1.1422  0.2884
 7321SOL     OW33424   0.273   3.174  15.525  0.0439  0.1851  0.1026
 7321SOL    HW133425   0.183   3.207  15.518 -0.0967 -1.0638 -3.6405
 7321SOL    HW233426   0.249   3.084  15.503  2.5299 -0.9994  2.1882
 7322SOL     OW33427   0.250   1.001   2.933 -0.0521  0.0651  0.7046
 7322SOL    HW133428   0.342   0.976   2.938 -0.0825 -0.1520  0.1680
 7322SOL    HW233429   0.244   0.995   2.838 -1.2960 -0.1052  0.7976
 7323SOL     OW33430   2.291   3.786   6.682  0.6859 -0.6109  0.3520
 7323SOL    HW133431   2.200   3.798   6.710  0.6494  0.0970 -0.0477
 7323SOL    HW233432   2.313   3.693   6.683  0.9523 -0.5566 -0.3077
 7324SOL     OW33433   3.063   0.602   4.645  0.0683  0.0497  0.5156
 7324SOL    HW133434   3.135   0.542   4.626  1.1271  1.6234 -0.4271
 7324SOL    HW233435   3.059   0.575   4.737  0.5695  0.0636  0.5417
 7325SOL     OW33436   3.358   3.387   4.637 -0.7228  0.1901 -0.3461
 7325SOL    HW133437   3.331   3.380   4.545  0.2400  0.9124 -0.6805
 7325SOL    HW233438   3.361   3.481   4.652 -1.7428  0.1020  0.4023
 7326SOL     OW33439   0.862   3.155   0.775 -0.4623 -0.0696  0.3481
 7326SOL    HW133440   0.860   3.123   0.684 -0.9372  1.6077 -0.2388
 7326SOL    HW233441   0.858   3.072   0.822 -0.8847  1.4249  2.9114
 7327SOL     OW33442   1.813   2.773   6.239  0.1845 -0.3787  0.5357
 7327SOL    HW133443   1.735   2.767   6.185  1.9585  1.7338 -2.3206
 7327SOL    HW233444   1.878   2.780   6.169 -0.2957 -1.3755 -0.0036
 7328SOL     OW33445   2.795   4.647   0.533  0.2469 -0.1877  0.1626
 7328SOL    HW133446   2.702   4.651   0.511 -0.2522 -0.3740  2.2013
 7328SOL    HW233447   2.782   4.645   0.628  0.3946 -1.4274  0.1573
 7329SOL     OW33448   4.502   1.925  10.596  0.0040 -0.1555 -0.0022
 7329SOL    HW133449   4.516   2.006  10.547  0.0333  0.3861  0.8960
 7329SOL    HW233450   4.571   1.870  10.560  0.2521  0.3867 -0.3656
 7330SOL     OW33451   3.440   0.317  10.939 -0.4751  0.3911 -0.0152
 7330SOL    HW133452   3.448   0.383  10.870 -1.0730  1.1055  0.5869
 7330SOL    HW233453   3.528   0.281  10.935 -0.6917 -0.4933  2.6749
 7331SOL     OW33454   2.639   3.925  10.065  0.4936 -0.0865 -0.1199
 7331SOL    HW133455   2.593   3.841  10.061 -2.1994  1.3871  0.0330
 7331SOL    HW233456   2.717   3.903  10.014 -0.3584  0.5050 -1.6656
 7332SOL     OW33457   1.463   3.544  12.963 -0.3614 -0.0637  0.1555
 7332SOL    HW133458   1.416   3.464  12.988  1.6534 -0.8432  1.4140
 7332SOL    HW233459   1.411   3.597  13.023 -0.7340  2.3150 -2.2609
 7333SOL     OW33460   2.533   0.596  11.517  0.0493 -0.0054  0.7716
 7333SOL    HW133461   2.599   0.585  11.449 -0.9711  1.1953 -0.4333
 7333SOL    HW233462   2.572   0.548  11.590  0.1240 -1.9808 -0.5794
 7334SOL     OW33463   2.364   4.118   6.082 -0.2521  0.2160  0.2632
 7334SOL    HW133464   2.366   4.214   6.081  0.1276  0.2175  0.7058
 7334SOL    HW233465   2.307   4.095   6.009  0.9659 -1.5953 -0.1270
 7335SOL     OW33466   1.435   3.536  12.486  0.2369  0.1240  0.4270
 7335SOL    HW133467   1.413   3.629  12.486  0.2590  0.1405 -2.2643
 7335SOL    HW233468   1.484   3.531  12.404 -0.9656 -2.2879 -0.1659
 7336SOL     OW33469   3.795   2.198  15.056  0.0005 -0.1822  0.0019
 7336SOL    HW133470   3.827   2.181  14.967 -1.6809 -1.4947 -0.3542
 7336SOL    HW233471   3.872   2.251  15.076 -2.0004  1.9609  1.9197
 7337SOL     OW33472   1.065   0.567  11.194  0.3762  0.2955 -0.3498
 7337SOL    HW133473   1.018   0.623  11.256  0.9683 -0.5890  0.8952
 7337SOL    HW233474   1.138   0.628  11.189 -1.5310  2.6424  0.6806
 7338SOL     OW33475   1.965   0.228   3.351  0.1414  0.0598 -0.2858
 7338SOL    HW133476   1.954   0.181   3.269 -2.0344  0.1580 -0.0396
 7338SOL    HW233477   1.924   0.172   3.417  1.6985 -1.2367 -0.4301
 7339SOL     OW33478   3.106   2.461   4.618 -0.0414 -0.0817  0.0469
 7339SOL    HW133479   3.038   2.399   4.646 -0.7064  0.9450  0.6931
 7339SOL    HW233480   3.078   2.535   4.672 -1.0259 -1.9871  2.1758
 7340SOL     OW33481   3.499   0.716  14.549 -0.5368  0.2821  0.5592
 7340SOL    HW133482   3.460   0.664  14.620 -1.6999 -1.5173 -1.3896
 7340SOL    HW233483   3.566   0.771  14.589  0.8030  1.1176 -2.9203
 7341SOL     OW33484   0.587   4.204   1.045  0.4650  1.0534  0.3158
 7341SOL    HW133485   0.642   4.125   1.040 -0.0324  0.8155 -1.3234
 7341SOL    HW233486   0.530   4.200   1.121  0.1967 -1.9844 -0.0403
 7342SOL     OW33487   0.311   3.951  14.346  0.4494  0.0521  0.1365
 7342SOL    HW133488   0.272   3.881  14.293  0.3149 -0.2965  0.6986
 7342SOL    HW233489   0.251   4.019  14.317  0.0301 -0.1123  0.6245
 7343SOL     OW33490   3.398   0.129   8.808 -0.4094 -0.9824 -0.7865
 7343SOL    HW133491   3.465   0.073   8.847  1.5443  0.3628 -2.1920
 7343SOL    HW233492   3.451   0.208   8.792  3.6668 -3.8774 -1.5101
 7344SOL     OW33493   2.232   4.119   1.994  0.4862 -0.2991 -0.5961
 7344SOL    HW133494   2.164   4.065   2.035 -0.9053  0.8241 -1.3972
 7344SOL    HW233495   2.183   4.198   1.969 -0.3764  0.4547  3.6049
 7345SOL     OW33496   0.619   1.417   6.846  0.1675 -0.2599  0.5568
 7345SOL    HW133497   0.602   1.468   6.925 -0.5982 -2.1213  1.5859
 7345SOL    HW233498   0.577   1.333   6.866 -0.9871 -0.0024 -0.8137
 7346SOL     OW33499   2.216   3.879   9.216  0.1161 -0.3327 -0.6688
 7346SOL    HW133500   2.165   3.867   9.297  0.7110  1.1428 -0.0915
 7346SOL    HW233501   2.301   3.854   9.252  0.2801 -1.1128 -1.5977
 7347SOL     OW33502   2.158   2.234   2.353 -0.0897 -0.4578 -0.1647
 7347SOL    HW133503   2.232   2.277   2.311 -0.8258  1.4847  0.5328
 7347SOL    HW233504   2.090   2.301   2.343 -0.2398 -0.8933 -2.0787
 7348SOL     OW33505   1.142   2.525   0.769 -0.0449  0.2981 -0.0816
 7348SOL    HW133506   1.197   2.595   0.733  2.2817 -1.8295 -0.6198
 7348SOL    HW233507   1.164   2.530   0.862  2.2073 -1.8707 -0.5093
 7349SOL     OW33508   2.850   2.501   3.107  0.0357  0.6427  0.3742
 7349SOL    HW133509   2.861   2.479   3.200 -0.3473  1.0208  0.5070
 7349SOL    HW233510   2.831   2.418   3.064  1.7390  0.6261 -0.3590
 7350SOL     OW33511   4.558   1.336   8.293 -0.5854 -0.2074  0.7689
 7350SOL    HW133512   4.464   1.332   8.275 -0.1199  0.3773 -1.7545
 7350SOL    HW233513   4.577   1.428   8.314 -2.2019  1.0124 -3.2053
 7351SOL     OW33514   3.472   4.526   3.280 -0.2508  0.6605 -0.2518
 7351SOL    HW133515   3.523   4.482   3.211  0.6799  1.6358 -0.2013
 7351SOL    HW233516   3.420   4.591   3.232  1.5532  1.2233 -1.4907
 7352SOL     OW33517   3.167   1.293   0.918 -0.3333 -0.1128  0.4087
 7352SOL    HW133518   3.105   1.224   0.943 -2.7242  1.8722 -0.0661
 7352SOL    HW233519   3.250   1.266   0.958  0.3765  1.9053  0.2964
 7353SOL     OW33520   0.003   0.180   0.491  0.7731  0.1353  0.2564
 7353SOL    HW133521   0.022   0.110   0.553  2.7926 -1.0186 -1.6857
 7353SOL    HW233522   0.088   0.190   0.447  1.0311  2.6738  1.3331
 7354SOL     OW33523   1.753   0.728   2.431  0.3682  0.3476 -0.2678
 7354SOL    HW133524   1.750   0.665   2.358  2.3391 -0.6708  0.5018
 7354SOL    HW233525   1.821   0.686   2.484  0.7425 -0.3561 -1.2855
 7355SOL     OW33526   0.200   1.806   6.064  0.0295 -0.0992 -0.2351
 7355SOL    HW133527   0.263   1.753   6.113  2.1634 -0.0622 -2.9589
 7355SOL    HW233528   0.169   1.863   6.135  1.3412  1.1142 -0.6565
 7356SOL     OW33529   2.544   3.316   3.370 -0.1339 -0.3414  0.9766
 7356SOL    HW133530   2.606   3.331   3.298  0.2917 -0.4102  1.3265
 7356SOL    HW233531   2.597   3.247   3.410  2.4871  1.3657  0.4883
 7357SOL     OW33532   0.173   1.186   0.400 -0.2334  0.0582 -0.2108
 7357SOL    HW133533   0.104   1.229   0.349  1.1188  0.2956 -1.8498
 7357SOL    HW233534   0.124   1.122   0.451 -0.0106 -0.1629 -0.2776
 7358SOL     OW33535   0.217   4.300  13.182  0.1644 -0.2532  0.4484
 7358SOL    HW133536   0.197   4.369  13.245 -0.9006  0.8501 -1.0762
 7358SOL    HW233537   0.165   4.320  13.104 -1.2651 -2.0240  0.9575
 7359SOL     OW33538   2.446   1.152   9.794 -0.0566  0.4303 -0.0648
 7359SOL    HW133539   2.483   1.225   9.744 -1.6222  1.8510  0.8159
 7359SOL    HW233540   2.361   1.120   9.762  0.5194 -0.2962 -0.8550
 7360SOL     OW33541   3.856   0.846  10.757  0.4016  0.2611 -0.1959
 7360SOL    HW133542   3.945   0.840  10.791 -0.3127  0.7480  1.7597
 7360SOL    HW233543   3.837   0.933  10.792 -0.9571  0.3074 -1.0641
 7361SOL     OW33544   4.349   0.065  13.302 -0.7027  0.1600  0.3030
 7361SOL    HW133545   4.406   0.088  13.228 -0.7725 -0.5274  0.0255
 7361SOL    HW233546   4.379   0.131  13.364  0.1451 -0.1027  0.1812
 7362SOL     OW33547   3.281   3.874  14.480  0.4894  0.0354  0.4255
 7362SOL    HW133548   3.375   3.874  14.463  0.3897  1.2964 -0.1721
 7362SOL    HW233549   3.244   3.891  14.393  2.4718  1.8189 -0.0749
 7363SOL     OW33550   3.152   4.463   1.957 -0.0040  0.3133  0.0577
 7363SOL    HW133551   3.172   4.536   1.898 -5.4666  1.9119  0.2017
 7363SOL    HW233552   3.221   4.407   1.920  1.1541  2.5187 -1.1178
 7364SOL     OW33553   3.161   3.843   2.118 -0.2877  0.3492  0.2237
 7364SOL    HW133554   3.160   3.935   2.145  2.2805  0.0957  1.1640
 7364SOL    HW233555   3.126   3.844   2.029  0.9431 -2.8920 -0.3132
 7365SOL     OW33556   0.108   3.464   6.039  0.0388  0.1531  0.1473
 7365SOL    HW133557   0.156   3.459   6.122 -1.2179 -1.9444  0.7182
 7365SOL    HW233558   0.028   3.499   6.078 -0.5760  1.0878 -1.9598
 7366SOL     OW33559   2.114   0.349   5.679 -0.6862  0.1463 -0.2787
 7366SOL    HW133560   2.142   0.405   5.751  1.2152 -2.2099  0.7912
 7366SOL    HW233561   2.019   0.362   5.682 -0.4175  2.1716 -0.6061
 7367SOL     OW33562   3.370   4.068   4.628  0.3525 -0.6411  0.4802
 7367SOL    HW133563   3.418   4.106   4.554 -1.5604  0.7202 -0.0592
 7367SOL    HW233564   3.317   4.005   4.579 -0.0323 -0.6577  0.9187
 7368SOL     OW33565   2.797   1.521   3.870 -0.2243  0.1709  0.1887
 7368SOL    HW133566   2.799   1.610   3.905  1.5542  1.2140 -2.5587
 7368SOL    HW233567   2.763   1.476   3.947 -0.1083  1.7556  1.1787
 7369SOL     OW33568   2.803   1.143   7.934 -0.1436 -0.5832 -0.1850
 7369SOL    HW133569   2.770   1.217   7.882 -1.7538 -0.8742  0.4336
 7369SOL    HW233570   2.893   1.175   7.926 -0.7567  1.2239  0.2034
 7370SOL     OW33571   0.246   2.989   7.076 -0.0120 -0.1644 -0.1296
 7370SOL    HW133572   0.200   3.058   7.029  0.9958 -0.0127 -0.9016
 7370SOL    HW233573   0.171   2.934   7.099 -0.5523  1.0865  1.0543
 7371SOL     OW33574   3.623   0.928  10.529 -0.3814  0.0502 -0.3040
 7371SOL    HW133575   3.714   0.913  10.504 -0.0385  2.5757 -0.5210
 7371SOL    HW233576   3.630   1.009  10.580  2.3954 -0.5186  0.2122
 7372SOL     OW33577   3.971   4.562  16.069  0.6144  0.1328  0.6284
 7372SOL    HW133578   3.971   4.649  16.109 -0.5967  0.5106 -0.1899
 7372SOL    HW233579   3.997   4.500  16.137  3.4588  1.0618  0.3591
 7373SOL     OW33580   1.525   2.236   2.070 -0.1279 -0.7896 -0.8241
 7373SOL    HW133581   1.431   2.254   2.068 -0.3355 -1.8357  0.3028
 7373SOL    HW233582   1.559   2.295   2.002  0.7267 -0.3639 -0.0251
 7374SOL     OW33583   1.016   0.278   3.435 -0.1427  0.4289  0.5174
 7374SOL    HW133584   0.968   0.201   3.464 -0.1841  0.3954  0.3577
 7374SOL    HW233585   1.100   0.283   3.481 -0.3985 -1.7070  1.1899
 7375SOL     OW33586   1.316   3.944  10.945  0.7398  0.4686 -0.0411
 7375SOL    HW133587   1.282   3.863  10.907  1.7305 -0.6768  1.5226
 7375SOL    HW233588   1.235   3.972  10.987  0.3396  1.7818 -1.6736
 7376SOL     OW33589   3.465   3.320   8.373  0.6730 -0.6344 -0.6921
 7376SOL    HW133590   3.394   3.380   8.393 -0.5345 -2.0687 -0.6588
 7376SOL    HW233591   3.487   3.285   8.459  2.3736  1.4166 -0.2920
 7377SOL     OW33592   4.112   2.621   3.434 -0.2013  0.4701  0.2988
 7377SOL    HW133593   4.151   2.551   3.382  0.6516  0.3646  1.0714
 7377SOL    HW233594   4.022   2.638   3.407  0.0433  0.5714 -0.4355
 7378SOL     OW33595   0.639   0.321  15.183 -0.3048 -0.5295  0.0379
 7378SOL    HW133596   0.715   0.272  15.153 -0.1433  0.4734 -1.1930
 7378SOL    HW233597   0.572   0.257  15.155 -2.9495  1.7264  1.2002
 7379SOL     OW33598   3.150   2.104   0.050  0.1325 -0.3133  0.5680
 7379SOL    HW133599   3.229   2.086   0.100  0.3697 -0.0465  0.2838
 7379SOL    HW233600   3.179   2.065  17.664 -0.4276  0.4614  0.0101
 7380SOL     OW33601   1.520   3.596   2.254 -0.0379 -0.1209 -0.2796
 7380SOL    HW133602   1.518   3.558   2.342 -0.3571  1.1539  0.2706
 7380SOL    HW233603   1.490   3.683   2.283 -0.6316 -0.0141 -1.2330
 7381SOL     OW33604   4.186   4.373  14.841 -0.0322  0.0126 -0.1821
 7381SOL    HW133605   4.140   4.355  14.759 -1.0864  0.3549  0.3399
 7381SOL    HW233606   4.162   4.466  14.848 -0.2199  0.0541 -1.2860
 7382SOL     OW33607   4.500   2.216   5.525  0.3982  0.6007 -0.1872
 7382SOL    HW133608   4.481   2.304   5.494  0.6798  0.2211 -1.4244
 7382SOL    HW233609   4.504   2.230   5.620 -1.3510 -0.9037  0.0986
 7383SOL     OW33610   3.727   0.510   0.948 -0.5607 -0.3645 -0.3252
 7383SOL    HW133611   3.809   0.545   0.982 -1.6513  0.3615  1.6012
 7383SOL    HW233612   3.671   0.553   1.013 -0.1211 -0.1922 -0.0577
 7384SOL     OW33613   4.106   4.032  14.673  0.2885  0.1739  0.2847
 7384SOL    HW133614   4.086   4.060  14.583 -1.2760 -5.1203 -1.0403
 7384SOL    HW233615   4.018   4.040  14.710 -0.0158 -0.3347 -0.3270
 7385SOL     OW33616   2.129   2.310   2.715  0.1487  0.0610 -0.3738
 7385SOL    HW133617   2.084   2.237   2.758  1.0223 -0.1799  0.1512
 7385SOL    HW233618   2.067   2.378   2.740  0.3394 -1.3227  3.9742
 7386SOL     OW33619   2.657   1.953  12.692 -0.7947 -0.3080  0.3505
 7386SOL    HW133620   2.722   1.901  12.740 -0.6161 -0.7339 -0.3457
 7386SOL    HW233621   2.712   2.031  12.693  0.7452 -1.4125  1.2527
 7387SOL     OW33622   0.502   0.641  17.141 -0.0783 -0.0354  0.7987
 7387SOL    HW133623   0.422   0.652  17.089 -0.6721 -0.4925  1.6091
 7387SOL    HW233624   0.546   0.577  17.085  0.1902 -0.1694  1.1578
 7388SOL     OW33625   4.510   3.334   9.480  0.1271  0.1499 -0.3280
 7388SOL    HW133626   4.423   3.303   9.506  0.3931  0.1677  0.6057
 7388SOL    HW233627   4.545   3.246   9.478  2.1090  0.9216  0.3126
 7389SOL     OW33628   3.903   2.108   5.914  0.2676  0.4516 -0.1634
 7389SOL    HW133629   3.938   2.022   5.892 -1.2161 -0.2805  0.3104
 7389SOL    HW233630   3.972   2.143   5.970  1.8592 -0.8193 -1.3236
 7390SOL     OW33631   3.521   1.579  16.606 -0.2218 -0.2868 -0.1599
 7390SOL    HW133632   3.573   1.647  16.562 -1.0978 -0.3950 -1.3438
 7390SOL    HW233633   3.439   1.583  16.557  1.2484  0.4346 -2.5461
 7391SOL     OW33634   4.479   3.165   7.187  0.4822 -0.0077  0.3231
 7391SOL    HW133635   4.412   3.210   7.136  0.8587 -0.6318 -0.7050
 7391SOL    HW233636   4.561   3.207   7.164  1.3105 -0.8555  1.7457
 7392SOL     OW33637   1.078   1.244   4.426 -0.3846  0.0364  0.1263
 7392SOL    HW133638   1.129   1.231   4.346 -1.1344 -0.3150 -0.2894
 7392SOL    HW233639   0.994   1.275   4.393 -0.2841 -1.3732 -1.4497
 7393SOL     OW33640   0.317   3.052   0.705  0.3127 -0.6983  0.0324
 7393SOL    HW133641   0.323   3.012   0.793  1.5047 -0.4288  0.0794
 7393SOL    HW233642   0.305   3.143   0.733  0.2066 -0.5461 -0.5258
 7394SOL     OW33643   4.038   0.017   9.101 -0.0294  0.0771 -0.0440
 7394SOL    HW133644   4.033   0.063   9.017  0.5748 -2.1856 -1.3115
 7394SOL    HW233645   4.104   4.674   9.080  0.2348  0.1580  0.5496
 7395SOL     OW33646   0.404   1.938   4.652  0.0317 -0.1254  0.1982
 7395SOL    HW133647   0.411   2.029   4.681 -1.2167 -0.9168  2.8875
 7395SOL    HW233648   0.444   1.899   4.729  2.5758  1.5770 -0.2569
 7396SOL     OW33649   0.487   2.306  12.702 -0.6150  0.3017 -0.1917
 7396SOL    HW133650   0.425   2.372  12.733 -1.4440  0.2322 -1.6653
 7396SOL    HW233651   0.533   2.274  12.779  0.3357 -1.4696 -1.4712
 7397SOL     OW33652   1.549   0.485   2.776 -0.0064  0.4393  0.4853
 7397SOL    HW133653   1.521   0.395   2.795  1.0449  0.5476  2.6137
 7397SOL    HW233654   1.607   0.505   2.850  0.7851 -2.2151  0.5877
 7398SOL     OW33655   1.708   4.490   6.385  0.5464  0.1581  0.2134
 7398SOL    HW133656   1.659   4.568   6.413 -1.8923 -1.3541  0.1592
 7398SOL    HW233657   1.652   4.424   6.424  1.1867 -1.2368 -1.2327
 7399SOL     OW33658   1.050   2.689  10.496  0.3540 -0.6554  0.6520
 7399SOL    HW133659   1.136   2.663  10.463  1.0705  1.0256  1.1833
 7399SOL    HW233660   0.990   2.643  10.438  0.5748 -0.6546  0.4214
 7400SOL     OW33661   2.299   1.265  10.174  0.7464 -0.2371 -0.7069
 7400SOL    HW133662   2.313   1.286  10.082 -0.6406 -1.7529 -1.2821
 7400SOL    HW233663   2.248   1.341  10.202  1.4241  0.0186 -0.1821
 7401SOL     OW33664   0.070   2.078  10.688  0.6429  0.3264 -0.2619
 7401SOL    HW133665   0.021   2.096  10.608  0.1480  0.4141  0.0614
 7401SOL    HW233666   0.038   2.149  10.744  0.7264  0.1605 -0.0031
 7402SOL     OW33667   4.176   1.408   6.830 -0.2898  0.1550  0.6181
 7402SOL    HW133668   4.221   1.420   6.913  1.3604  1.3168 -0.4248
 7402SOL    HW233669   4.092   1.366   6.846  0.0409 -0.8208 -0.1429
 7403SOL     OW33670   2.394   4.576   3.919  0.2677 -0.3660 -0.0253
 7403SOL    HW133671   2.329   4.603   3.984 -0.2394  1.1750 -1.1701
 7403SOL    HW233672   2.335   4.580   3.844 -2.6723  1.3117  2.3691
 7404SOL     OW33673   1.724   3.826   7.909  0.1361  0.1148 -0.0534
 7404SOL    HW133674   1.797   3.765   7.920  0.0631 -0.0135 -0.2971
 7404SOL    HW233675   1.737   3.876   7.990 -2.2101 -0.2266  0.5327
 7405SOL     OW33676   3.640   0.100   3.161 -0.8934  0.5170 -0.1424
 7405SOL    HW133677   3.552   0.066   3.175 -0.0515 -0.0752  3.5483
 7405SOL    HW233678   3.647   0.152   3.241  0.9799 -0.0598  0.0908
 7406SOL     OW33679   2.163   1.194  12.720 -0.3495  0.1296 -0.3001
 7406SOL    HW133680   2.190   1.281  12.751 -1.8642  0.8322 -0.9091
 7406SOL    HW233681   2.242   1.166  12.675 -0.5250 -0.1948 -0.4070
 7407SOL     OW33682   0.773   4.495   7.782 -0.4092  0.3380 -0.0039
 7407SOL    HW133683   0.737   4.583   7.791 -1.0056  0.0532  0.3951
 7407SOL    HW233684   0.825   4.502   7.862 -0.1243  0.0069 -0.1611
 7408SOL     OW33685   1.828   1.235   1.942 -0.3876 -0.7644 -0.3148
 7408SOL    HW133686   1.827   1.310   1.883 -0.1265 -0.2734  0.3008
 7408SOL    HW233687   1.823   1.179   1.865  1.7137 -4.3918  2.2071
 7409SOL     OW33688   3.604   1.592   5.113 -0.5267  0.8340  0.2867
 7409SOL    HW133689   3.583   1.500   5.101 -0.3181  0.7289  0.7139
 7409SOL    HW233690   3.572   1.625   5.029  0.5375 -1.5080 -1.0238
 7410SOL     OW33691   1.813   2.534   5.492  0.3489 -0.3377  0.2762
 7410SOL    HW133692   1.805   2.442   5.468  3.1763 -0.3060 -0.7995
 7410SOL    HW233693   1.728   2.546   5.535 -0.4306 -2.9177 -0.5732
 7411SOL     OW33694   0.579   3.199  11.072  0.1194 -0.0824 -0.1368
 7411SOL    HW133695   0.630   3.274  11.103 -1.9418  1.3829 -0.3170
 7411SOL    HW233696   0.517   3.244  11.016  0.0636 -0.0535 -0.0508
 7412SOL     OW33697   0.052   4.083   2.623  0.2701 -0.5025 -1.1205
 7412SOL    HW133698   4.719   4.122   2.689 -0.9153  0.0706 -2.4843
 7412SOL    HW233699   0.047   4.157   2.563  1.8137  0.1943 -0.3989
 7413SOL     OW33700   0.585   1.030   5.893  0.3433  0.4057 -0.1735
 7413SOL    HW133701   0.571   1.086   5.817 -0.9414  1.2291  0.6874
 7413SOL    HW233702   0.578   0.942   5.856  0.1199  0.8789 -1.2436
 7414SOL     OW33703   4.183   1.926  17.304  0.3104  0.1036  0.0841
 7414SOL    HW133704   4.147   1.874  17.232 -0.4268 -0.0208  0.5358
 7414SOL    HW233705   4.274   1.928  17.277  0.2657  2.4665  0.0820
 7415SOL     OW33706   1.143   2.070  12.941  0.1955 -0.2793 -0.3019
 7415SOL    HW133707   1.076   2.139  12.941 -0.8007 -1.2287 -1.2652
 7415SOL    HW233708   1.150   2.045  13.033 -0.7813 -0.7585 -0.3470
 7416SOL     OW33709   4.267   0.188  12.559 -0.1741 -0.0085  0.7672
 7416SOL    HW133710   4.253   0.205  12.652  2.5226  1.0901  0.9830
 7416SOL    HW233711   4.296   0.275  12.531  0.6983 -0.3570  0.5966
 7417SOL     OW33712   4.436   2.070   4.251  0.3719 -0.0381  0.3317
 7417SOL    HW133713   4.396   1.989   4.282 -0.2110 -0.5955 -1.8606
 7417SOL    HW233714   4.475   2.096   4.334  0.2768  1.5542 -0.1256
 7418SOL     OW33715   0.631   3.125   2.469 -0.6277 -0.0701  0.2226
 7418SOL    HW133716   0.656   3.073   2.393  2.8235 -1.3105  2.2342
 7418SOL    HW233717   0.556   3.177   2.441 -0.6431 -1.3973 -2.1980
 7419SOL     OW33718   1.294   1.461   3.286 -0.2473  0.3082 -0.1080
 7419SOL    HW133719   1.217   1.413   3.255  0.5401 -0.5418 -0.7308
 7419SOL    HW233720   1.239   1.524   3.334 -1.1546 -0.2405 -0.4235
 7420SOL     OW33721   1.295   3.444   3.602  0.0925  0.1112 -0.1728
 7420SOL    HW133722   1.268   3.434   3.511 -2.0389  1.0985  0.3325
 7420SOL    HW233723   1.374   3.392   3.613 -0.5462 -0.7764  0.2854
 7421SOL     OW33724   0.242   0.397  14.440 -0.0797 -0.1321 -0.2286
 7421SOL    HW133725   0.241   0.406  14.535 -0.9566 -2.3869 -0.0236
 7421SOL    HW233726   0.169   0.340  14.415  0.1308  0.3677 -2.0275
 7422SOL     OW33727   4.499   1.585   2.388 -0.0553  0.1695  0.0348
 7422SOL    HW133728   4.459   1.555   2.306 -0.0841 -0.3270  0.2282
 7422SOL    HW233729   4.426   1.566   2.448  0.1931  2.1223  0.9460
 7423SOL     OW33730   4.005   1.041  12.726 -0.7095  0.4638 -0.7928
 7423SOL    HW133731   3.986   0.976  12.659  1.5836 -1.2082  0.2113
 7423SOL    HW233732   4.096   1.028  12.751 -0.6526  0.5890 -0.9342
 7424SOL     OW33733   4.156   2.840   3.581  0.0273  0.4833  0.1371
 7424SOL    HW133734   4.149   2.750   3.550  0.1836  0.0504  1.3839
 7424SOL    HW233735   4.107   2.892   3.518  2.1847  0.3553 -1.6652
 7425SOL     OW33736   2.019   1.265   6.572 -0.0875  0.3394  0.1818
 7425SOL    HW133737   1.944   1.210   6.594 -0.8819  1.9777  1.5403
 7425SOL    HW233738   2.009   1.350   6.615 -0.6201 -0.5810  1.8921
 7426SOL     OW33739   1.949   4.104   3.194 -0.5881 -0.1191  1.0561
 7426SOL    HW133740   1.862   4.074   3.221 -0.9178 -0.4730 -0.4459
 7426SOL    HW233741   1.966   4.168   3.263 -0.7822  0.2718  0.7440
 7427SOL     OW33742   1.872   1.396   4.765  0.1131 -0.0867  0.2447
 7427SOL    HW133743   1.961   1.369   4.743 -0.1900 -1.8293  1.1933
 7427SOL    HW233744   1.886   1.413   4.858 -0.2836  0.8063  0.1458
 7428SOL     OW33745   0.496   1.148   2.400  0.4456 -0.1080 -0.1079
 7428SOL    HW133746   0.457   1.100   2.327 -1.0000  1.8564 -0.6308
 7428SOL    HW233747   0.421   1.203   2.422 -0.2668 -1.1106  0.0147
 7429SOL     OW33748   4.230   0.149  15.994 -0.4978  0.2472  0.9255
 7429SOL    HW133749   4.290   0.197  15.937 -0.9474  0.2659  0.4790
 7429SOL    HW233750   4.271   0.062  15.995  1.8311  1.3230  0.8927
 7430SOL     OW33751   3.585   2.837  11.565  0.5148 -0.2338 -0.0064
 7430SOL    HW133752   3.552   2.790  11.642  0.2559  0.5612  0.3634
 7430SOL    HW233753   3.633   2.766  11.521 -0.7300 -0.9783 -0.1465
 7431SOL     OW33754   2.441   0.515   4.192 -0.2143 -0.7469 -0.3787
 7431SOL    HW133755   2.463   0.497   4.101 -1.5836 -2.2293 -0.4241
 7431SOL    HW233756   2.471   0.432   4.231  0.6967  0.7732  2.1645
 7432SOL     OW33757   1.128   1.395   6.302  0.0124  0.3014  0.2334
 7432SOL    HW133758   1.109   1.457   6.372  1.1919  2.1177 -1.0410
 7432SOL    HW233759   1.099   1.311   6.336 -1.9667  1.0983  0.4760
 7433SOL     OW33760   4.296   3.186   6.852  0.3882  0.4782  0.9137
 7433SOL    HW133761   4.211   3.215   6.886  0.1144 -0.9010  1.3803
 7433SOL    HW233762   4.353   3.246   6.900  2.4190 -1.5825  1.0747
 7434SOL     OW33763   0.055   3.862   5.737  0.0330 -0.4873 -0.0832
 7434SOL    HW133764   0.087   3.940   5.692 -3.1454  0.9885  0.2846
 7434SOL    HW233765   0.016   3.829   5.656  0.3635 -1.6118  0.2137
 7435SOL     OW33766   4.334   4.540   4.082  0.2852  0.5568  0.3404
 7435SOL    HW133767   4.338   4.621   4.032  0.2011 -0.9216 -2.0796
 7435SOL    HW233768   4.427   4.518   4.087 -0.2310 -1.6177  0.7581
 7436SOL     OW33769   1.309   2.348  14.767  0.8139  0.2517 -0.0713
 7436SOL    HW133770   1.271   2.333  14.681 -0.1573  1.6018  0.1289
 7436SOL    HW233771   1.242   2.393  14.818  0.5213 -0.2746  0.0111
 7437SOL     OW33772   1.927   0.720  17.023 -0.5529  1.1478  0.3624
 7437SOL    HW133773   1.857   0.725  17.087 -0.9080 -2.5596  0.2162
 7437SOL    HW233774   2.008   0.716  17.074 -0.4256 -2.9265 -0.2039
 7438SOL     OW33775   4.362   2.417   7.003  0.2513  0.1603  0.6549
 7438SOL    HW133776   4.384   2.362   7.078  0.1193  0.1052  0.6548
 7438SOL    HW233777   4.326   2.346   6.949 -0.4951  1.7532 -0.9284
 7439SOL     OW33778   2.967   2.179   4.074  0.1299 -0.0066  0.0715
 7439SOL    HW133779   2.899   2.243   4.093 -0.6754 -1.1031  0.9233
 7439SOL    HW233780   2.929   2.135   3.998  0.3570  2.1565 -1.2898
 7440SOL     OW33781   4.190   3.304   4.711 -0.2566 -0.7618 -0.5237
 7440SOL    HW133782   4.102   3.323   4.678 -0.8075  1.5999  2.2054
 7440SOL    HW233783   4.160   3.262   4.792 -3.2571  1.8868 -0.2697
 7441SOL     OW33784   1.057   0.417   6.502  0.0523  0.0386 -0.5605
 7441SOL    HW133785   1.026   0.381   6.418  0.6042 -1.1508 -0.2563
 7441SOL    HW233786   0.977   0.394   6.549 -0.1020  1.8951  0.0776
 7442SOL     OW33787   0.955   3.186  16.383  0.0113 -0.1508 -0.2564
 7442SOL    HW133788   1.015   3.203  16.455 -0.2498 -0.7373  0.0995
 7442SOL    HW233789   0.957   3.091  16.381 -0.8283 -0.1843  0.2250
 7443SOL     OW33790   1.371   1.890   3.258 -0.7871  0.2616 -0.3805
 7443SOL    HW133791   1.362   1.845   3.341 -0.5075  1.2996  0.2125
 7443SOL    HW233792   1.437   1.840   3.211 -1.5529 -0.1032 -1.0827
 7444SOL     OW33793   2.936   2.706   9.681  0.3049  0.3434 -0.0083
 7444SOL    HW133794   3.020   2.747   9.700 -0.5942  0.8559  2.7534
 7444SOL    HW233795   2.880   2.783   9.677  0.2659  0.3796  1.3792
 7445SOL     OW33796   3.747   4.301   5.231  0.2290 -0.2114  0.3186
 7445SOL    HW133797   3.672   4.243   5.217  1.1329 -1.0221 -1.1600
 7445SOL    HW233798   3.785   4.317   5.144 -0.5479  3.0663  0.5711
 7446SOL     OW33799   3.597   4.359   8.899 -0.6770 -0.6404 -0.4880
 7446SOL    HW133800   3.535   4.414   8.946  0.2958  0.9544 -1.0415
 7446SOL    HW233801   3.568   4.373   8.809  1.7923  0.0655 -1.1914
 7447SOL     OW33802   2.576   3.680  10.014  0.0832 -0.1945 -0.1687
 7447SOL    HW133803   2.591   3.646   9.926  0.8797  0.4528 -0.2896
 7447SOL    HW233804   2.648   3.640  10.064  2.0713  2.4229 -0.9358
 7448SOL     OW33805   4.416   0.722   3.856  0.0126  0.2613  0.3152
 7448SOL    HW133806   4.450   0.651   3.910 -0.4062 -1.1675 -1.3113
 7448SOL    HW233807   4.399   0.788   3.923 -1.8266 -0.3770  0.4634
 7449SOL     OW33808   0.225   3.427  13.999 -0.0936 -0.0073  0.1544
 7449SOL    HW133809   0.320   3.417  13.995 -0.0724 -0.4042  1.6947
 7449SOL    HW233810   0.207   3.431  14.093 -2.4580 -1.6608 -0.2199
 7450SOL     OW33811   0.790   1.261   3.532  0.5758 -0.5620  0.2007
 7450SOL    HW133812   0.700   1.274   3.500 -0.0485  0.7744  2.4894
 7450SOL    HW233813   0.833   1.324   3.476 -0.2333 -0.0934  0.1059
 7451SOL     OW33814   0.461   2.351  11.069  0.1891 -0.2108 -0.2190
 7451SOL    HW133815   0.448   2.410  11.143  2.6409  0.4247 -0.3185
 7451SOL    HW233816   0.506   2.277  11.108 -1.6791 -1.4863 -0.4358
 7452SOL     OW33817   4.623   0.316   5.340 -0.0119 -0.1645  0.5282
 7452SOL    HW133818   4.596   0.227   5.321  0.3249 -0.5976  2.0623
 7452SOL    HW233819   4.704   0.291   5.384 -1.2706 -1.3168  2.1790
 7453SOL     OW33820   1.520   1.939   7.239  0.1729  0.2714  0.4614
 7453SOL    HW133821   1.453   1.871   7.233  0.7272 -0.2581  0.3310
 7453SOL    HW233822   1.533   1.963   7.147 -0.6900  2.2927  0.8537
 7454SOL     OW33823   0.776   1.862   1.756 -0.2117  0.4985  0.3782
 7454SOL    HW133824   0.799   1.844   1.664  1.1450  2.0143  0.4103
 7454SOL    HW233825   0.707   1.927   1.742  0.2285  1.1996  1.4656
 7455SOL     OW33826   2.325   4.257   0.347  0.0146  0.0478  0.8016
 7455SOL    HW133827   2.256   4.197   0.375 -0.2809  0.0298  0.0378
 7455SOL    HW233828   2.293   4.264   0.257 -0.9703  1.1534  1.2376
 7456SOL     OW33829   2.429   1.632   7.144  0.1408 -0.1714 -0.1653
 7456SOL    HW133830   2.346   1.631   7.192  0.7949  0.5354  0.9921
 7456SOL    HW233831   2.473   1.703   7.190 -2.0918  0.9300  0.2767
 7457SOL     OW33832   1.317   4.553  10.693  0.3567  0.3450  0.3645
 7457SOL    HW133833   1.385   4.511  10.640  0.8733 -0.6510  1.8299
 7457SOL    HW233834   1.266   4.576  10.615  2.0328 -1.1898 -1.1731
 7458SOL     OW33835   2.884   1.005   0.012 -0.2162  0.3274 -0.3365
 7458SOL    HW133836   2.837   0.982  17.629 -1.4413 -1.6082  0.9634
 7458SOL    HW233837   2.928   0.925   0.039  1.0796  0.8331 -0.9236
 7459SOL     OW33838   1.950   3.337   8.595  0.0809  0.2047 -0.1327
 7459SOL    HW133839   2.006   3.344   8.672 -1.6113 -0.6629  1.1474
 7459SOL    HW233840   1.879   3.275   8.612 -0.6355  1.1239  0.2363
 7460SOL     OW33841   4.444   4.349   0.482 -0.0724 -0.4131  0.2144
 7460SOL    HW133842   4.358   4.325   0.448 -0.4017  1.5005 -0.3277
 7460SOL    HW233843   4.496   4.296   0.422  1.4687 -0.3158  1.4483
 7461SOL     OW33844   2.929   1.015   4.178 -0.0046  0.1071  0.0626
 7461SOL    HW133845   2.907   0.929   4.143  2.1633 -0.8360  0.9976
 7461SOL    HW233846   3.025   1.018   4.172  0.0354  0.1564  0.7241
 7462SOL     OW33847   2.970   2.125   3.323 -0.1873  0.0946 -0.0312
 7462SOL    HW133848   2.882   2.092   3.303 -0.5464  1.8297 -1.3396
 7462SOL    HW233849   3.013   2.048   3.286  1.1543 -0.2552  2.3063
 7463SOL     OW33850   1.932   1.989   2.636 -0.0820  0.0965  0.2086
 7463SOL    HW133851   1.898   1.910   2.676  0.3034 -0.1664  0.0189
 7463SOL    HW233852   1.868   2.058   2.651  0.5737  0.5692  0.8587
 7464SOL     OW33853   0.092   3.158   4.614 -0.6861 -0.5379 -0.4787
 7464SOL    HW133854   0.003   3.173   4.647 -1.0730 -0.4945 -1.5468
 7464SOL    HW233855   0.087   3.166   4.519  2.7316 -1.0312 -0.7048
 7465SOL     OW33856   3.969   2.075   3.043 -0.2782 -0.2110  0.2345
 7465SOL    HW133857   4.001   2.064   3.132  0.8933  1.2830  0.0034
 7465SOL    HW233858   3.876   2.099   3.047  0.3717  2.7383 -1.6663
 7466SOL     OW33859   2.822   3.608   3.165 -0.0068  0.5165  0.4215
 7466SOL    HW133860   2.880   3.589   3.091 -1.4524 -1.0430 -0.3088
 7466SOL    HW233861   2.761   3.669   3.125  1.1635  1.6515  0.3441
 7467SOL     OW33862   1.721   4.563   3.181 -0.2441  0.0312  0.3732
 7467SOL    HW133863   1.637   4.602   3.204 -1.1901 -2.1926  0.7840
 7467SOL    HW233864   1.689   4.485   3.136 -2.0319  2.3714 -2.3911
 7468SOL     OW33865   0.065   1.787  17.002 -0.2813  0.4123 -0.2144
 7468SOL    HW133866   0.101   1.720  17.060  0.0916  1.4636  0.7505
 7468SOL    HW233867   0.115   1.765  16.924  0.2354 -0.6465  0.4136
 7469SOL     OW33868   2.959   0.129   3.314 -0.9319  0.0055  0.9108
 7469SOL    HW133869   2.943   0.129   3.408  0.1791 -0.1105  1.0984
 7469SOL    HW233870   3.046   0.167   3.311 -1.2364  0.6898  0.6661
 7470SOL     OW33871   2.609   0.063   2.570 -0.4266  0.2356 -0.2971
 7470SOL    HW133872   2.570   0.099   2.490  0.6346  0.4551 -0.7117
 7470SOL    HW233873   2.691   0.112   2.573  0.0076 -0.6150  1.4425
 7471SOL     OW33874   2.827   4.721  17.038  0.5948 -0.0777  0.1982
 7471SOL    HW133875   2.790   4.647  16.991  1.7510 -0.5630  0.0499
 7471SOL    HW233876   2.904   0.015  16.983  0.2366 -0.1532 -0.3217
 7472SOL     OW33877   2.899   2.705   5.768 -0.0711 -0.3988  0.0631
 7472SOL    HW133878   2.856   2.707   5.683 -0.6376  0.6556  0.3786
 7472SOL    HW233879   2.994   2.698   5.759 -0.1935 -0.4346 -1.1331
 7473SOL     OW33880   0.620   1.134   0.981  0.5569 -0.0590 -0.3310
 7473SOL    HW133881   0.589   1.213   1.025  1.8318 -0.3464  1.0708
 7473SOL    HW233882   0.545   1.076   0.992  0.5726 -0.3473 -1.7842
 7474SOL     OW33883   0.084   1.751   0.404  0.4005  0.4015 -0.5344
 7474SOL    HW133884   0.117   1.730   0.316  1.5326  0.0467 -0.0317
 7474SOL    HW233885   0.078   1.846   0.391  1.9247  0.4904 -0.6634
 7475SOL     OW33886   3.356   3.354  10.747  0.6267 -0.0644 -0.5046
 7475SOL    HW133887   3.418   3.286  10.720  1.0823  0.4249 -0.6803
 7475SOL    HW233888   3.388   3.393  10.828 -1.1983  0.9300 -0.2644
 7476SOL     OW33889   3.441   1.726   5.596  0.7454 -0.1451 -0.0592
 7476SOL    HW133890   3.397   1.668   5.659  1.5648 -0.1611  0.5038
 7476SOL    HW233891   3.408   1.687   5.516  0.2863  0.1475 -0.0141
 7477SOL     OW33892   0.164   2.918  15.525 -0.3681  0.2953 -0.2125
 7477SOL    HW133893   0.171   2.854  15.454  0.7049  0.0481  0.1145
 7477SOL    HW233894   0.183   2.853  15.593 -1.0797 -0.2065 -0.4912
 7478SOL     OW33895   3.609   1.865  11.631  0.2241 -0.3826  0.4420
 7478SOL    HW133896   3.517   1.859  11.604  0.2924  0.4039  0.0311
 7478SOL    HW233897   3.590   1.891  11.721 -1.4753  0.5605 -0.1750
 7479SOL     OW33898   1.430   3.806   6.651 -0.0223  0.1671  0.3293
 7479SOL    HW133899   1.361   3.845   6.598  0.8098  0.2250 -0.7205
 7479SOL    HW233900   1.506   3.853   6.618 -1.9197  2.3499 -0.8957
 7480SOL     OW33901   3.324   2.173   3.611  0.1283  0.1882 -0.3476
 7480SOL    HW133902   3.322   2.239   3.680 -0.1784 -0.2012  0.0210
 7480SOL    HW233903   3.321   2.102   3.675 -1.3293  0.6958  0.1602
 7481SOL     OW33904   0.480   3.575   4.974  0.0288 -0.5135  0.2828
 7481SOL    HW133905   0.401   3.628   4.987 -0.2890 -0.9712  0.2278
 7481SOL    HW233906   0.497   3.594   4.882 -0.7121  0.8875  0.4211
 7482SOL     OW33907   0.164   4.447   3.136 -0.1802 -0.1057  0.1859
 7482SOL    HW133908   0.090   4.441   3.196 -1.4916 -1.9498 -1.6134
 7482SOL    HW233909   0.179   4.537   3.106  0.2065 -0.2223  0.0327
 7483SOL     OW33910   1.966   2.182  10.201  0.1923 -0.3006 -0.0942
 7483SOL    HW133911   1.904   2.136  10.257 -1.1433  0.8969 -0.5998
 7483SOL    HW233912   1.957   2.270  10.238 -1.4149 -0.5168  0.0006
 7484SOL     OW33913   0.103   3.931   8.129 -0.0564  0.2820 -0.5363
 7484SOL    HW133914   0.126   4.023   8.139  0.4777  0.1189 -0.2431
 7484SOL    HW233915   0.134   3.922   8.039  0.1078  1.2674 -0.5769
 7485SOL     OW33916   0.456   2.908   3.950 -0.5362  0.1280  0.2935
 7485SOL    HW133917   0.376   2.856   3.938  0.6998 -1.6494 -0.2079
 7485SOL    HW233918   0.470   2.895   4.043  0.4535  0.3244  0.1743
 7486SOL     OW33919   3.413   2.533   2.667  0.2565  0.2917 -0.3223
 7486SOL    HW133920   3.345   2.478   2.706  0.0714  0.1848 -0.7910
 7486SOL    HW233921   3.356   2.605   2.639 -1.5585 -0.9351  0.1872
 7487SOL     OW33922   1.528   1.180  10.841  0.1727 -0.6145 -0.6751
 7487SOL    HW133923   1.589   1.239  10.885 -0.7605  1.1107 -1.6687
 7487SOL    HW233924   1.561   1.181  10.751  2.4832 -1.2877  0.1494
 7488SOL     OW33925   0.541   3.958   1.728 -0.0606  0.0084 -0.3008
 7488SOL    HW133926   0.606   3.889   1.743 -0.2845 -0.2942 -0.7200
 7488SOL    HW233927   0.484   3.962   1.804  0.4941 -0.5042  0.1473
 7489SOL     OW33928   4.047   2.115  11.618 -0.2748 -0.0627  0.4052
 7489SOL    HW133929   4.066   2.071  11.535  0.0854  0.5060  0.1885
 7489SOL    HW233930   4.131   2.112  11.664 -0.4187 -1.2003  0.5922
 7490SOL     OW33931   3.948   0.184   7.059 -0.4059  0.3513 -0.0957
 7490SOL    HW133932   3.923   0.271   7.090  0.0406  0.2146  0.6432
 7490SOL    HW233933   3.995   0.201   6.976  0.9778 -0.7323  0.4612
 7491SOL     OW33934   0.277   0.137   0.210 -0.0454  0.2007  0.2768
 7491SOL    HW133935   0.372   0.144   0.201  0.2115 -0.6697  2.2839
 7491SOL    HW233936   0.258   0.061   0.156  0.8456  0.6528 -0.6767
 7492SOL     OW33937   1.238   0.745   6.808 -0.4228 -0.4686  0.0790
 7492SOL    HW133938   1.166   0.749   6.871 -0.1443 -0.7250  0.4171
 7492SOL    HW233939   1.231   0.652   6.784 -0.0557 -0.6041  0.4930
 7493SOL     OW33940   2.456   4.051   5.685  0.1696 -0.1858 -0.3635
 7493SOL    HW133941   2.468   3.982   5.751  1.0906 -1.1009 -1.4717
 7493SOL    HW233942   2.519   4.119   5.706 -0.0240 -0.1847  0.2326
 7494SOL     OW33943   4.141   3.398   8.460  0.6222  0.2489  0.3754
 7494SOL    HW133944   4.187   3.444   8.390  1.8499 -1.4507  0.0787
 7494SOL    HW233945   4.212   3.376   8.521 -1.1774  1.2334  2.7976
 7495SOL     OW33946   4.008   0.194   2.558 -0.2668  0.0189 -0.7292
 7495SOL    HW133947   3.930   0.216   2.609 -0.3472 -1.0071 -0.4070
 7495SOL    HW233948   4.065   0.264   2.590  0.5719 -1.3466  0.7574
 7496SOL     OW33949   2.184   1.874   8.028 -0.6128 -0.1680  0.2754
 7496SOL    HW133950   2.214   1.919   7.949  0.8445 -2.3671 -0.4190
 7496SOL    HW233951   2.265   1.877   8.079  1.0988 -0.2921 -2.4167
 7497SOL     OW33952   0.017   1.404   0.664 -0.3582 -0.5429  0.1266
 7497SOL    HW133953   0.023   1.490   0.706  1.5058 -0.2216 -0.8283
 7497SOL    HW233954   4.670   1.415   0.600  1.4957  0.1421 -1.7853
 7498SOL     OW33955   1.436   2.838   3.647 -0.0435  0.0005 -0.4614
 7498SOL    HW133956   1.371   2.785   3.694  0.5425  1.4799  2.0580
 7498SOL    HW233957   1.456   2.905   3.712  0.3995  0.6892 -1.3096
 7499SOL     OW33958   1.968   0.663  11.040  0.0923 -0.0998  0.1885
 7499SOL    HW133959   1.883   0.653  10.997  0.6146 -0.0232 -0.8614
 7499SOL    HW233960   1.982   0.585  11.093 -1.4091 -1.3187 -1.2119
 7500SOL     OW33961   1.944   3.818  10.258 -0.3912  0.1220  0.0972
 7500SOL    HW133962   2.015   3.869  10.296  0.0259 -1.3082  1.2363
 7500SOL    HW233963   1.961   3.734  10.301 -0.1076 -0.1491 -0.5466
 7501SOL     OW33964   2.091   1.078   5.139 -0.0426 -0.2835 -0.4647
 7501SOL    HW133965   1.997   1.093   5.131 -0.3552 -1.6972  0.7830
 7501SOL    HW233966   2.097   0.983   5.136 -0.9769 -0.4285  2.4173
 7502SOL     OW33967   1.415   0.150   5.065  0.0786 -0.3982 -0.7103
 7502SOL    HW133968   1.362   0.189   4.995  0.3914  0.0622 -0.6854
 7502SOL    HW233969   1.427   0.059   5.037  3.4256  0.1028 -0.8714
 7503SOL     OW33970   3.409   2.857   7.742  0.0800 -0.4947  0.2891
 7503SOL    HW133971   3.385   2.879   7.652 -1.9453 -0.1928  0.9046
 7503SOL    HW233972   3.416   2.942   7.785 -1.5187 -0.0483 -0.3342
 7504SOL     OW33973   3.305   0.256   0.465  0.2803  0.7600 -0.2037
 7504SOL    HW133974   3.366   0.258   0.539 -0.5427 -2.6344  0.5536
 7504SOL    HW233975   3.297   0.162   0.451 -0.1451  0.4352  2.2071
 7505SOL     OW33976   0.496   1.775  16.249  0.2414 -0.1740  0.1914
 7505SOL    HW133977   0.402   1.788  16.243  0.4951  0.5988 -1.9268
 7505SOL    HW233978   0.516   1.706  16.185 -0.3143  0.8643 -1.0898
 7506SOL     OW33979   0.455   1.700   5.876 -0.4648  0.1834 -0.7139
 7506SOL    HW133980   0.437   1.661   5.961  0.4247  1.6120  0.1353
 7506SOL    HW233981   0.533   1.742   5.911 -0.6075  2.5603 -3.2314
 7507SOL     OW33982   4.526   3.844   7.209 -0.4240  0.3867  0.3187
 7507SOL    HW133983   4.435   3.813   7.202 -0.4912  0.3796  1.2649
 7507SOL    HW233984   4.570   3.759   7.202  1.0395  1.1797  0.1168
 7508SOL     OW33985   1.506   3.605   5.704 -0.3098 -0.3244 -0.0470
 7508SOL    HW133986   1.492   3.538   5.772  0.5282 -1.1842 -0.7186
 7508SOL    HW233987   1.464   3.556   5.633 -0.7658 -3.1528  2.1702
 7509SOL     OW33988   0.443   3.368   3.557 -0.3001 -0.3246  0.6219
 7509SOL    HW133989   0.395   3.321   3.625  0.6408 -1.2918  0.6227
 7509SOL    HW233990   0.376   3.367   3.488 -0.7062  3.5376  0.9667
 7510SOL     OW33991   0.379   0.898   5.691 -0.5782  0.3304 -0.7468
 7510SOL    HW133992   0.334   0.925   5.772 -1.2777 -0.4951 -0.8674
 7510SOL    HW233993   0.318   0.896   5.618 -2.9601 -2.0884  1.2830
 7511SOL     OW33994   2.991   2.146   6.824 -0.3534 -0.0872 -0.2265
 7511SOL    HW133995   2.959   2.211   6.761 -2.0095 -0.0170  0.6900
 7511SOL    HW233996   2.945   2.068   6.792  2.6242 -1.5546 -0.8980
 7512SOL     OW33997   3.074   1.142   1.436  0.3053  0.1710  0.0249
 7512SOL    HW133998   2.998   1.178   1.481 -0.7373 -0.3800 -1.3012
 7512SOL    HW233999   3.061   1.182   1.350  1.2710 -2.0779 -1.1583
 7513SOL     OW34000   4.632   0.828   9.302  0.1120 -0.2256  0.0907
 7513SOL    HW134001   4.692   0.776   9.355 -1.6735 -1.8089  0.5353
 7513SOL    HW234002   4.569   0.864   9.365  0.1286  1.5764 -0.9095
 7514SOL     OW34003   4.254   1.470   1.808  0.5833  0.0411 -0.3558
 7514SOL    HW134004   4.172   1.465   1.759  0.6221 -1.6677 -0.2531
 7514SOL    HW234005   4.317   1.506   1.746 -0.9351 -1.0328 -2.5357
 7515SOL     OW34006   3.251   1.997   4.881  0.1343  0.6065  0.3162
 7515SOL    HW134007   3.330   2.020   4.931  1.2801 -1.6848 -0.4096
 7515SOL    HW234008   3.213   2.085   4.876  0.5444  0.8453  1.3999
 7516SOL     OW34009   0.902   4.266  11.216 -0.5455  0.5944 -0.1549
 7516SOL    HW134010   0.865   4.348  11.247 -0.8232  0.8753 -1.2026
 7516SOL    HW234011   0.960   4.245  11.289  0.7067  1.4557 -0.9010
 7517SOL     OW34012   4.101   1.984  11.382  0.1608 -0.4234 -0.0593
 7517SOL    HW134013   4.185   1.953  11.348 -0.7020 -0.9386 -1.7091
 7517SOL    HW234014   4.044   1.967  11.307 -0.1186  1.0063 -0.1710
 7518SOL     OW34015   3.215   2.479   8.393 -0.2554  0.1419 -0.4609
 7518SOL    HW134016   3.247   2.568   8.408  1.5640 -0.2504 -2.1290
 7518SOL    HW234017   3.286   2.425   8.427 -1.0001 -0.4685  0.1190
 7519SOL     OW34018   1.429   0.722  11.436 -0.2883 -0.3447 -1.0220
 7519SOL    HW134019   1.475   0.725  11.521 -2.6538 -1.2167  0.2811
 7519SOL    HW234020   1.356   0.665  11.459 -0.7506  0.5707 -0.1888
 7520SOL     OW34021   0.669   2.147   6.011  0.1126 -0.0566  0.2262
 7520SOL    HW134022   0.658   2.211   6.081 -0.7025 -0.1237  0.1588
 7520SOL    HW234023   0.764   2.137   6.012  0.0102 -1.1076 -0.6702
 7521SOL     OW34024   1.991   2.793   7.075 -0.3887 -0.0822 -0.2550
 7521SOL    HW134025   1.963   2.704   7.050  0.9402 -1.0987  1.8525
 7521SOL    HW234026   1.933   2.841   7.017 -1.4932 -1.0107  0.0770
 7522SOL     OW34027   2.519   1.455  11.980  0.1618 -0.2768  0.2289
 7522SOL    HW134028   2.454   1.410  12.036 -2.0176  1.6883 -0.7214
 7522SOL    HW234029   2.511   1.545  12.009  0.6015  0.0067 -0.5367
 7523SOL     OW34030   0.065   4.095  11.461  0.0708 -0.5341 -0.6044
 7523SOL    HW134031   0.107   4.070  11.379  1.0384 -2.0013  0.3347
 7523SOL    HW234032   4.711   4.141  11.430 -0.1014 -0.7902 -0.5592
 7524SOL     OW34033   4.717   3.648  11.111  0.6459  0.8381 -0.2052
 7524SOL    HW134034   0.009   3.636  11.205  0.8113  0.6781 -0.2531
 7524SOL    HW234035   0.011   3.742  11.109  0.3187  0.9056  0.0599
 7525SOL     OW34036   1.416   4.214  15.835 -0.4958  0.2104 -0.2811
 7525SOL    HW134037   1.367   4.188  15.913  1.6172  2.9761  1.9903
 7525SOL    HW234038   1.415   4.134  15.783  0.3028 -0.2027  0.3499
 7526SOL     OW34039   2.665   0.863   9.682  0.0731  0.4672 -0.0876
 7526SOL    HW134040   2.650   0.897   9.594  2.0473 -1.7891 -1.2939
 7526SOL    HW234041   2.722   0.789   9.661 -0.7518 -0.0931 -0.3404
 7527SOL     OW34042   3.130   4.568   3.398  0.2689  0.0177 -0.9045
 7527SOL    HW134043   3.191   4.636   3.425  0.3835 -0.2026 -0.6016
 7527SOL    HW234044   3.080   4.615   3.332 -0.1417 -2.4982 -2.4085
 7528SOL     OW34045   3.412   1.693   6.154 -0.2160 -0.2832  0.3086
 7528SOL    HW134046   3.431   1.610   6.196 -1.4127 -0.0520  1.2970
 7528SOL    HW234047   3.498   1.720   6.120 -0.5756  0.4734  0.0009
 7529SOL     OW34048   0.866   3.151   6.948  0.1938 -0.1312 -0.4932
 7529SOL    HW134049   0.770   3.158   6.953  0.2354 -0.2305  0.4821
 7529SOL    HW234050   0.881   3.093   6.874 -0.9699 -1.2819  0.1550
 7530SOL     OW34051   2.875   1.897   6.988  0.3280  0.2558 -0.1461
 7530SOL    HW134052   2.797   1.945   6.961 -0.7922 -1.4792  0.0528
 7530SOL    HW234053   2.901   1.943   7.068 -2.6102  1.8136 -0.0928
 7531SOL     OW34054   3.789   1.354   3.414 -0.6461 -0.1221  0.2370
 7531SOL    HW134055   3.856   1.407   3.456 -2.1156  0.7923  1.4257
 7531SOL    HW234056   3.832   1.272   3.389 -0.5445 -0.9929  3.3236
 7532SOL     OW34057   3.801   1.249   9.950  0.6902  0.1469 -0.2957
 7532SOL    HW134058   3.716   1.290   9.963  0.8960  0.5141 -0.1097
 7532SOL    HW234059   3.823   1.270   9.859  0.8372 -0.2380 -0.3477
 7533SOL     OW34060   2.283   1.901   6.369  0.1377 -0.1208 -0.0868
 7533SOL    HW134061   2.267   1.917   6.276  2.6079 -2.4277 -0.9214
 7533SOL    HW234062   2.209   1.849   6.400 -0.9535  0.2538 -2.0272
 7534SOL     OW34063   3.000   2.491  16.034  0.0707  0.3944  0.2354
 7534SOL    HW134064   3.042   2.414  16.073 -1.2779 -1.2418 -1.5404
 7534SOL    HW234065   3.076   2.548  16.041  1.3579 -1.4387  1.2618
 7535SOL     OW34066   3.266   0.614   3.767 -0.0344  0.1204  0.0977
 7535SOL    HW134067   3.356   0.628   3.795  0.3770  0.2785 -1.2736
 7535SOL    HW234068   3.252   0.689   3.709 -0.4266 -1.9407 -2.4646
 7536SOL     OW34069   2.475   3.651   8.654 -0.3203 -0.1457 -0.1593
 7536SOL    HW134070   2.400   3.612   8.700 -0.8669  1.2471  0.1190
 7536SOL    HW234071   2.498   3.718   8.718  1.4727 -0.1199 -0.8400
 7537SOL     OW34072   2.077   2.661  14.545 -0.1443  0.2972  0.2676
 7537SOL    HW134073   2.130   2.596  14.500  0.1427  0.8680 -0.2281
 7537SOL    HW234074   2.001   2.615  14.579 -1.4895  2.6522  0.4702
 7538SOL     OW34075   0.434   2.006   6.488  0.2038 -0.1308 -0.2752
 7538SOL    HW134076   0.448   2.023   6.581  1.3129  0.9360 -0.6498
 7538SOL    HW234077   0.365   2.071   6.476 -2.1879 -2.2904  1.7878
 7539SOL     OW34078   2.611   3.736   5.490  0.2435 -0.0794 -0.4339
 7539SOL    HW134079   2.517   3.750   5.490  0.2236 -0.1745 -1.2692
 7539SOL    HW234080   2.648   3.785   5.416 -0.3038 -0.0860 -0.7094
 7540SOL     OW34081   2.876   0.520  11.471  0.4046  0.6666  0.5950
 7540SOL    HW134082   2.960   0.556  11.498  0.8486 -0.0078  0.1065
 7540SOL    HW234083   2.828   0.512  11.553  0.7153 -0.2099  0.6810
 7541SOL     OW34084   4.309   2.229   6.036  0.0501  0.4653  0.0044
 7541SOL    HW134085   4.246   2.266   6.099 -1.1019 -0.3756 -0.6414
 7541SOL    HW234086   4.387   2.227   6.091  0.0927 -0.5478 -0.0972
 7542SOL     OW34087   0.002   2.983  10.241 -0.1032 -0.1353  0.1146
 7542SOL    HW134088   4.720   3.034  10.322 -0.6525  0.6690 -0.4317
 7542SOL    HW234089   0.089   2.942  10.247  0.5893  1.7730  2.9740
 7543SOL     OW34090   1.812   0.616  11.994 -0.6307  0.1825 -0.0745
 7543SOL    HW134091   1.848   0.672  12.063 -1.0439 -0.7939  0.9248
 7543SOL    HW234092   1.891   0.579  11.955 -0.2404 -0.1594  1.0276
 7544SOL     OW34093   3.159   2.529   7.871 -0.2437  0.1512 -0.0451
 7544SOL    HW134094   3.153   2.532   7.775  0.1903  0.0482 -0.0742
 7544SOL    HW234095   3.227   2.465   7.894  1.1197  2.0695  1.2542
 7545SOL     OW34096   3.241   3.066  10.253 -0.2343 -0.1947 -0.0748
 7545SOL    HW134097   3.278   2.981  10.278  0.2002 -0.0288 -0.1574
 7545SOL    HW234098   3.164   3.071  10.309  1.0070  1.4576  1.5103
 7546SOL     OW34099   1.732   2.088   8.812 -0.0147  0.2958 -0.6313
 7546SOL    HW134100   1.772   2.041   8.886  0.0616  0.4158 -0.5953
 7546SOL    HW234101   1.756   2.042   8.732 -2.4175  1.1488 -1.8245
 7547SOL     OW34102   0.136   0.954  10.154  0.0453 -0.1547 -0.2132
 7547SOL    HW134103   0.149   0.973  10.247  2.5313 -3.0953  0.0366
 7547SOL    HW234104   0.230   0.942  10.135  0.5335  1.9599  0.8302
 7548SOL     OW34105   3.549   2.894   7.006 -0.4427  0.2070 -0.0313
 7548SOL    HW134106   3.625   2.952   7.009 -0.7629  0.5559  1.7477
 7548SOL    HW234107   3.537   2.898   6.911 -0.5893 -0.6882 -0.0491
 7549SOL     OW34108   2.243   2.849   2.786 -0.3940  0.7551 -0.5082
 7549SOL    HW134109   2.316   2.910   2.773  0.1816  0.0697 -0.4964
 7549SOL    HW234110   2.256   2.800   2.705  1.6046 -2.9759  2.0410
 7550SOL     OW34111   3.438   2.690  17.666 -0.3169  0.2545 -1.3988
 7550SOL    HW134112   3.478   2.742   0.040  1.2231 -0.5551 -1.6805
 7550SOL    HW234113   3.521   2.678  17.619 -0.2018 -1.7985 -0.6621
 7551SOL     OW34114   1.917   0.964   5.892 -0.4487 -0.6855 -0.0528
 7551SOL    HW134115   1.967   0.989   5.969 -1.6678 -0.5954  0.7157
 7551SOL    HW234116   1.968   0.900   5.843 -1.4062  0.5556 -2.7196
 7552SOL     OW34117   2.317   0.243   7.744  0.1496 -0.4544  0.6422
 7552SOL    HW134118   2.348   0.295   7.818 -0.3164  0.2536  0.3396
 7552SOL    HW234119   2.334   0.158   7.786 -0.8818 -0.6652  0.6366
 7553SOL     OW34120   3.145   2.904   3.753  0.0269 -0.2191  0.2512
 7553SOL    HW134121   3.052   2.919   3.769  0.1139 -0.6805  1.1731
 7553SOL    HW234122   3.185   2.977   3.800  2.2096 -2.7074  2.2682
 7554SOL     OW34123   1.068   0.730   6.457 -0.0854  0.2858  0.2638
 7554SOL    HW134124   1.059   0.820   6.490 -1.6983  0.0297  0.4974
 7554SOL    HW234125   1.109   0.695   6.536 -1.3671  1.2373  1.3468
 7555SOL     OW34126   1.235   1.517   4.477  0.2980  0.6134  0.4574
 7555SOL    HW134127   1.325   1.546   4.465 -0.4444  1.3960 -3.2240
 7555SOL    HW234128   1.248   1.427   4.506  1.0746  0.9284  1.0595
 7556SOL     OW34129   3.578   1.763   2.660  0.3608  0.0982  0.9754
 7556SOL    HW134130   3.594   1.830   2.726 -0.7399  3.5135 -2.2076
 7556SOL    HW234131   3.591   1.681   2.707 -1.1035 -1.0490 -0.6351
 7557SOL     OW34132   0.679   4.611   4.958  0.4541 -0.2630  0.4543
 7557SOL    HW134133   0.764   4.614   4.914 -0.2944 -0.6558 -1.0160
 7557SOL    HW234134   0.620   4.652   4.895  0.2356  0.5173  1.1643
 7558SOL     OW34135   4.424   1.302   3.498  0.0058  0.0399 -0.2705
 7558SOL    HW134136   4.511   1.318   3.534  0.5291 -2.7146 -0.3100
 7558SOL    HW234137   4.439   1.310   3.404  1.4288 -2.8156 -0.2643
 7559SOL     OW34138   0.305   1.955   2.687 -0.1829 -0.1034  0.3690
 7559SOL    HW134139   0.337   2.043   2.668  1.2918 -0.3983  1.4102
 7559SOL    HW234140   0.297   1.962   2.782  0.5812 -0.1331  0.4358
 7560SOL     OW34141   3.511   3.900   1.615 -0.0632 -0.3825 -0.2026
 7560SOL    HW134142   3.457   3.971   1.580 -1.4761 -0.6347  1.4705
 7560SOL    HW234143   3.512   3.922   1.708 -0.7339 -3.2840  0.4761
 7561SOL     OW34144   2.903   2.851  17.446 -0.0407 -0.1395  1.0986
 7561SOL    HW134145   2.949   2.873  17.527  0.2090  0.2088  0.8649
 7561SOL    HW234146   2.815   2.857  17.481 -0.1300 -1.1930  1.0426
 7562SOL     OW34147   2.589   0.349   5.914 -0.1764 -0.0196 -0.2256
 7562SOL    HW134148   2.550   0.429   5.879 -0.8513 -0.6721 -0.9769
 7562SOL    HW234149   2.679   0.380   5.923 -0.0934 -0.6875  1.3066
 7563SOL     OW34150   1.855   4.629   8.482 -0.3896  0.1670  0.4683
 7563SOL    HW134151   1.913   4.576   8.537  0.5790  1.6449  0.8784
 7563SOL    HW234152   1.853   4.713   8.529 -0.6670  0.3479  0.1291
 7564SOL     OW34153   3.985   4.610   3.436 -0.0476  0.1069  0.2918
 7564SOL    HW134154   4.001   4.698   3.403  1.1015 -0.4817 -0.7244
 7564SOL    HW234155   3.939   4.574   3.361 -0.0354  1.3349 -0.2935
 7565SOL     OW34156   2.632   3.477   5.605  0.6400  0.2436 -0.0527
 7565SOL    HW134157   2.639   3.552   5.545 -2.0891 -0.3874 -1.1398
 7565SOL    HW234158   2.542   3.487   5.638  1.0522 -1.7833  1.6581
 7566SOL     OW34159   2.427   2.322   7.618  0.0935 -0.0650  0.0506
 7566SOL    HW134160   2.455   2.411   7.594  2.8115 -1.1004 -0.5831
 7566SOL    HW234161   2.492   2.313   7.688  0.1992  1.7033  0.1828
 7567SOL     OW34162   0.314   3.542   8.127  0.0306 -0.3238  0.0968
 7567SOL    HW134163   0.385   3.599   8.157 -0.5260  0.6511 -0.4383
 7567SOL    HW234164   0.314   3.566   8.034  1.7362 -0.0699  0.1594
 7568SOL     OW34165   2.499   0.936   3.371 -0.3693  0.4776 -0.2911
 7568SOL    HW134166   2.448   0.881   3.431  1.8244 -0.0133  1.1264
 7568SOL    HW234167   2.475   1.021   3.407 -2.5811 -1.1585  2.1265
 7569SOL     OW34168   2.923   1.670   6.858 -0.0366  0.4991 -0.1990
 7569SOL    HW134169   2.912   1.758   6.895  1.1068  0.9638 -0.9709
 7569SOL    HW234170   2.911   1.617   6.937  0.5539 -0.4697 -0.7601
 7570SOL     OW34171   1.734   3.206  14.958  0.5001 -0.4356 -0.3448
 7570SOL    HW134172   1.667   3.262  14.919  0.3097 -0.7622 -0.4898
 7570SOL    HW234173   1.798   3.213  14.886  0.9605  0.0120  0.1115
 7571SOL     OW34174   3.243   3.127  13.891 -0.4772 -0.1581 -0.1698
 7571SOL    HW134175   3.318   3.072  13.914 -1.2805 -1.3981 -0.5415
 7571SOL    HW234176   3.290   3.189  13.835  0.9620 -0.3284  0.8537
 7572SOL     OW34177   0.133   2.689   8.460  0.0715  0.0361  0.3552
 7572SOL    HW134178   0.144   2.612   8.405  0.9914 -0.2624  0.9523
 7572SOL    HW234179   0.219   2.731   8.447  0.2518  0.5915  3.3617
 7573SOL     OW34180   0.334   3.029   7.328 -0.2322  0.6198 -0.5953
 7573SOL    HW134181   0.336   3.009   7.235 -0.0135 -3.5556  0.3017
 7573SOL    HW234182   0.242   3.056   7.335 -0.5162 -0.1270 -1.4824
 7574SOL     OW34183   1.436   4.581   5.055  0.0257 -0.0695 -0.3449
 7574SOL    HW134184   1.474   4.502   5.094 -0.1191 -0.4967 -1.0592
 7574SOL    HW234185   1.342   4.575   5.074  0.5314 -0.2725  2.0099
 7575SOL     OW34186   1.892   1.967   8.597  0.2092  0.0867  0.0452
 7575SOL    HW134187   1.838   2.022   8.540 -2.4644 -0.7890  1.7399
 7575SOL    HW234188   1.979   2.007   8.595 -0.5887  1.8007  0.4514
 7576SOL     OW34189   2.160   1.616   3.259  0.2782  0.4454 -0.5064
 7576SOL    HW134190   2.080   1.662   3.287 -1.2737 -1.5603 -1.6568
 7576SOL    HW234191   2.148   1.528   3.294  1.7089  0.9102  1.1387
 7577SOL     OW34192   2.949   0.157   2.111 -0.9244 -0.6842 -0.5879
 7577SOL    HW134193   2.856   0.178   2.107 -0.6020  0.7208 -0.7887
 7577SOL    HW234194   2.939   0.067   2.080  0.0745 -1.7537  2.2258
 7578SOL     OW34195   3.021   0.319   9.252 -0.1321  0.3068 -0.7119
 7578SOL    HW134196   3.102   0.295   9.296  1.3222  0.8848 -3.1379
 7578SOL    HW234197   2.973   0.246   9.291 -1.7209  2.3771  1.2690
 7579SOL     OW34198   4.236   2.126   3.392 -0.2318 -0.1255  0.1148
 7579SOL    HW134199   4.213   2.218   3.379 -1.5587 -0.5824 -0.8241
 7579SOL    HW234200   4.325   2.130   3.426 -0.4474  1.2068  0.5326
 7580SOL     OW34201   3.898   0.810   7.113 -0.6659  0.2215 -0.8045
 7580SOL    HW134202   3.832   0.775   7.173  1.4759 -0.6164  1.0628
 7580SOL    HW234203   3.854   0.890   7.083 -2.1271 -1.3178 -2.7175
 7581SOL     OW34204   4.536   1.154   8.845  0.2866 -0.1341 -0.1219
 7581SOL    HW134205   4.587   1.233   8.866  0.1088 -0.0109 -0.1499
 7581SOL    HW234206   4.561   1.094   8.915 -0.3654 -0.4342 -0.1438
 7582SOL     OW34207   0.294   0.567  17.510 -1.0476  0.3514 -0.2184
 7582SOL    HW134208   0.341   0.521  17.579 -1.2118  2.3646  1.2313
 7582SOL    HW234209   0.342   0.543  17.431  2.0844  2.8600  0.9333
 7583SOL     OW34210   1.879   1.110  11.564  0.3086  0.4242  0.2043
 7583SOL    HW134211   1.880   1.140  11.654  2.3150  2.2358 -0.4161
 7583SOL    HW234212   1.950   1.046  11.561 -0.0359  0.2935 -5.2322
 7584SOL     OW34213   3.010   0.808   5.507  0.3503 -0.0357 -0.2009
 7584SOL    HW134214   2.963   0.813   5.424  1.1507  2.6049 -0.4863
 7584SOL    HW234215   2.981   0.891   5.544  0.3808 -0.6385  1.1655
 7585SOL     OW34216   4.651   1.246   2.265 -0.5563 -0.0637 -0.2417
 7585SOL    HW134217   4.668   1.241   2.359  1.5283 -1.6466 -0.6986
 7585SOL    HW234218   4.663   1.340   2.249  4.1917 -0.8232 -1.2488
 7586SOL     OW34219   2.000   3.207  16.343 -0.1487 -0.2487 -0.0323
 7586SOL    HW134220   2.035   3.194  16.432  2.0945 -2.5757 -1.2413
 7586SOL    HW234221   1.995   3.118  16.310 -0.4498 -0.8439  1.6327
 7587SOL     OW34222   0.481   1.179   6.906  0.3075  0.2562  0.0129
 7587SOL    HW134223   0.435   1.145   6.982 -0.1214 -0.5614 -0.6071
 7587SOL    HW234224   0.413   1.151   6.845  0.6155 -0.6015  0.0569
 7588SOL     OW34225   3.098   3.921   9.864 -0.3753  0.3101 -0.1776
 7588SOL    HW134226   3.017   3.889   9.823 -0.5825 -1.2110  1.4003
 7588SOL    HW234227   3.143   3.837   9.866  0.3498  0.6888 -0.7674
 7589SOL     OW34228   3.626   3.572   8.906 -0.7190 -0.4112 -0.0041
 7589SOL    HW134229   3.705   3.531   8.942  1.2704  1.6394 -2.0620
 7589SOL    HW234230   3.567   3.567   8.981 -1.8711  1.8449 -0.7873
 7590SOL     OW34231   3.986   3.071  10.561 -0.2980  0.1483 -0.1702
 7590SOL    HW134232   3.981   3.010  10.634 -0.3442 -0.9906 -1.1286
 7590SOL    HW234233   4.042   3.141  10.594 -0.2508 -0.2362  0.5676
 7591SOL     OW34234   3.516   2.116   3.356 -0.6584 -0.0899 -0.2359
 7591SOL    HW134235   3.437   2.105   3.409  0.1135 -0.3125  0.8759
 7591SOL    HW234236   3.578   2.146   3.422  0.5237 -0.6651 -1.0662
 7592SOL     OW34237   3.004   1.920  10.181  0.2813 -0.1478 -0.4594
 7592SOL    HW134238   2.960   1.994  10.222  0.9496  0.0789 -0.1336
 7592SOL    HW234239   2.986   1.847  10.240  0.4271  0.1048 -0.1005
 7593SOL     OW34240   4.393   0.479   4.471 -0.4730 -0.2377 -0.0647
 7593SOL    HW134241   4.378   0.491   4.564  0.1038 -2.7479  0.3442
 7593SOL    HW234242   4.481   0.518   4.476  0.5914 -2.8555  1.6533
 7594SOL     OW34243   3.594   0.953   3.336 -0.7337 -0.1853 -0.5497
 7594SOL    HW134244   3.597   0.917   3.425 -1.2257  1.3458  0.0775
 7594SOL    HW234245   3.667   0.907   3.294 -1.5892 -2.7669  0.7452
 7595SOL     OW34246   3.828   1.633   8.478 -0.1651  0.2211 -0.9595
 7595SOL    HW134247   3.791   1.644   8.566  0.7103 -2.3120 -0.2697
 7595SOL    HW234248   3.762   1.572   8.446 -1.7656  0.6230  1.5752
 7596SOL     OW34249   0.983   1.928   4.648  0.0271  0.1145  0.3043
 7596SOL    HW134250   1.053   1.867   4.624 -0.5852 -0.7412  0.6847
 7596SOL    HW234251   0.909   1.874   4.678 -0.8858 -0.0058 -2.1520
 7597SOL     OW34252   2.736   4.712  11.243  0.0032 -0.3363  0.4168
 7597SOL    HW134253   2.646   4.686  11.260  0.3555 -1.1780  0.9735
 7597SOL    HW234254   2.776   4.626  11.258 -1.6014 -1.2212 -0.2970
 7598SOL     OW34255   3.774   0.545   5.495 -0.5792 -0.1944 -0.2688
 7598SOL    HW134256   3.721   0.475   5.535  0.3491 -1.9503 -2.0870
 7598SOL    HW234257   3.726   0.549   5.412 -0.7821 -0.8056 -0.1826
 7599SOL     OW34258   4.244   0.470   7.784 -0.0140  0.2371  0.1584
 7599SOL    HW134259   4.237   0.380   7.818  2.0023  0.3664  0.8968
 7599SOL    HW234260   4.182   0.468   7.712  0.2574  1.9426 -0.1061
 7600SOL     OW34261   0.712   3.754   8.614 -0.1697  0.4158  0.2878
 7600SOL    HW134262   0.731   3.793   8.700  3.8074 -2.2604  0.6176
 7600SOL    HW234263   0.714   3.661   8.637 -0.0994 -0.3532 -2.8306
 7601SOL     OW34264   2.996   3.079  10.394 -0.0067 -1.1376  0.8378
 7601SOL    HW134265   2.999   3.141  10.467  0.3955 -0.6432  0.3945
 7601SOL    HW234266   2.909   3.111  10.369  0.2706 -0.3160  0.9261
 7602SOL     OW34267   4.094   0.408   5.988  0.1093  0.1158 -0.4575
 7602SOL    HW134268   4.063   0.434   6.075 -0.9181  1.1985 -1.1432
 7602SOL    HW234269   4.113   0.492   5.947  2.1517  1.1103  2.5486
 7603SOL     OW34270   1.268   1.229   9.530  0.0060 -0.2995  0.2192
 7603SOL    HW134271   1.210   1.304   9.523 -1.3494 -1.3856 -0.2912
 7603SOL    HW234272   1.249   1.190   9.444 -0.5570 -1.0556  0.6820
 7604SOL     OW34273   0.282   3.652   7.100  0.6938 -0.7556 -0.3842
 7604SOL    HW134274   0.356   3.662   7.039 -0.6937  1.8366 -1.6794
 7604SOL    HW234275   0.266   3.747   7.101 -0.2725 -0.9490  1.0755
 7605SOL     OW34276   3.509   1.345   3.428  0.4522  0.7785  0.3207
 7605SOL    HW134277   3.592   1.328   3.472 -0.6597  0.7674  2.4271
 7605SOL    HW234278   3.511   1.285   3.353 -0.1250  0.4488  0.5596
 7606SOL     OW34279   4.244   4.379   1.717  0.2935  0.6842 -0.4611
 7606SOL    HW134280   4.317   4.317   1.711  0.4547  0.8031  0.1811
 7606SOL    HW234281   4.228   4.371   1.811  2.6289  0.3198 -0.0948
 7607SOL     OW34282   2.794   0.692   8.075  0.2533 -0.3096  0.2697
 7607SOL    HW134283   2.839   0.657   7.999 -1.8924 -2.2323 -0.0865
 7607SOL    HW234284   2.736   0.618   8.094 -0.3514  0.3765  1.1255
 7608SOL     OW34285   2.733   2.265   7.420  0.1291 -0.2275  0.0428
 7608SOL    HW134286   2.678   2.252   7.343  0.6072 -3.8286  0.3257
 7608SOL    HW234287   2.713   2.357   7.439  1.3478 -0.1223  0.8240
 7609SOL     OW34288   3.861   4.706   2.787 -0.2264 -0.1959  0.4054
 7609SOL    HW134289   3.908   4.639   2.739 -0.5874 -0.7895  0.8702
 7609SOL    HW234290   3.925   0.052   2.796 -0.3472 -0.2890  2.0741
 7610SOL     OW34291   3.901   2.522   5.274 -0.4243 -0.1238  0.3360
 7610SOL    HW134292   3.834   2.529   5.205  0.7639  0.2310 -0.7775
 7610SOL    HW234293   3.844   2.526   5.351 -1.0110 -2.2466  0.0343
 7611SOL     OW34294   2.243   0.709  14.573 -0.4460 -0.0539  0.1091
 7611SOL    HW134295   2.319   0.723  14.516  1.2313  1.1593  2.6712
 7611SOL    HW234296   2.244   0.786  14.629 -1.0562 -1.4578  2.0574
 7612SOL     OW34297   2.798   1.392  10.702  0.1624 -0.4593 -0.1978
 7612SOL    HW134298   2.801   1.468  10.760  0.9964  0.1913 -1.0828
 7612SOL    HW234299   2.730   1.336  10.739 -2.7070  1.6516 -2.2391
 7613SOL     OW34300   4.713   1.973   4.254 -0.3109  0.1027 -0.0122
 7613SOL    HW134301   4.656   2.023   4.195  1.6882 -1.2236 -3.0658
 7613SOL    HW234302   4.705   2.030   4.331 -1.9336  2.6924 -2.0690
 7614SOL     OW34303   4.283   1.788   1.668 -0.0662 -0.8873 -0.2670
 7614SOL    HW134304   4.255   1.819   1.582 -0.5500  0.4419  0.3721
 7614SOL    HW234305   4.359   1.736   1.642 -1.5738 -2.6621 -1.1262
 7615SOL     OW34306   1.553   0.542   2.255 -0.1472  0.7932  0.3741
 7615SOL    HW134307   1.464   0.526   2.224 -0.3765  0.0999  1.3853
 7615SOL    HW234308   1.552   0.467   2.313 -0.5915 -1.1110 -2.0986
 7616SOL     OW34309   1.421   0.210   3.405  0.2962 -0.2589 -0.1542
 7616SOL    HW134310   1.354   0.217   3.472 -1.5604 -0.7138 -1.9462
 7616SOL    HW234311   1.417   0.293   3.358  0.1752  0.3156  0.8790
 7617SOL     OW34312   2.450   0.960  16.089 -0.5620 -0.0242  0.2743
 7617SOL    HW134313   2.541   0.991  16.092 -0.3966 -0.4016 -0.9054
 7617SOL    HW234314   2.394   1.038  16.095  0.1001  0.4728  0.0624
 7618SOL     OW34315   4.173   0.126   0.526 -0.5331  0.2724  0.0653
 7618SOL    HW134316   4.117   0.151   0.600 -2.9985  1.1606 -2.0867
 7618SOL    HW234317   4.249   0.122   0.583 -1.7929 -2.0104  1.6301
 7619SOL     OW34318   3.833   2.983   8.494  0.5071  0.8125  0.4173
 7619SOL    HW134319   3.871   2.988   8.582 -0.3516 -0.7610  0.8793
 7619SOL    HW234320   3.878   3.063   8.468  0.9400  0.8641  1.3193
 7620SOL     OW34321   2.782   1.455   1.071  0.1091 -0.2413  0.1681
 7620SOL    HW134322   2.735   1.493   1.145 -0.3411 -1.0919  0.3225
 7620SOL    HW234323   2.716   1.458   1.002 -1.5946 -0.5009  1.7758
 7621SOL     OW34324   0.590   2.174   2.310  0.0243 -0.5251 -0.4849
 7621SOL    HW134325   0.620   2.085   2.293  1.1442 -0.5104  1.3867
 7621SOL    HW234326   0.605   2.170   2.404 -0.0772 -1.4153 -0.5051
 7622SOL     OW34327   3.270   3.719   3.844  0.2783 -0.2301 -0.1542
 7622SOL    HW134328   3.264   3.776   3.768 -1.0627 -0.2350 -0.0529
 7622SOL    HW234329   3.362   3.696   3.835 -0.1392 -2.0808  0.2344
 7623SOL     OW34330   2.108   4.467   6.822  0.2413  0.0995  0.9216
 7623SOL    HW134331   2.174   4.422   6.769  0.9619  0.3986  1.5580
 7623SOL    HW234332   2.046   4.394   6.824  0.1283  0.1178 -2.7564
 7624SOL     OW34333   3.898   0.389   7.914 -0.0940  0.6114  0.0790
 7624SOL    HW134334   3.975   0.445   7.923  0.0369  0.3481  0.5665
 7624SOL    HW234335   3.852   0.428   7.840 -0.2428 -2.6704 -1.5552
 7625SOL     OW34336   4.100   0.268   6.857 -0.0873 -0.4396  1.3392
 7625SOL    HW134337   4.141   0.312   6.782 -2.6562  0.8726  0.7152
 7625SOL    HW234338   4.179   0.231   6.897  0.9938  0.0550 -0.3478
 7626SOL     OW34339   0.581   0.077  13.697  0.1962  0.0839  0.2862
 7626SOL    HW134340   0.666   0.108  13.730 -0.1571  1.3816 -0.0250
 7626SOL    HW234341   0.604   4.709  13.682  0.1417  0.1577 -0.2339
 7627SOL     OW34342   3.416   0.884   3.147 -0.1349  0.5468 -0.0357
 7627SOL    HW134343   3.459   0.912   3.227 -0.3326 -3.5611  1.5248
 7627SOL    HW234344   3.490   0.887   3.086 -0.6834  2.2205 -0.6191
 7628SOL     OW34345   4.547   0.602   3.452 -0.5773 -0.3703 -0.5521
 7628SOL    HW134346   4.626   0.617   3.401  0.4327  1.1429  1.4881
 7628SOL    HW234347   4.520   0.692   3.468  1.0799 -0.2542  1.5756
 7629SOL     OW34348   2.373   1.760   3.369 -0.3535  0.1635  0.1167
 7629SOL    HW134349   2.348   1.782   3.458  0.0161  1.1844 -0.0303
 7629SOL    HW234350   2.307   1.705   3.327 -0.1966 -0.0257  0.1157
 7630SOL     OW34351   0.685   2.445   2.384  0.0019 -0.0229  0.1324
 7630SOL    HW134352   0.690   2.524   2.330 -2.7417 -0.9737 -1.5272
 7630SOL    HW234353   0.617   2.396   2.338  0.4044 -0.6295  0.1883
 7631SOL     OW34354   1.668   0.297  16.298  0.0745 -0.7231 -0.3296
 7631SOL    HW134355   1.577   0.274  16.276 -0.1266 -1.3020  1.1096
 7631SOL    HW234356   1.650   0.391  16.293 -0.9357 -0.9367 -0.6264
 7632SOL     OW34357   2.293   4.166   3.863 -0.5027 -0.0160  0.4331
 7632SOL    HW134358   2.203   4.141   3.884 -0.6553 -1.1260 -1.5523
 7632SOL    HW234359   2.279   4.175   3.768  0.4807 -0.5872  0.2381
 7633SOL     OW34360   2.167   2.200   7.716  0.2728  0.6805  0.0787
 7633SOL    HW134361   2.200   2.112   7.732  2.5798  1.2418 -1.5310
 7633SOL    HW234362   2.241   2.260   7.702  1.1374 -0.5150 -0.4611
 7634SOL     OW34363   0.524   4.616  14.855 -0.2889  0.9576 -0.1318
 7634SOL    HW134364   0.558   4.705  14.865 -1.5309  1.2685  1.3199
 7634SOL    HW234365   0.597   4.561  14.884 -0.7676  1.1003  1.3577
 7635SOL     OW34366   2.428   2.809   4.841 -0.1600 -0.2878 -0.1359
 7635SOL    HW134367   2.452   2.901   4.841  2.5764 -1.0091  0.9585
 7635SOL    HW234368   2.406   2.811   4.748 -1.8466  1.2669  0.3171
 7636SOL     OW34369   2.022   2.828  12.721  0.0321  0.5386 -0.0389
 7636SOL    HW134370   1.992   2.919  12.729 -0.1181  0.6056 -1.2942
 7636SOL    HW234371   2.006   2.821  12.627 -1.3969 -0.3690  0.2636
 7637SOL     OW34372   3.721   4.667   3.705  0.3131 -0.0245  0.4638
 7637SOL    HW134373   3.689   4.678   3.795  2.1143 -2.7087  1.4163
 7637SOL    HW234374   3.785   4.596   3.713  1.7439  1.2207 -0.0337
 7638SOL     OW34375   0.594   0.991  13.051 -0.1185 -0.4544 -0.4531
 7638SOL    HW134376   0.688   0.983  13.036 -0.4114 -2.2630 -1.4183
 7638SOL    HW234377   0.558   0.952  12.971  2.1464  0.1880 -1.7851
 7639SOL     OW34378   2.243   1.422   4.408 -0.4854  0.2012 -0.4603
 7639SOL    HW134379   2.313   1.366   4.441  1.5119  1.5641 -2.3936
 7639SOL    HW234380   2.285   1.504   4.437  2.5203 -1.3772 -0.3252
 7640SOL     OW34381   3.155   3.238   5.990  0.3235 -0.2129 -0.0905
 7640SOL    HW134382   3.093   3.310   5.989 -1.1031 -1.4653 -0.7504
 7640SOL    HW234383   3.233   3.264   5.941 -1.2749 -1.0265 -3.0433
 7641SOL     OW34384   4.426   0.013  15.422  0.2593 -0.1412 -0.0133
 7641SOL    HW134385   4.393   4.653  15.390  1.7136 -0.0354 -1.7531
 7641SOL    HW234386   4.519   4.718  15.425  0.4835  1.1261  0.8507
 7642SOL     OW34387   1.629   0.196   6.155 -0.3535  0.5128 -0.2305
 7642SOL    HW134388   1.633   0.133   6.083 -0.9480 -2.4847  2.3252
 7642SOL    HW234389   1.589   0.267   6.106 -1.2342  1.8636  2.4731
 7643SOL     OW34390   3.422   3.843   9.955  0.0084 -0.2373  0.0663
 7643SOL    HW134391   3.483   3.906   9.992  1.3050 -1.0862 -0.6480
 7643SOL    HW234392   3.424   3.856   9.860 -1.2910 -2.1430 -0.2425
 7644SOL     OW34393   0.665   2.280   8.767 -0.5743 -0.2452  0.4976
 7644SOL    HW134394   0.686   2.191   8.738 -1.7252 -0.4271  0.2277
 7644SOL    HW234395   0.720   2.284   8.845  0.0253  0.7185  0.0214
 7645SOL     OW34396   3.154   1.353   2.206  0.1806 -0.0756  0.5347
 7645SOL    HW134397   3.180   1.445   2.219  0.3386 -0.4277  2.8057
 7645SOL    HW234398   3.095   1.337   2.280 -3.4679  2.7771 -1.7561
 7646SOL     OW34399   4.519   0.526   4.007  0.3282 -0.4294  0.4387
 7646SOL    HW134400   4.598   0.555   4.053  2.2282 -1.0797 -2.3908
 7646SOL    HW234401   4.475   0.465   4.066 -1.3355 -0.4752 -0.8581
 7647SOL     OW34402   2.905   2.373   4.773  0.5597 -0.5519  0.0503
 7647SOL    HW134403   2.845   2.308   4.734  1.4182 -1.3656  0.0881
 7647SOL    HW234404   2.840   2.443   4.772  1.1111 -0.0846 -2.5986
 7648SOL     OW34405   2.262   0.082   2.553  0.1146  0.3812 -0.5112
 7648SOL    HW134406   2.192   0.055   2.495  1.7358  0.2926 -2.4407
 7648SOL    HW234407   2.340   0.034   2.523 -0.6849 -2.0448  1.2958
 7649SOL     OW34408   4.203   4.110  11.633 -0.5067  0.1257  0.3515
 7649SOL    HW134409   4.296   4.110  11.609 -0.2619 -0.9907  1.3078
 7649SOL    HW234410   4.193   4.201  11.663  4.2256  0.2570  1.5038
 7650SOL     OW34411   2.069   1.346   5.212 -0.2902 -0.0322  0.4778
 7650SOL    HW134412   2.118   1.267   5.190  0.3827  0.4621  0.2112
 7650SOL    HW234413   2.132   1.382   5.275 -0.5688  0.8683  0.2424
 7651SOL     OW34414   2.346   3.407   0.930  0.1809  0.2929 -0.5152
 7651SOL    HW134415   2.301   3.322   0.933  1.9866 -0.6172  0.5250
 7651SOL    HW234416   2.415   3.395   0.865  1.4116 -3.7026  1.5373
 7652SOL     OW34417   3.703   3.964  11.879  0.1666  0.0933  0.1214
 7652SOL    HW134418   3.728   3.923  11.796 -1.9560 -0.9802  0.0039
 7652SOL    HW234419   3.623   4.010  11.854 -0.9809 -2.3024 -0.5678
 7653SOL     OW34420   2.309   3.989   8.224  0.2859 -0.6885 -0.0406
 7653SOL    HW134421   2.385   4.026   8.268  0.8032 -2.2887  0.4108
 7653SOL    HW234422   2.286   3.913   8.279 -0.0359 -1.2093 -0.8856
 7654SOL     OW34423   3.616   0.602   1.193 -0.0740  0.3347 -0.2692
 7654SOL    HW134424   3.634   0.554   1.274 -0.9277 -0.3481 -0.4835
 7654SOL    HW234425   3.552   0.672   1.205 -1.0192 -0.4106 -1.0014
 7655SOL     OW34426   1.651   3.005   2.253  0.1530  0.1533 -0.4183
 7655SOL    HW134427   1.691   2.920   2.271 -1.6289 -0.9525 -1.7065
 7655SOL    HW234428   1.578   2.977   2.197 -0.5613  1.2625 -0.0587
 7656SOL     OW34429   2.956   0.634   6.264  0.2417 -0.3378  0.1336
 7656SOL    HW134430   2.942   0.725   6.237 -1.3046 -0.2431  1.2767
 7656SOL    HW234431   3.051   0.647   6.264  0.1401  0.4569 -1.5094
 7657SOL     OW34432   1.159   4.065  10.601 -0.1303  0.8241  0.3498
 7657SOL    HW134433   1.198   4.124  10.666 -0.6323 -0.3385  1.6839
 7657SOL    HW234434   1.120   4.136  10.550 -0.4124 -0.5169 -1.3038
 7658SOL     OW34435   1.778   1.313   1.173  0.2961  0.1598 -0.0313
 7658SOL    HW134436   1.792   1.355   1.258 -0.0113  1.2389 -0.5146
 7658SOL    HW234437   1.742   1.386   1.123  2.3552 -0.5456 -2.4911
 7659SOL     OW34438   1.961   3.712   3.701  0.2566  0.2697  0.2273
 7659SOL    HW134439   1.944   3.618   3.696 -3.9690  0.9631  0.7866
 7659SOL    HW234440   2.037   3.727   3.646  0.5874 -0.6666  0.4375
 7660SOL     OW34441   2.655   1.502   3.050  0.1207  0.1398 -0.2742
 7660SOL    HW134442   2.707   1.442   3.105 -0.6850 -0.6999 -0.4264
 7660SOL    HW234443   2.631   1.559   3.123 -2.8064 -0.4342 -0.7948
 7661SOL     OW34444   2.325   4.267  15.143 -0.5732  0.1871  0.4002
 7661SOL    HW134445   2.348   4.316  15.222 -2.0589  0.1551  0.8486
 7661SOL    HW234446   2.398   4.294  15.088 -2.1206 -1.2918 -2.3917
 7662SOL     OW34447   1.544   2.665   1.411 -0.0327  0.1578  0.5090
 7662SOL    HW134448   1.602   2.675   1.487 -2.3821  2.0359  2.0858
 7662SOL    HW234449   1.463   2.643   1.457  1.3002 -0.5540  2.5128
 7663SOL     OW34450   3.623   4.080   8.966 -0.1737  0.0283  0.3947
 7663SOL    HW134451   3.591   4.098   9.054  0.0834 -1.4406  0.7869
 7663SOL    HW234452   3.593   4.158   8.919 -3.2906 -0.8510  0.9296
 7664SOL     OW34453   2.832   0.217   2.612 -0.5023  0.0939  0.2388
 7664SOL    HW134454   2.825   0.272   2.535  1.5792 -0.3314 -0.2709
 7664SOL    HW234455   2.906   0.170   2.574  0.5512  2.5500 -0.7485
 7665SOL     OW34456   3.578   2.602   8.431 -0.4343  0.6313 -0.2619
 7665SOL    HW134457   3.659   2.616   8.382  0.6588 -2.4275  0.7268
 7665SOL    HW234458   3.566   2.696   8.449 -1.2418 -0.0014  2.5529
 7666SOL     OW34459   3.486   2.125   7.249  0.0654  0.6767  0.0691
 7666SOL    HW134460   3.488   2.113   7.155  1.0828 -1.2147  0.3290
 7666SOL    HW234461   3.435   2.050   7.278  1.3448 -0.5478 -0.8748
 7667SOL     OW34462   2.226   1.948   9.065 -0.6264 -0.2572  0.4051
 7667SOL    HW134463   2.290   2.005   9.023 -0.1726  2.2680  4.4283
 7667SOL    HW234464   2.283   1.888   9.113  0.6319 -0.3381 -1.2076
 7668SOL     OW34465   3.767   4.133   3.652  0.3531  0.0582 -0.3675
 7668SOL    HW134466   3.822   4.132   3.731  0.1741 -1.4950 -0.2561
 7668SOL    HW234467   3.831   4.160   3.586 -1.5585 -0.0061 -2.2265
 7669SOL     OW34468   2.844   2.338   2.193  0.0684 -0.1980  0.2065
 7669SOL    HW134469   2.757   2.305   2.172  0.8736 -1.4669 -1.1037
 7669SOL    HW234470   2.877   2.251   2.212  0.0865 -0.5072 -1.2500
 7670SOL     OW34471   3.710   4.607   4.969 -0.5021  0.2053 -0.3442
 7670SOL    HW134472   3.621   4.573   4.984 -1.0958  1.5869 -0.7437
 7670SOL    HW234473   3.757   4.525   4.983  0.7242  0.6086 -2.1796
 7671SOL     OW34474   2.621   1.475   0.845  0.3586 -0.1686  0.1378
 7671SOL    HW134475   2.563   1.528   0.791  2.0092  2.0071  0.4700
 7671SOL    HW234476   2.693   1.456   0.785  0.9224  1.4859  0.2703
 7672SOL     OW34477   4.443   1.626   5.964 -0.0139  0.9262  0.6875
 7672SOL    HW134478   4.539   1.633   5.959  0.1584 -1.3250  1.1048
 7672SOL    HW234479   4.429   1.719   5.945 -2.4604  0.3912 -0.0574
 7673SOL     OW34480   1.661   3.964   0.962 -0.2894 -0.0401  0.5734
 7673SOL    HW134481   1.692   4.033   0.903  2.5187 -2.3179 -0.5866
 7673SOL    HW234482   1.647   4.024   1.036  1.0107  0.6429  0.2713
 7674SOL     OW34483   3.168   3.702   4.498 -0.1607 -0.4409  0.5197
 7674SOL    HW134484   3.099   3.659   4.449 -0.4416 -0.8973  1.3266
 7674SOL    HW234485   3.173   3.788   4.455 -0.3529  0.0012  1.3800
 7675SOL     OW34486   1.125   0.842  11.514  0.3275 -0.3967  0.9048
 7675SOL    HW134487   1.146   0.877  11.601 -0.0798 -2.5396  1.8816
 7675SOL    HW234488   1.174   0.904  11.461 -1.2706  1.4159  1.5198
 7676SOL     OW34489   0.088   3.260  12.455  0.2416 -0.1949 -0.6699
 7676SOL    HW134490   0.060   3.169  12.453  0.2157 -0.2179  0.9337
 7676SOL    HW234491   0.034   3.296  12.384 -1.5158 -2.5411 -0.5363
 7677SOL     OW34492   2.123   1.850   2.108 -0.0440 -0.5019  0.2966
 7677SOL    HW134493   2.065   1.859   2.184 -0.0621  0.3440  0.1848
 7677SOL    HW234494   2.056   1.815   2.049  3.1518  0.7436 -3.9989
 7678SOL     OW34495   3.792   2.815  14.991  0.0992  0.6716 -0.0230
 7678SOL    HW134496   3.762   2.889  15.044 -2.9239  0.0184 -0.7998
 7678SOL    HW234497   3.849   2.861  14.930  1.0772 -0.8571 -0.2688
 7679SOL     OW34498   1.712   2.247   6.429 -0.4371  0.0844 -0.0430
 7679SOL    HW134499   1.800   2.211   6.438 -1.1777 -1.6050  0.4648
 7679SOL    HW234500   1.673   2.192   6.361 -0.4099  1.6666 -1.3518
 7680SOL     OW34501   0.470   1.646  10.600 -0.3584  0.3494  0.4918
 7680SOL    HW134502   0.556   1.660  10.561 -0.6151 -1.9583 -0.9021
 7680SOL    HW234503   0.420   1.612  10.525  0.9827 -1.7967  0.5825
 7681SOL     OW34504   0.060   1.600   7.796 -0.0490  0.0561 -0.0445
 7681SOL    HW134505   4.703   1.565   7.758 -0.8686  1.5938  0.2719
 7681SOL    HW234506   0.097   1.532   7.852 -0.1299  1.1456  1.3327
 7682SOL     OW34507   3.120   4.700   8.543  0.3575 -0.1829 -0.4052
 7682SOL    HW134508   3.133   0.062   8.503 -2.4302  0.5562  0.2532
 7682SOL    HW234509   3.092   4.661   8.460  1.3392 -1.1939 -0.2518
 7683SOL     OW34510   4.654   0.063  17.165 -0.2706 -0.3194 -0.0814
 7683SOL    HW134511   0.017   0.024  17.153 -0.6358 -0.2736 -2.9520
 7683SOL    HW234512   4.668   0.156  17.181 -1.6641 -0.0715 -0.3048
 7684SOL     OW34513   4.703   3.148   8.328  0.0989 -0.4012  0.5672
 7684SOL    HW134514   0.035   3.168   8.253 -0.7114 -2.1759 -0.5125
 7684SOL    HW234515   4.676   3.238   8.347  0.6394 -0.0147 -0.5005
 7685SOL     OW34516   0.939   0.427   0.130 -0.7263  0.3804 -0.6380
 7685SOL    HW134517   0.875   0.463   0.070  1.0190  2.9858 -0.9398
 7685SOL    HW234518   1.006   0.496   0.134  1.0782 -1.4998  2.2771
 7686SOL     OW34519   1.568   0.904   9.108  0.3511  0.4506 -0.3146
 7686SOL    HW134520   1.507   0.978   9.110  0.7141  0.7602 -1.0844
 7686SOL    HW234521   1.506   0.846   9.154 -1.2231  0.7744 -2.0560
 7687SOL     OW34522   4.439   2.883   3.593 -0.4648 -0.3232 -0.1551
 7687SOL    HW134523   4.439   2.978   3.577  2.8180  0.0195  1.8581
 7687SOL    HW234524   4.347   2.859   3.599  0.1423 -2.7027 -0.4334
 7688SOL     OW34525   2.005   1.670  10.050 -0.2889 -0.2505 -0.8726
 7688SOL    HW134526   2.003   1.576  10.036 -0.1721 -0.7081  2.2127
 7688SOL    HW234527   2.071   1.672  10.119 -1.7534  1.0047  0.5011
 7689SOL     OW34528   0.340   3.803  10.952 -0.5633  0.2829  0.0046
 7689SOL    HW134529   0.387   3.724  10.926  0.8127  0.9147  0.5659
 7689SOL    HW234530   0.405   3.843  11.009 -0.7383  1.4159 -0.6040
 7690SOL     OW34531   0.795   4.410   3.220  0.4196  0.1336  0.1175
 7690SOL    HW134532   0.835   4.324   3.226 -2.0673 -1.2326 -2.7474
 7690SOL    HW234533   0.846   4.454   3.151  0.8887  2.2142  1.8021
 7691SOL     OW34534   4.663   3.500   7.819 -0.2144 -0.2108  0.1856
 7691SOL    HW134535   4.576   3.462   7.804 -2.0567  3.9470  0.3913
 7691SOL    HW234536   4.715   3.423   7.842  0.0519 -0.9194 -2.8261
 7692SOL     OW34537   4.573   2.283  12.418  0.7428  0.2892 -0.3753
 7692SOL    HW134538   4.610   2.296  12.505 -3.6031  0.3671  1.4577
 7692SOL    HW234539   4.567   2.187  12.415  0.3041  0.3563 -1.8272
 7693SOL     OW34540   0.617   4.489   4.113 -0.2407  0.0481 -0.1018
 7693SOL    HW134541   0.700   4.500   4.068  0.3274  1.8406  1.4077
 7693SOL    HW234542   0.558   4.502   4.038  0.3529  0.3200 -0.5169
 7694SOL     OW34543   0.956   3.124   2.656 -0.7070  0.0377  0.0789
 7694SOL    HW134544   0.964   3.073   2.575  1.6444  1.1163 -0.3579
 7694SOL    HW234545   0.938   3.211   2.619 -2.5426 -0.4104 -0.0834
 7695SOL     OW34546   0.172   3.691   9.186 -0.4422 -0.0086 -0.3466
 7695SOL    HW134547   0.237   3.761   9.171  1.0503 -1.7947 -2.1646
 7695SOL    HW234548   0.155   3.707   9.279  0.8511 -2.2206  0.2591
 7696SOL     OW34549   0.865   0.828   8.715  0.0941 -0.0184  0.3860
 7696SOL    HW134550   0.775   0.805   8.736 -0.7615 -0.1944 -3.4709
 7696SOL    HW234551   0.879   0.743   8.673  0.3108  0.1511  0.1182
 7697SOL     OW34552   1.218   3.960   2.947 -0.2908  0.0335  0.4662
 7697SOL    HW134553   1.149   3.985   3.009 -0.2265  1.1511  0.1015
 7697SOL    HW234554   1.228   3.869   2.972 -1.9579 -0.2207  0.2355
 7698SOL     OW34555   3.298   2.295   6.580  0.1501  0.4187  0.0421
 7698SOL    HW134556   3.250   2.336   6.508 -0.3810  0.2559  0.3058
 7698SOL    HW234557   3.291   2.203   6.557 -2.1076  0.4931  0.4344
 7699SOL     OW34558   4.310   0.832   4.717  0.8130  0.4254 -0.6152
 7699SOL    HW134559   4.388   0.879   4.748  0.7496 -0.6114  1.1089
 7699SOL    HW234560   4.347   0.748   4.691 -1.2064 -0.8079  0.5079
 7700SOL     OW34561   2.826   1.772   7.487  0.6711  0.1460 -0.4929
 7700SOL    HW134562   2.782   1.857   7.485 -1.7957 -1.1534 -1.6250
 7700SOL    HW234563   2.799   1.729   7.405 -1.0806  0.3605 -0.0352
 7701SOL     OW34564   3.181   0.096   8.981  0.2403 -0.2844 -0.0407
 7701SOL    HW134565   3.267   0.109   8.940  1.1331  1.5616  2.4559
 7701SOL    HW234566   3.204   0.077   9.072 -1.0113  0.1086  0.3571
 7702SOL     OW34567   4.487   1.891   3.236 -0.3021 -0.4174  0.7668
 7702SOL    HW134568   4.449   1.965   3.284  1.1067  1.2413 -0.7038
 7702SOL    HW234569   4.496   1.927   3.148 -1.9888  2.3128  1.7201
 7703SOL     OW34570   1.683   2.006   1.965 -0.3383 -0.5515 -0.1506
 7703SOL    HW134571   1.650   1.948   2.034  0.2249 -1.3266 -0.5295
 7703SOL    HW234572   1.641   2.090   1.985  0.9494 -0.6972  3.0183
 7704SOL     OW34573   4.638   2.833   8.350  0.3935 -0.1524 -0.2467
 7704SOL    HW134574   4.680   2.919   8.351 -2.2894  1.1782 -3.0501
 7704SOL    HW234575   4.707   2.787   8.397  1.2030 -0.9524 -2.2556
 7705SOL     OW34576   3.618   2.144   2.159  0.0769  0.6742 -0.3655
 7705SOL    HW134577   3.693   2.192   2.124  0.0885  0.5115 -0.5700
 7705SOL    HW234578   3.567   2.215   2.196  1.4350  0.8568  1.1685
 7706SOL     OW34579   3.919   1.671   1.768 -0.8022  0.7269  0.2011
 7706SOL    HW134580   3.993   1.703   1.819  1.8323 -1.4276 -2.2388
 7706SOL    HW234581   3.975   1.625   1.706 -0.3367  0.6864  0.6566
 7707SOL     OW34582   3.241   2.520  11.928  0.6291  0.1903 -0.5647
 7707SOL    HW134583   3.307   2.529  11.859  0.2075  1.9872 -0.7341
 7707SOL    HW234584   3.265   2.590  11.989  1.2433  0.6493 -1.3302
 7708SOL     OW34585   0.008   2.593   5.206 -0.1558  0.0923  0.1134
 7708SOL    HW134586   4.703   2.681   5.183 -0.1357 -1.0416 -4.2304
 7708SOL    HW234587   0.015   2.566   5.114 -0.2712 -2.0538  0.7259
 7709SOL     OW34588   1.856   1.296  10.672  0.2152  0.2577  0.0215
 7709SOL    HW134589   1.843   1.390  10.684 -0.3428  0.1311  0.4592
 7709SOL    HW234590   1.907   1.257  10.744  2.0104  2.5826 -0.0124
 7710SOL     OW34591   2.815   1.332   4.517 -0.6889  0.6051 -0.3431
 7710SOL    HW134592   2.799   1.260   4.456 -0.4366 -0.5322  0.9446
 7710SOL    HW234593   2.891   1.290   4.557 -0.3904 -0.2849 -1.8829
 7711SOL     OW34594   0.739   1.230   6.628  0.0283 -0.0606 -0.1176
 7711SOL    HW134595   0.746   1.298   6.694  1.4989  1.2299 -1.6262
 7711SOL    HW234596   0.830   1.203   6.620  0.1210  0.5626 -1.0931
 7712SOL     OW34597   1.331   4.017   9.720  0.7825 -0.0355  0.6038
 7712SOL    HW134598   1.306   3.925   9.708 -2.9490  0.9779  0.4318
 7712SOL    HW234599   1.315   4.036   9.813  4.3962  2.9591  0.5839
 7713SOL     OW34600   3.740   0.358  17.059 -0.1652 -0.3814  0.0920
 7713SOL    HW134601   3.821   0.336  17.012 -0.2912 -2.4047  0.8636
 7713SOL    HW234602   3.710   0.424  16.996  0.4693 -0.1126  0.0641
 7714SOL     OW34603   2.364   2.857   9.023  0.3735  0.0062  0.3275
 7714SOL    HW134604   2.339   2.870   9.115  0.0829 -0.2609  0.2874
 7714SOL    HW234605   2.336   2.937   8.980  0.1800 -0.5944 -0.6590
 7715SOL     OW34606   1.766   0.816   2.959  0.1363  0.1747 -0.1273
 7715SOL    HW134607   1.718   0.898   2.944  0.0464 -0.2656 -2.2968
 7715SOL    HW234608   1.854   0.837   2.928  0.4050 -1.6435 -0.5771
 7716SOL     OW34609   0.288   0.667   2.913 -0.4699  0.1239  0.7368
 7716SOL    HW134610   0.273   0.688   2.821  4.2341  1.4343  0.2522
 7716SOL    HW234611   0.199   0.642   2.936 -0.2103 -1.2609  0.2692
 7717SOL     OW34612   3.184   1.742   6.560 -0.6751 -0.0884  0.0001
 7717SOL    HW134613   3.248   1.733   6.631  1.0770 -2.6481 -1.9372
 7717SOL    HW234614   3.099   1.730   6.603 -1.9396  0.7171 -2.2879
 7718SOL     OW34615   4.459   2.482  12.884  0.3951  0.0820 -0.2165
 7718SOL    HW134616   4.506   2.502  12.804  0.7912 -0.7485 -0.1944
 7718SOL    HW234617   4.380   2.451  12.839 -0.7569  0.8388  1.2818
 7719SOL     OW34618   0.538   2.916   2.832  0.3937 -0.1387  0.3132
 7719SOL    HW134619   0.607   2.940   2.770  1.3488 -1.7608  0.7421
 7719SOL    HW234620   0.579   2.950   2.911  0.3249  2.1738 -0.6518
 7720SOL     OW34621   3.240   2.582   9.366 -0.2700 -0.2632 -0.4834
 7720SOL    HW134622   3.150   2.550   9.363  0.2421 -1.7209 -0.3017
 7720SOL    HW234623   3.274   2.551   9.450  1.7002  1.3484 -0.6941
 7721SOL     OW34624   0.328   3.301   8.655 -0.4200  0.4355  0.8495
 7721SOL    HW134625   0.390   3.337   8.591 -2.1371  1.4458 -0.2299
 7721SOL    HW234626   0.376   3.301   8.738 -0.5096 -2.0071  0.9023
 7722SOL     OW34627   0.250   3.302   3.059  0.7956  0.3546  0.1577
 7722SOL    HW134628   0.270   3.249   2.982  0.9606  1.2146 -0.3911
 7722SOL    HW234629   0.167   3.336   3.027 -0.4080 -1.2761  1.5521
 7723SOL     OW34630   2.404   2.076  14.773 -0.4840 -0.1985 -0.0201
 7723SOL    HW134631   2.426   1.999  14.721  0.6260 -1.0278  1.6709
 7723SOL    HW234632   2.312   2.059  14.794 -0.4958 -0.7435 -0.4987
 7724SOL     OW34633   3.092   0.362  10.176 -1.0506 -0.4279 -0.7394
 7724SOL    HW134634   3.085   0.272  10.145 -0.3189  0.3003 -2.9880
 7724SOL    HW234635   3.177   0.350  10.218 -0.5656  0.0603 -1.5722
 7725SOL     OW34636   0.588   3.626  11.870 -0.1243  0.5321  0.4720
 7725SOL    HW134637   0.663   3.609  11.813 -0.2333 -0.0781  0.5161
 7725SOL    HW234638   0.619   3.562  11.934 -2.4658  0.1156  1.1680
 7726SOL     OW34639   0.600   2.921   8.094  0.4414 -0.3800  0.3713
 7726SOL    HW134640   0.570   3.000   8.050  0.2142 -0.8328 -0.2845
 7726SOL    HW234641   0.568   2.939   8.182  0.5816 -0.6380  0.4739
 7727SOL     OW34642   2.738   4.445   4.014  1.1954 -0.0006  0.2878
 7727SOL    HW134643   2.666   4.383   4.018  1.5036 -0.3652  0.2126
 7727SOL    HW234644   2.821   4.397   4.017  1.9489  1.2752  0.1529
 7728SOL     OW34645   4.401   0.394   3.273  0.2295  0.4955  0.3896
 7728SOL    HW134646   4.419   0.437   3.189 -2.1601 -0.0644 -0.4293
 7728SOL    HW234647   4.439   0.453   3.338  0.8097  1.0375 -0.4468
 7729SOL     OW34648   1.114   3.489   2.895 -0.3478 -0.5941 -0.2931
 7729SOL    HW134649   1.036   3.493   2.840 -0.3947 -2.4577 -0.3789
 7729SOL    HW234650   1.098   3.404   2.936  1.1344 -0.8873 -0.3196
 7730SOL     OW34651   3.421   1.894   7.475 -0.2759  0.6503  0.3545
 7730SOL    HW134652   3.500   1.947   7.488  0.3752  0.7745 -4.0748
 7730SOL    HW234653   3.344   1.951   7.481 -0.2634  0.6996  0.0375
 7731SOL     OW34654   1.706   2.951   1.005 -0.2276 -0.0119 -0.3291
 7731SOL    HW134655   1.640   2.938   1.073  0.8912 -3.9698  0.0045
 7731SOL    HW234656   1.676   3.025   0.952 -2.5647 -0.1954  0.7561
 7732SOL     OW34657   2.733   0.677   1.658 -0.1060  0.0205  0.8726
 7732SOL    HW134658   2.687   0.755   1.626  0.3463  0.3982  1.1465
 7732SOL    HW234659   2.677   0.615   1.611 -0.1158  0.5879  0.1418
 7733SOL     OW34660   1.136   4.576  12.450  0.0849  0.2470 -0.4642
 7733SOL    HW134661   1.116   4.652  12.396  1.6382  1.6627  0.9868
 7733SOL    HW234662   1.178   4.513  12.392  0.6527  1.0495 -0.9143
 7734SOL     OW34663   1.155   4.671  12.707 -0.0984  0.1101 -0.7762
 7734SOL    HW134664   1.150   4.645  12.615 -1.4458  0.5392 -0.8271
 7734SOL    HW234665   1.156   0.043  12.707  0.2008  0.0990  0.1027
 7735SOL     OW34666   3.068   3.076   7.554  0.1772  0.0316 -0.1442
 7735SOL    HW134667   3.126   3.151   7.569 -0.4614  0.5462 -0.2561
 7735SOL    HW234668   3.090   3.016   7.625 -0.6340 -0.1327 -0.0379
 7736SOL     OW34669   1.054   2.397  16.440  0.4108 -0.3139  0.6670
 7736SOL    HW134670   1.041   2.459  16.511  0.0099 -2.1375  2.1989
 7736SOL    HW234671   1.025   2.456  16.371  2.2178  0.1362  0.2828
 7737SOL     OW34672   2.985   3.912   2.989  0.0742 -0.2812  0.4660
 7737SOL    HW134673   2.912   3.909   3.052 -1.0930 -2.6629 -1.0052
 7737SOL    HW234674   3.058   3.935   3.046  0.0573 -1.8357  1.0944
 7738SOL     OW34675   4.303   1.627  11.123 -0.4441  0.4457 -0.3651
 7738SOL    HW134676   4.378   1.612  11.066  0.6356  2.4488  0.5485
 7738SOL    HW234677   4.271   1.715  11.100  0.1884  0.6542 -0.4418
 7739SOL     OW34678   2.399   2.337   2.250  0.3210  0.1044  0.5099
 7739SOL    HW134679   2.473   2.298   2.203 -1.2661 -2.0058 -0.2253
 7739SOL    HW234680   2.438   2.401   2.309 -2.1733  0.8671  1.3246
 7740SOL     OW34681   1.802   2.484  14.667 -0.4587 -0.1753  0.0070
 7740SOL    HW134682   1.839   2.432  14.739 -1.4831 -1.7657 -0.6129
 7740SOL    HW234683   1.809   2.419  14.597  0.5964  0.3517 -0.3688
 7741SOL     OW34684   4.025   4.235   3.140 -0.1723  0.0131  0.5296
 7741SOL    HW134685   4.074   4.154   3.123  0.6529  1.1397 -2.4041
 7741SOL    HW234686   3.980   4.249   3.057  0.2711 -0.0047  0.2869
 7742SOL     OW34687   4.584   3.505   6.139 -0.2639 -0.2968  0.1570
 7742SOL    HW134688   4.564   3.493   6.046  0.5622 -0.7085  0.0400
 7742SOL    HW234689   4.515   3.566   6.167  0.4157  0.5715 -0.0480
 7743SOL     OW34690   2.706   3.174   4.449 -0.3006 -0.1649  0.5949
 7743SOL    HW134691   2.644   3.245   4.464 -1.0189 -0.6832  0.0547
 7743SOL    HW234692   2.741   3.159   4.537 -2.1148  1.5752  1.5982
 7744SOL     OW34693   2.210   4.579  16.101 -0.0227 -1.2171  0.1854
 7744SOL    HW134694   2.209   4.663  16.056 -0.3373 -1.6248 -0.5859
 7744SOL    HW234695   2.221   4.525  16.023  1.2227 -1.0345  0.2472
 7745SOL     OW34696   0.534   2.648   5.206 -0.3757  0.8299  0.2552
 7745SOL    HW134697   0.483   2.691   5.137  0.1122  3.9243  1.7888
 7745SOL    HW234698   0.605   2.713   5.202 -0.7219  1.1946 -0.0029
 7746SOL     OW34699   3.865   0.378   3.231 -0.0889 -0.1087 -0.5781
 7746SOL    HW134700   3.776   0.400   3.256 -0.0492 -1.0195  0.3990
 7746SOL    HW234701   3.910   0.462   3.234  1.5453 -0.9562 -1.1093
 7747SOL     OW34702   2.952   4.506  14.096  0.4619 -0.4962  0.0991
 7747SOL    HW134703   3.030   4.458  14.066  0.9888  0.6593 -0.3654
 7747SOL    HW234704   2.903   4.438  14.143 -0.2705  0.4782  0.7260
 7748SOL     OW34705   3.330   4.467   4.132  0.4566 -0.3066 -0.5291
 7748SOL    HW134706   3.338   4.459   4.037 -1.5566 -0.2749 -0.7004
 7748SOL    HW234707   3.300   4.379   4.157  1.6803 -0.8129 -0.8519
 7749SOL     OW34708   4.047   0.376  17.630  0.4528  0.0297 -0.4052
 7749SOL    HW134709   3.985   0.309  17.602 -0.4529  0.6284  0.1924
 7749SOL    HW234710   4.125   0.320  17.628  1.3809  1.3226 -0.8148
 7750SOL     OW34711   1.900   3.853   4.610  0.1452  0.0620 -0.3294
 7750SOL    HW134712   1.861   3.935   4.642 -1.1616 -0.8968  0.4832
 7750SOL    HW234713   1.822   3.803   4.587  1.0619 -1.2480 -0.5533
 7751SOL     OW34714   2.416   3.022  10.671 -0.1180  0.4559 -0.2109
 7751SOL    HW134715   2.382   2.944  10.627 -3.5253  2.8249 -1.7804
 7751SOL    HW234716   2.491   3.052  10.620  2.3960 -3.5736  1.1443
 7752SOL     OW34717   1.072   1.589   7.748  0.4286 -0.1618 -0.5129
 7752SOL    HW134718   1.106   1.520   7.805 -1.4122  0.5272  1.4134
 7752SOL    HW234719   0.996   1.599   7.806  1.8636 -0.5392  1.4477
 7753SOL     OW34720   3.666   3.850   8.520 -0.1973  0.4449 -0.4487
 7753SOL    HW134721   3.621   3.766   8.522  2.0356 -0.6942  2.5881
 7753SOL    HW234722   3.638   3.884   8.605 -0.5221 -0.5188 -0.1805
 7754SOL     OW34723   1.017   1.150   6.393  0.4116 -0.1793 -0.1561
 7754SOL    HW134724   1.042   1.106   6.475  0.0493 -1.0916 -0.5351
 7754SOL    HW234725   1.054   1.086   6.333  1.3625  0.4877 -0.2695
 7755SOL     OW34726   0.956   2.067   6.435  0.4322  0.4744  0.0251
 7755SOL    HW134727   0.904   2.092   6.511 -2.7252  0.7161 -2.2014
 7755SOL    HW234728   0.884   2.050   6.374 -1.7077  2.7345  1.9402
 7756SOL     OW34729   4.380   4.329   0.157  0.3225 -0.2487  0.1246
 7756SOL    HW134730   4.446   4.266   0.184  0.8105  0.7339  1.2209
 7756SOL    HW234731   4.433   4.375   0.091 -0.1332 -1.3699 -1.0082
 7757SOL     OW34732   4.509   1.937   2.271 -0.1529 -0.3996  0.0991
 7757SOL    HW134733   4.462   1.898   2.344 -1.6812 -0.6921 -1.0213
 7757SOL    HW234734   4.598   1.947   2.303  0.2476  0.0162 -1.1309
 7758SOL     OW34735   3.854   3.116  12.928 -0.5487 -0.2308 -0.1475
 7758SOL    HW134736   3.825   3.199  12.890 -0.2851 -0.4382 -0.7884
 7758SOL    HW234737   3.913   3.099  12.855 -0.0369 -1.4814  0.5671
 7759SOL     OW34738   3.417   1.039   2.280 -0.6208 -0.2119  0.0763
 7759SOL    HW134739   3.448   0.949   2.289  1.2174  0.4634  0.5025
 7759SOL    HW234740   3.500   1.086   2.283 -0.8908  0.4727 -2.7690
 7760SOL     OW34741   1.391   1.397   5.747 -0.4903 -0.7592  0.1005
 7760SOL    HW134742   1.380   1.367   5.657  0.5845 -1.0587  0.0599
 7760SOL    HW234743   1.398   1.314   5.793 -2.9872 -1.3129 -0.5277
 7761SOL     OW34744   0.157   3.976   9.757 -0.7024  0.3970 -0.7061
 7761SOL    HW134745   0.103   3.951   9.681 -3.7797  1.4646  1.1339
 7761SOL    HW234746   0.107   4.050   9.791 -2.6310 -0.7782 -1.0160
 7762SOL     OW34747   4.200   4.280   2.263 -0.5381 -0.3880 -0.0993
 7762SOL    HW134748   4.207   4.357   2.207  1.3810  1.0933  2.1643
 7762SOL    HW234749   4.177   4.309   2.351 -1.6168  2.3188 -1.2758
 7763SOL     OW34750   1.293   4.178   8.222  0.0830  0.0747  0.1789
 7763SOL    HW134751   1.321   4.204   8.135  0.3180 -1.4173 -0.1991
 7763SOL    HW234752   1.282   4.260   8.269 -0.0887 -0.3412  0.8711
 7764SOL     OW34753   2.402   1.637   9.341 -0.1404 -0.0950  0.0789
 7764SOL    HW134754   2.484   1.626   9.389 -0.8428 -0.8936  1.0979
 7764SOL    HW234755   2.432   1.690   9.267 -0.6617  0.8341  0.5445
 7765SOL     OW34756   1.077   4.382  15.688  0.3476 -0.4704  0.6080
 7765SOL    HW134757   1.128   4.441  15.744  0.0114  3.0014 -2.7002
 7765SOL    HW234758   1.144   4.345  15.632 -0.2473  2.2043 -1.8934
 7766SOL     OW34759   0.838   0.966   2.004  0.5705  0.0916  0.4764
 7766SOL    HW134760   0.920   1.013   2.008  0.7274 -0.3869  2.6862
 7766SOL    HW234761   0.789   1.011   2.073 -0.8424 -1.3234  0.4145
 7767SOL     OW34762   4.322   3.296   6.316 -0.0588 -0.3534  0.2895
 7767SOL    HW134763   4.332   3.259   6.404  1.6686  2.4930  1.2714
 7767SOL    HW234764   4.364   3.380   6.335 -0.3494 -0.2183  0.3253
 7768SOL     OW34765   3.362   3.592   2.559  0.0593  0.0198 -0.0206
 7768SOL    HW134766   3.409   3.673   2.577 -1.6484  0.7027  1.4333
 7768SOL    HW234767   3.439   3.534   2.558  1.2011  1.5389  0.4687
 7769SOL     OW34768   2.928   0.886   7.915 -0.6083 -0.1167 -0.2793
 7769SOL    HW134769   2.966   0.854   7.997 -2.3253  0.2080  0.6392
 7769SOL    HW234770   2.864   0.941   7.959 -0.5645  2.1932 -3.1152
 7770SOL     OW34771   3.063   3.527   1.249 -0.0251 -0.3613 -0.7472
 7770SOL    HW134772   2.996   3.589   1.221  0.3461  0.2879 -0.1982
 7770SOL    HW234773   3.137   3.587   1.247 -0.7681  0.6098  0.7033
 7771SOL     OW34774   2.641   0.948   2.652  0.4963 -0.0900  0.1294
 7771SOL    HW134775   2.689   0.929   2.733  1.9214  0.6799 -0.5323
 7771SOL    HW234776   2.655   1.040   2.632  1.8571 -0.7905 -2.1986
 7772SOL     OW34777   4.126   3.636  10.618  0.0276 -0.2353 -0.3434
 7772SOL    HW134778   4.194   3.633  10.686 -0.8684  1.5178  0.6094
 7772SOL    HW234779   4.073   3.561  10.644 -1.7635  0.3656 -2.2373
 7773SOL     OW34780   2.045   1.190   2.143  0.2637  0.1691 -0.0529
 7773SOL    HW134781   2.018   1.099   2.142  1.5427 -0.1988 -2.0379
 7773SOL    HW234782   1.992   1.221   2.069  2.4225  0.6737 -1.3968
 7774SOL     OW34783   0.689   2.461   5.650 -0.3548  0.1203 -0.0994
 7774SOL    HW134784   0.770   2.455   5.701 -0.7739 -0.6584  0.4738
 7774SOL    HW234785   0.643   2.382   5.680  0.3431  0.1730  1.0852
 7775SOL     OW34786   1.175   3.927   1.699 -0.4075  0.0101  0.2393
 7775SOL    HW134787   1.180   4.019   1.673 -0.0526  0.7435  2.9464
 7775SOL    HW234788   1.111   3.936   1.769 -1.6648 -0.2928 -0.8689
 7776SOL     OW34789   1.381   1.610   0.976 -0.8275  0.4806  0.1248
 7776SOL    HW134790   1.297   1.586   0.937  0.5499 -3.3670 -0.4786
 7776SOL    HW234791   1.354   1.603   1.068  0.4690 -3.1724  0.2616
 7777SOL     OW34792   4.015   2.452   3.098 -0.2891 -0.5639  0.0223
 7777SOL    HW134793   3.938   2.424   3.148  0.0334 -0.9973  0.2768
 7777SOL    HW234794   3.995   2.545   3.092  2.1698 -0.1455 -1.7099
 7778SOL     OW34795   3.023   4.050  11.588 -0.0077 -0.2710 -0.4200
 7778SOL    HW134796   2.985   3.983  11.645 -0.0723  1.0736  1.0989
 7778SOL    HW234797   2.954   4.116  11.586  0.4524  0.1121 -3.3184
 7779SOL     OW34798   1.791   1.744   4.942  0.5030 -0.0925 -0.3196
 7779SOL    HW134799   1.749   1.688   4.876  0.5677 -0.2239 -0.2470
 7779SOL    HW234800   1.775   1.699   5.024  1.8698 -0.3802 -0.2184
 7780SOL     OW34801   3.523   4.029  11.504  0.1756 -0.1908 -0.2521
 7780SOL    HW134802   3.495   4.087  11.576  0.3077  0.3997 -0.6809
 7780SOL    HW234803   3.608   4.061  11.475 -1.2461  0.9275 -3.1770
 7781SOL     OW34804   2.569   0.969   8.470  0.0772  0.0884  0.0864
 7781SOL    HW134805   2.602   1.055   8.445  0.4617 -0.4031 -1.0939
 7781SOL    HW234806   2.649   0.915   8.473 -0.2959 -0.3817  1.6067
 7782SOL     OW34807   2.475   3.783   0.586  0.6485 -0.5839 -0.3723
 7782SOL    HW134808   2.533   3.857   0.604  0.6162 -0.6601  0.0386
 7782SOL    HW234809   2.533   3.709   0.606  0.7191 -0.4449 -0.0705
 7783SOL     OW34810   2.417   4.340   8.274 -0.1483  0.0707  0.3349
 7783SOL    HW134811   2.444   4.381   8.192 -1.1441 -0.0124 -0.0404
 7783SOL    HW234812   2.323   4.358   8.266 -0.3070 -0.7186  0.3624
 7784SOL     OW34813   1.271   0.688   6.008 -0.1239 -0.2901  0.0277
 7784SOL    HW134814   1.256   0.681   6.102 -0.2193  1.1676  0.1237
 7784SOL    HW234815   1.220   0.613   5.979 -1.6949  0.6238  0.4429
 7785SOL     OW34816   2.075   4.670   2.383  0.9456  0.0590  0.9793
 7785SOL    HW134817   2.123   4.596   2.421 -0.0565 -1.3779 -0.5240
 7785SOL    HW234818   1.987   4.637   2.365  1.6671 -1.0117 -0.5195
 7786SOL     OW34819   0.233   4.238   8.749 -0.4353  0.0897  0.0474
 7786SOL    HW134820   0.158   4.262   8.804  0.5248  2.0377  0.4787
 7786SOL    HW234821   0.301   4.250   8.815 -0.7394 -0.4480  0.4595
 7787SOL     OW34822   0.416   4.002  11.457 -0.2765  0.3071  0.2803
 7787SOL    HW134823   0.334   4.004  11.507 -0.1450 -0.4649  0.5318
 7787SOL    HW234824   0.399   3.961  11.372 -1.7175 -2.2939  1.8134
 7788SOL     OW34825   1.727   0.427  11.384 -0.1921  0.3697  0.5082
 7788SOL    HW134826   1.639   0.442  11.350 -0.5092  0.5720  1.3992
 7788SOL    HW234827   1.728   0.332  11.397 -0.8352  0.0987 -1.4750
 7789SOL     OW34828   0.198   3.031   1.797  0.0279  0.0913  0.1573
 7789SOL    HW134829   0.180   3.053   1.706  1.6260 -1.1695 -0.4928
 7789SOL    HW234830   0.147   2.950   1.799  0.0634  0.1076  1.3130
 7790SOL     OW34831   3.588   1.205   5.862  0.2137  0.0142  0.5880
 7790SOL    HW134832   3.683   1.199   5.866  0.2626  0.4847  0.0497
 7790SOL    HW234833   3.565   1.116   5.836  2.4751  0.1815 -1.9072
 7791SOL     OW34834   2.241   2.349   4.424  0.3701 -0.1246  0.2586
 7791SOL    HW134835   2.270   2.433   4.389 -1.4220  0.8222  1.0431
 7791SOL    HW234836   2.176   2.367   4.492  0.7394  0.0490  0.5687
 7792SOL     OW34837   1.817   4.347   1.057  0.0124 -0.2764 -0.4706
 7792SOL    HW134838   1.847   4.359   0.967 -1.4483  1.0340 -0.7723
 7792SOL    HW234839   1.883   4.386   1.114 -1.7261  1.7790  0.1213
 7793SOL     OW34840   4.361   4.565   8.105 -0.1402  0.4784 -0.3817
 7793SOL    HW134841   4.427   4.566   8.174  2.1570 -0.6586 -2.5747
 7793SOL    HW234842   4.294   4.509   8.145  0.2107  1.6653  1.8427
 7794SOL     OW34843   3.591   2.975  17.627  0.9882  0.0063  0.0279
 7794SOL    HW134844   3.581   2.938   0.018 -0.7653  1.8147  0.5890
 7794SOL    HW234845   3.640   3.056  17.645  2.3091 -0.7685 -0.1312
 7795SOL     OW34846   1.496   2.683  12.085 -0.0334  0.0532  0.0878
 7795SOL    HW134847   1.578   2.711  12.047  0.5297 -1.9309 -0.1694
 7795SOL    HW234848   1.497   2.728  12.170  2.0398  1.2786 -0.6022
 7796SOL     OW34849   2.084   3.424   3.453  0.5481  0.0694 -0.4198
 7796SOL    HW134850   2.056   3.442   3.543 -1.9355 -1.0200 -0.9561
 7796SOL    HW234851   2.179   3.424   3.460  0.8011  1.3838 -3.6463
 7797SOL     OW34852   2.235   4.367   2.219 -0.4573  0.1044 -1.0173
 7797SOL    HW134853   2.184   4.374   2.139  0.3789 -3.4623 -1.8743
 7797SOL    HW234854   2.222   4.460   2.240  2.0307  0.2320  0.0132
 7798SOL     OW34855   3.842   0.098   6.637  0.4262 -0.4345 -0.0710
 7798SOL    HW134856   3.931   0.094   6.603  0.5688  2.1188 -0.0056
 7798SOL    HW234857   3.851   0.033   6.707 -0.7614  1.1368  1.5714
 7799SOL     OW34858   1.932   4.658   0.641  0.6011  0.3292 -0.0722
 7799SOL    HW134859   1.952   0.027   0.632 -0.1680  0.3257 -1.7831
 7799SOL    HW234860   1.932   4.629   0.550 -1.1194 -2.1163  0.6983
 7800SOL     OW34861   1.816   0.746   5.209 -0.3758 -0.3167  0.0506
 7800SOL    HW134862   1.787   0.678   5.149  0.9523  0.6373 -1.6582
 7800SOL    HW234863   1.766   0.726   5.288 -0.9663 -1.3109 -0.5878
 7801SOL     OW34864   2.831   1.194   9.142  0.1290  0.6773  0.3680
 7801SOL    HW134865   2.787   1.149   9.069  0.3263  2.0288 -0.5972
 7801SOL    HW234866   2.790   1.157   9.220  0.0888  2.3479  1.1305
 7802SOL     OW34867   0.264   0.416   0.684 -0.1728 -0.2637  0.1157
 7802SOL    HW134868   0.253   0.361   0.606  1.1525 -1.4160  0.7584
 7802SOL    HW234869   0.350   0.382   0.708  0.9840  2.3375 -0.3462
 7803SOL     OW34870   1.559   2.669   7.698  0.5181  0.1037  0.4328
 7803SOL    HW134871   1.602   2.621   7.628 -0.4922 -1.0067  0.5850
 7803SOL    HW234872   1.620   2.743   7.709  0.1806  0.3331  0.7697
 7804SOL     OW34873   1.713   2.028  10.096  0.1799  0.3656 -0.2833
 7804SOL    HW134874   1.738   2.034  10.189 -0.7373 -1.1696  0.0471
 7804SOL    HW234875   1.723   2.121  10.076 -2.3160  0.4103 -1.3571
 7805SOL     OW34876   3.326   2.880   6.697  0.4883 -0.4368 -0.5455
 7805SOL    HW134877   3.292   2.918   6.615 -1.2193 -1.7203 -0.4154
 7805SOL    HW234878   3.276   2.919   6.768  0.1271 -0.9923 -0.5005
 7806SOL     OW34879   0.886   1.991   2.545  0.2144  0.0035 -0.2085
 7806SOL    HW134880   0.903   2.081   2.517 -0.7178 -0.6409 -2.8746
 7806SOL    HW234881   0.972   1.957   2.569  0.0888  0.0418  0.2938
 7807SOL     OW34882   0.207   2.841   4.162  0.3205 -0.1372 -0.4981
 7807SOL    HW134883   0.301   2.855   4.172 -0.0405  0.4155  2.0499
 7807SOL    HW234884   0.208   2.777   4.091  0.4140  0.4656 -1.0434
 7808SOL     OW34885   2.816   3.220   6.768  0.2446 -0.0017 -0.3023
 7808SOL    HW134886   2.863   3.292   6.810  1.2109  1.3956 -3.8030
 7808SOL    HW234887   2.739   3.264   6.731 -1.0368 -1.4673  0.6060
 7809SOL     OW34888   3.571   2.072   1.011  0.1344  0.6376  0.3384
 7809SOL    HW134889   3.482   2.091   0.980  0.4091 -0.1446 -0.9289
 7809SOL    HW234890   3.561   2.067   1.106 -0.6421  1.4709  0.3083
 7810SOL     OW34891   0.906   1.427  12.253  0.0325 -0.1328  0.3671
 7810SOL    HW134892   0.911   1.501  12.314 -2.5890  1.3927 -1.2214
 7810SOL    HW234893   0.813   1.433  12.230  0.0520  3.6228  1.2545
 7811SOL     OW34894   2.789   3.991  13.307  0.6742  0.0933 -0.1076
 7811SOL    HW134895   2.802   4.041  13.388 -0.1315 -0.1771  0.1855
 7811SOL    HW234896   2.803   3.901  13.338 -0.9133  0.2358  1.0127
 7812SOL     OW34897   0.380   0.197   5.892  0.3993 -0.5891 -0.2608
 7812SOL    HW134898   0.371   0.274   5.836 -0.0745 -0.4567 -0.0073
 7812SOL    HW234899   0.405   0.239   5.974 -1.7042 -0.2830  0.2253
 7813SOL     OW34900   2.158   0.416   9.066 -0.3766  0.2602 -0.0949
 7813SOL    HW134901   2.182   0.489   9.123 -0.1893 -1.0803  1.5480
 7813SOL    HW234902   2.159   0.341   9.126 -0.3934 -1.0583 -1.7394
 7814SOL     OW34903   0.749   0.452   6.949  0.0022  0.3115 -0.1955
 7814SOL    HW134904   0.695   0.379   6.978  0.2390  0.6831  1.2096
 7814SOL    HW234905   0.698   0.532   6.964 -2.4159 -1.7707  2.6551
 7815SOL     OW34906   0.365   2.394  11.562  0.5232 -0.0128  0.5781
 7815SOL    HW134907   0.309   2.317  11.580 -0.2099  0.3396 -0.1692
 7815SOL    HW234908   0.416   2.398  11.642  0.6340  1.3210  0.4314
 7816SOL     OW34909   0.494   3.357   6.599  0.3531  0.0816  0.3514
 7816SOL    HW134910   0.479   3.318   6.513  0.3861  0.3419  0.2281
 7816SOL    HW234911   0.489   3.452   6.588  1.9302 -0.2022 -2.8333
 7817SOL     OW34912   4.310   0.442  12.488 -0.1306 -0.5268  0.9687
 7817SOL    HW134913   4.374   0.470  12.553  0.6073 -0.9704  0.4242
 7817SOL    HW234914   4.278   0.531  12.471  0.1698 -0.7611 -0.8232
 7818SOL     OW34915   1.808   3.265   7.588 -0.4090 -0.0284  0.0039
 7818SOL    HW134916   1.882   3.205   7.584  0.6263  1.0369  3.0175
 7818SOL    HW234917   1.834   3.338   7.532 -0.7692  0.2508  0.1953
 7819SOL     OW34918   2.018   0.539   2.441  0.0350  0.1949  0.1889
 7819SOL    HW134919   2.093   0.482   2.463 -0.5466 -0.6384  0.0263
 7819SOL    HW234920   1.956   0.482   2.487 -0.6107  1.2790  0.6590
 7820SOL     OW34921   3.246   4.267  11.120  0.2900  0.1019 -0.0962
 7820SOL    HW134922   3.157   4.301  11.132 -0.7524 -2.4238 -0.6160
 7820SOL    HW234923   3.273   4.316  11.043  1.5111  0.8384  0.8169
 7821SOL     OW34924   3.305   1.420  14.487 -0.0346 -0.3487 -0.2221
 7821SOL    HW134925   3.276   1.363  14.559 -1.4546  0.5452 -0.0982
 7821SOL    HW234926   3.379   1.378  14.444  0.2944 -0.9452  0.9210
 7822SOL     OW34927   3.519   2.424  15.763 -0.0406 -0.5119  0.0146
 7822SOL    HW134928   3.532   2.333  15.735  2.3204  0.1276 -0.9559
 7822SOL    HW234929   3.436   2.411  15.810 -0.6027  0.8404 -0.6060
 7823SOL     OW34930   1.215   1.617   5.221 -0.0183 -0.2723  0.0551
 7823SOL    HW134931   1.165   1.665   5.287  0.2737 -1.9304  1.4546
 7823SOL    HW234932   1.181   1.528   5.226  0.7257 -0.5324  0.4703
 7824SOL     OW34933   3.771   0.002   7.166  0.3431  0.3711  0.1133
 7824SOL    HW134934   3.691   0.036   7.126  1.3602  0.8520 -1.5225
 7824SOL    HW234935   3.834   0.069   7.140 -0.9239  1.8723  0.9663
 7825SOL     OW34936   2.046   2.982   3.876 -0.3224  0.0713 -0.8659
 7825SOL    HW134937   2.061   3.009   3.785  1.5475 -1.1106 -0.8981
 7825SOL    HW234938   1.982   2.912   3.879 -0.8875  0.7476  2.2735
 7826SOL     OW34939   4.459   2.796   2.464 -0.5747 -0.1879 -0.2164
 7826SOL    HW134940   4.444   2.726   2.400  0.2599 -0.7848  0.2495
 7826SOL    HW234941   4.554   2.798   2.453 -0.7808  0.2119 -2.0034
 7827SOL     OW34942   2.563   3.304   0.735 -0.2493  0.2823 -0.3546
 7827SOL    HW134943   2.508   3.287   0.659 -0.6586  0.6858 -0.1533
 7827SOL    HW234944   2.651   3.306   0.697  1.3857 -1.7957  3.3212
 7828SOL     OW34945   2.246   1.660  13.141  0.3330 -0.5910  0.5115
 7828SOL    HW134946   2.335   1.667  13.106 -0.5515  3.1673 -0.9109
 7828SOL    HW234947   2.261   1.677  13.234 -0.0423 -0.4154  0.5395
 7829SOL     OW34948   3.516   0.802  12.319  0.3793  0.6269 -0.0859
 7829SOL    HW134949   3.450   0.744  12.279  1.2803  0.2847 -1.0717
 7829SOL    HW234950   3.478   0.829  12.403 -0.3572 -0.0222 -0.2075
 7830SOL     OW34951   0.560   1.496   7.104  0.5245  0.3452  0.2557
 7830SOL    HW134952   0.549   1.421   7.163 -0.3876  0.5851  0.3839
 7830SOL    HW234953   0.654   1.510   7.115  0.7026  0.7246 -1.8056
 7831SOL     OW34954   3.415   2.933   2.560  0.1383 -0.1657 -0.2232
 7831SOL    HW134955   3.505   2.950   2.535  0.6178 -1.2325  0.7613
 7831SOL    HW234956   3.392   3.010   2.612 -2.6035 -1.4961  0.5656
 7832SOL     OW34957   0.991   0.945   3.439  0.5670  0.0007 -0.2520
 7832SOL    HW134958   1.047   0.941   3.516 -1.3911 -0.3338  1.1463
 7832SOL    HW234959   1.044   0.977   3.366  0.8453 -1.5249 -0.7183
 7833SOL     OW34960   1.476   0.199   2.724 -0.3958 -0.5553  0.5648
 7833SOL    HW134961   1.476   0.103   2.726 -0.7258 -0.5773 -0.4808
 7833SOL    HW234962   1.401   0.226   2.672 -0.7486  0.8192  1.7696
 7834SOL     OW34963   3.446   2.454   6.731 -0.0464  0.1131  0.1572
 7834SOL    HW134964   3.371   2.454   6.791 -0.4975 -0.3015 -0.4102
 7834SOL    HW234965   3.410   2.385   6.676 -0.1687  0.1637  0.1719
 7835SOL     OW34966   4.357   2.045   8.718  0.7937 -0.0933 -0.3627
 7835SOL    HW134967   4.319   2.018   8.801  0.1352  1.0505 -0.2790
 7835SOL    HW234968   4.320   1.970   8.671 -0.5404 -0.1706  0.8157
 7836SOL     OW34969   2.072   0.074   0.986 -0.1470 -0.7793  0.1054
 7836SOL    HW134970   2.109   0.023   0.914  1.6672 -0.4864  0.8458
 7836SOL    HW234971   2.059   0.158   0.943 -2.7761 -0.6920  1.0777
 7837SOL     OW34972   3.701   2.320  13.005 -0.2421  0.0955 -0.2738
 7837SOL    HW134973   3.689   2.279  12.920 -1.6267  1.1802 -0.6069
 7837SOL    HW234974   3.629   2.382  12.993  0.6531  1.3847  0.9082
 7838SOL     OW34975   3.254   0.053   9.262  0.4733  0.4833  0.3356
 7838SOL    HW134976   3.218   0.127   9.312 -2.0944  0.1981 -1.1134
 7838SOL    HW234977   3.347   0.066   9.283  0.5262 -0.4342  0.6717
 7839SOL     OW34978   4.009   2.579   5.659  0.0833  0.2249  0.5379
 7839SOL    HW134979   4.061   2.550   5.733  0.4698 -1.2886 -0.3150
 7839SOL    HW234980   4.079   2.569   5.595  1.2962  3.2068  1.3961
 7840SOL     OW34981   4.303   3.163   6.553  0.2339  0.2638 -0.3218
 7840SOL    HW134982   4.322   3.075   6.584  1.4103  0.7784  0.4304
 7840SOL    HW234983   4.334   3.220   6.623 -1.4955  0.8199 -0.0111
 7841SOL     OW34984   1.494   3.548   7.861 -0.1832 -0.4079  0.3111
 7841SOL    HW134985   1.557   3.620   7.863  0.7100 -1.1698 -0.1511
 7841SOL    HW234986   1.416   3.591   7.897  0.8109 -0.0875  2.0725
 7842SOL     OW34987   3.785   3.994  13.876  0.2548 -0.1510  0.0227
 7842SOL    HW134988   3.848   4.002  13.804 -1.6358 -0.2430 -1.6459
 7842SOL    HW234989   3.798   3.916  13.929 -0.1970  0.6396  1.2960
 7843SOL     OW34990   0.393   3.827  10.690  0.1413 -0.3508  0.2902
 7843SOL    HW134991   0.432   3.740  10.685 -1.9269 -1.1193 -2.7087
 7843SOL    HW234992   0.383   3.838  10.784 -0.0312  0.9734  0.1159
 7844SOL     OW34993   1.536   4.014   7.073 -0.1122  0.2027 -0.0227
 7844SOL    HW134994   1.564   3.930   7.110 -0.1397 -0.1874 -0.8773
 7844SOL    HW234995   1.442   4.013   7.095 -0.4442  0.4588 -1.4262
 7845SOL     OW34996   4.312   3.031   0.699  0.1987  1.0219  0.2569
 7845SOL    HW134997   4.383   3.092   0.675  0.1430  0.1477 -2.1723
 7845SOL    HW234998   4.300   2.995   0.611  3.1274  2.9528 -0.9610
 7846SOL     OW34999   3.452   4.510   0.129  0.6240  0.5792  0.5770
 7846SOL    HW135000   3.421   4.478   0.213 -2.2010 -0.8918 -1.0240
 7846SOL    HW235001   3.501   4.591   0.143 -1.9144  2.4176 -1.1609
 7847SOL     OW35002   0.674   4.482  16.563 -0.0478  0.4205  0.2135
 7847SOL    HW135003   0.714   4.395  16.561  2.5882  1.6287  1.3696
 7847SOL    HW235004   0.582   4.475  16.589 -0.0970  0.1088 -0.0380
 7848SOL     OW35005   2.906   4.031  10.137  0.0161  0.7323 -0.0310
 7848SOL    HW135006   2.889   4.094  10.207  0.4350  1.3065 -0.4445
 7848SOL    HW235007   2.942   3.955  10.183 -2.7563  0.2591  1.3696
 7849SOL     OW35008   4.426   3.976   6.411  0.5963 -0.2172 -0.1188
 7849SOL    HW135009   4.420   4.010   6.500  0.5603  0.0544 -0.2248
 7849SOL    HW235010   4.520   3.991   6.403  0.6842 -0.2513  0.8030
 7850SOL     OW35011   1.392   0.729   9.286  0.0756  0.1941  0.1228
 7850SOL    HW135012   1.433   0.773   9.360 -1.4358 -0.0126  1.0897
 7850SOL    HW235013   1.304   0.765   9.302  0.3904  0.7720  0.5249
 7851SOL     OW35014   2.827   2.727  14.751 -0.1264 -0.2960 -0.1202
 7851SOL    HW135015   2.894   2.659  14.747 -0.3842 -0.5167 -0.7140
 7851SOL    HW235016   2.762   2.673  14.794 -1.2261 -0.6933 -2.2686
 7852SOL     OW35017   4.542   3.754  17.020 -0.6854  0.3024  0.2343
 7852SOL    HW135018   4.600   3.817  16.977 -0.4866 -1.3753 -1.9704
 7852SOL    HW235019   4.462   3.790  16.983 -0.6627  1.3116  1.1811
 7853SOL     OW35020   1.427   2.632   6.416  0.3202 -0.1727 -0.5977
 7853SOL    HW135021   1.448   2.627   6.509  1.3605 -1.4425 -0.9043
 7853SOL    HW235022   1.482   2.565   6.375 -0.0525 -1.0446  0.3347
 7854SOL     OW35023   2.149   2.781  16.129  0.0726  0.7868 -0.2478
 7854SOL    HW135024   2.069   2.774  16.077 -1.5775 -1.2986  2.6015
 7854SOL    HW235025   2.170   2.874  16.117  1.3252  0.6199  0.6126
 7855SOL     OW35026   1.729   1.279   2.219  0.0576  0.4957 -0.2155
 7855SOL    HW135027   1.749   1.200   2.270  0.9306  0.2803 -0.9104
 7855SOL    HW235028   1.808   1.273   2.166 -0.6764  0.7048 -1.3205
 7856SOL     OW35029   2.428   4.480   6.929 -0.3891  0.2242 -0.0409
 7856SOL    HW135030   2.448   4.446   6.842  0.5926  0.2514  0.1695
 7856SOL    HW235031   2.411   4.572   6.913  1.9761  0.8100  0.8298
 7857SOL     OW35032   3.115   2.463  12.217  0.1237  0.2630 -0.3408
 7857SOL    HW135033   3.202   2.446  12.181  0.6857 -0.9593  1.6226
 7857SOL    HW235034   3.072   2.422  12.142  1.0915 -3.3630  1.0745
 7858SOL     OW35035   1.929   2.566  12.059  0.0852 -1.2156  0.0304
 7858SOL    HW135036   2.007   2.607  12.096 -0.8136  0.5955 -0.0750
 7858SOL    HW235037   1.963   2.528  11.979  1.5227  0.5811 -0.2153
 7859SOL     OW35038   2.924   0.782  15.341  0.1618 -0.5541 -0.4525
 7859SOL    HW135039   2.834   0.754  15.323  0.3826  0.7364 -3.5856
 7859SOL    HW235040   2.950   0.704  15.390 -1.8055 -0.4167  0.8016
 7860SOL     OW35041   4.359   0.113   8.735  0.0732 -0.5133 -0.1753
 7860SOL    HW135042   4.332   0.203   8.720  0.5671 -0.5117 -1.0824
 7860SOL    HW235043   4.436   0.100   8.679 -0.0897  2.7038 -1.0972
 7861SOL     OW35044   4.212   3.514   2.819 -0.3596 -0.6824 -0.0003
 7861SOL    HW135045   4.251   3.590   2.776  0.6733 -0.6004  1.0927
 7861SOL    HW235046   4.146   3.558   2.873 -1.8765 -3.4513  0.3986
 7862SOL     OW35047   1.247   0.674   6.271 -0.1386 -0.4651 -0.6159
 7862SOL    HW135048   1.181   0.687   6.339 -1.0581 -1.5916 -1.2873
 7862SOL    HW235049   1.330   0.662   6.317  0.2591  0.8414 -0.9710
 7863SOL     OW35050   1.406   2.979   7.694  0.5604 -0.1324 -0.2750
 7863SOL    HW135051   1.328   3.022   7.727  0.9761 -0.9433  1.7227
 7863SOL    HW235052   1.442   3.055   7.646  0.3032 -0.6233 -1.2511
 7864SOL     OW35053   1.332   0.888   4.892 -0.9795  0.3650  0.2462
 7864SOL    HW135054   1.255   0.835   4.872 -1.3935  1.3961 -0.8653
 7864SOL    HW235055   1.380   0.811   4.923 -0.7532 -0.1773 -1.4617
 7865SOL     OW35056   4.693   1.877   3.970 -0.7796 -0.2668  0.1510
 7865SOL    HW135057   4.678   1.783   3.984 -0.0977 -0.5021 -0.7355
 7865SOL    HW235058   0.014   1.904   4.051 -0.8503  2.8314 -0.8492
 7866SOL     OW35059   2.822   2.311   4.477  0.7734  0.1510  0.2917
 7866SOL    HW135060   2.889   2.257   4.435  1.9475  2.8760 -1.3285
 7866SOL    HW235061   2.751   2.311   4.413 -1.0483  3.0060  2.3117
 7867SOL     OW35062   3.846   4.620   3.186 -0.7687 -0.0008  0.0709
 7867SOL    HW135063   3.778   4.682   3.210  0.7239  1.3660  0.8177
 7867SOL    HW235064   3.906   4.673   3.134 -1.4232  0.8886  0.2352
 7868SOL     OW35065   1.355   1.943   1.753  0.0331 -0.4248  0.1580
 7868SOL    HW135066   1.344   1.963   1.846 -2.2279 -2.3932  0.2768
 7868SOL    HW235067   1.269   1.907   1.737 -0.3547  0.8230 -0.5324
 7869SOL     OW35068   0.395   3.371   7.914  0.0607 -0.2406 -0.3739
 7869SOL    HW135069   0.388   3.368   8.009  0.9043  0.2243 -0.2923
 7869SOL    HW235070   0.472   3.428   7.907  0.0972 -0.3944 -1.2078
 7870SOL     OW35071   1.002   3.048   7.398  0.1044 -0.1465 -0.5625
 7870SOL    HW135072   0.984   3.135   7.363 -0.6537 -0.1459 -0.1698
 7870SOL    HW235073   0.917   3.027   7.437  1.0207 -0.6048  1.1990
 7871SOL     OW35074   3.360   0.105   5.419 -0.4265  0.4899  0.0560
 7871SOL    HW135075   3.329   0.175   5.477  1.8232  0.8883  0.7861
 7871SOL    HW235076   3.455   0.111   5.426 -0.3731  1.2700 -1.3032
 7872SOL     OW35077   2.130   2.147  10.969  0.3416  0.2736 -0.8711
 7872SOL    HW135078   2.088   2.075  11.016  2.6463  0.6157  1.6712
 7872SOL    HW235079   2.065   2.159  10.899 -0.5915 -1.7749 -0.3576
 7873SOL     OW35080   0.482   0.406   4.791  0.3014  0.0886  0.5113
 7873SOL    HW135081   0.412   0.344   4.769  0.3070 -0.3534  1.7546
 7873SOL    HW235082   0.456   0.428   4.880 -0.4377 -3.1788  1.0964
 7874SOL     OW35083   3.080   3.005   4.480  0.0904 -0.5660  0.1022
 7874SOL    HW135084   3.123   2.982   4.398  0.1757  1.8005 -0.5398
 7874SOL    HW235085   3.040   2.920   4.497  0.8125 -0.7450  0.8724
 7875SOL     OW35086   1.044   0.951   0.329 -0.3691 -0.8489  0.2362
 7875SOL    HW135087   1.078   0.886   0.391 -2.0914 -1.9011  0.0578
 7875SOL    HW235088   0.977   0.996   0.381  2.0780  1.1009  1.7386
 7876SOL     OW35089   4.722   2.955  15.947 -0.1273 -0.1124 -0.0671
 7876SOL    HW135090   0.031   3.007  16.020  0.3796 -0.3240 -0.1458
 7876SOL    HW235091   0.079   2.925  15.906  0.5278  0.3609  0.8900
 7877SOL     OW35092   4.293   0.823   8.411  0.3071 -0.3321  0.3419
 7877SOL    HW135093   4.230   0.845   8.343  1.0791 -1.8161 -0.8693
 7877SOL    HW235094   4.288   0.906   8.458  2.5142 -1.2751  2.2343
 7878SOL     OW35095   4.366   2.209   9.216 -0.1821 -0.2310  0.2833
 7878SOL    HW135096   4.441   2.207   9.157  0.7193  0.3387  1.4062
 7878SOL    HW235097   4.295   2.225   9.154  0.3620 -0.1219 -0.3032
 7879SOL     OW35098   1.175   0.378   4.648 -0.3642 -0.0994  0.5744
 7879SOL    HW135099   1.089   0.415   4.631  0.7363  0.4367 -3.7612
 7879SOL    HW235100   1.217   0.406   4.567  2.6349  1.3536  2.6307
 7880SOL     OW35101   1.647   4.187   1.647 -0.0146  0.3851  0.2734
 7880SOL    HW135102   1.630   4.144   1.731 -2.8802  0.6376 -0.1833
 7880SOL    HW235103   1.729   4.225   1.679  0.0115  1.2116 -0.7882
 7881SOL     OW35104   3.322   1.778   7.797  0.3088  0.1249  0.1392
 7881SOL    HW135105   3.279   1.708   7.747 -1.2357  0.8532  0.4455
 7881SOL    HW235106   3.346   1.837   7.725 -0.1485 -0.4971 -0.5232
 7882SOL     OW35107   3.966   0.448   3.603 -0.0700 -0.3705 -0.2449
 7882SOL    HW135108   4.032   0.379   3.608  1.8215  1.4759  0.0951
 7882SOL    HW235109   4.012   0.522   3.641 -0.8028 -0.1303  0.1697
 7883SOL     OW35110   2.099   2.560   5.989  0.5305  0.1789  0.1314
 7883SOL    HW135111   2.166   2.562   6.058  2.3291 -0.6881 -1.5972
 7883SOL    HW235112   2.149   2.577   5.909  0.4233 -1.6493 -0.3406
 7884SOL     OW35113   2.278   1.137  11.130 -0.9929 -0.4043  0.1360
 7884SOL    HW135114   2.223   1.155  11.054  1.5586 -3.1016 -2.3584
 7884SOL    HW235115   2.274   1.041  11.128  1.8975 -0.4814 -2.3349
 7885SOL     OW35116   1.602   1.884   5.262 -0.3119 -0.7803 -0.1915
 7885SOL    HW135117   1.522   1.932   5.242  1.0230  1.0238 -1.1455
 7885SOL    HW235118   1.669   1.945   5.232  1.4174 -3.5529 -1.9926
 7886SOL     OW35119   4.427   3.425  14.689 -0.1076  0.2115 -0.2927
 7886SOL    HW135120   4.400   3.508  14.730  0.2830 -0.2062  0.8219
 7886SOL    HW235121   4.427   3.361  14.761  0.0438  1.7902  1.1154
 7887SOL     OW35122   2.919   1.560   4.830 -0.1133 -0.3499 -0.3024
 7887SOL    HW135123   2.949   1.472   4.807  1.5609  0.6480 -1.8494
 7887SOL    HW235124   2.966   1.573   4.913 -0.5727  1.2578 -0.3097
 7888SOL     OW35125   0.043   4.388   3.652  0.1551  0.1191 -0.3989
 7888SOL    HW135126   0.017   4.336   3.576  0.5421 -0.1552 -0.3446
 7888SOL    HW235127   0.030   4.474   3.612  0.6942  0.8410  0.9935
 7889SOL     OW35128   4.669   0.156   6.584  0.0007 -0.1963 -0.1107
 7889SOL    HW135129   0.006   0.125   6.652 -2.2349 -0.5368  1.7319
 7889SOL    HW235130   4.702   0.092   6.521  1.6632  1.1222 -0.5796
 7890SOL     OW35131   2.348   2.123   2.997 -0.7759  0.3111 -0.0973
 7890SOL    HW135132   2.404   2.104   2.922  0.4173 -0.1369  0.9087
 7890SOL    HW235133   2.359   2.218   3.004 -1.3174  0.5274 -2.1015
 7891SOL     OW35134   2.335   4.279   7.080 -0.2018  0.1295  0.6782
 7891SOL    HW135135   2.341   4.363   7.034 -0.2624  0.1664  0.7370
 7891SOL    HW235136   2.388   4.220   7.026 -1.6021  0.2265 -0.8102
 7892SOL     OW35137   3.461   3.106   7.861 -0.1264  0.2568 -0.0354
 7892SOL    HW135138   3.508   3.149   7.932 -0.9419  2.4518 -0.8000
 7892SOL    HW235139   3.374   3.146   7.861 -0.5418 -0.6637  1.2630
 7893SOL     OW35140   1.611   2.178   3.297  0.2748  0.2351  0.6567
 7893SOL    HW135141   1.621   2.263   3.341  0.0784  0.7315 -0.2680
 7893SOL    HW235142   1.528   2.209   3.262  0.4409  0.2917  0.3215
 7894SOL     OW35143   1.775   1.668   1.631  0.4665 -0.2432 -0.1644
 7894SOL    HW135144   1.841   1.705   1.572 -2.8762  3.5004 -1.5674
 7894SOL    HW235145   1.716   1.741   1.650 -0.2010 -1.5088  2.5582
 7895SOL     OW35146   2.560   3.765   4.899  0.6209 -0.1672  0.3541
 7895SOL    HW135147   2.492   3.698   4.891  3.3593 -3.2409  2.5228
 7895SOL    HW235148   2.568   3.799   4.810 -0.6273 -1.8158 -0.3884
 7896SOL     OW35149   3.011   3.970   4.625  0.4074  0.1645  0.4493
 7896SOL    HW135150   2.991   3.876   4.625  0.1727  0.2190  1.7249
 7896SOL    HW235151   3.025   3.989   4.717 -0.6415  0.0490  0.6333
 7897SOL     OW35152   3.796   1.656  17.398  0.2924  0.8036  0.3078
 7897SOL    HW135153   3.758   1.703  17.324 -1.6338 -0.4589  0.4974
 7897SOL    HW235154   3.713   1.630  17.437  1.3056 -1.6857  0.7620
 7898SOL     OW35155   1.633   1.071  12.371  0.1585 -0.1805 -0.0355
 7898SOL    HW135156   1.700   1.139  12.377 -0.6843  0.4031  2.5540
 7898SOL    HW235157   1.694   1.002  12.396 -2.2037 -2.0324  0.6362
 7899SOL     OW35158   0.583   2.419   8.070 -0.1968 -0.0709 -0.1621
 7899SOL    HW135159   0.583   2.514   8.081  3.3845  0.0934 -1.4637
 7899SOL    HW235160   0.677   2.412   8.054 -0.1439  0.8606 -0.2421
 7900SOL     OW35161   1.609   1.620  17.278  0.1167 -0.4441 -0.0387
 7900SOL    HW135162   1.523   1.584  17.303 -0.4035 -2.5773 -4.8454
 7900SOL    HW235163   1.640   1.660  17.359  0.7669 -1.7558  0.3581
 7901SOL     OW35164   3.129   0.044   0.125  0.0337  0.2773 -0.1989
 7901SOL    HW135165   3.072   0.048   0.202  1.5184 -1.4682  1.0172
 7901SOL    HW235166   3.135   4.674   0.106  1.1111  0.1954  0.5268
 7902SOL     OW35167   2.296   3.077  11.568  0.0161  0.5348  0.1032
 7902SOL    HW135168   2.348   3.132  11.509 -0.2025  0.8194  0.1776
 7902SOL    HW235169   2.355   3.056  11.641 -2.9978 -0.7186  2.1712
 7903SOL     OW35170   1.360   2.250   5.705  0.4060  0.4487  0.2626
 7903SOL    HW135171   1.328   2.160   5.694 -0.3429  0.6883  0.4953
 7903SOL    HW235172   1.332   2.290   5.623  1.3086 -0.8630 -0.7009
 7904SOL     OW35173   3.337   0.913   8.723  0.3994 -0.1568  0.2237
 7904SOL    HW135174   3.315   0.858   8.798 -0.4690 -0.6269 -0.3925
 7904SOL    HW235175   3.318   0.994   8.771 -0.6561 -0.7747  0.8356
 7905SOL     OW35176   3.176   2.743   8.191  0.2492 -0.1028  0.0285
 7905SOL    HW135177   3.259   2.757   8.144  0.8820  1.4576  1.5978
 7905SOL    HW235178   3.207   2.760   8.279  0.3077  0.8047 -0.1678
 7906SOL     OW35179   0.884   0.285  15.931 -0.3781  0.6656 -0.4051
 7906SOL    HW135180   0.789   0.276  15.929 -0.2683 -0.3448 -1.4198
 7906SOL    HW235181   0.901   0.250  15.844  1.8546 -2.2301  1.2198
 7907SOL     OW35182   2.865   2.332   8.033  0.1455 -0.2657 -0.0699
 7907SOL    HW135183   2.958   2.346   8.051  0.4712 -0.2805 -1.7903
 7907SOL    HW235184   2.832   2.337   8.123  1.9434  0.5839  0.5463
 7908SOL     OW35185   3.730   0.077   6.398 -0.5810  0.5206  0.9839
 7908SOL    HW135186   3.752   0.098   6.489  0.3666 -3.4158  1.6701
 7908SOL    HW235187   3.783   0.134   6.342 -0.5231 -0.5191 -0.0297
 7909SOL     OW35188   0.261   2.222   6.757 -0.0485 -0.4299 -0.0214
 7909SOL    HW135189   0.315   2.216   6.835  1.0854  1.0971 -0.6845
 7909SOL    HW235190   0.309   2.276   6.695 -1.6838  1.3439  0.2361
 7910SOL     OW35191   3.468   4.263   1.320  0.3428  0.9105  0.0438
 7910SOL    HW135192   3.435   4.352   1.318 -2.1475  0.0141  0.4749
 7910SOL    HW235193   3.391   4.218   1.356  0.5735  0.8965  0.5340
 7911SOL     OW35194   1.206   1.460  17.160 -0.1351 -0.6445  0.3716
 7911SOL    HW135195   1.257   1.414  17.094 -0.7562 -0.4331 -0.2630
 7911SOL    HW235196   1.257   1.449  17.240  0.2333  1.2894  0.3981
 7912SOL     OW35197   0.950   2.248  12.956  0.3213  0.2132 -0.0380
 7912SOL    HW135198   0.876   2.192  12.936 -0.7365  1.9277 -0.8886
 7912SOL    HW235199   0.906   2.273  13.038 -0.5241  0.0595 -0.4455
 7913SOL     OW35200   0.564   0.515   7.630 -0.4424  0.5929  0.1684
 7913SOL    HW135201   0.601   0.589   7.678 -0.1561  1.2761 -1.1099
 7913SOL    HW235202   0.639   0.460   7.607  0.4871  0.4135  3.6195
 7914SOL     OW35203   1.055   0.932   6.254 -0.0232  1.5680  0.1146
 7914SOL    HW135204   0.983   0.910   6.195 -0.8640  0.4611  1.5462
 7914SOL    HW235205   1.089   0.846   6.278 -0.8629  1.3423  0.5140
 7915SOL     OW35206   1.242   3.801   8.372 -0.4726 -0.2564  0.4860
 7915SOL    HW135207   1.245   3.781   8.278  0.5805 -0.1311  0.4962
 7915SOL    HW235208   1.153   3.835   8.368  0.1497  1.2609 -0.6346
 7916SOL     OW35209   1.757   2.265   3.709  0.1023 -0.0362 -0.0200
 7916SOL    HW135210   1.837   2.241   3.662  1.2377  1.0558  1.3528
 7916SOL    HW235211   1.702   2.187   3.702  1.1986 -0.8833  0.6561
 7917SOL     OW35212   3.908   3.915  14.821 -0.0577 -0.0149  0.0467
 7917SOL    HW135213   3.854   3.844  14.786 -0.6265  1.0666 -1.2594
 7917SOL    HW235214   3.978   3.855  14.847  1.1138  1.2300 -0.2867
 7918SOL     OW35215   2.608   4.053   6.423  0.2326 -0.4504 -0.3120
 7918SOL    HW135216   2.555   4.131   6.439  0.1885 -0.1469 -1.9783
 7918SOL    HW235217   2.652   4.078   6.342 -0.4499 -1.0179 -0.8568
 7919SOL     OW35218   1.645   3.361   9.317  0.0709  0.1683  0.0316
 7919SOL    HW135219   1.576   3.426   9.329  0.1393 -0.0127  1.3270
 7919SOL    HW235220   1.651   3.307   9.395  0.5249 -0.5821 -0.5145
 7920SOL     OW35221   2.754   2.900   1.364  0.2738  0.3313 -0.7515
 7920SOL    HW135222   2.669   2.873   1.400  1.0707 -0.7401  0.3180
 7920SOL    HW235223   2.773   2.989   1.395  3.4131 -0.3866 -0.6271
 7921SOL     OW35224   1.789   1.871   5.889 -0.4620  0.1868  0.1636
 7921SOL    HW135225   1.763   1.949   5.840 -3.4362 -0.3088  0.9451
 7921SOL    HW235226   1.761   1.893   5.978  0.6596 -0.3954  0.6585
 7922SOL     OW35227   1.601   1.119   4.621 -0.1787  1.0329  0.3812
 7922SOL    HW135228   1.686   1.123   4.579 -0.3286 -0.7802 -0.1096
 7922SOL    HW235229   1.626   1.072   4.701 -4.0354 -1.3757  0.1914
 7923SOL     OW35230   0.346   2.357   8.186 -0.0162  0.0619  0.4956
 7923SOL    HW135231   0.283   2.371   8.116  0.5336 -0.2442 -0.0603
 7923SOL    HW235232   0.423   2.376   8.132 -0.2655 -2.5670 -0.7900
 7924SOL     OW35233   3.531   3.510  16.035 -0.3872  0.0485  0.2008
 7924SOL    HW135234   3.533   3.582  16.097  0.6015  0.0001  0.2127
 7924SOL    HW235235   3.619   3.507  15.999 -0.7188  2.2783 -0.8225
 7925SOL     OW35236   2.932   1.362   8.948 -0.0890 -0.4020 -0.3846
 7925SOL    HW135237   3.016   1.403   8.968 -2.1645  3.9855 -0.7551
 7925SOL    HW235238   2.939   1.294   9.015  1.9493  0.8827  0.7105
 7926SOL     OW35239   3.296   3.734  16.647 -0.0838 -0.7283  0.1336
 7926SOL    HW135240   3.210   3.727  16.607  0.4821 -0.2325 -1.1652
 7926SOL    HW235241   3.327   3.644  16.660 -3.6675 -2.3096 -2.2925
 7927SOL     OW35242   0.554   1.524   5.686  0.2476  0.5356 -0.5253
 7927SOL    HW135243   0.534   1.602   5.737 -0.7267  0.3871 -0.6821
 7927SOL    HW235244   0.478   1.471   5.709  2.3754 -0.9976  2.9353
 7928SOL     OW35245   0.854   4.511  14.743  0.0449  0.3042 -0.1890
 7928SOL    HW135246   0.805   4.449  14.689  0.7254  1.0081 -1.6117
 7928SOL    HW235247   0.808   4.504  14.827  1.8280  2.3274  0.9397
 7929SOL     OW35248   2.894   4.520   5.261  0.3719 -0.3565 -0.4058
 7929SOL    HW135249   2.871   4.604   5.221 -1.8580  0.0314  1.7431
 7929SOL    HW235250   2.884   4.467   5.183 -0.2426  1.2135 -1.3971
 7930SOL     OW35251   2.848   2.302   0.334  0.1910  1.0749 -0.5752
 7930SOL    HW135252   2.819   2.293   0.243 -2.1627  0.6082  0.2127
 7930SOL    HW235253   2.916   2.235   0.328 -0.6718  0.2008 -0.6000
 7931SOL     OW35254   2.651   2.092   5.588  0.2646  0.6222  0.1330
 7931SOL    HW135255   2.684   2.075   5.676  0.2208  1.9283  0.3952
 7931SOL    HW235256   2.567   2.134   5.604  0.7467  2.0343 -1.0426
 7932SOL     OW35257   2.746   4.369  10.329  0.4283  0.0162  0.2944
 7932SOL    HW135258   2.778   4.395  10.243  0.0587 -3.2221 -0.8433
 7932SOL    HW235259   2.765   4.451  10.374  2.2635 -0.7854  0.9684
 7933SOL     OW35260   2.132   3.789   4.757 -0.4063  0.0074 -0.1478
 7933SOL    HW135261   2.066   3.813   4.692  0.8489  2.8353 -0.3990
 7933SOL    HW235262   2.095   3.839   4.829  2.2430 -0.0083  1.2240
 7934SOL     OW35263   0.497   4.107   4.896  0.1658  0.5427  0.5610
 7934SOL    HW135264   0.565   4.145   4.953  2.4532 -1.4864 -0.7932
 7934SOL    HW235265   0.449   4.050   4.956  1.3035 -1.5807 -0.5293
 7935SOL     OW35266   0.359   4.500   2.200 -0.1240 -0.2184 -0.1126
 7935SOL    HW135267   0.399   4.435   2.258 -0.0255 -0.0252  0.0357
 7935SOL    HW235268   0.397   4.473   2.116 -2.5816 -0.1505 -1.2343
 7936SOL     OW35269   3.584   2.297   4.526  0.1755  0.6160 -0.2603
 7936SOL    HW135270   3.515   2.362   4.543 -0.1383 -0.1023  1.1622
 7936SOL    HW235271   3.559   2.262   4.440  1.6513 -1.9165  0.3440
 7937SOL     OW35272   0.539   0.993   4.106 -0.4737 -0.1011  0.1948
 7937SOL    HW135273   0.467   1.033   4.057 -1.4050 -2.1750 -0.1304
 7937SOL    HW235274   0.540   0.903   4.075 -0.2406 -0.1401  0.3123
 7938SOL     OW35275   2.488   0.351   5.355  0.4934  0.2938  0.5145
 7938SOL    HW135276   2.548   0.306   5.415  1.1447  0.5285  0.0410
 7938SOL    HW235277   2.419   0.381   5.414 -1.1875 -1.2645 -0.6318
 7939SOL     OW35278   2.526   2.606   7.740 -0.6014 -0.3994 -0.5262
 7939SOL    HW135279   2.456   2.605   7.806  0.1167  0.1524  0.2499
 7939SOL    HW235280   2.603   2.607   7.796  0.9031 -0.5165 -2.6249
 7940SOL     OW35281   1.956   1.844   5.167 -0.1261  0.3682  0.4074
 7940SOL    HW135282   1.969   1.855   5.073 -0.4495  0.3013  0.3554
 7940SOL    HW235283   1.952   1.751   5.186  0.0184 -0.0131 -1.4505
 7941SOL     OW35284   1.943   1.443   7.387 -0.8246  0.0160 -0.1667
 7941SOL    HW135285   1.887   1.458   7.311  0.3736  0.2628 -1.0004
 7941SOL    HW235286   1.892   1.370   7.423  0.8223 -1.5349 -0.9815
 7942SOL     OW35287   3.757   1.179   8.934 -0.2340 -0.2001  0.2612
 7942SOL    HW135288   3.850   1.191   8.954 -0.4722  1.2133  0.5405
 7942SOL    HW235289   3.764   1.134   8.850 -1.0511  2.1400 -1.0501
 7943SOL     OW35290   4.333   1.779   4.986 -0.4189 -0.1376  0.0632
 7943SOL    HW135291   4.415   1.826   5.003  0.6907 -2.1349  0.2400
 7943SOL    HW235292   4.288   1.801   5.067 -3.1723 -1.7528 -1.0435
 7944SOL     OW35293   1.951   3.190   6.976  0.2195  0.2907  0.4457
 7944SOL    HW135294   1.869   3.172   6.929  1.0730 -2.8548  0.1380
 7944SOL    HW235295   1.999   3.118   6.936  0.0116 -0.3004  1.2469
 7945SOL     OW35296   3.232   2.159   8.893  0.2014 -0.4827  0.3975
 7945SOL    HW135297   3.143   2.171   8.925  0.0789 -1.1012  0.2834
 7945SOL    HW235298   3.218   2.200   8.808  1.6438 -1.8170 -0.4934
 7946SOL     OW35299   1.912   4.016   9.144  0.4843  0.4302 -0.3016
 7946SOL    HW135300   1.892   3.925   9.166  1.9992 -0.1485 -1.3649
 7946SOL    HW235301   1.852   4.066   9.200  0.2368 -1.6717  1.3121
 7947SOL     OW35302   1.596   3.026  15.446  0.3109 -0.4171  0.0643
 7947SOL    HW135303   1.624   2.935  15.438  0.4819 -0.2669 -1.0773
 7947SOL    HW235304   1.589   3.053  15.355 -3.4062 -1.3733  0.0352
 7948SOL     OW35305   2.243   1.751   3.621 -0.0343  0.7474  0.1999
 7948SOL    HW135306   2.196   1.764   3.704 -1.1133  0.6992 -0.3996
 7948SOL    HW235307   2.164   1.750   3.567 -0.7513  1.8413  1.2296
 7949SOL     OW35308   4.043   2.973   0.836 -0.1567  0.0553 -0.3305
 7949SOL    HW135309   3.970   2.931   0.880 -0.0546  0.7990  0.5361
 7949SOL    HW235310   3.991   3.008   0.763 -0.8415 -1.2114 -0.4446
 7950SOL     OW35311   0.521   0.804   3.383  0.1586  0.8108 -0.3755
 7950SOL    HW135312   0.594   0.866   3.372  0.5504  0.5961  0.9770
 7950SOL    HW235313   0.522   0.781   3.476 -0.7123  1.1010 -0.2946
 7951SOL     OW35314   2.481   2.233   6.945 -0.1577  0.1434  0.4844
 7951SOL    HW135315   2.489   2.328   6.956  4.1224 -0.0109 -1.4292
 7951SOL    HW235316   2.405   2.217   6.889  0.1711  0.1460  0.0426
 7952SOL     OW35317   3.734   4.117   4.561  0.8248  0.5302 -1.1288
 7952SOL    HW135318   3.811   4.078   4.520 -0.0532 -2.0745 -0.3182
 7952SOL    HW235319   3.722   4.056   4.634 -0.6577 -0.8606 -2.5280
 7953SOL     OW35320   2.694   1.247   2.136  0.1774  0.3974 -0.0541
 7953SOL    HW135321   2.718   1.275   2.047  2.0108  0.8127  0.5881
 7953SOL    HW235322   2.743   1.306   2.193 -1.1362  1.4236  0.0358
 7954SOL     OW35323   4.552   3.532   2.700 -0.1456  0.2744 -0.2762
 7954SOL    HW135324   4.539   3.468   2.770  1.8072  0.0920 -0.0758
 7954SOL    HW235325   4.534   3.485   2.618 -3.2122  2.5430 -0.9061
 7955SOL     OW35326   3.356   3.716   6.290  0.2342 -0.2590 -0.2677
 7955SOL    HW135327   3.423   3.653   6.265  0.3543 -0.0381 -0.4915
 7955SOL    HW235328   3.272   3.682   6.259  0.8550 -1.4051 -0.6871
 7956SOL     OW35329   0.227   4.358   3.878  0.0653  0.8258 -0.1915
 7956SOL    HW135330   0.165   4.373   3.806 -0.1308 -0.8184 -0.3541
 7956SOL    HW235331   0.198   4.273   3.911  1.3670  1.3464  2.2901
 7957SOL     OW35332   2.612   4.408   3.505  0.2623  0.1024  0.6767
 7957SOL    HW135333   2.695   4.415   3.458 -0.0742 -1.1321 -0.1011
 7957SOL    HW235334   2.582   4.332   3.456  2.6169 -0.3133 -0.1082
 7958SOL     OW35335   4.159   0.405  16.062 -0.2269 -0.1942 -0.3471
 7958SOL    HW135336   4.113   0.410  15.979  2.9555  0.0006 -2.0957
 7958SOL    HW235337   4.188   0.314  16.062 -1.0982 -0.4812  1.6745
 7959SOL     OW35338   3.924   3.405   8.133  0.2894 -0.3944 -0.0617
 7959SOL    HW135339   3.888   3.489   8.163 -0.2706 -0.8014  0.4186
 7959SOL    HW235340   4.017   3.422   8.146  0.4040 -0.9977 -0.1017
 7960SOL     OW35341   0.984   1.334   1.498  0.2788  0.0101 -0.2953
 7960SOL    HW135342   0.932   1.285   1.435 -0.9168  0.8599  0.0334
 7960SOL    HW235343   1.066   1.339   1.449 -0.4886  0.2862 -1.5423
 7961SOL     OW35344   4.698   4.298   8.805 -0.1686  0.1251  0.3290
 7961SOL    HW135345   4.611   4.331   8.826 -0.6426 -0.3862 -0.8604
 7961SOL    HW235346   0.012   4.377   8.767 -0.3775  1.0307  2.0005
 7962SOL     OW35347   3.221   3.446   5.330  0.5292  0.9342 -0.4606
 7962SOL    HW135348   3.137   3.480   5.362  0.4932 -0.5274  0.9798
 7962SOL    HW235349   3.280   3.472   5.401  0.7004  0.3131 -0.3786
 7963SOL     OW35350   3.294   2.633   4.506  0.1588  0.1303  0.1914
 7963SOL    HW135351   3.280   2.681   4.588 -1.9814 -1.0776  0.5326
 7963SOL    HW235352   3.227   2.567   4.523 -0.0334  0.8479  2.2414
 7964SOL     OW35353   4.299   3.697   6.555  0.3604  0.1463  0.0641
 7964SOL    HW135354   4.229   3.691   6.620  1.4718  1.9733  1.4153
 7964SOL    HW235355   4.243   3.711   6.479  1.0979  0.1544 -0.4778
 7965SOL     OW35356   3.946   1.629  11.337  0.3526 -0.2785 -0.3429
 7965SOL    HW135357   3.943   1.688  11.412 -2.8437 -1.3165  0.3373
 7965SOL    HW235358   3.853   1.639  11.316  0.4622  0.0655 -0.6483
 7966SOL     OW35359   1.434   1.702   6.517  0.0499 -0.0891 -0.2125
 7966SOL    HW135360   1.510   1.654   6.552  0.8414  2.0130  0.9804
 7966SOL    HW235361   1.432   1.677   6.425  0.4442  0.7555 -0.4487
 7967SOL     OW35362   3.667   3.612  13.663  0.2728  0.1272 -0.2647
 7967SOL    HW135363   3.658   3.705  13.646  1.2037 -0.3122 -3.1255
 7967SOL    HW235364   3.638   3.573  13.581  0.9251 -0.1128 -0.3810
 7968SOL     OW35365   1.811   3.124   3.975 -0.4932  0.3364  0.6071
 7968SOL    HW135366   1.858   3.206   3.960 -0.0375  0.0830  0.6434
 7968SOL    HW235367   1.879   3.060   3.953  0.7872  0.6293  3.8076
 7969SOL     OW35368   4.212   2.851   8.628  0.4647 -0.1773 -0.2736
 7969SOL    HW135369   4.289   2.850   8.685  0.7118  0.1977 -0.5952
 7969SOL    HW235370   4.237   2.900   8.550  1.0689 -1.2771 -0.7741
 7970SOL     OW35371   4.592   4.017   5.074 -0.0246 -0.3253  0.8142
 7970SOL    HW135372   4.662   4.005   5.011 -0.5229  0.2582  0.1474
 7970SOL    HW235373   4.560   3.926   5.074  1.2208 -0.7662 -1.2116
 7971SOL     OW35374   1.163   2.093   0.150  0.0710  0.3121  0.6001
 7971SOL    HW135375   1.149   2.114   0.242  0.1090  0.3194  0.6038
 7971SOL    HW235376   1.223   2.165   0.131  0.5165 -0.0008  0.8203
 7972SOL     OW35377   3.016   0.701   3.012  0.2439 -0.5630 -0.2385
 7972SOL    HW135378   3.003   0.758   3.088  0.3511 -1.4969  0.4874
 7972SOL    HW235379   2.976   0.621   3.046  0.8990 -0.7215  0.1657
 7973SOL     OW35380   2.093   1.432   8.690 -0.0766 -0.3400 -0.5472
 7973SOL    HW135381   2.075   1.483   8.611 -0.6938  0.2100 -0.0501
 7973SOL    HW235382   2.033   1.470   8.755 -1.4537 -1.7710 -0.9836
 7974SOL     OW35383   1.328   2.483  12.111  0.4489  0.2060  0.4252
 7974SOL    HW135384   1.331   2.467  12.017  1.6242  1.0122  0.3302
 7974SOL    HW235385   1.385   2.560  12.109 -0.0841  0.6369  1.5949
 7975SOL     OW35386   0.545   1.699   8.399  0.6752  0.4929  0.3673
 7975SOL    HW135387   0.579   1.700   8.489 -0.3052 -1.7717  0.7734
 7975SOL    HW235388   0.614   1.755   8.362 -0.5348  0.9272 -1.2163
 7976SOL     OW35389   2.020   1.246  14.580 -0.1584 -0.2539  0.4734
 7976SOL    HW135390   2.015   1.298  14.660 -2.1243 -0.9555  0.8009
 7976SOL    HW235391   2.025   1.158  14.616  1.0607 -0.9231 -1.3387
 7977SOL     OW35392   1.572   4.390   5.188  0.2794 -0.1924 -0.0141
 7977SOL    HW135393   1.601   4.301   5.170  0.7686 -0.1119  0.3996
 7977SOL    HW235394   1.650   4.436   5.217  0.8124 -0.8090 -0.4690
 7978SOL     OW35395   4.482   2.144   5.828  0.3782  0.5775 -0.2812
 7978SOL    HW135396   4.513   2.186   5.908  0.2694  0.5083 -0.2027
 7978SOL    HW235397   4.408   2.200   5.803  1.0350  1.2427 -0.7171
 7979SOL     OW35398   3.482   1.990   6.582 -0.1467 -0.2552 -0.3635
 7979SOL    HW135399   3.520   2.068   6.622  2.4454 -1.9936  0.6018
 7979SOL    HW235400   3.392   2.015   6.564 -0.5343 -1.5649 -0.2400
 7980SOL     OW35401   1.201   1.450   4.838  0.0905  0.3740  0.2393
 7980SOL    HW135402   1.162   1.405   4.763 -0.4060 -0.0391  0.7422
 7980SOL    HW235403   1.124   1.432   4.893  0.6357 -0.2817  0.7974
 7981SOL     OW35404   1.512   0.492   9.177  0.2163  0.2207 -0.3177
 7981SOL    HW135405   1.581   0.518   9.116 -0.0526  0.2681 -0.6041
 7981SOL    HW235406   1.475   0.578   9.196 -0.2753  0.1847 -1.0978
 7982SOL     OW35407   3.980   0.864   3.121  0.1642  0.2723  0.1634
 7982SOL    HW135408   4.006   0.807   3.049  0.3099  1.1596 -0.4824
 7982SOL    HW235409   3.995   0.952   3.087  2.2026  0.5651  1.8143
 7983SOL     OW35410   4.056   3.379   9.097  0.9005  0.5737 -0.6706
 7983SOL    HW135411   4.097   3.298   9.129 -0.0357  0.7966  1.0893
 7983SOL    HW235412   3.961   3.363   9.103  1.1808 -1.4193 -1.4518
 7984SOL     OW35413   3.272   1.119   7.521 -0.1429  0.4320  0.2287
 7984SOL    HW135414   3.291   1.180   7.593  3.3589  1.9322 -1.9523
 7984SOL    HW235415   3.177   1.126   7.520 -0.1805  0.0963  1.2398
 7985SOL     OW35416   0.032   3.048   7.747 -0.8019 -0.2169 -0.3306
 7985SOL    HW135417   0.090   3.122   7.764  1.9945 -3.1215  2.9073
 7985SOL    HW235418   4.683   3.077   7.692  0.0863 -0.3829 -1.5843
 7986SOL     OW35419   4.224   2.636   7.923 -0.1799 -0.3234 -0.7672
 7986SOL    HW135420   4.133   2.664   7.923 -0.1814 -0.3060  1.9579
 7986SOL    HW235421   4.235   2.571   7.992  1.0073 -0.5087 -1.1201
 7987SOL     OW35422   1.885   3.086   5.212  0.8075  0.6340 -0.2483
 7987SOL    HW135423   1.923   3.122   5.291  1.7503  2.9636 -1.7668
 7987SOL    HW235424   1.813   3.033   5.246  0.6595  1.1801  0.2949
 7988SOL     OW35425   2.907   0.281   4.775  0.2222 -0.4198  0.5377
 7988SOL    HW135426   2.953   0.249   4.698  1.3028  1.2776  0.4827
 7988SOL    HW235427   2.970   0.323   4.834 -0.7431  1.1480  0.4679
 7989SOL     OW35428   4.449   2.312  10.629  1.7060 -0.7134 -0.3853
 7989SOL    HW135429   4.366   2.264  10.624  1.2181  0.0781  0.2414
 7989SOL    HW235430   4.419   2.402  10.637 -1.6994 -1.9562  0.4957
 7990SOL     OW35431   1.477   0.671   6.399 -0.1594 -0.2806 -1.1473
 7990SOL    HW135432   1.506   0.692   6.488 -0.3496  0.9168 -1.3643
 7990SOL    HW235433   1.504   0.580   6.402  0.7168  0.0553  1.5666
 7991SOL     OW35434   1.893   1.083   8.204  0.3506 -0.4418  0.2180
 7991SOL    HW135435   1.943   1.139   8.145 -2.2485 -0.6084 -2.1605
 7991SOL    HW235436   1.835   1.149   8.242 -0.0275 -0.2220 -0.7356
 7992SOL     OW35437   0.962   4.330   8.584 -0.5795  0.2274 -0.8509
 7992SOL    HW135438   0.984   4.394   8.652  2.4052 -0.3898 -1.2335
 7992SOL    HW235439   1.051   4.320   8.552 -0.9851 -0.9893 -1.6207
 7993SOL     OW35440   3.405   0.811  16.467  0.1894 -0.2035  0.1171
 7993SOL    HW135441   3.360   0.748  16.523  1.3764 -0.6735  0.5464
 7993SOL    HW235442   3.367   0.893  16.497 -1.2149 -0.9479  0.3635
 7994SOL     OW35443   1.372   3.217  12.969  0.0048  0.4276 -0.7998
 7994SOL    HW135444   1.467   3.216  12.960  0.1639  3.8658  0.4512
 7994SOL    HW235445   1.368   3.211  13.064  1.9169  1.2193 -0.6766
 7995SOL     OW35446   1.521   2.606   3.310 -0.5741 -0.5036  0.0664
 7995SOL    HW135447   1.550   2.527   3.356  0.0051 -0.1965  0.2307
 7995SOL    HW235448   1.548   2.584   3.221  0.5341  2.4839 -0.3360
 7996SOL     OW35449   3.304   4.074   1.493 -0.1435  0.1892 -0.1807
 7996SOL    HW135450   3.230   4.043   1.545 -1.4625  0.9327 -1.6082
 7996SOL    HW235451   3.253   4.108   1.419 -0.3998  1.0444  0.3814
 7997SOL     OW35452   2.273   3.636   6.963 -0.3155  0.3557  0.0999
 7997SOL    HW135453   2.343   3.600   7.016 -1.0945  2.6778  2.6967
 7997SOL    HW235454   2.209   3.566   6.971 -1.2078  0.8314 -2.6335
 7998SOL     OW35455   3.179   3.173   8.205 -0.3022 -0.9260  0.3746
 7998SOL    HW135456   3.252   3.183   8.144 -3.1771  0.9973 -2.7361
 7998SOL    HW235457   3.222   3.144   8.285  0.5514  0.6905  0.5031
 7999SOL     OW35458   0.724   4.015  11.271  0.0215  0.0430  0.0600
 7999SOL    HW135459   0.767   3.932  11.295 -1.3603 -0.7249 -0.1606
 7999SOL    HW235460   0.797   4.070  11.242 -1.4174  2.9233  2.0209
 8000SOL     OW35461   2.202   3.066   7.840 -0.0599 -0.1712  0.2771
 8000SOL    HW135462   2.267   3.055   7.771  1.8687  0.1717  2.0348
 8000SOL    HW235463   2.257   3.074   7.918  1.7130  0.6670 -1.0633
 8001SOL     OW35464   2.948   0.885   3.211  0.3917  0.1424  0.0041
 8001SOL    HW135465   2.854   0.870   3.224  0.7072 -1.9256 -0.2444
 8001SOL    HW235466   2.936   0.979   3.228 -0.1236  0.1927 -0.6470
 8002SOL     OW35467   3.042   3.412  12.264  0.1101 -0.2673 -0.3731
 8002SOL    HW135468   3.050   3.360  12.184 -0.8243 -0.4603 -0.3390
 8002SOL    HW235469   2.950   3.404  12.289 -0.1124  0.8493 -0.8319
 8003SOL     OW35470   1.533   1.980   6.966 -0.2504 -0.4674 -0.1103
 8003SOL    HW135471   1.537   1.936   6.881  1.6073  0.1246 -0.3351
 8003SOL    HW235472   1.595   2.046   6.936 -1.4202  1.5105  1.7965
 8004SOL     OW35473   3.313   0.497  17.542 -0.1330  0.2840  0.1644
 8004SOL    HW135474   3.244   0.547  17.499  0.0308  1.5455  1.3747
 8004SOL    HW235475   3.385   0.560  17.533  0.6634 -0.6248  0.2475
 8005SOL     OW35476   2.256   4.657   2.781 -0.0343  0.2888 -0.2082
 8005SOL    HW135477   2.271   4.690   2.692  0.5369 -0.8394 -0.5343
 8005SOL    HW235478   2.236   0.012   2.832  0.0906  0.6365 -0.6965
 8006SOL     OW35479   1.011   1.760   7.502 -0.3713  0.9542 -0.3939
 8006SOL    HW135480   1.034   1.744   7.593 -1.8332  3.1840  0.3681
 8006SOL    HW235481   0.935   1.707   7.479  0.3411 -0.1723 -0.1463
 8007SOL     OW35482   1.034   1.355   2.496 -0.2073  0.3747 -0.0690
 8007SOL    HW135483   1.102   1.313   2.443  0.1346 -0.1608  0.7936
 8007SOL    HW235484   0.956   1.364   2.442  0.4108 -0.6001 -1.1167
 8008SOL     OW35485   3.770   3.325   9.094  0.0882  0.5080 -0.0097
 8008SOL    HW135486   3.749   3.368   9.177 -1.1609  1.2340 -0.7013
 8008SOL    HW235487   3.702   3.258   9.089  0.4911  0.0378  0.8706
 8009SOL     OW35488   1.289   0.353   8.819 -0.8825 -0.0246  0.0690
 8009SOL    HW135489   1.357   0.417   8.796 -1.3885  0.1968 -0.7839
 8009SOL    HW235490   1.320   0.332   8.907 -0.1549  0.2365 -0.1156
 8010SOL     OW35491   3.581   2.351   7.776 -0.3356 -0.1772  0.6462
 8010SOL    HW135492   3.669   2.357   7.739 -1.0420 -0.8430 -1.1429
 8010SOL    HW235493   3.544   2.438   7.761  2.3837  1.3082  2.5338
 8011SOL     OW35494   2.945   1.495   2.641  0.4076 -0.1098  0.0246
 8011SOL    HW135495   2.904   1.533   2.718  0.7366 -2.4682  1.3805
 8011SOL    HW235496   2.928   1.561   2.574  0.7012 -0.5020 -0.4440
 8012SOL     OW35497   0.665   1.574  13.596 -0.2955 -0.1185  0.5690
 8012SOL    HW135498   0.596   1.581  13.661 -0.5698 -0.8679  0.3589
 8012SOL    HW235499   0.688   1.667  13.592  0.5704 -0.2727  2.1074
 8013SOL     OW35500   3.642   3.923  12.748  0.3652 -0.7024  0.3421
 8013SOL    HW135501   3.593   3.853  12.791 -0.7021  0.3616  0.8722
 8013SOL    HW235502   3.731   3.886  12.748  1.9081  2.9871 -0.7639
 8014SOL     OW35503   3.064   1.514   8.615  0.4375 -0.0670 -0.9765
 8014SOL    HW135504   3.081   1.447   8.548 -3.2229 -1.2202 -0.7730
 8014SOL    HW235505   3.106   1.592   8.577 -2.3402  1.1171 -1.6373
 8015SOL     OW35506   1.291   0.510   2.649  0.4169 -0.2964 -0.0688
 8015SOL    HW135507   1.386   0.517   2.663  0.0929 -0.5173  2.3169
 8015SOL    HW235508   1.256   0.560   2.722 -0.0702 -0.6716 -0.0424
 8016SOL     OW35509   2.344   4.193   1.731  0.0726 -0.5307 -0.2859
 8016SOL    HW135510   2.307   4.220   1.815 -0.6380 -2.5051  0.0347
 8016SOL    HW235511   2.410   4.262   1.727 -2.2918  1.5933 -2.7598
 8017SOL     OW35512   3.582   0.156   4.440  0.2898 -0.3302 -0.6207
 8017SOL    HW135513   3.605   0.215   4.368 -0.8726  1.9869  0.9038
 8017SOL    HW235514   3.664   0.144   4.489 -0.8820 -1.4509  1.0514
 8018SOL     OW35515   1.952   0.156   2.103 -0.2659 -0.0503 -0.1413
 8018SOL    HW135516   1.881   0.095   2.083 -0.1660  0.3161 -1.6489
 8018SOL    HW235517   1.897   0.212   2.157  0.2384  1.0017 -0.7105
 8019SOL     OW35518   3.852   1.567   4.977  0.0388 -0.0360 -0.0236
 8019SOL    HW135519   3.778   1.567   5.037 -0.0084  1.4810 -0.0941
 8019SOL    HW235520   3.844   1.649   4.929 -0.1124 -1.0716 -1.7821
 8020SOL     OW35521   0.394   2.099   3.645 -0.1916  0.1381  0.8274
 8020SOL    HW135522   0.346   2.144   3.714 -3.0854 -0.8219 -0.5928
 8020SOL    HW235523   0.391   2.169   3.580 -1.0754  0.9894  1.7946
 8021SOL     OW35524   4.523   3.263  16.496 -0.1893  0.1039  0.2795
 8021SOL    HW135525   4.468   3.185  16.490 -0.7882  0.5871 -0.5561
 8021SOL    HW235526   4.526   3.289  16.403  1.4859 -1.2668 -0.0522
 8022SOL     OW35527   1.573   2.098   6.251  0.6833 -0.0094  0.0547
 8022SOL    HW135528   1.539   2.045   6.179  1.0109 -2.5211  1.7722
 8022SOL    HW235529   1.507   2.076   6.316 -1.0644  2.1416 -1.0048
 8023SOL     OW35530   2.645   3.424  17.606  0.4457  0.0645 -0.4343
 8023SOL    HW135531   2.669   3.332  17.613 -0.8995 -0.3259 -1.1409
 8023SOL    HW235532   2.624   3.445   0.001 -0.3355 -0.5407 -0.4835
 8024SOL     OW35533   2.822   4.555   6.278 -0.1807 -0.0983 -0.0532
 8024SOL    HW135534   2.798   4.538   6.187  1.4077 -1.3094 -0.2552
 8024SOL    HW235535   2.736   4.543   6.318  0.5958 -0.3565  1.5765
 8025SOL     OW35536   0.353   2.321   1.776 -0.5063 -1.0242 -0.5428
 8025SOL    HW135537   0.265   2.357   1.763 -1.0663 -1.2008  2.9125
 8025SOL    HW235538   0.384   2.328   1.685 -1.7379 -2.0895 -1.0597
 8026SOL     OW35539   1.698   4.315  15.336  0.0011  0.1354 -0.2086
 8026SOL    HW135540   1.770   4.255  15.360 -0.8359 -1.2916 -1.2916
 8026SOL    HW235541   1.618   4.263  15.330 -0.3101  0.4633  0.9930
 8027SOL     OW35542   3.443   1.847   2.184 -0.2725  0.5830 -0.1640
 8027SOL    HW135543   3.505   1.797   2.132  0.7208  1.6920 -0.0486
 8027SOL    HW235544   3.503   1.880   2.251 -0.4182 -0.6518  0.5607
 8028SOL     OW35545   1.635   3.379   3.553 -0.0394 -0.1086  0.3674
 8028SOL    HW135546   1.690   3.308   3.520  0.4278  0.0058  0.9058
 8028SOL    HW235547   1.627   3.434   3.475  1.0358  0.7480  0.8778
 8029SOL     OW35548   4.710   1.559   3.145 -0.0663 -0.0323  0.4083
 8029SOL    HW135549   0.053   1.546   3.078 -0.2515 -0.9651  0.4109
 8029SOL    HW235550   4.671   1.646   3.136 -0.6397 -0.3584 -0.2618
 8030SOL     OW35551   0.907   2.820   3.921  0.3542  0.1046 -0.1188
 8030SOL    HW135552   0.984   2.874   3.905 -0.7793  2.0655  1.1255
 8030SOL    HW235553   0.856   2.867   3.987  1.1062  0.6246  0.1037
 8031SOL     OW35554   4.409   1.549   7.396  0.2840 -0.0844 -0.0509
 8031SOL    HW135555   4.343   1.490   7.433  0.6607 -0.2420  0.3766
 8031SOL    HW235556   4.427   1.509   7.310 -0.6309 -3.4159  1.2885
 8032SOL     OW35557   2.031   3.189   5.755 -0.0734  0.0971 -0.4779
 8032SOL    HW135558   2.005   3.279   5.771  2.0040  0.7464 -0.7586
 8032SOL    HW235559   1.970   3.144   5.813  0.0696  0.9333  0.3206
 8033SOL     OW35560   2.064   0.808   2.383  0.9341 -0.0266 -0.3764
 8033SOL    HW135561   2.157   0.803   2.363  1.0633 -1.6786  0.6469
 8033SOL    HW235562   2.045   0.717   2.405  1.2679 -0.3415 -1.4144
 8034SOL     OW35563   2.228   4.034   6.357  0.0176  0.4382 -0.0051
 8034SOL    HW135564   2.170   3.984   6.300 -1.1477 -0.2351  1.7653
 8034SOL    HW235565   2.235   4.112   6.302  0.3850  0.8258  0.5942
 8035SOL     OW35566   1.753   0.531   5.016 -0.0198  0.6612  0.1593
 8035SOL    HW135567   1.844   0.515   5.038  0.0985  1.0524 -0.0358
 8035SOL    HW235568   1.756   0.592   4.942  3.5736 -0.4399 -0.5645
 8036SOL     OW35569   0.314   3.322   4.085 -0.4039  0.1011  0.4047
 8036SOL    HW135570   0.292   3.400   4.136 -2.2689 -0.4024  0.3770
 8036SOL    HW235571   0.233   3.273   4.098  0.1517 -0.4204  2.0038
 8037SOL     OW35572   0.623   3.570   3.535 -0.6096 -0.4536 -0.2911
 8037SOL    HW135573   0.643   3.560   3.628  0.5822 -1.6050 -0.6873
 8037SOL    HW235574   0.558   3.501   3.522 -1.3679  0.0699  0.6396
 8038SOL     OW35575   2.036   4.432  10.003  0.1729  0.0867 -0.0559
 8038SOL    HW135576   2.105   4.499  10.014  2.0222 -2.1802  2.1357
 8038SOL    HW235577   1.967   4.473  10.055 -0.4793 -1.0927 -0.0164
 8039SOL     OW35578   3.091   3.149   7.192 -0.3475 -0.3140 -0.0272
 8039SOL    HW135579   3.173   3.165   7.145  0.0344 -1.0366  0.4046
 8039SOL    HW235580   3.070   3.234   7.231  1.5760  0.5789 -0.9128
 8040SOL     OW35581   0.830   3.695  16.830  0.1523  0.2113 -0.4757
 8040SOL    HW135582   0.783   3.768  16.871  0.6547 -0.9862  2.2375
 8040SOL    HW235583   0.922   3.709  16.853 -0.2780 -2.4261  2.9334
 8041SOL     OW35584   0.261   0.148   6.298  0.0727 -0.1513 -0.2654
 8041SOL    HW135585   0.237   0.142   6.205  0.2423 -0.4887 -0.2869
 8041SOL    HW235586   0.343   0.099   6.307 -0.6240 -1.2521  0.1706
 8042SOL     OW35587   0.684   2.691   4.309 -0.3667 -0.5094 -0.1616
 8042SOL    HW135588   0.731   2.764   4.350 -0.9735 -0.5935  0.6747
 8042SOL    HW235589   0.757   2.629   4.304  0.6408  0.6147  0.6339
 8043SOL     OW35590   3.443   2.754   1.151  0.1247  0.0034  0.4474
 8043SOL    HW135591   3.376   2.691   1.178  0.6138 -0.9683 -0.6025
 8043SOL    HW235592   3.400   2.840   1.158  0.8232  0.2084  2.2031
 8044SOL     OW35593   1.667   1.484   5.067  0.4326 -0.3792 -0.5706
 8044SOL    HW135594   1.612   1.546   5.114  0.2220  0.6663 -2.2240
 8044SOL    HW235595   1.607   1.446   5.003 -0.0251 -0.4472 -0.1063
 8045SOL     OW35596   0.779   2.949   1.941 -0.4840  0.3701  0.2261
 8045SOL    HW135597   0.796   2.960   1.848 -0.0298  2.2568  0.5366
 8045SOL    HW235598   0.790   3.038   1.975 -3.2212  0.6316  0.4978
 8046SOL     OW35599   4.484   0.071   1.640 -0.0675  0.7991  0.1448
 8046SOL    HW135600   4.465   0.006   1.573  1.5816  0.6374 -0.1622
 8046SOL    HW235601   4.435   0.148   1.612 -0.8192 -0.3035 -1.5701
 8047SOL     OW35602   1.864   2.978   8.455  0.5276  0.1034  0.2208
 8047SOL    HW135603   1.929   2.909   8.467  0.2894  0.2112  2.2118
 8047SOL    HW235604   1.786   2.923   8.462  0.5948 -0.2105 -1.6361
 8048SOL     OW35605   1.212   3.696  14.108 -0.3575  0.5051  0.5934
 8048SOL    HW135606   1.303   3.725  14.104  0.4672 -1.9802  1.2969
 8048SOL    HW235607   1.179   3.757  14.174  0.4853 -0.8433  2.2674
 8049SOL     OW35608   4.405   3.730   8.390  0.4560 -0.2888  0.2563
 8049SOL    HW135609   4.330   3.779   8.425  2.1554  0.7368  2.4736
 8049SOL    HW235610   4.459   3.790   8.339 -0.9128  1.5459  0.9431
 8050SOL     OW35611   4.166   0.948   4.226  0.2577  0.1964  0.0253
 8050SOL    HW135612   4.237   0.915   4.281  2.7179  1.7661 -2.1807
 8050SOL    HW235613   4.210   0.931   4.143  0.4762  3.3087 -0.5138
 8051SOL     OW35614   3.183   3.247   4.176 -0.1004  0.2355 -0.2380
 8051SOL    HW135615   3.136   3.234   4.259 -0.5921  1.0070 -0.3924
 8051SOL    HW235616   3.251   3.313   4.191 -0.0952  0.2233 -0.2086
 8052SOL     OW35617   0.733   4.576  17.679 -0.2074  0.0949 -0.1310
 8052SOL    HW135618   0.744   4.670   0.001  1.4483 -0.0600 -0.3316
 8052SOL    HW235619   0.650   4.573  17.630 -0.2793  3.2254 -0.2478
 8053SOL     OW35620   1.211   3.685   8.024 -0.2369  0.0223 -0.4504
 8053SOL    HW135621   1.275   3.753   8.004  1.4180 -1.1987  0.7027
 8053SOL    HW235622   1.128   3.728   8.002 -0.2637 -0.7868 -1.9582
 8054SOL     OW35623   0.594   1.799   4.213  0.0219 -0.1848 -0.1632
 8054SOL    HW135624   0.567   1.891   4.212  2.5249  0.5580  0.2994
 8054SOL    HW235625   0.628   1.787   4.125  0.1869  0.4531 -0.1898
 8055SOL     OW35626   4.043   2.112  13.874  0.1379 -0.3151 -0.0503
 8055SOL    HW135627   4.046   2.017  13.865  0.6667 -0.2393 -0.6076
 8055SOL    HW235628   4.135   2.134  13.859 -0.0039  0.0976 -0.3246
 8056SOL     OW35629   4.323   4.050   7.165 -0.0428 -0.6048  0.4785
 8056SOL    HW135630   4.404   4.026   7.210  0.4526 -0.4315 -0.3167
 8056SOL    HW235631   4.351   4.068   7.075  2.2765  0.5468  1.4014
 8057SOL     OW35632   4.317   1.704   5.497  0.1118  0.1823  0.2992
 8057SOL    HW135633   4.244   1.746   5.543  0.1262  2.3982 -1.7147
 8057SOL    HW235634   4.391   1.739   5.546 -0.7613  1.4959  0.6691
 8058SOL     OW35635   4.228   2.745  16.639 -0.1809 -0.0399  0.4315
 8058SOL    HW135636   4.189   2.827  16.606 -0.4418  0.3536  1.7025
 8058SOL    HW235637   4.256   2.693  16.565  1.2371  1.7758 -0.3111
 8059SOL     OW35638   1.518   3.950  13.122 -0.0787  0.0208 -0.2345
 8059SOL    HW135639   1.456   3.911  13.061 -0.0165  1.2366 -1.0765
 8059SOL    HW235640   1.503   3.888  13.194  0.2904  0.0477 -0.1323
 8060SOL     OW35641   2.722   2.250   6.454 -0.4105  0.1240  0.4446
 8060SOL    HW135642   2.634   2.287   6.468 -0.8667 -0.6417 -0.3725
 8060SOL    HW235643   2.759   2.326   6.409  1.4851 -0.1323  1.5806
 8061SOL     OW35644   0.913   2.913  16.401 -0.2456  0.1013  0.1526
 8061SOL    HW135645   0.838   2.962  16.434 -0.6931 -0.2499 -0.3499
 8061SOL    HW235646   0.869   2.862  16.333 -1.4002 -0.5143  1.3402
 8062SOL     OW35647   4.666   1.329   0.272 -0.3425  0.2320 -0.1113
 8062SOL    HW135648   4.660   1.362   0.362 -1.3362 -0.6872  0.1467
 8062SOL    HW235649   4.579   1.331   0.233 -0.3326 -2.1124 -0.2447
 8063SOL     OW35650   3.802   4.267   5.726  0.3912  0.3021 -0.5346
 8063SOL    HW135651   3.843   4.183   5.709 -0.5098 -0.4824  1.1770
 8063SOL    HW235652   3.707   4.259   5.734  0.8579 -2.0979  2.6727
 8064SOL     OW35653   3.685   0.446   6.339  0.5450  0.4587  0.2993
 8064SOL    HW135654   3.759   0.506   6.348  1.2305 -0.3086 -0.1993
 8064SOL    HW235655   3.731   0.363   6.353 -0.6750 -0.6954 -2.5483
 8065SOL     OW35656   2.147   0.374   4.378  0.0802 -0.2553 -0.0066
 8065SOL    HW135657   2.198   0.446   4.340 -0.6942  0.3256  0.0516
 8065SOL    HW235658   2.164   0.301   4.319 -0.8300 -0.3423 -0.1630
 8066SOL     OW35659   3.880   0.377   5.790 -0.2063 -0.5025 -0.0678
 8066SOL    HW135660   3.896   0.305   5.729 -0.3314 -0.8716  0.3348
 8066SOL    HW235661   3.951   0.350   5.848  1.1792 -0.1415 -1.5866
 8067SOL     OW35662   0.108   2.030   0.814 -0.2302 -0.2813  0.2297
 8067SOL    HW135663   0.163   2.013   0.738 -0.5129  2.4430 -0.5730
 8067SOL    HW235664   0.021   2.001   0.786  0.9667 -1.6882 -2.0107
 8068SOL     OW35665   2.225   0.159   2.228  0.6424 -0.2168  0.1017
 8068SOL    HW135666   2.142   0.114   2.244 -0.5421  1.5283 -1.1493
 8068SOL    HW235667   2.182   0.221   2.170  0.0392 -0.2239  0.5457
 8069SOL     OW35668   0.494   1.987  17.545  0.3732 -0.4078  0.4442
 8069SOL    HW135669   0.448   2.063  17.507  3.7565  2.0921  1.3687
 8069SOL    HW235670   0.565   1.982  17.481 -0.2693  1.4042 -0.4194
 8070SOL     OW35671   2.615   0.138   7.467 -0.0160  0.2003 -0.2655
 8070SOL    HW135672   2.578   0.226   7.457  1.0859  0.8803  1.7646
 8070SOL    HW235673   2.689   0.152   7.408 -0.4634  0.6194 -0.7256
 8071SOL     OW35674   2.936   3.948  17.588  0.7220 -0.1037 -0.3938
 8071SOL    HW135675   2.913   3.995  17.508  1.0416  1.2117  0.2982
 8071SOL    HW235676   2.908   3.857  17.578  0.7432  0.0991 -2.4962
 8072SOL     OW35677   2.235   1.962   2.665  0.0569 -0.5696 -0.1753
 8072SOL    HW135678   2.219   1.889   2.725  1.2645 -1.4618 -0.9486
 8072SOL    HW235679   2.145   1.991   2.649 -0.1808 -0.8527  0.6469
 8073SOL     OW35680   3.021   3.388   1.514 -0.1154  0.0336  0.0117
 8073SOL    HW135681   3.021   3.438   1.432 -0.5650  0.8237  0.4925
 8073SOL    HW235682   3.110   3.354   1.522 -0.6484 -1.7207 -1.6999
 8074SOL     OW35683   1.742   1.333  13.460 -0.7855  0.6674 -0.4522
 8074SOL    HW135684   1.731   1.286  13.543 -2.4851  1.3812 -0.2942
 8074SOL    HW235685   1.721   1.269  13.392  1.5314 -0.4380 -0.1567
 8075SOL     OW35686   2.310   0.718  11.376  0.0532  0.0871  0.3090
 8075SOL    HW135687   2.389   0.668  11.397 -1.1725 -1.7758  0.4868
 8075SOL    HW235688   2.253   0.698  11.451  2.3650  0.0426  2.0700
 8076SOL     OW35689   0.059   0.180   7.958 -0.3441  0.2577 -0.5087
 8076SOL    HW135690   0.125   0.247   7.976  1.2744 -1.7076  0.7984
 8076SOL    HW235691   4.711   0.215   8.011  1.2996 -0.9134  2.4595
 8077SOL     OW35692   2.458   4.140   2.115  0.2312  0.7526 -0.2835
 8077SOL    HW135693   2.374   4.131   2.069 -0.0857  0.4355  0.3541
 8077SOL    HW235694   2.431   4.141   2.207 -1.5616  0.0713 -0.8041
 8078SOL     OW35695   3.793   2.829   8.909  0.1320 -0.3999 -0.1166
 8078SOL    HW135696   3.830   2.743   8.891 -2.5793 -1.7913  0.9241
 8078SOL    HW235697   3.854   2.889   8.866  0.5404  1.7013  3.3304
 8079SOL     OW35698   2.112   4.658  17.692  0.5968 -0.8069  0.0520
 8079SOL    HW135699   2.117   4.644   0.090 -2.8838  1.6056  0.5552
 8079SOL    HW235700   2.026   4.692  17.669 -0.1314 -1.2678  2.0776
 8080SOL     OW35701   3.245   1.601  17.470  0.4641 -0.1412 -0.1813
 8080SOL    HW135702   3.183   1.645  17.529  1.0476 -0.0947  0.4072
 8080SOL    HW235703   3.311   1.588  17.538 -0.0846  0.8451  0.5523
 8081SOL     OW35704   0.247   3.622   1.670  0.5805  0.3165 -0.1364
 8081SOL    HW135705   0.274   3.537   1.706  0.4730 -0.1269 -1.1009
 8081SOL    HW235706   0.322   3.633   1.611  0.9351  0.5890  0.3712
 8082SOL     OW35707   0.778   1.202   7.676  0.4496  0.4158  0.5601
 8082SOL    HW135708   0.774   1.216   7.771 -0.4408 -0.9165  0.7194
 8082SOL    HW235709   0.873   1.199   7.659  0.1862 -1.1348 -0.6224
 8083SOL     OW35710   0.622   1.340  11.950  1.0534  0.2395 -0.0045
 8083SOL    HW135711   0.581   1.405  11.894  0.0485 -0.4242 -0.0484
 8083SOL    HW235712   0.620   1.381  12.036 -2.3452 -2.4075  1.1994
 8084SOL     OW35713   3.062   2.991  11.229  0.0189 -0.0612  0.3119
 8084SOL    HW135714   3.106   2.969  11.311  1.1367 -0.8201 -0.4998
 8084SOL    HW235715   2.997   2.922  11.238  0.2029 -0.5338 -1.7828
 8085SOL     OW35716   3.302   1.182   2.535 -0.4077 -0.2522 -0.8938
 8085SOL    HW135717   3.239   1.252   2.520  1.0410  0.9734 -1.2977
 8085SOL    HW235718   3.276   1.118   2.468  1.3508 -1.2512 -0.6362
 8086SOL     OW35719   1.958   2.123   6.512 -0.2549 -0.4463  0.5662
 8086SOL    HW135720   2.029   2.185   6.531  0.8101 -0.7015 -2.4623
 8086SOL    HW235721   1.972   2.057   6.580 -0.2074 -2.2765 -1.2063
 8087SOL     OW35722   0.934   3.516   3.847  0.2250 -0.0486 -0.3316
 8087SOL    HW135723   0.852   3.561   3.867  0.5329 -0.1540  1.1608
 8087SOL    HW235724   1.003   3.581   3.836  0.2268 -0.1971 -1.2929
 8088SOL     OW35725   0.467   0.093  13.281 -0.0191  0.4167 -0.4321
 8088SOL    HW135726   0.554   0.113  13.318  1.8062 -1.5207 -3.6860
 8088SOL    HW235727   0.468   0.153  13.206 -1.5500  0.9436 -0.0318
 8089SOL     OW35728   3.672   0.065   7.765 -0.0584 -0.0278  0.2489
 8089SOL    HW135729   3.645   4.696   7.761 -2.7745  0.7380  0.6948
 8089SOL    HW235730   3.608   0.100   7.827 -1.4395 -0.2952 -1.0026
 8090SOL     OW35731   3.362   0.000   2.790 -0.0595  0.2949  0.2403
 8090SOL    HW135732   3.455   0.011   2.774  0.2415 -0.2541  1.5790
 8090SOL    HW235733   3.351   0.063   2.861  0.9133  0.2223  0.4479
 8091SOL     OW35734   4.247   0.316   9.125 -0.1228  0.3284 -0.0137
 8091SOL    HW135735   4.299   0.241   9.093 -0.2378 -0.8301  2.5385
 8091SOL    HW235736   4.168   0.309   9.071 -0.5823  1.5126  0.5215
 8092SOL     OW35737   3.979   0.134  12.542  0.5430  0.3300 -0.0740
 8092SOL    HW135738   4.072   0.144  12.526  0.7317 -0.7844  0.3525
 8092SOL    HW235739   3.965   0.207  12.603  0.1103  0.7419 -0.6606
 8093SOL     OW35740   4.116   2.264   2.871 -0.4419  0.4097  0.3263
 8093SOL    HW135741   4.124   2.179   2.915 -0.6960  0.5098  0.5654
 8093SOL    HW235742   4.043   2.298   2.923 -1.0422 -0.8181  0.2839
 8094SOL     OW35743   1.704   3.086  17.476 -0.5064  0.3021 -0.8073
 8094SOL    HW135744   1.756   3.019  17.433 -0.3880  0.1200 -0.3791
 8094SOL    HW235745   1.616   3.048  17.480  0.5263 -1.9584  0.4547
 8095SOL     OW35746   2.292   0.745   6.199 -0.3058  1.3147  0.0652
 8095SOL    HW135747   2.375   0.702   6.178 -0.4911  0.8436  0.3097
 8095SOL    HW235748   2.289   0.769   6.292  0.6136 -0.9095  0.6727
 8096SOL     OW35749   1.396   1.551   1.239  0.0405  0.1288 -0.4498
 8096SOL    HW135750   1.401   1.456   1.234  2.2447  0.2775 -0.9230
 8096SOL    HW235751   1.337   1.569   1.312 -0.1089  3.2676 -1.3277
 8097SOL     OW35752   0.061   2.745  13.257 -0.2371  0.3546  0.2515
 8097SOL    HW135753   4.693   2.764  13.279 -1.1159 -1.5776 -1.7650
 8097SOL    HW235754   0.085   2.662  13.299  1.4167 -0.2416 -1.8251
 8098SOL     OW35755   4.052   3.573   6.407  0.4297 -0.6904 -0.1434
 8098SOL    HW135756   4.048   3.528   6.491  2.4474 -1.1151 -0.2785
 8098SOL    HW235757   3.985   3.531   6.352  1.0117 -0.2476 -1.1931
 8099SOL     OW35758   0.169   3.241   3.670 -0.1758 -0.3818  0.5619
 8099SOL    HW135759   0.154   3.185   3.594  0.2222  1.0690 -0.5940
 8099SOL    HW235760   0.132   3.182   3.736 -1.6033 -0.1697 -0.0556
 8100SOL     OW35761   0.113   4.389   6.381 -0.1221 -0.1193 -0.3415
 8100SOL    HW135762   0.077   4.418   6.297 -0.6142  0.0303 -0.0832
 8100SOL    HW235763   0.197   4.346   6.363  1.7757  2.8444  1.4127
 8101SOL     OW35764   3.436   0.586   6.382  0.2018  0.0714  0.2176
 8101SOL    HW135765   3.380   0.523   6.426 -0.7594  1.3491  0.8153
 8101SOL    HW235766   3.506   0.531   6.348  0.1797  0.6803 -0.8510
 8102SOL     OW35767   2.556   3.723  10.633  0.0082  0.3683 -0.6440
 8102SOL    HW135768   2.546   3.767  10.549 -0.8772  1.6793  0.1484
 8102SOL    HW235769   2.465   3.716  10.664  1.2452 -2.8046  2.1987
 8103SOL     OW35770   3.425   3.677   8.275 -0.2836 -0.4318 -0.0006
 8103SOL    HW135771   3.386   3.657   8.360 -2.2624 -0.9649 -1.0123
 8103SOL    HW235772   3.349   3.689   8.217  0.1440  2.2293  0.0042
 8104SOL     OW35773   4.140   3.645   1.049 -0.0158  0.5040 -0.2696
 8104SOL    HW135774   4.096   3.730   1.051  0.7584  0.8837  0.6880
 8104SOL    HW235775   4.181   3.648   0.963 -1.0953  1.8596 -0.7455
 8105SOL     OW35776   4.409   4.145  15.407  0.1267  0.4072  0.2077
 8105SOL    HW135777   4.412   4.050  15.400  3.0798  0.4493  0.9374
 8105SOL    HW235778   4.407   4.161  15.501  0.1394  1.4566  0.0353
 8106SOL     OW35779   4.722   1.941  16.374  0.1195  0.3342  0.1311
 8106SOL    HW135780   4.696   1.969  16.286  0.6333  0.1844 -0.0692
 8106SOL    HW235781   0.083   1.901  16.354 -0.2706  0.8114 -2.5770
 8107SOL     OW35782   2.224   0.756   6.529 -0.3477 -0.3197  0.4577
 8107SOL    HW135783   2.136   0.744   6.564  0.1429 -1.0936  1.4085
 8107SOL    HW235784   2.285   0.702   6.579 -1.1803 -1.4423  0.2677
 8108SOL     OW35785   1.529   0.004   3.276 -0.1784  0.1459  0.1953
 8108SOL    HW135786   1.514   0.049   3.193  1.5918 -1.2889 -0.9111
 8108SOL    HW235787   1.503   0.074   3.336  0.1978 -0.0170  0.5548
 8109SOL     OW35788   2.643   1.420   9.160 -0.3715  0.3737 -0.5861
 8109SOL    HW135789   2.702   1.357   9.118  0.0652  0.1872  0.3032
 8109SOL    HW235790   2.704   1.454   9.226 -0.9009  1.0246 -0.4315
 8110SOL     OW35791   4.663   0.166  14.685 -0.5407  0.0958  0.2049
 8110SOL    HW135792   4.709   0.214  14.754  1.9652  1.0023 -2.1148
 8110SOL    HW235793   4.626   0.095  14.738 -0.6056  0.0507  0.0997
 8111SOL     OW35794   0.755   1.199   2.415 -0.8166  0.3003 -0.3864
 8111SOL    HW135795   0.754   1.220   2.321 -0.3388  1.8565 -0.0405
 8111SOL    HW235796   0.674   1.149   2.411 -0.9172  0.3722  0.8772
 8112SOL     OW35797   1.397   1.145  16.179 -0.2745  0.2182 -0.0171
 8112SOL    HW135798   1.466   1.132  16.243 -0.8149 -1.3302  0.2481
 8112SOL    HW235799   1.391   1.239  16.159 -0.4163 -0.3746 -2.6712
 8113SOL     OW35800   4.108   3.627   3.452  0.4630  0.1600 -0.3660
 8113SOL    HW135801   4.127   3.706   3.503  0.3809 -0.1691  0.1767
 8113SOL    HW235802   4.119   3.665   3.365 -0.4774 -0.7590 -0.8850
 8114SOL     OW35803   1.198   0.745   3.195 -0.0014 -0.3238  0.4096
 8114SOL    HW135804   1.164   0.834   3.186  0.5833 -0.3045 -1.7196
 8114SOL    HW235805   1.228   0.749   3.285 -0.7370 -0.0774  0.6418
 8115SOL     OW35806   0.425   3.876   5.095 -0.1293  0.8015  0.3408
 8115SOL    HW135807   0.358   3.826   5.142  0.2334 -0.7209 -0.7786
 8115SOL    HW235808   0.513   3.840   5.108 -0.5375 -0.4806 -0.4108
 8116SOL     OW35809   0.226   2.229  12.863  0.1053 -0.4303  0.2934
 8116SOL    HW135810   0.159   2.163  12.881 -1.1800  0.7786 -0.0449
 8116SOL    HW235811   0.218   2.296  12.930 -1.1235 -0.4912  0.2088
 8117SOL     OW35812   3.182   4.292   5.853 -0.0221  0.0479 -0.8139
 8117SOL    HW135813   3.250   4.225   5.860 -1.1806 -0.9733  0.5883
 8117SOL    HW235814   3.167   4.313   5.945 -1.1317  0.9937 -1.2105
 8118SOL     OW35815   1.836   1.569  14.452  0.2606  0.1884  0.4442
 8118SOL    HW135816   1.856   1.653  14.411  0.0876 -0.8507 -1.7694
 8118SOL    HW235817   1.922   1.534  14.475  0.2663 -0.1724 -0.1404
 8119SOL     OW35818   0.594   0.718  15.549  0.4004  0.1136 -0.0209
 8119SOL    HW135819   0.503   0.730  15.522  0.3833 -0.7360 -0.3539
 8119SOL    HW235820   0.634   0.773  15.482 -3.5453  1.1717 -1.5380
 8120SOL     OW35821   0.358   3.352   7.154 -0.1068  0.4811 -0.4255
 8120SOL    HW135822   0.334   3.442   7.176 -1.5469 -0.6246  2.5180
 8120SOL    HW235823   0.290   3.311   7.208  0.9924  0.4429  0.9404
 8121SOL     OW35824   4.233   0.310  11.644  0.3334 -0.1229  0.0025
 8121SOL    HW135825   4.262   0.225  11.610 -1.4613  0.2494 -2.4641
 8121SOL    HW235826   4.266   0.370  11.577  1.2304  0.0036  0.5546
 8122SOL     OW35827   3.227   1.792   9.508 -0.2002 -0.0398  0.3561
 8122SOL    HW135828   3.202   1.751   9.591  0.7850 -0.2364  0.5589
 8122SOL    HW235829   3.292   1.853   9.542  0.7381 -0.3136 -0.9089
 8123SOL     OW35830   2.224   4.276  17.079 -0.3714  0.0880  0.0634
 8123SOL    HW135831   2.236   4.370  17.067  0.3211 -0.3647 -2.6916
 8123SOL    HW235832   2.219   4.282  17.175 -2.2067  0.7387 -0.0605
 8124SOL     OW35833   0.678   2.226  11.216 -0.0844 -0.4847 -0.1026
 8124SOL    HW135834   0.657   2.219  11.309  1.1053  0.3478  0.2217
 8124SOL    HW235835   0.758   2.278  11.208  1.1491 -2.2792  0.6080
 8125SOL     OW35836   1.047   2.938  14.830  0.1157 -0.2066 -0.2327
 8125SOL    HW135837   0.991   2.861  14.819 -0.5924  0.4425 -1.1666
 8125SOL    HW235838   1.096   2.904  14.905  1.2841  1.6671 -0.1421
 8126SOL     OW35839   0.714   3.420   7.253  0.3820  0.1401  0.3147
 8126SOL    HW135840   0.749   3.509   7.240  1.3328 -0.6866 -2.8208
 8126SOL    HW235841   0.690   3.416   7.345  0.9401 -1.1920  0.3985
 8127SOL     OW35842   1.118   4.040   3.218  0.6689 -0.1528  0.2376
 8127SOL    HW135843   1.107   3.972   3.286 -0.7527 -0.2762 -0.1256
 8127SOL    HW235844   1.039   4.094   3.212 -0.3711 -1.5393  1.3827
 8128SOL     OW35845   2.976   3.994  17.294 -0.3707 -0.2426 -0.0578
 8128SOL    HW135846   3.068   3.971  17.284  0.2552  2.3890 -0.4261
 8128SOL    HW235847   2.925   3.914  17.297  1.9512 -1.5998  3.2569
 8129SOL     OW35848   3.623   2.766   3.555  0.2263  0.0348  0.4286
 8129SOL    HW135849   3.632   2.754   3.649 -1.5256  2.1391  0.8503
 8129SOL    HW235850   3.578   2.687   3.524 -0.2788 -0.6614  2.9279
 8130SOL     OW35851   0.179   2.894   0.143 -0.6517 -0.2707 -0.0986
 8130SOL    HW135852   0.165   2.834   0.070  0.4595  1.4256 -1.7067
 8130SOL    HW235853   0.091   2.915   0.174 -1.3766 -3.4833 -0.0617
 8131SOL     OW35854   4.371   0.682  17.033  0.5823  0.3466 -0.3650
 8131SOL    HW135855   4.396   0.656  16.944  0.5282  1.1969 -0.6278
 8131SOL    HW235856   4.436   0.752  17.039  1.6523 -0.5968 -0.9074
 8132SOL     OW35857   3.302   3.456  16.712  0.1416 -0.2412 -0.4450
 8132SOL    HW135858   3.228   3.399  16.733 -0.9873  1.6045  0.5783
 8132SOL    HW235859   3.296   3.451  16.617  1.6528 -0.3081 -0.5430
 8133SOL     OW35860   2.987   1.134   3.250  0.3378  0.2318 -0.5038
 8133SOL    HW135861   2.919   1.181   3.299 -1.4933 -0.0590 -2.7416
 8133SOL    HW235862   2.974   1.177   3.166  2.6435 -0.4337 -1.2045
 8134SOL     OW35863   0.130   2.068   7.220 -0.4815  0.3511 -0.2889
 8134SOL    HW135864   0.114   1.982   7.259 -1.4314  0.6911  0.0719
 8134SOL    HW235865   0.054   2.071   7.161 -0.4020  0.1063 -0.4042
 8135SOL     OW35866   3.955   1.339   3.058 -0.5745  0.4807  0.5887
 8135SOL    HW135867   3.995   1.320   3.143  1.0003  0.7244 -0.1044
 8135SOL    HW235868   3.939   1.430   3.080  0.6824  0.6495  0.8425
 8136SOL     OW35869   3.214   4.250   2.404  0.1486  0.0009 -0.1633
 8136SOL    HW135870   3.170   4.328   2.439  2.0892  1.6894 -1.4633
 8136SOL    HW235871   3.277   4.247   2.475 -0.3612 -1.3452  0.2340
 8137SOL     OW35872   4.317   4.592   0.290 -0.6409  1.0765  0.4972
 8137SOL    HW135873   4.357   4.662   0.341  1.1619  1.5789 -1.6455
 8137SOL    HW235874   4.369   4.512   0.305 -3.3463 -0.8709 -0.4905
 8138SOL     OW35875   3.933   4.469   3.698 -0.6830 -0.5144 -0.4108
 8138SOL    HW135876   4.016   4.472   3.745  0.6352 -0.4647 -2.7448
 8138SOL    HW235877   3.961   4.435   3.614 -0.6932 -1.1503 -0.1581
 8139SOL     OW35878   3.047   4.176   3.823  0.3999  0.5248 -0.4910
 8139SOL    HW135879   3.085   4.129   3.749  0.1522 -1.7662  0.7986
 8139SOL    HW235880   2.968   4.210   3.782 -1.4506 -0.1999  2.4484
 8140SOL     OW35881   3.016   3.772   0.904 -0.0581  0.0273 -0.4424
 8140SOL    HW135882   2.994   3.802   0.815 -1.2504  4.0721  1.2027
 8140SOL    HW235883   3.102   3.735   0.885  0.7466  1.8969 -0.4561
 8141SOL     OW35884   4.243   2.207   6.491 -0.0035 -0.5742  0.7539
 8141SOL    HW135885   4.159   2.162   6.487 -0.7758  0.8434  0.9978
 8141SOL    HW235886   4.308   2.141   6.466 -0.9906 -0.9378 -0.8856
 8142SOL     OW35887   1.994   1.996   7.234  0.0414  0.4991  0.0135
 8142SOL    HW135888   1.959   2.072   7.188 -1.4630  0.3306  0.8677
 8142SOL    HW235889   2.044   2.043   7.300  2.4888 -0.4035 -1.2075
 8143SOL     OW35890   2.361   3.588  15.960 -0.3220  0.1642  0.0975
 8143SOL    HW135891   2.354   3.541  16.043  0.0318 -0.4047 -0.1921
 8143SOL    HW235892   2.278   3.575  15.915 -1.0384 -0.5311  1.6132
 8144SOL     OW35893   1.032   4.200  16.381 -0.2135  0.1911  0.3328
 8144SOL    HW135894   1.053   4.146  16.305 -0.1446  2.6718 -1.4140
 8144SOL    HW235895   1.078   4.141  16.440  0.9014  1.6061  0.8689
 8145SOL     OW35896   2.859   1.493   0.682 -0.2557 -0.3953 -0.3645
 8145SOL    HW135897   2.915   1.521   0.754  0.4272  1.0138 -1.4550
 8145SOL    HW235898   2.888   1.562   0.622  0.0374 -1.7856 -1.8233
 8146SOL     OW35899   0.435   1.587   4.328  0.3182  0.4106 -0.1741
 8146SOL    HW135900   0.490   1.625   4.259 -1.5108  1.7259 -0.9191
 8146SOL    HW235901   0.359   1.645   4.324 -0.6553 -0.7809  1.3600
 8147SOL     OW35902   3.732   2.810   6.121  0.3298 -0.6063  0.0234
 8147SOL    HW135903   3.816   2.763   6.116 -0.1018 -1.2182 -1.4711
 8147SOL    HW235904   3.705   2.782   6.209  0.3612 -1.5616 -0.2658
 8148SOL     OW35905   3.701   0.963   4.674  0.0205 -0.5405 -0.0049
 8148SOL    HW135906   3.781   0.927   4.712 -0.8354 -1.6000  0.7894
 8148SOL    HW235907   3.727   1.051   4.649 -2.5728  0.3500  0.4871
 8149SOL     OW35908   3.140   4.082   3.595 -0.4784  0.1175  0.2007
 8149SOL    HW135909   3.209   4.018   3.611 -1.0543 -0.7528 -0.7860
 8149SOL    HW235910   3.180   4.160   3.557 -0.5503  1.1934  2.3302
 8150SOL     OW35911   2.879   2.769   2.035  0.2234 -0.5113  0.4088
 8150SOL    HW135912   2.891   2.676   2.054  1.5821 -0.8905 -2.2278
 8150SOL    HW235913   2.926   2.807   2.109  0.2754 -0.0585  0.1402
 8151SOL     OW35914   1.001   1.616   2.616 -0.6506 -0.2292 -0.1003
 8151SOL    HW135915   0.946   1.632   2.539  2.2538  0.8701 -1.9352
 8151SOL    HW235916   1.037   1.533   2.587  2.3956  0.3175  2.1292
 8152SOL     OW35917   0.394   2.694   8.379 -0.7192 -0.6664 -0.4979
 8152SOL    HW135918   0.408   2.632   8.307  1.5096  0.9060 -1.4229
 8152SOL    HW235919   0.423   2.641   8.453  0.8120  1.5086  0.4418
 8153SOL     OW35920   2.412   0.971   0.980  0.0377  0.5777  0.1744
 8153SOL    HW135921   2.415   1.061   0.948  2.7660 -0.0493 -1.3027
 8153SOL    HW235922   2.495   0.954   1.024  0.8661  2.1396 -0.7743
 8154SOL     OW35923   0.192   0.466   6.140  0.6884 -0.5359  0.9343
 8154SOL    HW135924   0.114   0.413   6.157 -1.1030  1.9315  0.4188
 8154SOL    HW235925   0.174   0.548   6.186 -1.0725  0.3202 -1.2918
 8155SOL     OW35926   0.180   2.564  11.155 -0.1643 -0.0204  0.6644
 8155SOL    HW135927   0.254   2.526  11.202  0.5633  1.2710  0.5715
 8155SOL    HW235928   0.184   2.505  11.080 -1.2077 -1.4397  1.7253
 8156SOL     OW35929   0.518   4.245  17.633  0.2020  0.6012  0.0718
 8156SOL    HW135930   0.455   4.229   0.006  1.6185 -2.0393  0.7380
 8156SOL    HW235931   0.594   4.244  17.692  0.1783  1.5187  0.1188
 8157SOL     OW35932   1.133   1.877   2.592  0.4864  0.2613 -0.4822
 8157SOL    HW135933   1.117   1.816   2.520 -1.4732 -1.8120  1.6701
 8157SOL    HW235934   1.141   1.819   2.668 -0.1647 -2.7160 -2.6759
 8158SOL     OW35935   1.269   1.853   0.755  0.0717 -0.6475  0.0559
 8158SOL    HW135936   1.288   1.771   0.710 -1.0609 -0.3275 -1.0133
 8158SOL    HW235937   1.206   1.900   0.700  1.1480  0.7022 -0.0108
 8159SOL     OW35938   1.751   1.861   6.489 -0.5072  0.3743 -0.2536
 8159SOL    HW135939   1.836   1.875   6.448 -0.6643 -0.3676 -0.8311
 8159SOL    HW235940   1.740   1.766   6.489  2.5083  0.0229  0.2255
 8160SOL     OW35941   4.426   0.250  14.538  0.0005  0.3611  0.1687
 8160SOL    HW135942   4.382   0.206  14.465  3.4659  0.3666 -1.9384
 8160SOL    HW235943   4.492   0.185  14.564 -0.0874  1.4047  2.9839
 8161SOL     OW35944   0.725   3.076   5.326 -0.2388  0.0595  0.4633
 8161SOL    HW135945   0.698   3.127   5.250 -2.2065 -0.9418  0.4909
 8161SOL    HW235946   0.651   3.083   5.386 -0.8404 -0.4835 -0.2109
 8162SOL     OW35947   4.045   0.596   8.051  0.4255 -0.2017  0.4710
 8162SOL    HW135948   3.989   0.655   8.001 -1.2544 -0.4116  2.1134
 8162SOL    HW235949   4.087   0.668   8.099 -0.4954  0.8956 -0.3770
 8163SOL     OW35950   1.301   1.504   2.852 -0.2965  0.2845 -0.7684
 8163SOL    HW135951   1.249   1.554   2.915  0.4310  0.6666 -0.4819
 8163SOL    HW235952   1.232   1.448   2.817 -0.0948 -0.7953  0.5508
 8164SOL     OW35953   1.844   4.458   2.699 -0.0348  0.4321  0.2912
 8164SOL    HW135954   1.925   4.411   2.676 -0.1327  0.4583 -0.1050
 8164SOL    HW235955   1.792   4.379   2.713 -0.1342  0.4301 -0.0768
 8165SOL     OW35956   3.336   2.359   3.795 -0.4788 -0.0276 -0.0233
 8165SOL    HW135957   3.340   2.454   3.784  0.5051  0.1143  1.5994
 8165SOL    HW235958   3.309   2.358   3.887  4.2141  1.7720  1.4039
 8166SOL     OW35959   0.103   3.858  11.592 -0.3522 -0.5004 -0.0289
 8166SOL    HW135960   0.076   3.946  11.564 -0.8841 -0.8593 -0.6284
 8166SOL    HW235961   0.065   3.856  11.681  1.5579  0.0353  0.7932
 8167SOL     OW35962   4.395   0.753   8.699 -0.3584 -0.4896  0.3108
 8167SOL    HW135963   4.436   0.733   8.783  1.8942  0.5962 -0.5300
 8167SOL    HW235964   4.381   0.846   8.718 -2.1564 -1.1791  2.3493
 8168SOL     OW35965   2.777   0.085   1.485 -0.2807  0.1265  0.1315
 8168SOL    HW135966   2.719   0.019   1.521  1.8925 -1.2775  1.0968
 8168SOL    HW235967   2.816   0.036   1.413 -0.2859  0.7040 -0.2696
 8169SOL     OW35968   2.477   0.337  13.938  0.5196 -0.0143 -0.1122
 8169SOL    HW135969   2.505   0.424  13.966  1.9221 -1.2265  2.2812
 8169SOL    HW235970   2.533   0.288  13.998  0.4574 -0.7237 -0.6235
 8170SOL     OW35971   0.128   2.130   5.310 -0.0320 -0.1498  0.0025
 8170SOL    HW135972   0.222   2.132   5.329 -0.0241  0.5234 -0.1158
 8170SOL    HW235973   0.119   2.223   5.293 -0.6636 -0.1061  0.5660
 8171SOL     OW35974   3.514   4.653   0.497  0.4275  0.2515 -0.2854
 8171SOL    HW135975   3.430   4.688   0.469  1.3676  3.1227  0.4593
 8171SOL    HW235976   3.575   0.002   0.482 -0.1718  0.7773 -0.2008
 8172SOL     OW35977   0.315   0.934   6.224  0.1181 -0.2021 -0.4012
 8172SOL    HW135978   0.394   0.895   6.260  0.7431 -0.9040 -2.5448
 8172SOL    HW235979   0.286   1.000   6.287  0.4274  0.8194 -1.3343
 8173SOL     OW35980   2.454   0.187   3.978 -0.2445  0.0049 -0.1928
 8173SOL    HW135981   2.525   0.250   3.993  0.0671 -0.2909 -0.4276
 8173SOL    HW235982   2.487   0.109   4.022  1.1259 -1.0299 -3.1029
 8174SOL     OW35983   3.969   4.685  11.838 -0.1308 -0.1302 -0.2272
 8174SOL    HW135984   3.919   4.610  11.806 -2.0862  0.7098  0.8707
 8174SOL    HW235985   3.905   0.032  11.843 -2.4505 -2.2110 -0.6226
 8175SOL     OW35986   1.060   1.497  12.655 -0.6828 -0.0011 -0.5823
 8175SOL    HW135987   1.127   1.558  12.622  1.0952 -2.2002 -1.0109
 8175SOL    HW235988   1.093   1.415  12.619  0.5567 -0.4527  1.5943
 8176SOL     OW35989   2.730   3.264   2.035  0.2358 -0.2818  0.9644
 8176SOL    HW135990   2.716   3.246   1.942 -0.0877 -2.3601  1.3999
 8176SOL    HW235991   2.699   3.354   2.040  3.5293  0.9417 -0.4301
 8177SOL     OW35992   0.324   0.988  11.518 -0.4089  0.6981 -0.1418
 8177SOL    HW135993   0.290   0.914  11.467 -0.5563  0.7292 -0.0887
 8177SOL    HW235994   0.397   0.941  11.560  1.2928 -0.2972 -4.1675
 8178SOL     OW35995   0.217   1.208  13.081 -0.0051  0.0099  0.2649
 8178SOL    HW135996   0.189   1.167  13.163  0.1714  0.3954  0.5162
 8178SOL    HW235997   0.202   1.301  13.097  2.2185 -0.0649  2.8707
 8179SOL     OW35998   1.376   4.581   9.579  0.3771  0.2950 -0.1552
 8179SOL    HW135999   1.290   4.590   9.620 -0.3451 -1.2604 -1.3192
 8179SOL    HW236000   1.355   4.533   9.499  1.6405  0.1625 -0.3999
 8180SOL     OW36001   3.956   4.177   3.897  0.0510  0.1415  0.0391
 8180SOL    HW136002   4.034   4.124   3.884  0.5807  0.4847  1.7985
 8180SOL    HW236003   3.993   4.265   3.900  1.8280 -0.7074  2.9925
 8181SOL     OW36004   0.674   3.939  10.858  0.0051 -0.0250 -0.5608
 8181SOL    HW136005   0.668   3.980  10.771  3.8988  1.4435 -0.1215
 8181SOL    HW236006   0.753   3.887  10.845 -0.5187 -0.9993  0.1470
 8182SOL     OW36007   3.287   3.643   2.244 -0.1260 -0.1527 -0.1623
 8182SOL    HW136008   3.338   3.691   2.310  0.9536 -0.5323 -0.7191
 8182SOL    HW236009   3.259   3.717   2.189 -0.8359  0.0458  0.4733
 8183SOL     OW36010   4.368   2.049  13.257  0.2084  0.1671 -0.1422
 8183SOL    HW136011   4.414   2.117  13.207  2.1790 -0.3090  1.0212
 8183SOL    HW236012   4.302   2.017  13.195  0.4397  0.4079 -0.5116
 8184SOL     OW36013   4.074   0.583   2.361 -0.5143  0.0492 -0.1457
 8184SOL    HW136014   4.068   0.573   2.266 -4.2484  0.1521  0.0881
 8184SOL    HW236015   4.166   0.608   2.359 -0.2685 -0.8096  0.3618
 8185SOL     OW36016   0.518   2.836   1.851 -0.2204 -0.6949  0.2719
 8185SOL    HW136017   0.587   2.883   1.898 -1.3792  0.2209  1.0453
 8185SOL    HW236018   0.529   2.866   1.760 -0.9731  0.6431  0.6112
 8186SOL     OW36019   1.597   2.369  14.319  0.3129 -0.2370 -0.2408
 8186SOL    HW136020   1.603   2.462  14.296  1.9599 -0.8743 -2.3344
 8186SOL    HW236021   1.674   2.348  14.371  0.0892  0.5269  0.4200
 8187SOL     OW36022   2.774   0.706   0.740 -0.2470  0.7427  0.0354
 8187SOL    HW136023   2.682   0.688   0.761 -0.4450 -0.4434 -1.7712
 8187SOL    HW236024   2.776   0.797   0.710 -1.3656  1.0587  0.8941
 8188SOL     OW36025   0.592   1.220  10.823 -0.8156  0.2786  0.1480
 8188SOL    HW136026   0.588   1.274  10.902  0.2491  0.5403  0.0205
 8188SOL    HW236027   0.674   1.236  10.776 -0.1209  0.2491  1.3685
 8189SOL     OW36028   0.634   4.165   5.136 -0.3827  0.2894 -0.3627
 8189SOL    HW136029   0.592   4.137   5.217  1.9605 -1.7017  0.1648
 8189SOL    HW236030   0.694   4.090   5.138 -0.4021  0.1772 -2.8863
 8190SOL     OW36031   4.182   1.406   2.306 -0.3157  0.0618 -0.2030
 8190SOL    HW136032   4.094   1.439   2.284  0.6335  0.9523 -2.5890
 8190SOL    HW236033   4.232   1.410   2.225 -0.9864 -1.5482 -0.6911
 8191SOL     OW36034   1.756   0.007  11.080  0.1435  0.2482  0.3042
 8191SOL    HW136035   1.681   4.714  11.137  0.1131  2.3192  0.9023
 8191SOL    HW236036   1.713   0.006  10.995 -0.1750 -0.1230  0.4694
 8192SOL     OW36037   3.710   0.513   7.760 -0.4056 -0.0701 -0.5089
 8192SOL    HW136038   3.677   0.530   7.671 -0.9810  1.4494 -0.0164
 8192SOL    HW236039   3.633   0.491   7.812 -1.3301 -0.7950 -2.1633
 8193SOL     OW36040   0.372   2.839  14.699  0.3160 -0.4083  0.5869
 8193SOL    HW136041   0.303   2.774  14.717 -0.2006  0.3540  1.3710
 8193SOL    HW236042   0.397   2.869  14.786  2.8644  3.6810 -1.5996
 8194SOL     OW36043   4.356   1.230   4.650  0.7109  0.1472 -0.0316
 8194SOL    HW136044   4.295   1.304   4.645 -1.6700 -1.6410  2.8029
 8194SOL    HW236045   4.293   1.160   4.632  2.5522 -1.5619  0.2002
 8195SOL     OW36046   2.316   0.648   2.559  0.3311 -0.4181 -0.2261
 8195SOL    HW136047   2.376   0.594   2.610 -1.1309  0.1925  2.1360
 8195SOL    HW236048   2.240   0.656   2.618  0.5072  1.6456 -0.2911
 8196SOL     OW36049   1.567   1.450  12.654  0.1671 -0.8289 -0.8136
 8196SOL    HW136050   1.662   1.443  12.662  0.3232  1.1650 -1.1437
 8196SOL    HW236051   1.535   1.493  12.734 -0.4745  2.0438 -2.6419
 8197SOL     OW36052   2.519   3.628   3.688 -0.4248  0.1862  0.0698
 8197SOL    HW136053   2.576   3.551   3.680  0.6194  0.7984  1.6995
 8197SOL    HW236054   2.562   3.687   3.626  0.8082  1.2344  1.9447
 8198SOL     OW36055   1.691   2.819   0.749 -0.6658  0.0085  1.0808
 8198SOL    HW136056   1.700   2.847   0.841  0.8952 -0.4427  1.0654
 8198SOL    HW236057   1.778   2.785   0.732 -0.9286  1.4702 -3.1013
 8199SOL     OW36058   2.805   1.455   8.725  0.7285 -0.1607  0.3444
 8199SOL    HW136059   2.889   1.499   8.711  1.6853 -1.8908  0.6479
 8199SOL    HW236060   2.814   1.420   8.813  1.8677  2.7221  1.3930
 8200SOL     OW36061   0.440   1.286   2.066 -0.7173  0.9541  0.3508
 8200SOL    HW136062   0.454   1.331   1.982  0.2202 -0.9804 -0.5263
 8200SOL    HW236063   0.357   1.330   2.087 -1.1024  0.6716 -0.5695
 8201SOL     OW36064   1.165   1.717  15.387 -0.9042 -0.1501  0.1254
 8201SOL    HW136065   1.249   1.758  15.369 -1.6101  1.2190 -0.0764
 8201SOL    HW236066   1.104   1.791  15.375 -0.5993 -0.1108 -1.1164
 8202SOL     OW36067   4.379   1.110  12.584  0.1435  0.0984 -0.5113
 8202SOL    HW136068   4.298   1.153  12.558  0.2924 -0.2462 -1.5393
 8202SOL    HW236069   4.440   1.166  12.535  0.2695  0.1357 -0.3144
 8203SOL     OW36070   2.247   1.483  12.774  1.0424 -0.1084 -0.1144
 8203SOL    HW136071   2.299   1.552  12.734  0.5768 -0.7370 -1.7929
 8203SOL    HW236072   2.185   1.540  12.819 -0.2365 -0.3600 -1.5720
 8204SOL     OW36073   2.594   1.416  13.219 -0.3448 -0.4866  0.8169
 8204SOL    HW136074   2.636   1.402  13.134 -1.0064  2.9788 -0.0888
 8204SOL    HW236075   2.541   1.336  13.225 -1.9374  0.6140  1.2682
 8205SOL     OW36076   3.577   3.256  15.206  0.4605 -0.0633 -0.1979
 8205SOL    HW136077   3.498   3.225  15.162 -0.4593  1.6949  0.2205
 8205SOL    HW236078   3.578   3.346  15.174 -3.4885  0.1193  0.1434
 8206SOL     OW36079   1.911   1.745   2.778  0.2783  0.2891 -0.1503
 8206SOL    HW136080   1.991   1.713   2.818 -0.1256 -0.0922  0.3480
 8206SOL    HW236081   1.853   1.674   2.804  0.2872  0.9616  1.6955
 8207SOL     OW36082   1.750   3.350   0.373 -0.3615  0.3052 -0.1968
 8207SOL    HW136083   1.835   3.395   0.379 -0.1131 -0.1218 -0.4939
 8207SOL    HW236084   1.785   3.263   0.352 -2.8843 -1.6589  3.6051
 8208SOL     OW36085   1.211   0.694  14.066 -0.0198 -0.4954  0.5405
 8208SOL    HW136086   1.269   0.770  14.076 -0.0089 -0.7108  2.1797
 8208SOL    HW236087   1.251   0.643  13.996 -1.7532 -1.7336  0.4621
 8209SOL     OW36088   2.670   1.711   6.612  0.0321 -0.0888  0.2722
 8209SOL    HW136089   2.677   1.805   6.597  0.9437 -0.4973 -1.9255
 8209SOL    HW236090   2.637   1.686   6.526 -0.9078  1.6039  0.1436
 8210SOL     OW36091   4.244   3.704   7.755  0.2688 -0.2670  0.3682
 8210SOL    HW136092   4.156   3.719   7.792 -0.6261 -0.7163 -1.5665
 8210SOL    HW236093   4.292   3.669   7.830  0.3709  0.1500  0.4946
 8211SOL     OW36094   4.511   0.597   3.065  0.1355 -0.3770 -0.1603
 8211SOL    HW136095   4.439   0.616   3.005 -3.2537  0.0266  4.0539
 8211SOL    HW236096   4.487   0.674   3.117  0.9458 -0.9751  1.1015
 8212SOL     OW36097   0.521   1.827   9.482  0.0717 -0.4883  0.5131
 8212SOL    HW136098   0.610   1.839   9.516 -0.2103 -0.0973  1.1224
 8212SOL    HW236099   0.522   1.873   9.398  1.0372  1.1272  1.4127
 8213SOL     OW36100   0.280   1.926   3.387 -0.1052 -0.1210  0.2352
 8213SOL    HW136101   0.343   1.945   3.318 -1.1603 -1.4362 -1.0872
 8213SOL    HW236102   0.314   1.967   3.467 -0.0877  1.3447 -0.5343
 8214SOL     OW36103   4.634   0.864   1.414 -0.0005 -0.1861  0.0436
 8214SOL    HW136104   0.003   0.842   1.422  0.5590  1.6627 -1.4752
 8214SOL    HW236105   4.596   0.803   1.477  1.3878  0.1768  1.2424
 8215SOL     OW36106   4.200   4.433  15.587 -0.7208  0.0574  0.4612
 8215SOL    HW136107   4.139   4.468  15.652 -0.4585  1.1768  0.1091
 8215SOL    HW236108   4.146   4.366  15.543  0.5751 -0.7522  0.1086
 8216SOL     OW36109   4.697   4.158   9.904  0.2152  0.1382  0.7054
 8216SOL    HW136110   4.658   4.193   9.984  1.8514  0.2193  1.4690
 8216SOL    HW236111   4.698   4.226   9.837  1.3190 -0.9410 -0.3703
 8217SOL     OW36112   1.864   1.206   6.139  0.0520 -0.0893 -0.1120
 8217SOL    HW136113   1.918   1.262   6.195 -0.9571  0.6563  0.1172
 8217SOL    HW236114   1.924   1.132   6.134 -1.1341 -1.0680  0.3549
 8218SOL     OW36115   1.193   1.964   4.071 -0.4480  0.3708 -0.1865
 8218SOL    HW136116   1.166   2.054   4.051  1.1659  1.0220  0.5457
 8218SOL    HW236117   1.107   1.939   4.106  1.1906 -3.0235  1.3757
 8219SOL     OW36118   1.441   2.911   0.815 -0.3059  0.0637  0.1653
 8219SOL    HW136119   1.486   2.994   0.834 -0.2506  0.0979 -0.1147
 8219SOL    HW236120   1.490   2.881   0.739 -2.7682 -5.8155  0.9066
 8220SOL     OW36121   4.171   1.406   7.474  0.6647  0.1321  0.9445
 8220SOL    HW136122   4.106   1.474   7.453 -0.5806 -1.6738 -0.9590
 8220SOL    HW236123   4.129   1.380   7.556 -1.2898  0.0997 -0.0563
 8221SOL     OW36124   2.907   4.383   5.747  0.3040 -0.6425  0.8977
 8221SOL    HW136125   2.990   4.337   5.761  0.2544 -1.4377 -1.5118
 8221SOL    HW236126   2.875   4.361   5.660  0.2518 -1.3924  1.1077
 8222SOL     OW36127   0.495   3.362  12.875  0.2214  0.0396  0.5507
 8222SOL    HW136128   0.442   3.342  12.797  2.3828  0.0699 -0.9285
 8222SOL    HW236129   0.554   3.287  12.882  1.5623  1.0075 -0.3681
 8223SOL     OW36130   3.223   1.151   8.498 -0.3506  0.1646  0.1141
 8223SOL    HW136131   3.261   1.083   8.554  1.3825  0.5844 -0.5567
 8223SOL    HW236132   3.143   1.174   8.547  0.2342  0.3881  0.9685
 8224SOL     OW36133   2.671   4.691   1.881  0.1888 -0.2912  0.4563
 8224SOL    HW136134   2.747   4.638   1.906  0.7984  0.7862  0.8596
 8224SOL    HW236135   2.625   4.691   1.965  1.2105  1.6470  0.9981
 8225SOL     OW36136   1.734   0.581   9.008 -0.3267 -0.7808 -0.4673
 8225SOL    HW136137   1.816   0.630   8.998 -1.3199  1.0971  0.6120
 8225SOL    HW236138   1.769   0.497   8.980  1.0104  0.0717 -1.4135
 8226SOL     OW36139   0.639   1.755   2.274  0.0109 -0.2507  0.0592
 8226SOL    HW136140   0.568   1.783   2.332 -0.8980  0.2810 -1.3060
 8226SOL    HW236141   0.596   1.759   2.188 -1.0226  0.3418  0.6010
 8227SOL     OW36142   3.253   0.835   3.612 -0.3133  0.2071 -0.0916
 8227SOL    HW136143   3.218   0.780   3.542 -0.0122  1.1003 -0.9359
 8227SOL    HW236144   3.187   0.903   3.602 -1.0655 -0.2562  1.7061
 8228SOL     OW36145   4.588   2.055   3.514  0.7503  0.5753 -0.6201
 8228SOL    HW136146   4.647   2.002   3.568  0.7394  2.0986  0.8951
 8228SOL    HW236147   4.647   2.057   3.438  0.5059 -0.5282 -0.8322
 8229SOL     OW36148   1.598   4.336  15.657 -0.0295  0.6208 -0.0671
 8229SOL    HW136149   1.533   4.306  15.720 -0.2043  0.5218 -0.2952
 8229SOL    HW236150   1.624   4.251  15.621  0.8514 -0.1797  2.4953
 8230SOL     OW36151   1.603   3.499   4.806  0.0713 -0.1854  0.4974
 8230SOL    HW136152   1.566   3.552   4.876 -1.7282 -0.0068 -0.5926
 8230SOL    HW236153   1.561   3.417   4.829 -1.2519  0.9844  2.2320
 8231SOL     OW36154   3.587   1.995   2.407 -0.0613 -0.2387 -0.2331
 8231SOL    HW136155   3.655   2.063   2.401 -1.8292  1.3685 -1.9736
 8231SOL    HW236156   3.628   1.927   2.461  0.2937 -1.1496 -1.6416
 8232SOL     OW36157   1.541   4.010  11.074 -0.1096 -0.0281  0.0482
 8232SOL    HW136158   1.587   4.052  11.001 -1.1126 -1.7529 -1.5789
 8232SOL    HW236159   1.460   3.991  11.026 -1.2627  2.0541  1.1837
 8233SOL     OW36160   0.464   3.749   8.199  0.1270  0.5702 -0.6569
 8233SOL    HW136161   0.553   3.776   8.224  0.3556 -1.2180  0.4008
 8233SOL    HW236162   0.448   3.832   8.153  2.2683  1.4648  0.2139
 8234SOL     OW36163   3.230   4.060  11.301  0.3662 -0.5403  0.1751
 8234SOL    HW136164   3.143   4.032  11.273  0.4772  0.9893 -1.7268
 8234SOL    HW236165   3.239   4.141  11.250 -0.3161  0.3414  1.4374
 8235SOL     OW36166   0.839   0.603   8.177 -0.6105  0.4170 -0.2524
 8235SOL    HW136167   0.766   0.594   8.239  0.2227  0.6483  0.7675
 8235SOL    HW236168   0.845   0.698   8.182  1.6663  0.2186  0.6273
 8236SOL     OW36169   4.553   0.977   2.599  0.2122  0.0195 -0.0162
 8236SOL    HW136170   4.567   0.922   2.676 -3.4979  1.2133  1.5261
 8236SOL    HW236171   4.483   0.932   2.551  3.8555  0.2863 -5.6272
 8237SOL     OW36172   2.636   0.903   5.181  0.0170  0.5558 -0.0407
 8237SOL    HW136173   2.612   0.849   5.105  0.1595  2.2303 -1.2923
 8237SOL    HW236174   2.568   0.969   5.167 -1.3378 -0.5206  1.4497
 8238SOL     OW36175   1.396   3.928   0.567 -0.9680 -0.2876  0.2432
 8238SOL    HW136176   1.308   3.892   0.558 -2.1487  2.7097 -0.3326
 8238SOL    HW236177   1.382   4.023   0.561  1.5953  0.2956  3.7284
 8239SOL     OW36178   1.691   0.669   4.549 -0.2686 -0.5167  0.0218
 8239SOL    HW136179   1.682   0.715   4.466  0.2044 -1.0549 -0.3255
 8239SOL    HW236180   1.749   0.723   4.602 -0.4392 -1.4148  1.1177
 8240SOL     OW36181   4.011   0.878   9.659 -0.7130  0.2840  0.2496
 8240SOL    HW136182   4.062   0.834   9.727  0.1490  1.2969  0.2558
 8240SOL    HW236183   3.931   0.825   9.663 -1.3096  1.0455 -1.4556
 8241SOL     OW36184   2.012   2.932   0.559 -0.2047 -0.3109  0.4192
 8241SOL    HW136185   2.094   2.890   0.533 -0.1884 -0.4976  0.7747
 8241SOL    HW236186   2.032   2.994   0.629 -0.8700 -0.3363  0.6382
 8242SOL     OW36187   4.684   4.163   7.845 -0.4657 -1.0409  0.0483
 8242SOL    HW136188   4.686   4.256   7.820  0.6809 -0.9335  0.5494
 8242SOL    HW236189   4.697   4.118   7.761  1.1125 -2.9889  1.3539
 8243SOL     OW36190   4.619   1.335   5.257 -0.7020  0.1808 -0.3487
 8243SOL    HW136191   4.705   1.316   5.221 -0.1270 -1.4161  1.9095
 8243SOL    HW236192   4.633   1.419   5.301  0.0626 -1.1260  1.8749
 8244SOL     OW36193   1.508   1.390   4.869 -0.1638 -0.0326 -0.0602
 8244SOL    HW136194   1.495   1.296   4.879 -0.8537 -0.0230 -0.8135
 8244SOL    HW236195   1.417   1.420   4.863 -0.2613 -0.6590 -1.7477
 8245SOL     OW36196   1.090   0.488   5.960  0.7449 -0.2717  0.0258
 8245SOL    HW136197   1.037   0.556   5.918  2.1055  0.9961  0.3269
 8245SOL    HW236198   1.120   0.443   5.881 -1.2287 -0.8793 -0.3816
 8246SOL     OW36199   2.079   2.742   9.131  0.3030 -0.1499 -0.2251
 8246SOL    HW136200   2.005   2.685   9.111  1.4920 -1.2456 -1.5071
 8246SOL    HW236201   2.118   2.765   9.047  1.9670 -3.8082 -0.4291
 8247SOL     OW36202   3.530   3.583  16.820  0.7606  0.2325  0.6499
 8247SOL    HW136203   3.464   3.523  16.784 -0.0473  1.7858 -0.4262
 8247SOL    HW236204   3.476   3.630  16.882  0.5854 -0.5160  1.0701
 8248SOL     OW36205   0.020   1.178   4.509  0.4063 -0.3848 -0.1351
 8248SOL    HW136206   0.076   1.163   4.434  0.2126  0.4441 -0.4432
 8248SOL    HW236207   4.658   1.201   4.474 -0.7386 -1.0676  2.2114
 8249SOL     OW36208   3.453   0.343   2.327 -0.1029 -0.2376  0.0392
 8249SOL    HW136209   3.499   0.399   2.388  0.8604  0.0976 -0.9939
 8249SOL    HW236210   3.433   0.266   2.380 -1.8164 -0.7434 -1.3307
 8250SOL     OW36211   4.021   3.321   0.307 -0.9057 -0.0052 -0.1315
 8250SOL    HW136212   3.997   3.245   0.360 -2.9514  0.4647 -0.4127
 8250SOL    HW236213   4.116   3.313   0.296 -0.4898  0.8107  2.7117
 8251SOL     OW36214   3.951   4.498   0.981  0.4485 -0.4015  0.2141
 8251SOL    HW136215   3.863   4.461   0.971  1.2150 -1.9516 -0.7034
 8251SOL    HW236216   3.968   4.528   0.892  1.1450  0.7697  0.7343
 8252SOL     OW36217   0.899   3.528   6.617 -0.4830 -0.3154  0.2236
 8252SOL    HW136218   0.933   3.480   6.541  1.7522  0.6960  0.5867
 8252SOL    HW236219   0.865   3.458   6.673 -1.0889 -0.3872 -0.2222
 8253SOL     OW36220   2.328   3.953  17.502  0.0837 -0.6387 -0.3384
 8253SOL    HW136221   2.412   3.926  17.540 -0.1674  0.0387  0.7030
 8253SOL    HW236222   2.337   4.047  17.516 -0.5690 -0.7685  0.8896
 8254SOL     OW36223   3.922   3.005   4.666 -0.0371 -0.9152 -0.3291
 8254SOL    HW136224   3.966   3.005   4.751  0.6882 -0.1225 -0.7060
 8254SOL    HW236225   3.954   2.921   4.633 -1.4919  0.2096 -4.5320
 8255SOL     OW36226   1.383   2.801   7.434  0.0797  0.2323 -0.2471
 8255SOL    HW136227   1.355   2.859   7.506 -1.5313 -0.6568 -0.1606
 8255SOL    HW236228   1.326   2.846   7.372 -2.9905 -3.2664  0.0504
 8256SOL     OW36229   1.042   4.013  15.071  0.0011 -0.1351  0.6702
 8256SOL    HW136230   0.991   4.019  14.991  0.0766  2.8817  0.8675
 8256SOL    HW236231   1.079   3.925  15.062  0.6701  0.2915 -0.6133
 8257SOL     OW36232   1.687   2.439  10.193  0.1120  0.2558  0.3141
 8257SOL    HW136233   1.779   2.462  10.208  0.5999 -1.9907  0.9323
 8257SOL    HW236234   1.682   2.387  10.113 -0.3575  0.0332  0.4882
 8258SOL     OW36235   3.520   1.533  12.488  0.5751  0.3549 -0.2990
 8258SOL    HW136236   3.604   1.578  12.474 -0.7166  2.9391  0.4337
 8258SOL    HW236237   3.525   1.514  12.581 -3.2731  1.9796  0.2111
 8259SOL     OW36238   0.609   2.252  11.480 -0.2217  0.1213  0.2941
 8259SOL    HW136239   0.556   2.328  11.503 -0.0079  0.7379 -1.2413
 8259SOL    HW236240   0.547   2.182  11.462 -0.3827  0.6950 -1.3686
 8260SOL     OW36241   4.129   1.984   7.541  0.4307  0.1093 -0.3120
 8260SOL    HW136242   4.148   1.925   7.469  1.0818 -0.7471  0.5536
 8260SOL    HW236243   4.067   2.038   7.492  0.8918  1.1456  0.2319
 8261SOL     OW36244   3.653   4.269   0.511  0.0289  0.1954  0.3473
 8261SOL    HW136245   3.664   4.174   0.507 -1.5449 -0.0827  2.7157
 8261SOL    HW236246   3.739   4.304   0.485 -0.8885  2.6739  0.6610
 8262SOL     OW36247   0.427   1.382   0.869  0.0625  0.0873  0.7841
 8262SOL    HW136248   0.391   1.361   0.783  1.6038  0.2808  0.0972
 8262SOL    HW236249   0.352   1.355   0.922 -0.2693  1.5708  1.0629
 8263SOL     OW36250   2.358   3.976  10.252  0.0097  0.0558 -0.1179
 8263SOL    HW136251   2.353   4.030  10.331  1.2391 -0.3450  0.2310
 8263SOL    HW236252   2.282   4.004  10.201 -0.4929  1.5750  1.4643
 8264SOL     OW36253   2.668   2.196   4.691 -0.4892  0.5810  0.0593
 8264SOL    HW136254   2.706   2.114   4.661  0.4174  0.5988  1.2133
 8264SOL    HW236255   2.685   2.252   4.615  2.7158  0.5068  0.7299
 8265SOL     OW36256   1.665   3.874  16.439 -0.2803 -0.3330  0.0290
 8265SOL    HW136257   1.612   3.795  16.427 -0.6656  0.4248 -3.3827
 8265SOL    HW236258   1.668   3.868  16.534  1.1008 -1.1241 -0.0684
 8266SOL     OW36259   4.110   2.786   7.691  0.6067 -0.1471  0.4243
 8266SOL    HW136260   4.134   2.769   7.600  4.8133 -0.9848  1.6617
 8266SOL    HW236261   4.189   2.834   7.717 -0.2945 -0.5331  3.9764
 8267SOL     OW36262   4.422   4.693   2.541 -0.0072  0.0992  0.1808
 8267SOL    HW136263   4.449   4.659   2.456  0.6440  2.7945 -0.6832
 8267SOL    HW236264   4.504   0.018   2.552  1.1416 -1.4438 -1.6135
 8268SOL     OW36265   0.898   3.577   9.992  0.5318  0.0371  0.5491
 8268SOL    HW136266   0.963   3.645   9.975 -0.9233  1.4123  0.4851
 8268SOL    HW236267   0.886   3.591  10.086 -0.6858 -1.3893  0.6023
 8269SOL     OW36268   1.567   3.028   5.015  0.1828  0.2065 -0.0272
 8269SOL    HW136269   1.650   2.983   5.028 -0.5361 -1.0421  0.2911
 8269SOL    HW236270   1.560   3.068   5.101  0.5484 -2.2896  1.1678
 8270SOL     OW36271   0.985   2.396   1.169 -0.2828 -0.1078  0.2816
 8270SOL    HW136272   1.067   2.439   1.146 -0.5117 -0.6383 -1.5673
 8270SOL    HW236273   1.004   2.308   1.136 -3.4721 -0.0434 -1.7948
 8271SOL     OW36274   3.736   0.318   5.184 -0.1515 -0.2309  0.4774
 8271SOL    HW136275   3.693   0.392   5.225 -2.0723 -0.9847 -0.1706
 8271SOL    HW236276   3.814   0.362   5.149 -0.9663  0.9496  0.1594
 8272SOL     OW36277   3.488   3.978   1.884  0.3774 -0.3940  0.2198
 8272SOL    HW136278   3.580   4.002   1.900  0.0154 -0.1195  1.8759
 8272SOL    HW236279   3.453   4.052   1.934  1.0604 -1.7465  2.6900
 8273SOL     OW36280   2.349   2.769  10.634  0.0818  0.7068  0.2067
 8273SOL    HW136281   2.275   2.720  10.668  2.3944 -2.2772  0.9997
 8273SOL    HW236282   2.418   2.703  10.643  1.6915  2.3276 -0.2636
 8274SOL     OW36283   4.184   1.576  17.677  0.1970 -0.5224 -0.4309
 8274SOL    HW136284   4.185   1.634  17.600 -0.7208 -2.2678 -1.7572
 8274SOL    HW236285   4.108   1.522  17.660 -0.5680  0.0816  1.0512
 8275SOL     OW36286   1.624   3.844  16.728 -0.0710  0.0181 -0.1603
 8275SOL    HW136287   1.674   3.771  16.766  1.1231  0.3161 -1.1805
 8275SOL    HW236288   1.590   3.886  16.807  0.5218 -1.6213  0.9728
 8276SOL     OW36289   2.749   1.741   5.704 -0.3490 -0.1468 -0.5178
 8276SOL    HW136290   2.712   1.829   5.710 -1.5237 -0.8694  2.5597
 8276SOL    HW236291   2.703   1.703   5.629 -0.7070 -0.7347 -0.0037
 8277SOL     OW36292   1.085   4.019   6.841  0.0105 -0.2881 -0.2131
 8277SOL    HW136293   1.167   4.065   6.822 -0.0900 -1.1145 -2.6082
 8277SOL    HW236294   1.045   4.012   6.754  0.6703 -1.5255 -0.4090
 8278SOL     OW36295   0.922   0.955   6.834  0.0084 -0.1946 -0.1266
 8278SOL    HW136296   0.940   1.047   6.853  0.1135 -0.4540  1.0855
 8278SOL    HW236297   0.845   0.939   6.889  0.1122 -0.3025 -0.0110
 8279SOL     OW36298   1.419   2.555  15.474  0.1311 -0.1274 -0.0012
 8279SOL    HW136299   1.405   2.649  15.483  1.3764 -0.1660  2.1740
 8279SOL    HW236300   1.353   2.519  15.414 -0.2753 -0.9241  0.9187
 8280SOL     OW36301   3.311   0.314   8.231  0.2001  0.2531  0.4652
 8280SOL    HW136302   3.399   0.297   8.264  0.2059  3.5294  2.1120
 8280SOL    HW236303   3.252   0.276   8.297 -3.6209  1.7776 -2.0818
 8281SOL     OW36304   0.211   3.224   2.288  0.6036  0.0053 -0.1810
 8281SOL    HW136305   0.199   3.248   2.196 -1.3270 -1.5745 -0.3405
 8281SOL    HW236306   0.132   3.262   2.327 -0.2981  0.9726 -2.9521
 8282SOL     OW36307   2.332   2.259   6.261 -0.0872  0.1667  0.0123
 8282SOL    HW136308   2.270   2.219   6.200 -0.8588  3.2418 -1.2368
 8282SOL    HW236309   2.294   2.255   6.348  1.4528 -0.5526  0.6539
 8283SOL     OW36310   0.719   2.612   7.684 -0.5727 -0.3631  0.4257
 8283SOL    HW136311   0.810   2.592   7.663 -0.9508 -1.0221 -0.5520
 8283SOL    HW236312   0.723   2.708   7.684  1.2229 -0.4554 -1.0201
 8284SOL     OW36313   2.294   0.907   7.778 -0.1977  0.5604 -0.1710
 8284SOL    HW136314   2.254   0.988   7.808  0.6912  1.6489 -1.9105
 8284SOL    HW236315   2.387   0.924   7.790 -0.1483  0.2064 -0.0571
 8285SOL     OW36316   3.455   4.071  17.628  0.1806 -0.4907  0.3444
 8285SOL    HW136317   3.504   4.060   0.013 -0.2950 -3.2799  0.2616
 8285SOL    HW236318   3.519   4.116  17.573 -0.8465 -1.3217 -1.5069
 8286SOL     OW36319   4.194   1.200   4.360 -0.6091 -0.4852  0.4426
 8286SOL    HW136320   4.178   1.172   4.450  0.1805 -0.5010  0.5828
 8286SOL    HW236321   4.163   1.121   4.315  0.2988 -0.9962  0.7000
 8287SOL     OW36322   0.540   3.865   5.669 -0.7704 -0.0693  0.0077
 8287SOL    HW136323   0.556   3.952   5.631 -2.5017  0.0306 -0.4930
 8287SOL    HW236324   0.532   3.891   5.761 -0.1110  0.3404 -0.0514
 8288SOL     OW36325   2.510   0.204   6.117 -0.0794  0.2904  0.1360
 8288SOL    HW136326   2.456   0.271   6.160 -0.1645  1.1253 -1.2671
 8288SOL    HW236327   2.551   0.261   6.051 -1.0121  0.9608  0.1261
 8289SOL     OW36328   4.493   4.364   7.946  0.1413  0.2422 -0.0818
 8289SOL    HW136329   4.455   4.441   7.988  1.0377  1.7129 -1.9666
 8289SOL    HW236330   4.557   4.331   8.009 -1.4195 -2.8161 -0.0908
 8290SOL     OW36331   0.087   3.522   3.640  0.2329 -0.1441 -0.3396
 8290SOL    HW136332   0.150   3.583   3.600  0.6799  0.4585  1.2678
 8290SOL    HW236333   0.135   3.440   3.651  0.7649  0.1746 -0.2847
 8291SOL     OW36334   1.513   0.321   2.421  0.0612 -0.6008 -0.0666
 8291SOL    HW136335   1.443   0.297   2.481 -1.2243 -0.9256 -1.6939
 8291SOL    HW236336   1.532   0.229   2.403  0.3339 -0.3467 -1.0700
 8292SOL     OW36337   3.725   3.955   5.909 -0.2174 -0.3068 -0.1797
 8292SOL    HW136338   3.676   3.960   5.991  0.5651 -0.3801  0.3028
 8292SOL    HW236339   3.660   3.980   5.845  0.1424 -0.2675 -0.5288
 8293SOL     OW36340   1.237   2.069  15.199 -0.2089 -0.0663  0.1121
 8293SOL    HW136341   1.304   2.132  15.226 -0.4956 -0.0430  0.7543
 8293SOL    HW236342   1.281   2.014  15.134  0.4872  0.1440  0.4087
 8294SOL     OW36343   4.455   3.195  11.905  0.1022 -0.0754  0.1169
 8294SOL    HW136344   4.477   3.142  11.982  0.5901  2.5797  1.7779
 8294SOL    HW236345   4.392   3.136  11.862 -0.8067  1.4126 -0.5801
 8295SOL     OW36346   0.632   0.354   4.048 -0.3153 -0.1319 -0.4684
 8295SOL    HW136347   0.723   0.381   4.033 -0.5314 -0.3235 -2.1313
 8295SOL    HW236348   0.633   0.267   4.007 -0.2090  0.1990 -1.1657
 8296SOL     OW36349   2.374   3.309  17.514 -0.0053 -0.1229 -0.4621
 8296SOL    HW136350   2.421   3.368  17.574 -1.3175  0.3422  0.0936
 8296SOL    HW236351   2.351   3.240  17.576  0.1845  0.6730  0.4990
 8297SOL     OW36352   4.353   2.292   4.080  0.0861  0.9343 -0.5674
 8297SOL    HW136353   4.412   2.231   4.124 -1.3123 -1.2161 -1.6989
 8297SOL    HW236354   4.281   2.236   4.054  1.2875  0.5097 -2.9450
 8298SOL     OW36355   0.348   4.537   7.181  0.1665 -0.5123  0.1669
 8298SOL    HW136356   0.283   4.548   7.112  1.7903 -1.9626 -1.5602
 8298SOL    HW236357   0.305   4.569   7.261  0.8861  2.0118 -0.4576
 8299SOL     OW36358   3.679   2.594   2.762  0.2449 -0.3404 -0.3354
 8299SOL    HW136359   3.716   2.655   2.699 -1.7527  2.0316  0.7801
 8299SOL    HW236360   3.591   2.586   2.725  1.1017 -0.2946 -2.4047
 8300SOL     OW36361   1.521   3.882   3.428  0.3799 -0.2893 -0.1302
 8300SOL    HW136362   1.576   3.825   3.482  1.2402  2.1444  1.5501
 8300SOL    HW236363   1.446   3.825   3.413 -1.0571  1.5881 -0.0448
 8301SOL     OW36364   4.638   1.074   3.366 -0.4370 -0.8479 -0.0509
 8301SOL    HW136365   4.581   1.150   3.353 -0.4666 -1.0469 -1.0857
 8301SOL    HW236366   4.724   1.100   3.332  0.6840 -0.7902  2.7953
 8302SOL     OW36367   2.778   3.830   7.778 -0.5783  0.4376 -0.5579
 8302SOL    HW136368   2.770   3.926   7.783  0.4555  0.4417  1.0483
 8302SOL    HW236369   2.855   3.819   7.834 -1.5367  0.3394  0.7241
 8303SOL     OW36370   3.025   3.023   4.991 -0.3267 -0.1979  0.2004
 8303SOL    HW136371   3.014   3.026   4.896  2.1203 -1.2633 -0.0956
 8303SOL    HW236372   3.040   3.115   5.015 -1.6836  0.2102 -0.4816
 8304SOL     OW36373   0.965   0.937   3.114  0.3951  0.2434 -0.2577
 8304SOL    HW136374   1.013   0.970   3.038 -1.5226 -0.1020 -1.6286
 8304SOL    HW236375   0.900   1.006   3.131 -0.1688 -0.3131 -0.1534
 8305SOL     OW36376   1.515   4.368   3.557  0.0467  0.2211 -0.0517
 8305SOL    HW136377   1.562   4.405   3.632  0.7129  1.6749 -1.1839
 8305SOL    HW236378   1.585   4.377   3.492  0.5962 -0.3334  0.4614
 8306SOL     OW36379   4.663   2.649   8.656  0.8591 -0.0395  0.0835
 8306SOL    HW136380   4.715   2.668   8.734 -1.0280 -0.4554  1.4289
 8306SOL    HW236381   0.002   2.686   8.594 -1.0586 -1.4133 -2.6563
 8307SOL     OW36382   3.120   2.918   4.200 -0.3802  0.0255 -0.5307
 8307SOL    HW136383   3.153   2.861   4.131  0.0105 -0.4309  0.0425
 8307SOL    HW236384   3.193   2.980   4.191 -0.8729  0.7714  0.7349
 8308SOL     OW36385   4.332   0.562   6.787  0.4158 -0.2435 -0.3821
 8308SOL    HW136386   4.423   0.540   6.808 -0.6065 -2.1845  2.0205
 8308SOL    HW236387   4.346   0.619   6.712  1.3131  2.4680  1.8151
 8309SOL     OW36388   1.992   4.553   2.125  0.0212 -0.2349  0.6892
 8309SOL    HW136389   1.914   4.567   2.072 -2.0476 -2.0935  3.2336
 8309SOL    HW236390   2.032   4.640   2.117  1.3019 -0.8534  0.4535
 8310SOL     OW36391   3.549   4.401   2.048  0.1233  0.4079  0.3166
 8310SOL    HW136392   3.514   4.471   1.993 -0.7953  0.2617  0.7109
 8310SOL    HW236393   3.552   4.329   1.985  2.2733  1.1123 -0.3898
 8311SOL     OW36394   1.127   1.865   3.141 -0.1795 -0.3740  0.3840
 8311SOL    HW136395   1.217   1.883   3.168 -1.1565  1.7836  2.1848
 8311SOL    HW236396   1.108   1.797   3.205 -1.7974  0.9202  1.2974
 8312SOL     OW36397   1.372   4.108   7.380  0.1570  0.2040 -0.2820
 8312SOL    HW136398   1.457   4.075   7.410 -0.2088 -0.3918  0.0978
 8312SOL    HW236399   1.314   4.110   7.456  1.3687 -1.8200  0.7141
 8313SOL     OW36400   3.261   4.695   1.144 -0.1311 -0.5493  0.2683
 8313SOL    HW136401   3.286   0.055   1.105 -0.2157 -0.3740  0.5830
 8313SOL    HW236402   3.217   4.646   1.075  0.2460 -1.3433  0.5881
 8314SOL     OW36403   1.744   0.416  13.006  0.3190 -0.1681 -0.3691
 8314SOL    HW136404   1.727   0.492  13.061 -0.6102 -1.3510  1.0110
 8314SOL    HW236405   1.794   0.445  12.931 -2.3789  2.2362 -1.2392
 8315SOL     OW36406   4.692   0.701   4.126  0.3137  0.6248  0.5241
 8315SOL    HW136407   4.711   0.780   4.075 -1.7136  1.1584  0.5869
 8315SOL    HW236408   4.659   0.738   4.208 -2.5241 -0.7186 -0.0214
 8316SOL     OW36409   1.301   2.684   2.588 -0.3355 -0.1148  0.4543
 8316SOL    HW136410   1.376   2.654   2.640  0.0161  0.7499  0.4463
 8316SOL    HW236411   1.245   2.607   2.595 -0.2172 -0.2210  0.2036
 8317SOL     OW36412   3.721   1.136  11.939  0.2746 -0.5573  0.8744
 8317SOL    HW136413   3.636   1.093  11.952  0.6398 -1.9560 -1.4344
 8317SOL    HW236414   3.721   1.125  11.844 -0.2715 -0.7531  0.8919
 8318SOL     OW36415   1.927   2.755   5.892 -0.1713 -0.6180 -0.0336
 8318SOL    HW136416   1.980   2.677   5.914 -0.0496 -1.0888 -2.0286
 8318SOL    HW236417   1.929   2.745   5.797  0.7059  0.2617 -0.1057
 8319SOL     OW36418   4.699   2.907   3.561 -0.2769 -0.2840  0.0034
 8319SOL    HW136419   4.718   2.850   3.487 -0.5962  0.5999 -0.7587
 8319SOL    HW236420   4.606   2.896   3.582  0.1559  1.9360  3.2825
 8320SOL     OW36421   1.033   1.552  10.108  0.0129 -0.3047  0.4075
 8320SOL    HW136422   1.075   1.556  10.022  3.6842  2.3572  2.3070
 8320SOL    HW236423   1.100   1.583  10.169 -0.2094 -0.2318  0.6151
 8321SOL     OW36424   4.088   4.525   0.706 -0.1292  0.1692  0.0531
 8321SOL    HW136425   4.122   4.612   0.728 -1.8944  0.3099  2.2426
 8321SOL    HW236426   4.157   4.493   0.649 -1.9992 -1.5430 -1.2276
 8322SOL     OW36427   1.054   0.902   2.272 -0.2458 -0.0769 -0.0431
 8322SOL    HW136428   1.083   0.969   2.211 -0.0104 -0.6224 -0.5381
 8322SOL    HW236429   1.108   0.928   2.347  0.5981 -0.2089 -0.5972
 8323SOL     OW36430   4.626   0.011  11.170  0.3042  0.2863  0.7458
 8323SOL    HW136431   4.701   0.066  11.193  0.2427 -0.7330  3.3734
 8323SOL    HW236432   4.651   4.654  11.214 -0.2581  0.4741  1.3953
 8324SOL     OW36433   3.523   1.452  14.176  0.3969  0.0266  0.3676
 8324SOL    HW136434   3.610   1.437  14.138  1.0587  0.7549  1.6170
 8324SOL    HW236435   3.514   1.377  14.235  0.7454 -0.0446  0.3284
 8325SOL     OW36436   2.879   3.021  15.953 -0.0656  0.6222 -0.1269
 8325SOL    HW136437   2.815   2.965  15.910  0.7489  0.3656 -0.9928
 8325SOL    HW236438   2.944   3.042  15.886  1.1021 -1.8533  0.2584
 8326SOL     OW36439   2.431   4.105   4.825  0.1715  0.1470 -0.2717
 8326SOL    HW136440   2.421   4.086   4.919  1.5917  1.3229  0.1176
 8326SOL    HW236441   2.526   4.102   4.814  0.1953 -2.1136  0.6815
 8327SOL     OW36442   2.663   0.328   4.035  0.4634 -0.5596 -0.2107
 8327SOL    HW136443   2.695   0.380   4.109  0.1701  0.8751 -1.0912
 8327SOL    HW236444   2.708   0.386   3.974 -2.5799  1.0993 -0.8896
 8328SOL     OW36445   4.475   2.999   7.887 -0.3107  0.2397  0.0904
 8328SOL    HW136446   4.423   2.935   7.935 -2.7852  0.5321 -2.1468
 8328SOL    HW236447   4.563   2.976   7.915 -1.7436 -0.0151  4.2542
 8329SOL     OW36448   3.040   2.993  13.846 -0.3652 -0.2242 -0.1648
 8329SOL    HW136449   3.012   3.031  13.763 -2.4346  2.3981  1.7441
 8329SOL    HW236450   3.115   3.047  13.872  0.0894 -1.2072  0.6137
 8330SOL     OW36451   3.239   1.631   2.225  0.1768  1.2958  0.3012
 8330SOL    HW136452   3.171   1.664   2.284  1.7735  3.4432  0.9184
 8330SOL    HW236453   3.306   1.699   2.228  1.7456 -0.2849  0.5639
 8331SOL     OW36454   0.982   0.730   9.842  0.0623  0.3114 -0.2945
 8331SOL    HW136455   1.066   0.755   9.803  1.8207 -0.8155  2.7822
 8331SOL    HW236456   0.927   0.703   9.768 -0.2074  1.2177 -0.4232
 8332SOL     OW36457   0.324   1.572   9.820 -0.7380 -0.1089  0.3315
 8332SOL    HW136458   0.243   1.573   9.871 -0.6970 -0.0440  0.3960
 8332SOL    HW236459   0.369   1.507   9.874 -0.9551  2.1849  3.2491
 8333SOL     OW36460   3.096   0.367   7.914 -0.0560 -0.1549 -0.0368
 8333SOL    HW136461   3.072   0.293   7.858  0.8484  2.3170 -3.7109
 8333SOL    HW236462   3.017   0.377   7.967 -0.0897  1.0872 -0.3321
 8334SOL     OW36463   1.015   2.204   2.263  0.0055  0.2232  0.1437
 8334SOL    HW136464   0.981   2.121   2.229  1.7548  0.3020 -1.7790
 8334SOL    HW236465   1.048   2.176   2.348  3.0553 -0.5144 -1.2715
 8335SOL     OW36466   2.026   4.097   3.884 -0.2988  0.1477  0.3428
 8335SOL    HW136467   2.039   4.114   3.977  2.3797  0.8005 -0.1497
 8335SOL    HW236468   1.933   4.117   3.874  0.0801  1.4179 -0.6902
 8336SOL     OW36469   1.971   0.078   7.281 -0.4699  0.4517 -0.3511
 8336SOL    HW136470   1.942   0.162   7.314  0.1550 -0.1647  1.7314
 8336SOL    HW236471   1.888   0.034   7.264 -0.7556  1.0677 -0.5485
 8337SOL     OW36472   2.486   2.266   4.042  0.1052  0.2620 -0.7540
 8337SOL    HW136473   2.507   2.358   4.027  1.0091  0.1721 -0.0010
 8337SOL    HW236474   2.529   2.231   3.964  1.0238 -0.8325  0.2480
 8338SOL     OW36475   3.080   1.104   6.762  0.1918 -0.3467 -0.1012
 8338SOL    HW136476   3.088   1.019   6.719  0.7870 -0.4483  0.2039
 8338SOL    HW236477   3.130   1.085   6.842  0.7842  0.1693 -0.3523
 8339SOL     OW36478   3.311   1.862   1.449 -0.5357 -0.1249 -0.2476
 8339SOL    HW136479   3.361   1.940   1.426 -3.3553  1.2976 -1.4940
 8339SOL    HW236480   3.357   1.832   1.528  2.4644  4.3659 -0.2531
 8340SOL     OW36481   3.108   3.403  11.542 -0.1505 -0.0123 -0.0213
 8340SOL    HW136482   3.200   3.409  11.516  0.3607 -3.3080  1.0264
 8340SOL    HW236483   3.069   3.415  11.455  2.7038  0.5745 -1.2176
 8341SOL     OW36484   1.032   3.856  16.208  0.2506  0.2956  0.5805
 8341SOL    HW136485   1.048   3.940  16.165 -0.9792 -0.8594 -2.1202
 8341SOL    HW236486   1.046   3.878  16.301 -1.1762  2.4374  0.2905
 8342SOL     OW36487   3.315   3.330  13.715  0.3869  0.2066 -0.0954
 8342SOL    HW136488   3.338   3.405  13.660  3.1064 -0.9559 -0.5682
 8342SOL    HW236489   3.355   3.259  13.665  1.5216  1.5662 -1.1138
 8343SOL     OW36490   3.655   4.275   6.221  0.0718  0.6144 -0.0439
 8343SOL    HW136491   3.601   4.200   6.192 -1.0187  1.3048  0.2106
 8343SOL    HW236492   3.675   4.319   6.138  3.1115 -1.0127 -0.1735
 8344SOL     OW36493   0.968   0.067   9.128 -0.2162  0.3580 -0.1127
 8344SOL    HW136494   1.029   0.026   9.189 -3.0898 -2.1782  0.9869
 8344SOL    HW236495   1.015   0.082   9.046  0.2289 -0.4225  0.0072
 8345SOL     OW36496   3.501   0.248   6.656 -0.2217 -0.9617 -0.5047
 8345SOL    HW136497   3.446   0.313   6.613 -0.8000 -0.7938  0.5008
 8345SOL    HW236498   3.461   0.164   6.634 -0.5913 -0.6381 -1.0716
 8346SOL     OW36499   3.341   3.508   6.940 -0.3943 -0.5637 -0.4666
 8346SOL    HW136500   3.313   3.462   6.861 -1.9743  2.4366 -1.6591
 8346SOL    HW236501   3.414   3.448   6.951 -0.0462 -0.4309 -1.9275
 8347SOL     OW36502   2.106   4.000   5.226  0.4044 -0.0533 -0.5724
 8347SOL    HW136503   2.158   4.059   5.281  0.7172  0.5494 -1.5183
 8347SOL    HW236504   2.023   4.046   5.222  0.2348 -0.3343 -0.3234
 8348SOL     OW36505   2.076   3.230  14.905 -0.3484  0.7061 -0.3369
 8348SOL    HW136506   2.015   3.245  14.832 -3.3739 -0.8594  1.8993
 8348SOL    HW236507   2.055   3.139  14.926  1.5025  0.2583 -0.4709
 8349SOL     OW36508   3.764   3.245   7.346 -0.1441  0.2647 -0.3142
 8349SOL    HW136509   3.838   3.282   7.394 -0.4181 -1.3309  1.3239
 8349SOL    HW236510   3.696   3.312   7.357  0.2208  1.0605 -2.8005
 8350SOL     OW36511   0.659   4.237   8.594 -0.1760  0.0190 -0.2390
 8350SOL    HW136512   0.631   4.313   8.646  0.4115  1.2831 -1.7560
 8350SOL    HW236513   0.754   4.243   8.607 -0.3136  0.9821  0.3977
 8351SOL     OW36514   3.523   2.823  13.537 -0.6045  0.5293  0.1243
 8351SOL    HW136515   3.430   2.805  13.524 -0.6376 -0.2002  1.4372
 8351SOL    HW236516   3.545   2.749  13.592 -1.5395 -0.0075 -0.2200
 8352SOL     OW36517   2.393   2.933   3.073 -0.7215  0.5910  0.3713
 8352SOL    HW136518   2.408   3.014   3.025  1.7549 -0.6579 -0.9248
 8352SOL    HW236519   2.464   2.878   3.040  0.8265  1.6355  1.9241
 8353SOL     OW36520   4.337   3.102   9.734 -0.3925 -0.0483  0.1120
 8353SOL    HW136521   4.412   3.068   9.687  0.2898 -0.2700  1.3657
 8353SOL    HW236522   4.371   3.167   9.796 -0.9118  1.4100 -1.1346
 8354SOL     OW36523   4.208   4.366   9.535 -0.8167 -0.0068 -0.7958
 8354SOL    HW136524   4.158   4.315   9.471 -1.2196 -2.4013  1.3884
 8354SOL    HW236525   4.178   4.454   9.515  0.2955  0.5140 -0.1752
 8355SOL     OW36526   0.976   3.472  15.321 -0.2769  0.5068 -0.4570
 8355SOL    HW136527   0.933   3.515  15.248  0.6214  0.4581 -1.0207
 8355SOL    HW236528   0.941   3.511  15.400  3.7237  1.0481  1.0565
 8356SOL     OW36529   0.372   1.552   6.107  0.3548 -0.1625  0.6182
 8356SOL    HW136530   0.409   1.472   6.070  0.8619 -0.7810  2.4680
 8356SOL    HW236531   0.304   1.513   6.162  0.7889 -1.8681 -0.0706
 8357SOL     OW36532   3.310   0.855   4.324  0.3778 -0.7797 -0.3204
 8357SOL    HW136533   3.399   0.864   4.360  0.6432 -2.3654 -0.5690
 8357SOL    HW236534   3.330   0.796   4.251  2.8268  0.0606 -0.3492
 8358SOL     OW36535   1.910   3.122   0.364  0.4248 -0.0210 -0.1945
 8358SOL    HW136536   1.920   3.033   0.398  0.1438 -0.2193 -0.6304
 8358SOL    HW236537   1.938   3.097   0.276 -1.2030  0.5292 -0.8561
 8359SOL     OW36538   0.743   4.221  16.057 -0.2840  0.5930 -0.0217
 8359SOL    HW136539   0.799   4.245  15.984  1.7557 -0.0162  1.3130
 8359SOL    HW236540   0.710   4.309  16.073  1.3142  1.2842 -0.6077
 8360SOL     OW36541   2.176   1.646   5.032  0.7235  0.1250 -0.4474
 8360SOL    HW136542   2.212   1.654   5.121  0.1217  0.3239 -0.2227
 8360SOL    HW236543   2.098   1.591   5.037 -0.3819  1.8279  1.1717
 8361SOL     OW36544   0.299   1.848   3.837  0.5999 -0.0224 -0.3476
 8361SOL    HW136545   0.329   1.930   3.797 -1.4394  0.4630 -0.8830
 8361SOL    HW236546   0.257   1.878   3.917  0.1695 -0.8469 -0.2605
 8362SOL     OW36547   0.222   1.992   4.076 -0.2834  0.0864 -0.4507
 8362SOL    HW136548   0.189   2.038   4.153  1.6175  1.3851 -0.4067
 8362SOL    HW236549   0.229   1.902   4.107  1.3599  0.4277  0.1930
 8363SOL     OW36550   0.987   0.156  16.117 -0.3624 -0.0832  0.3294
 8363SOL    HW136551   0.913   0.196  16.163  0.9024 -1.0702  3.2280
 8363SOL    HW236552   0.962   0.195  16.033  3.3719 -1.2834 -1.3318
 8364SOL     OW36553   3.322   3.733   6.551  0.3070  0.1447  0.5122
 8364SOL    HW136554   3.318   3.719   6.456 -0.4072 -0.7369  0.6746
 8364SOL    HW236555   3.231   3.756   6.571  0.3491  0.6759  0.0878
 8365SOL     OW36556   2.213   3.028  16.118 -0.4024  0.2369 -0.2252
 8365SOL    HW136557   2.170   3.107  16.084  0.1774  0.4843 -0.3897
 8365SOL    HW236558   2.295   3.067  16.148  0.6462 -2.7568  0.6854
 8366SOL     OW36559   2.058   0.097   5.579 -0.0229 -0.6489 -0.1199
 8366SOL    HW136560   2.077   0.190   5.590 -2.7823  0.1232 -1.7552
 8366SOL    HW236561   2.143   0.060   5.602  1.1308  0.9697 -1.7505
 8367SOL     OW36562   3.227   0.693   6.279  0.2955 -0.5674 -0.2551
 8367SOL    HW136563   3.270   0.715   6.196  2.8789 -0.2292  1.1772
 8367SOL    HW236564   3.303   0.704   6.336  1.0176  2.3651 -1.7920
 8368SOL     OW36565   0.144   0.059   0.685 -0.2523  0.1448 -0.5611
 8368SOL    HW136566   0.201   0.130   0.656  0.9321  0.0174  1.4640
 8368SOL    HW236567   0.199   4.721   0.733  1.4329  2.1145  0.0640
 8369SOL     OW36568   3.015   0.515   9.933  0.3347  0.0347 -0.5390
 8369SOL    HW136569   3.094   0.550   9.893  0.2718 -0.8716 -1.4517
 8369SOL    HW236570   3.054   0.481  10.014 -0.0311 -0.9289 -0.7705
 8370SOL     OW36571   1.180   2.150  16.527 -0.1427 -0.1621 -0.2300
 8370SOL    HW136572   1.147   2.235  16.499 -0.6988  0.6218  2.8519
 8370SOL    HW236573   1.274   2.167  16.526 -0.0329 -0.6781  2.1540
 8371SOL     OW36574   1.482   2.626   2.147 -0.0706  0.7107 -0.5143
 8371SOL    HW136575   1.390   2.604   2.157  0.3838 -0.3839  1.2920
 8371SOL    HW236576   1.475   2.719   2.127  0.1638  1.0585  0.9878
 8372SOL     OW36577   2.475   0.479   3.254 -0.2148  0.3448 -0.1800
 8372SOL    HW136578   2.395   0.433   3.278  0.8274 -2.0704 -1.3557
 8372SOL    HW236579   2.507   0.496   3.343  2.7829 -0.0265 -1.1881
 8373SOL     OW36580   1.451   1.455   9.594  0.0460  0.1044 -0.3593
 8373SOL    HW136581   1.379   1.516   9.612  0.1138 -0.1128  0.6617
 8373SOL    HW236582   1.401   1.382   9.558  1.5072 -2.6070  3.1981
 8374SOL     OW36583   0.141   0.803   1.718  0.1474  0.1289 -0.2528
 8374SOL    HW136584   0.184   0.881   1.752  0.1711 -0.1426  0.3348
 8374SOL    HW236585   0.071   0.793   1.782  0.8058  2.1150  0.7685
 8375SOL     OW36586   3.787   3.276   9.380  0.0095  0.9924  0.5729
 8375SOL    HW136587   3.735   3.258   9.458  2.2547  0.5066  1.9391
 8375SOL    HW236588   3.791   3.189   9.340 -2.9341  1.0635  0.0659
 8376SOL     OW36589   1.136   4.063   4.093  0.1222  0.3476  0.1287
 8376SOL    HW136590   1.229   4.085   4.086  0.1186 -0.5799 -2.8060
 8376SOL    HW236591   1.144   3.981   4.142 -2.2534 -1.5257 -2.6374
 8377SOL     OW36592   3.245   1.244   8.029 -0.0776 -0.2932 -0.0787
 8377SOL    HW136593   3.255   1.337   8.050 -1.3768  0.0647 -1.1201
 8377SOL    HW236594   3.151   1.229   8.036 -0.6213  2.7496 -1.2967
 8378SOL     OW36595   0.677   2.438   2.957 -0.7814 -0.6226 -0.0904
 8378SOL    HW136596   0.682   2.509   3.021  1.2316 -1.1738  0.3666
 8378SOL    HW236597   0.621   2.373   2.999 -1.6081 -0.2986 -0.6703
 8379SOL     OW36598   2.375   0.760   3.000  0.0442  0.0303 -0.0722
 8379SOL    HW136599   2.391   0.854   3.007 -2.0654  0.4058 -0.2338
 8379SOL    HW236600   2.453   0.734   2.952 -0.0899  0.3154 -0.4516
 8380SOL     OW36601   2.574   4.160   0.373  0.2088  0.0450 -0.1132
 8380SOL    HW136602   2.573   4.097   0.301 -0.1799  0.4101 -0.4258
 8380SOL    HW236603   2.494   4.210   0.362  0.0973 -0.2507 -0.6796
 8381SOL     OW36604   2.605   3.934   1.921 -0.1239 -0.6691 -0.2329
 8381SOL    HW136605   2.637   3.991   1.851 -1.6443 -0.1968 -0.5419
 8381SOL    HW236606   2.522   3.980   1.928 -1.3791 -3.1449  1.0263
 8382SOL     OW36607   3.089   4.698   7.465 -0.8225  0.4071  0.6871
 8382SOL    HW136608   3.164   4.640   7.463 -0.2491  1.2191 -1.1146
 8382SOL    HW236609   3.026   4.635   7.499 -1.6019  1.5695  1.4167
 8383SOL     OW36610   4.107   1.889   5.581 -0.5430 -0.1122  0.2879
 8383SOL    HW136611   4.179   1.952   5.583 -0.4433 -0.0948 -2.7788
 8383SOL    HW236612   4.031   1.946   5.592 -0.9991 -1.1898  2.6395
 8384SOL     OW36613   3.070   4.172   4.112  0.4368  0.2645  0.1029
 8384SOL    HW136614   3.094   4.164   4.019 -1.6091  1.4202 -0.5094
 8384SOL    HW236615   3.146   4.194   4.166 -1.0660  0.3870  2.1427
 8385SOL     OW36616   4.450   1.634   8.849 -0.2498  0.0362 -0.3328
 8385SOL    HW136617   4.384   1.627   8.918 -1.2024  1.3234 -1.1229
 8385SOL    HW236618   4.518   1.671   8.905  1.3328  0.5358 -2.5939
 8386SOL     OW36619   3.046   0.415   3.046 -0.5466  0.3703 -0.0821
 8386SOL    HW136620   3.129   0.409   3.000 -1.9510 -0.3397 -2.5218
 8386SOL    HW236621   2.988   0.386   2.975 -2.0978  1.7025  0.6369
 8387SOL     OW36622   0.147   4.409   1.508  0.4030 -0.4447 -0.3072
 8387SOL    HW136623   0.172   4.325   1.471  3.1580 -0.5528  1.7984
 8387SOL    HW236624   0.093   4.436   1.434  0.0922  1.3824  0.5698
 8388SOL     OW36625   3.553   2.388   3.031 -0.0324  0.1779  0.4532
 8388SOL    HW136626   3.485   2.371   2.966  0.2675  0.1787  0.1413
 8388SOL    HW236627   3.514   2.453   3.090 -2.2670  0.7387 -1.6386
 8389SOL     OW36628   3.911   2.447   4.590  0.1995 -0.0403  0.7166
 8389SOL    HW136629   3.942   2.359   4.608 -1.7483 -0.8306  0.1358
 8389SOL    HW236630   3.865   2.437   4.507  0.9790 -2.0431  0.5290
 8390SOL     OW36631   2.385   4.686   7.837 -0.4353 -0.0455  0.9467
 8390SOL    HW136632   2.293   4.671   7.815 -0.3619  1.5606 -0.4921
 8390SOL    HW236633   2.396   4.647   7.924 -1.7532  0.4933  1.3474
 8391SOL     OW36634   1.053   1.252   7.665 -0.2377  0.3322  0.0657
 8391SOL    HW136635   1.117   1.200   7.712 -0.2817  0.2829  0.0714
 8391SOL    HW236636   1.118   1.307   7.622  1.6130 -0.6937  1.5995
 8392SOL     OW36637   2.228   2.965   5.731  0.1042 -0.5715 -0.1022
 8392SOL    HW136638   2.263   2.945   5.818 -1.0282  0.1085  0.4978
 8392SOL    HW236639   2.181   3.048   5.731 -0.4717 -0.9049  0.4131
 8393SOL     OW36640   4.052   3.138   5.908 -0.3022  0.2566  0.5221
 8393SOL    HW136641   4.128   3.168   5.957 -2.0643  1.9653  2.1906
 8393SOL    HW236642   3.988   3.139   5.979  0.5783 -1.0105  1.3353
 8394SOL     OW36643   1.945   4.493   5.517 -0.3861 -0.3021 -0.0598
 8394SOL    HW136644   2.000   4.568   5.495 -0.7794  0.2465  0.8191
 8394SOL    HW236645   1.966   4.436   5.443 -2.0510 -1.6441  0.5214
 8395SOL     OW36646   1.852   1.812   2.247  0.0465 -0.0585  0.5448
 8395SOL    HW136647   1.777   1.843   2.298  0.6296  1.6353  0.3892
 8395SOL    HW236648   1.921   1.867   2.285  0.9994 -1.0612  0.2863
 8396SOL     OW36649   3.640   3.186   7.112 -0.1689 -0.2378  0.2208
 8396SOL    HW136650   3.682   3.219   7.191  2.8715  0.2285 -1.5711
 8396SOL    HW236651   3.663   3.248   7.043  1.1311  0.2923  1.1295
 8397SOL     OW36652   1.753   2.295   2.223  0.3581 -0.7400  0.0937
 8397SOL    HW136653   1.679   2.268   2.168  0.1728 -1.1910  0.5609
 8397SOL    HW236654   1.814   2.223   2.204 -1.3193 -2.9664  3.0969
 8398SOL     OW36655   0.309   0.097  13.726 -0.1094 -0.0048  0.3224
 8398SOL    HW136656   0.395   0.131  13.702  0.3127 -2.8816 -2.2496
 8398SOL    HW236657   0.301   0.048  13.644  2.5410  1.4619 -0.8174
 8399SOL     OW36658   0.576   1.245   4.217 -0.2218 -0.7454 -0.1686
 8399SOL    HW136659   0.571   1.171   4.156  1.1288 -0.8920 -0.0951
 8399SOL    HW236660   0.516   1.306   4.173  0.2684 -1.0163 -1.2053
 8400SOL     OW36661   4.625   4.313   2.457 -0.0900  1.0523  0.8590
 8400SOL    HW136662   4.693   4.381   2.465 -1.3987  2.4299  0.2869
 8400SOL    HW236663   4.612   4.330   2.364  1.5768 -0.5620  0.3401
 8401SOL     OW36664   0.791   0.674   4.206  0.3819 -0.1641  0.1327
 8401SOL    HW136665   0.866   0.615   4.193  0.3568  0.1404 -1.3513
 8401SOL    HW236666   0.774   0.668   4.300 -0.4741  1.2195  0.0616
 8402SOL     OW36667   3.861   1.132  16.527  0.3201  0.4791 -0.0506
 8402SOL    HW136668   3.818   1.059  16.572 -1.5142 -0.2216 -2.9202
 8402SOL    HW236669   3.847   1.202  16.591  1.5468  1.8635 -1.2900
 8403SOL     OW36670   1.669   4.093   6.300 -0.2267 -0.2004 -0.2261
 8403SOL    HW136671   1.640   4.102   6.209  1.5705  0.5833 -0.7057
 8403SOL    HW236672   1.647   4.178   6.338  1.8620  0.8675 -1.4413
 8404SOL     OW36673   3.241   0.313  10.636  1.0008  0.2403  0.1606
 8404SOL    HW136674   3.228   0.396  10.591  0.8912 -0.5032 -1.2087
 8404SOL    HW236675   3.308   0.344  10.696 -0.6646  1.2302  1.5158
 8405SOL     OW36676   1.566   1.040   7.179 -0.0807  0.2308  0.5065
 8405SOL    HW136677   1.472   1.059   7.176  0.5628  3.3550  0.0447
 8405SOL    HW236678   1.595   1.121   7.137  1.1886 -1.5230 -1.9385
 8406SOL     OW36679   3.097   4.465  17.332 -0.4302 -0.2485  0.2260
 8406SOL    HW136680   3.018   4.444  17.381 -0.7360  1.8356  0.6193
 8406SOL    HW236681   3.149   4.503  17.404 -1.1438  1.0028  0.0818
 8407SOL     OW36682   4.640   3.382   5.035 -0.1774 -0.4188 -0.3086
 8407SOL    HW136683   4.661   3.416   5.122 -0.8744  0.4725 -0.4899
 8407SOL    HW236684   4.545   3.383   5.033 -0.1876 -0.8487 -0.0879
 8408SOL     OW36685   4.619   0.508   7.840 -0.2547  0.2002  1.2245
 8408SOL    HW136686   4.606   0.435   7.779  1.0079  0.7852  0.2525
 8408SOL    HW236687   4.709   0.532   7.818 -0.4636 -0.1601 -0.0214
 8409SOL     OW36688   2.284   3.195   8.274 -0.4856 -0.1707  0.2055
 8409SOL    HW136689   2.197   3.178   8.237 -0.8601 -1.2094  1.5639
 8409SOL    HW236690   2.345   3.160   8.209  1.2437  1.6546  0.8353
 8410SOL     OW36691   3.580   0.975   4.034 -0.0298  0.0412  0.3288
 8410SOL    HW136692   3.632   0.971   4.114 -1.2558 -0.8680  1.0761
 8410SOL    HW236693   3.549   0.885   4.031  0.9748 -0.3058  0.4509
 8411SOL     OW36694   3.939   4.548   7.259  0.0386  0.5295 -0.0767
 8411SOL    HW136695   3.870   4.611   7.237 -0.0676  0.6423  0.5591
 8411SOL    HW236696   3.891   4.467   7.273  1.4497 -0.1933  0.5658
 8412SOL     OW36697   1.258   0.236   3.631 -0.2731 -0.0641  0.8178
 8412SOL    HW136698   1.210   0.157   3.656  1.1473 -2.1646 -3.0183
 8412SOL    HW236699   1.274   0.268   3.719 -1.0989 -0.9883  1.3053
 8413SOL     OW36700   3.383   1.333   5.713 -0.6905  0.2186 -0.4979
 8413SOL    HW136701   3.428   1.314   5.631  1.6926 -0.8384  1.0502
 8413SOL    HW236702   3.446   1.299   5.776 -1.9507  0.6907  1.0261
 8414SOL     OW36703   0.383   1.253   5.951  0.2417 -0.0203 -0.4057
 8414SOL    HW136704   0.460   1.199   5.970 -0.7630 -1.1841  0.3994
 8414SOL    HW236705   0.401   1.301   5.870  2.1478 -1.2691 -0.7336
 8415SOL     OW36706   3.019   0.370   7.190  0.4813  0.1412 -0.2469
 8415SOL    HW136707   3.066   0.409   7.264  0.0169  0.4292 -0.1076
 8415SOL    HW236708   2.985   0.451   7.151  0.2947 -0.9646 -2.4074
 8416SOL     OW36709   2.821   1.453   9.363  0.5340  0.7547  0.1151
 8416SOL    HW136710   2.910   1.479   9.387  0.9934 -1.7811  1.1840
 8416SOL    HW236711   2.820   1.373   9.416  0.4590  0.4269 -0.3757
 8417SOL     OW36712   3.182   3.130   3.930 -0.3250  0.0893 -0.3246
 8417SOL    HW136713   3.190   3.167   4.017 -0.2469 -0.4285 -0.1076
 8417SOL    HW236714   3.267   3.160   3.897  0.3225 -1.6767 -0.2859
 8418SOL     OW36715   2.338   3.777   1.520 -0.2323  0.3192  0.0089
 8418SOL    HW136716   2.408   3.842   1.525 -0.4955  0.4388  2.0889
 8418SOL    HW236717   2.339   3.752   1.612 -0.2747 -0.8452 -0.2962
 8419SOL     OW36718   2.106   4.452   3.967 -0.0684  0.2552 -0.3333
 8419SOL    HW136719   2.158   4.484   3.894  0.6159  2.0481  0.9402
 8419SOL    HW236720   2.053   4.529   3.988  0.6233  0.5546  0.3135
 8420SOL     OW36721   1.219   0.537  11.461  0.2911 -0.0572  0.3758
 8420SOL    HW136722   1.171   0.592  11.522  1.1442 -0.3785  1.3457
 8420SOL    HW236723   1.182   0.449  11.467  2.4326 -1.2596 -3.6330
 8421SOL     OW36724   4.286   1.357   3.729 -0.2362  0.0895 -0.1680
 8421SOL    HW136725   4.259   1.449   3.722  0.2345  0.3222  1.0393
 8421SOL    HW236726   4.304   1.332   3.639 -0.2182  0.0721 -0.1595
 8422SOL     OW36727   3.413   2.787   8.017 -0.1844 -0.2294  0.7681
 8422SOL    HW136728   3.507   2.796   8.033  0.0217  0.7680 -1.1081
 8422SOL    HW236729   3.400   2.817   7.928 -1.7130 -0.8265  0.7773
 8423SOL     OW36730   3.752   3.705   8.005  0.0112 -0.2460 -0.5393
 8423SOL    HW136731   3.711   3.790   7.988 -0.6107 -0.1960  1.3062
 8423SOL    HW236732   3.751   3.665   7.918 -1.7634  0.6945 -0.9481
 8424SOL     OW36733   1.312   2.975  16.155  0.2202  0.2628  0.2631
 8424SOL    HW136734   1.305   2.926  16.073 -0.2218 -0.5907  0.8218
 8424SOL    HW236735   1.267   2.905  16.202 -3.3232  1.9973 -0.5668
 8425SOL     OW36736   0.302   1.325   0.637 -0.2164  0.1562 -0.2770
 8425SOL    HW136737   0.274   1.296   0.550  0.5720  1.9723 -1.1327
 8425SOL    HW236738   0.222   1.377   0.650 -0.4950  0.2858 -2.5545
 8426SOL     OW36739   2.818   3.982   3.892 -0.2915 -0.0736  0.1707
 8426SOL    HW136740   2.884   3.938   3.838 -0.6074 -0.0675 -0.2152
 8426SOL    HW236741   2.843   4.070   3.865 -1.1888 -0.4403 -1.8276
 8427SOL     OW36742   1.229   2.240  12.162 -0.0777 -0.2017  0.5340
 8427SOL    HW136743   1.260   2.328  12.140  0.4975 -0.1918  1.3374
 8427SOL    HW236744   1.261   2.247  12.253  0.0115 -0.1544  0.4992
 8428SOL     OW36745   4.346   4.558   5.511  0.0563  0.8426 -0.4984
 8428SOL    HW136746   4.289   4.630   5.487 -2.2920 -1.1532 -0.9027
 8428SOL    HW236747   4.339   4.505   5.431  1.5924  0.5663 -0.4585
 8429SOL     OW36748   0.650   3.997   2.920 -0.0391 -0.2897  0.1830
 8429SOL    HW136749   0.602   4.042   2.989  1.3960  1.4600  0.0250
 8429SOL    HW236750   0.729   3.978   2.971  0.1616  0.4989  0.1691
 8430SOL     OW36751   1.535   2.058  14.939 -0.4390  0.9631  0.7422
 8430SOL    HW136752   1.520   2.138  14.989  0.7961  0.1917  2.3392
 8430SOL    HW236753   1.612   2.082  14.888 -0.0400 -0.1432  0.8215
 8431SOL     OW36754   3.915   1.943   4.736  0.3275  0.1844 -0.2438
 8431SOL    HW136755   3.947   2.025   4.698  0.5163 -0.4267 -1.4110
 8431SOL    HW236756   3.964   1.878   4.685 -0.2559 -0.6884  0.3158
 8432SOL     OW36757   0.062   3.067  16.516 -0.4910  0.2574  0.8609
 8432SOL    HW136758   0.016   3.010  16.455  0.5434  0.1864  0.1488
 8432SOL    HW236759   0.049   3.026  16.602  2.3494 -1.0231  0.7024
 8433SOL     OW36760   0.818   1.779   6.313  0.1850  0.3624 -0.3557
 8433SOL    HW136761   0.789   1.786   6.404 -0.9647 -0.2990 -0.6692
 8433SOL    HW236762   0.764   1.703   6.291 -0.0197  0.2202  0.6162
 8434SOL     OW36763   3.632   3.519   2.471  0.3400  0.3526 -0.2920
 8434SOL    HW136764   3.643   3.613   2.452 -1.2254  0.8517  1.2611
 8434SOL    HW236765   3.717   3.496   2.508  0.1860  0.4356  0.1081
 8435SOL     OW36766   0.016   3.960   7.327 -0.0502 -0.0088 -0.2110
 8435SOL    HW136767   0.058   3.878   7.353  0.5246 -0.1669 -1.6518
 8435SOL    HW236768   4.657   3.926   7.293  0.4989 -1.1845 -0.3708
 8436SOL     OW36769   1.801   0.738  17.282  0.1575  0.2993  0.0678
 8436SOL    HW136770   1.753   0.784  17.351  1.1201 -1.5443  1.9859
 8436SOL    HW236771   1.805   0.652  17.324 -0.3620 -0.2370 -1.0013
 8437SOL     OW36772   3.595   3.893   7.292  0.1488 -0.7252  0.1922
 8437SOL    HW136773   3.572   3.973   7.244  1.2694 -0.6798 -0.2797
 8437SOL    HW236774   3.672   3.920   7.341  0.4377 -3.0110  0.9902
 8438SOL     OW36775   0.402   3.114  16.804  0.7645  0.0448 -0.1364
 8438SOL    HW136776   0.384   3.207  16.816  0.0053 -0.2294  0.9253
 8438SOL    HW236777   0.326   3.085  16.854  1.4594 -2.7575 -0.6926
 8439SOL     OW36778   2.249   1.791   7.513  0.0256 -0.4603 -0.4578
 8439SOL    HW136779   2.219   1.735   7.442  0.2708 -1.4974  0.2610
 8439SOL    HW236780   2.198   1.871   7.497  0.3701  0.0669  1.0259
 8440SOL     OW36781   0.595   0.925   4.565  0.0271  0.4244 -0.0680
 8440SOL    HW136782   0.537   1.000   4.550 -0.9623 -0.0690  1.2765
 8440SOL    HW236783   0.544   0.864   4.511  1.3621 -0.7252 -0.0172
 8441SOL     OW36784   1.710   3.613   3.180  0.6936  0.5111 -0.8553
 8441SOL    HW136785   1.783   3.572   3.226 -0.6341  0.8480  1.5749
 8441SOL    HW236786   1.639   3.579   3.235  0.3083  0.6366 -1.2741
 8442SOL     OW36787   3.527   3.156   6.067 -0.3415 -0.3922  0.3370
 8442SOL    HW136788   3.580   3.226   6.030 -1.9234  0.0397 -1.1111
 8442SOL    HW236789   3.509   3.104   5.989  1.5557  1.3186 -1.2253
 8443SOL     OW36790   2.582   4.532   2.626 -0.2759 -0.1686 -0.0876
 8443SOL    HW136791   2.605   4.547   2.718  1.5823  0.4151 -0.6503
 8443SOL    HW236792   2.606   4.617   2.591  1.4194 -0.7568 -0.3487
 8444SOL     OW36793   2.308   1.855   4.087 -0.1224 -0.2717 -0.2957
 8444SOL    HW136794   2.390   1.901   4.067  1.0830 -1.4964  1.8475
 8444SOL    HW236795   2.285   1.873   4.178  0.7870  0.8946 -0.3108
 8445SOL     OW36796   1.177   3.390  11.703 -0.0675 -0.0137  0.0533
 8445SOL    HW136797   1.210   3.473  11.668  1.8644 -0.4202  0.8856
 8445SOL    HW236798   1.127   3.424  11.778  0.0958  0.7585 -0.1868
 8446SOL     OW36799   0.315   1.099   4.027  0.1151  0.2747 -0.5741
 8446SOL    HW136800   0.309   1.045   3.948  3.7519  0.0500 -0.6896
 8446SOL    HW236801   0.236   1.154   4.027 -0.0029  0.1005 -1.6658
 8447SOL     OW36802   4.721   1.114   2.028  0.1988  1.0856  0.0733
 8447SOL    HW136803   4.642   1.084   1.983  2.1990 -0.3876 -2.4632
 8447SOL    HW236804   4.681   1.178   2.086 -0.3760  2.4819 -1.8601
 8448SOL     OW36805   0.052   3.553   8.791 -0.2081  0.2779 -0.1129
 8448SOL    HW136806   0.088   3.517   8.871 -0.6550 -1.1110 -0.5434
 8448SOL    HW236807   0.023   3.474   8.745 -1.4400  1.6413 -1.6841
 8449SOL     OW36808   2.996   2.925   2.669 -0.2604  0.0306 -0.3228
 8449SOL    HW136809   2.964   2.835   2.665 -1.4272  0.4110  0.3455
 8449SOL    HW236810   3.054   2.916   2.745  0.9680  0.5658 -1.1881
 8450SOL     OW36811   1.971   2.356  16.643 -0.3081 -0.3668 -0.2648
 8450SOL    HW136812   1.885   2.319  16.621 -0.6868  0.4110 -0.0953
 8450SOL    HW236813   2.005   2.402  16.566 -0.8534 -0.5399 -0.6161
 8451SOL     OW36814   1.037   4.623   8.361  0.3309 -0.2382 -0.5256
 8451SOL    HW136815   0.987   4.649   8.438 -2.4221  0.2772 -2.4562
 8451SOL    HW236816   1.030   4.706   8.314  0.1525  0.3921  0.6248
 8452SOL     OW36817   4.288   0.145   7.551  0.0689 -0.0753 -0.5881
 8452SOL    HW136818   4.253   0.057   7.561 -0.5535  0.3106  0.6191
 8452SOL    HW236819   4.336   0.142   7.468 -0.0719  0.7033 -0.6986
 8453SOL     OW36820   1.838   0.227   5.087  0.1690  0.0175 -0.0305
 8453SOL    HW136821   1.907   0.182   5.138  0.8871  0.6962 -0.4004
 8453SOL    HW236822   1.775   0.259   5.152 -0.4050 -0.9101 -0.1303
 8454SOL     OW36823   0.214   3.380  13.717  0.0169 -0.4250  0.0591
 8454SOL    HW136824   0.269   3.304  13.697  1.0609  0.6700 -1.2143
 8454SOL    HW236825   0.210   3.371  13.812  0.5422  1.1697  0.2329
 8455SOL     OW36826   2.561   4.698   2.257 -0.1211  0.2011 -0.1054
 8455SOL    HW136827   2.558   0.069   2.264  2.7326  0.1617  1.5597
 8455SOL    HW236828   2.506   4.677   2.333 -0.0539 -1.0215 -0.3975
 8456SOL     OW36829   2.158   2.376   3.755 -0.3810  0.4458  0.5207
 8456SOL    HW136830   2.084   2.397   3.812 -0.1102  1.6777  0.4280
 8456SOL    HW236831   2.107   2.368   3.674  2.7078  0.0103 -1.3626
 8457SOL     OW36832   0.173   4.489   9.219 -0.1262 -0.2136  0.4005
 8457SOL    HW136833   0.150   4.558   9.158  1.4751 -0.4510 -0.4593
 8457SOL    HW236834   0.090   4.491   9.267 -0.6248  3.4391 -0.6405
 8458SOL     OW36835   3.952   2.016   1.926  0.4392 -0.0314 -0.5945
 8458SOL    HW136836   3.888   1.962   1.971  1.0728 -1.1238 -0.9935
 8458SOL    HW236837   4.007   1.953   1.879 -1.9724 -0.2914 -3.1033
 8459SOL     OW36838   3.088   3.255  15.613 -0.6590 -0.6223 -0.0233
 8459SOL    HW136839   3.103   3.286  15.702  0.6512 -0.9341 -0.1377
 8459SOL    HW236840   3.074   3.340  15.569 -1.0971 -0.3265  0.6977
 8460SOL     OW36841   0.866   1.546  17.596 -0.0337 -0.0931  0.1242
 8460SOL    HW136842   0.794   1.534  17.659 -0.1969 -0.4865 -0.1360
 8460SOL    HW236843   0.938   1.494  17.631  1.6063  0.7184 -2.0760
 8461SOL     OW36844   3.259   3.552   6.005  0.2292  0.1444 -0.8462
 8461SOL    HW136845   3.336   3.507   5.972  0.6060 -0.0675  0.3082
 8461SOL    HW236846   3.230   3.494   6.076  0.7456  3.6248  2.2331
 8462SOL     OW36847   1.205   2.012   7.200 -0.1476 -0.5524 -0.3115
 8462SOL    HW136848   1.251   1.945   7.250  0.4743 -0.0204 -0.1803
 8462SOL    HW236849   1.120   1.967   7.194 -0.0516 -0.7434 -0.2299
 8463SOL     OW36850   1.961   3.167  17.343 -0.0806  0.0365  0.2587
 8463SOL    HW136851   2.020   3.220  17.397 -0.1957  2.1396 -1.6893
 8463SOL    HW236852   1.911   3.111  17.403 -2.0187  2.3353  0.8092
 8464SOL     OW36853   4.204   4.140   6.842  0.2673 -0.5825  0.2133
 8464SOL    HW136854   4.181   4.096   6.924 -1.4122  1.0713  0.6098
 8464SOL    HW236855   4.180   4.231   6.858 -0.9772 -0.6092 -1.5453
 8465SOL     OW36856   3.748   1.450  16.198 -0.2914 -0.1515 -0.6692
 8465SOL    HW136857   3.760   1.544  16.184 -0.9456 -0.1475 -1.2317
 8465SOL    HW236858   3.675   1.429  16.139 -0.1851  2.2759 -1.7151
 8466SOL     OW36859   3.167   1.055  14.033  0.4362 -0.5501 -0.2433
 8466SOL    HW136860   3.194   1.082  14.120  0.5814 -3.7266  0.7008
 8466SOL    HW236861   3.176   1.138  13.987  0.4672 -0.7801 -0.6578
 8467SOL     OW36862   3.859   2.120   8.662  0.1742  0.2586 -0.2273
 8467SOL    HW136863   3.857   2.206   8.621 -2.3528 -0.7401 -2.2039
 8467SOL    HW236864   3.834   2.151   8.749 -1.2065  0.5940 -0.7339
 8468SOL     OW36865   4.671   1.097   7.869  0.2953  0.0565 -0.1860
 8468SOL    HW136866   4.663   1.020   7.925  0.0899  0.3252  0.1582
 8468SOL    HW236867   4.605   1.076   7.804 -0.6309  2.1170  0.0747
 8469SOL     OW36868   0.365   0.723  11.640  0.3588 -0.7986  0.1500
 8469SOL    HW136869   0.367   0.637  11.682 -1.2651 -1.6217 -1.4556
 8469SOL    HW236870   0.316   0.708  11.559  2.3379  0.6490 -1.3194
 8470SOL     OW36871   4.047   3.937  16.773  0.4524 -0.0372 -0.0699
 8470SOL    HW136872   3.979   3.948  16.708 -0.4025  0.4754  0.9179
 8470SOL    HW236873   4.027   3.848  16.801  2.0230 -0.3349  0.1401
 8471SOL     OW36874   0.387   1.809  15.538  0.2111  0.0569  0.1338
 8471SOL    HW136875   0.334   1.857  15.474 -1.0773 -0.9484  0.4493
 8471SOL    HW236876   0.459   1.872  15.550 -0.1637 -0.0880  3.0007
 8472SOL     OW36877   4.288   1.095   5.736  0.1206 -0.1105  0.0832
 8472SOL    HW136878   4.304   1.155   5.809 -0.7338 -2.2462  2.0285
 8472SOL    HW236879   4.194   1.080   5.742 -0.0090 -0.0379 -1.6463
 8473SOL     OW36880   1.850   2.223  14.837  0.1524 -0.0774  0.7209
 8473SOL    HW136881   1.876   2.132  14.823  0.3826 -0.2030  1.9388
 8473SOL    HW236882   1.769   2.238  14.789 -0.5759  1.8817  2.5367
 8474SOL     OW36883   4.312   3.768   2.704 -0.1426  0.2662  0.7133
 8474SOL    HW136884   4.341   3.849   2.744  1.7395  0.3946 -0.9271
 8474SOL    HW236885   4.240   3.798   2.648  0.4233 -0.7400 -0.5536
 8475SOL     OW36886   1.510   2.413   3.747 -0.0311 -0.0830 -0.1601
 8475SOL    HW136887   1.603   2.391   3.743 -0.4736 -2.2407  1.4356
 8475SOL    HW236888   1.470   2.327   3.757 -1.9579  0.8431 -0.0034
 8476SOL     OW36889   3.013   0.015   7.211  0.2382 -0.3496 -0.5563
 8476SOL    HW136890   3.037   0.023   7.303  0.2384 -1.7949 -0.4424
 8476SOL    HW236891   2.951   4.666   7.214  2.2146 -2.0601 -1.0800
 8477SOL     OW36892   3.831   0.367   4.874 -0.2514  0.4211 -0.7030
 8477SOL    HW136893   3.784   0.302   4.927  1.0060  1.6925  1.9387
 8477SOL    HW236894   3.917   0.329   4.857  0.3562  1.7523 -0.5992
 8478SOL     OW36895   2.786   0.029   9.025 -0.2070  0.5162 -0.4250
 8478SOL    HW136896   2.818   0.073   9.104 -1.0984  0.2799  0.0610
 8478SOL    HW236897   2.853   4.697   8.985 -1.6390  0.4309 -2.6694
 8479SOL     OW36898   4.298   0.042  13.613 -0.1699  0.7746 -0.5800
 8479SOL    HW136899   4.207   0.072  13.605 -0.1477  0.6852 -1.1593
 8479SOL    HW236900   4.340   0.121  13.580 -0.6878  2.0848  1.8694
 8480SOL     OW36901   1.717   2.708  11.692  0.3663  0.1238 -0.3683
 8480SOL    HW136902   1.653   2.738  11.627 -0.4269  1.1866  0.8906
 8480SOL    HW236903   1.773   2.643  11.650  0.9353  0.6400 -0.4074
 8481SOL     OW36904   3.369   0.026   3.161  0.2953 -0.2505 -0.9989
 8481SOL    HW136905   3.339   0.084   3.231 -1.3903 -1.9369 -0.3038
 8481SOL    HW236906   3.365   0.087   3.088  0.3836  0.5815 -0.3027
 8482SOL     OW36907   0.109   1.620   0.931 -0.1713  0.1701 -0.8846
 8482SOL    HW136908   0.066   1.701   0.958  2.3348  1.1575  0.0959
 8482SOL    HW236909   0.124   1.642   0.839 -0.7125 -1.5661 -1.3868
 8483SOL     OW36910   3.066   2.110   2.972 -0.3256 -0.0878 -0.1482
 8483SOL    HW136911   3.157   2.083   2.980  0.3171  1.8172 -1.1596
 8483SOL    HW236912   3.027   2.028   3.001  0.1629 -0.9517 -1.9493
 8484SOL     OW36913   0.214   1.016   3.769  0.1364 -0.3406  0.4699
 8484SOL    HW136914   0.167   0.956   3.710  0.6905 -0.1289 -0.1818
 8484SOL    HW236915   0.199   1.097   3.720 -0.5321  1.3390  3.4948
 8485SOL     OW36916   2.808   0.216   5.067 -0.1748  0.0409 -0.3490
 8485SOL    HW136917   2.841   0.213   4.977 -0.7296  1.6211 -0.5956
 8485SOL    HW236918   2.714   0.231   5.066 -0.2949 -0.6891 -0.2107
 8486SOL     OW36919   2.076   4.496   8.605  0.5119 -0.7417  0.2761
 8486SOL    HW136920   2.162   4.463   8.579 -0.1787 -1.6024 -0.9615
 8486SOL    HW236921   2.062   4.445   8.685 -0.0848  0.0118  0.6413
 8487SOL     OW36922   0.921   3.414   2.684  0.0558  0.4274  0.5056
 8487SOL    HW136923   0.868   3.384   2.758  1.4179  0.2103  1.3893
 8487SOL    HW236924   0.856   3.411   2.614  2.4720 -0.6354 -1.6796
 8488SOL     OW36925   0.726   4.477   0.221 -0.0969 -0.7041 -0.0569
 8488SOL    HW136926   0.736   4.392   0.178  3.3609  0.8540 -2.3692
 8488SOL    HW236927   0.739   4.526   0.140 -0.9328 -0.8776 -0.2897
 8489SOL     OW36928   1.565   0.573   6.645 -0.7537  0.7182 -0.1215
 8489SOL    HW136929   1.549   0.578   6.740 -2.0078 -0.4268 -0.2716
 8489SOL    HW236930   1.544   0.480   6.639  0.5755  0.5069 -1.3431
 8490SOL     OW36931   1.407   0.321   7.915 -0.6309  0.1239  0.2048
 8490SOL    HW136932   1.336   0.303   7.853 -0.8871 -0.6945  0.7494
 8490SOL    HW236933   1.439   0.409   7.892 -0.1286 -0.3489 -0.9089
 8491SOL     OW36934   0.877   1.918   2.982  0.4662 -0.2368 -0.0255
 8491SOL    HW136935   0.954   1.936   3.037  0.5151  1.8076 -0.7564
 8491SOL    HW236936   0.910   1.966   2.906  0.5781 -1.8103 -0.9754
 8492SOL     OW36937   3.816   0.303  11.766 -0.5148 -0.2893 -0.1321
 8492SOL    HW136938   3.749   0.365  11.738 -1.3927 -0.2096  2.1669
 8492SOL    HW236939   3.769   0.235  11.815 -2.2434 -0.1703 -1.6324
 8493SOL     OW36940   2.261   0.827   1.395 -0.5786 -0.3234 -0.0194
 8493SOL    HW136941   2.335   0.771   1.372 -0.3067 -0.8351  2.1514
 8493SOL    HW236942   2.232   0.789   1.478  0.9696  0.9186  1.1098
 8494SOL     OW36943   1.181   4.375   2.953  0.0204  0.1090 -0.2296
 8494SOL    HW136944   1.141   4.297   2.915 -0.1960  0.0537  0.1089
 8494SOL    HW236945   1.099   4.420   2.973  0.0070 -0.2156  0.4588
 8495SOL     OW36946   4.658   0.452   5.108  0.5252 -0.3596  0.0543
 8495SOL    HW136947   4.686   0.534   5.148 -1.5319 -0.3687  1.5189
 8495SOL    HW236948   4.633   0.396   5.181  1.1943 -1.3808 -0.4994
 8496SOL     OW36949   2.927   1.805   4.725 -0.3824  0.6808  0.0544
 8496SOL    HW136950   3.019   1.806   4.751 -0.3656 -0.6675  0.0359
 8496SOL    HW236951   2.910   1.719   4.764  1.1059  0.7670  0.8849
 8497SOL     OW36952   1.005   2.330   8.383  0.3557 -0.0625 -0.0826
 8497SOL    HW136953   0.963   2.373   8.458 -2.4095 -0.0197 -1.6357
 8497SOL    HW236954   0.990   2.238   8.406 -0.2920  0.6812  2.4180
 8498SOL     OW36955   3.177   2.009  15.497 -0.1134 -0.3563 -0.2611
 8498SOL    HW136956   3.227   2.090  15.511 -0.3184  0.4343 -4.1151
 8498SOL    HW236957   3.102   2.023  15.554 -0.4369  1.5840 -1.1497
 8499SOL     OW36958   0.331   3.396  16.245 -0.1474 -0.7379  0.0706
 8499SOL    HW136959   0.288   3.382  16.161 -0.1732  0.1115 -0.0524
 8499SOL    HW236960   0.279   3.345  16.307  0.6874 -1.1634  0.4305
 8500SOL     OW36961   2.477   0.177   2.778  0.0961  0.0277  0.3948
 8500SOL    HW136962   2.451   0.095   2.820  0.1983 -1.1947 -1.8740
 8500SOL    HW236963   2.524   0.140   2.703  1.8254  0.7484  1.1393
 8501SOL     OW36964   1.438   3.234  12.480 -0.5879 -0.3057  0.3610
 8501SOL    HW136965   1.402   3.199  12.398 -1.7682 -1.1517  1.2467
 8501SOL    HW236966   1.436   3.327  12.456 -0.0139 -0.6673 -1.1059
 8502SOL     OW36967   0.710   2.254   4.718  0.1337 -0.2093  0.5161
 8502SOL    HW136968   0.754   2.265   4.633 -1.3700 -1.3414 -0.4017
 8502SOL    HW236969   0.789   2.224   4.762 -0.0571 -0.1085  0.9222
 8503SOL     OW36970   0.490   0.077   0.513  0.2315  0.1383 -0.1149
 8503SOL    HW136971   0.583   0.094   0.522 -0.8909  6.5903 -0.6820
 8503SOL    HW236972   0.463   0.094   0.603 -1.4889  0.4909 -0.6965
 8504SOL     OW36973   3.110   0.875   2.485  0.4356  0.4078  0.1474
 8504SOL    HW136974   3.066   0.832   2.559  0.6223 -1.0563 -0.5995
 8504SOL    HW236975   3.037   0.936   2.470  0.4986  0.2557 -0.7427
 8505SOL     OW36976   3.048   1.409   4.084 -0.2868 -0.6350 -0.6478
 8505SOL    HW136977   3.011   1.338   4.033 -1.2601 -0.8362  0.3524
 8505SOL    HW236978   2.973   1.443   4.132  0.8719 -0.3493  0.9795
 8506SOL     OW36979   3.522   4.397   6.873 -0.1883 -0.3392  0.1299
 8506SOL    HW136980   3.601   4.429   6.829 -1.6286  0.6238 -1.7730
 8506SOL    HW236981   3.472   4.478   6.868 -1.3081 -1.1396 -1.5950
 8507SOL     OW36982   0.775   0.326  14.082 -0.1874 -0.4967 -0.2849
 8507SOL    HW136983   0.752   0.246  14.129 -0.3479 -0.7602 -0.8227
 8507SOL    HW236984   0.748   0.321  13.991  1.4741  1.8503 -0.9038
 8508SOL     OW36985   3.611   3.189   1.775  0.0726  0.3944 -0.1063
 8508SOL    HW136986   3.696   3.224   1.750 -0.0547  0.2372 -0.7514
 8508SOL    HW236987   3.598   3.223   1.864 -0.4980 -0.6710  0.2213
 8509SOL     OW36988   4.430   1.196   9.404 -0.2725  0.1839  0.0625
 8509SOL    HW136989   4.473   1.243   9.475 -0.5129 -0.7154  0.8029
 8509SOL    HW236990   4.501   1.163   9.348  0.1254  1.7194 -0.3428
 8510SOL     OW36991   0.059   0.363   2.333  0.0428  0.3775  0.3791
 8510SOL    HW136992   0.091   0.302   2.265  0.9204  0.9664  0.2744
 8510SOL    HW236993   0.143   0.363   2.379  0.6727 -3.0635 -0.7530
 8511SOL     OW36994   3.648   1.162   8.374  0.2557  0.5388  0.3475
 8511SOL    HW136995   3.673   1.254   8.370  0.3093  0.5502  1.0210
 8511SOL    HW236996   3.693   1.125   8.298  2.4514  0.0554  1.8950
 8512SOL     OW36997   3.321   1.541   5.370  0.0979 -0.2259  0.5513
 8512SOL    HW136998   3.286   1.460   5.405 -1.8581  0.8267  1.0142
 8512SOL    HW236999   3.382   1.510   5.303 -0.0821  1.1354 -0.2513
 8513SOL     OW37000   2.141   1.748   3.866 -0.3486 -0.4908  0.5165
 8513SOL    HW137001   2.177   1.815   3.925 -0.0932  1.0945 -1.4517
 8513SOL    HW237002   2.130   1.674   3.926 -2.3521  1.6313  2.7392
 8514SOL     OW37003   1.824   0.592   6.128  0.1961 -0.4115 -0.3736
 8514SOL    HW137004   1.731   0.583   6.103 -0.0970 -0.8082  0.8744
 8514SOL    HW237005   1.859   0.509   6.095  1.8255  0.2922 -0.3821
 8515SOL     OW37006   4.104   3.108   7.466 -0.2323 -0.2028  0.3712
 8515SOL    HW137007   4.047   3.032   7.453  2.0866 -1.6341 -1.3649
 8515SOL    HW237008   4.181   3.089   7.413 -0.1320  1.8525 -0.2188
 8516SOL     OW37009   4.311   2.412   5.227 -0.3428  0.0503  0.5173
 8516SOL    HW137010   4.398   2.428   5.265 -0.3232 -2.4189  1.5038
 8516SOL    HW237011   4.289   2.497   5.189 -0.4108 -0.4410 -0.5476
 8517SOL     OW37012   3.006   3.518   1.993 -0.3309 -0.4314  0.5943
 8517SOL    HW137013   2.962   3.572   2.058  1.6784 -0.1127  1.6749
 8517SOL    HW237014   3.006   3.577   1.918  1.4952 -0.3646  0.6351
 8518SOL     OW37015   2.989   3.463  10.303 -1.0597 -0.2843  0.0561
 8518SOL    HW137016   2.974   3.557  10.288  0.4771 -0.0698 -0.0823
 8518SOL    HW237017   3.084   3.468  10.302 -1.0415 -0.5897  0.5419
 8519SOL     OW37018   0.422   1.739  15.900  0.1037  0.4440  0.2051
 8519SOL    HW137019   0.463   1.688  15.969 -1.3447  2.1630  2.3383
 8519SOL    HW237020   0.398   1.673  15.835  1.1697  0.1453  0.1108
 8520SOL     OW37021   1.980   2.245   3.573 -0.1624  0.6599  0.0429
 8520SOL    HW137022   2.024   2.164   3.546 -2.8490 -0.4835 -0.9323
 8520SOL    HW237023   1.975   2.290   3.489  0.5691  1.5699  0.4864
 8521SOL     OW37024   0.265   0.897   7.688 -0.9828  0.5163  1.1985
 8521SOL    HW137025   0.180   0.903   7.644 -0.4369 -1.7539 -0.1792
 8521SOL    HW237026   0.312   0.821   7.655  1.8713  2.4431  0.7658
 8522SOL     OW37027   0.144   0.639   4.564 -0.0254  0.1496 -0.1243
 8522SOL    HW137028   0.164   0.731   4.546 -1.6607  0.1805 -1.7695
 8522SOL    HW237029   0.161   0.599   4.479  2.1128  2.0955 -0.5974
 8523SOL     OW37030   2.148   4.652   6.430 -0.1903  0.0371 -0.6538
 8523SOL    HW137031   2.189   0.012   6.453 -0.0155 -0.5029  1.0012
 8523SOL    HW237032   2.075   4.654   6.492 -1.0846 -1.2198 -1.6745
 8524SOL     OW37033   2.434   0.472   0.027  0.2317  0.3348 -0.1970
 8524SOL    HW137034   2.367   0.527  17.682  0.8518 -0.5599 -2.3412
 8524SOL    HW237035   2.482   0.536   0.080  0.6477 -0.5033  0.4334
 8525SOL     OW37036   0.528   4.072  16.195 -0.0329  0.4463  0.3984
 8525SOL    HW137037   0.548   3.996  16.250 -0.5953  0.7561  1.0320
 8525SOL    HW237038   0.616   4.083  16.159 -0.1750  0.7131  0.1417
 8526SOL     OW37039   3.433   1.040  10.846  0.3791  0.3644 -0.3639
 8526SOL    HW137040   3.465   1.009  10.930 -0.3011 -0.5384 -0.4306
 8526SOL    HW237041   3.506   1.055  10.786  0.7655 -2.1304 -0.5286
 8527SOL     OW37042   2.590   4.110   7.162  0.1414  0.0638  0.0831
 8527SOL    HW137043   2.537   4.098   7.083  1.2875 -2.0152 -0.3637
 8527SOL    HW237044   2.531   4.122   7.236  1.2420  0.4913  0.8859
 8528SOL     OW37045   3.376   2.612   1.811 -0.5076  0.3642 -0.7148
 8528SOL    HW137046   3.356   2.526   1.775 -0.4761  1.0898 -2.4344
 8528SOL    HW237047   3.318   2.628   1.886  0.1306  2.7960 -0.7438
 8529SOL     OW37048   1.219   0.571  10.168 -0.0742  0.4127 -0.3687
 8529SOL    HW137049   1.233   0.651  10.219 -2.4602 -0.3101  1.4023
 8529SOL    HW237050   1.183   0.517  10.239 -0.6807  0.0743 -0.9367
 8530SOL     OW37051   1.338   3.941   2.620 -0.4639  0.2186 -0.8880
 8530SOL    HW137052   1.338   3.850   2.650  0.3113 -0.1938 -2.1348
 8530SOL    HW237053   1.314   3.991   2.698 -0.4354  1.7056 -1.8305
 8531SOL     OW37054   3.615   0.488   0.404  0.2580  0.5502 -0.0061
 8531SOL    HW137055   3.591   0.461   0.493 -1.4760  1.9356 -0.0698
 8531SOL    HW237056   3.533   0.479   0.356 -0.5137 -1.5751  1.6745
 8532SOL     OW37057   1.655   4.095   7.793  0.1656  0.3592  0.4769
 8532SOL    HW137058   1.671   4.167   7.854  2.5051 -1.1871  1.6560
 8532SOL    HW237059   1.713   4.025   7.822  1.3002  1.1131  0.0364
 8533SOL     OW37060   0.042   3.360   8.620  0.1795 -0.6889  0.2439
 8533SOL    HW137061   0.134   3.353   8.645  0.1236 -2.4660 -0.0683
 8533SOL    HW237062   0.041   3.397   8.532  0.3688 -0.6264  0.2696
 8534SOL     OW37063   1.778   3.808  17.092 -0.4296 -0.2196  0.8195
 8534SOL    HW137064   1.812   3.800  17.003  1.1074  1.4087  1.2570
 8534SOL    HW237065   1.839   3.869  17.133 -2.3477  2.0015  0.4487
 8535SOL     OW37066   0.300   1.787   6.353  0.1350 -0.8081  0.1554
 8535SOL    HW137067   0.369   1.845   6.384  0.4172 -0.5590 -0.9382
 8535SOL    HW237068   0.233   1.852   6.335  1.0889  0.3086  0.6927
 8536SOL     OW37069   1.285   4.152   1.888  0.8662 -0.2720 -0.0244
 8536SOL    HW137070   1.213   4.187   1.941  0.4651  0.8622 -1.3035
 8536SOL    HW237071   1.352   4.204   1.933  0.8674  0.8617 -1.3387
 8537SOL     OW37072   2.712   0.137  13.757 -0.2841 -0.8105  0.1171
 8537SOL    HW137073   2.646   0.120  13.824 -1.3054  1.0349 -0.4232
 8537SOL    HW237074   2.718   0.232  13.753 -0.8228 -0.8090 -0.8126
 8538SOL     OW37075   1.671   3.929   8.583 -0.1891 -0.4056  0.2112
 8538SOL    HW137076   1.587   3.888   8.601 -0.6331  0.9637  1.2604
 8538SOL    HW237077   1.651   3.990   8.512  1.0059 -0.5325 -0.2444
 8539SOL     OW37078   3.848   2.947  16.749 -0.0875  0.3555 -0.3296
 8539SOL    HW137079   3.827   2.859  16.715 -2.1861  0.4482  0.7029
 8539SOL    HW237080   3.911   2.976  16.683 -2.3765  2.3109 -1.6494
 8540SOL     OW37081   4.541   2.915   4.143  0.2935 -0.4443  0.2122
 8540SOL    HW137082   4.534   2.822   4.163 -0.1043 -0.9729 -2.4241
 8540SOL    HW237083   4.581   2.944   4.225  0.5295 -2.0301  0.6645
 8541SOL     OW37084   0.429   1.397  10.004 -0.2553  0.5909  0.1469
 8541SOL    HW137085   0.429   1.302  10.018 -0.3001  0.4563 -0.7776
 8541SOL    HW237086   0.507   1.421  10.055 -0.4088 -0.0740  0.6986
 8542SOL     OW37087   3.287   2.746   2.319 -0.1701  0.2652  0.6824
 8542SOL    HW137088   3.370   2.716   2.284 -0.5631 -2.2761  1.9517
 8542SOL    HW237089   3.315   2.786   2.402 -2.6284  2.2422  0.5781
 8543SOL     OW37090   3.680   3.533  12.696  0.1993  0.5640  0.1484
 8543SOL    HW137091   3.746   3.592  12.659  0.6227  0.7842  1.2588
 8543SOL    HW237092   3.601   3.529  12.643  0.2408  0.8794  0.0628
 8544SOL     OW37093   4.343   0.519   5.247  0.1713  0.3249 -0.2299
 8544SOL    HW137094   4.432   0.544   5.271  0.7713 -0.5652 -1.4634
 8544SOL    HW237095   4.299   0.551   5.325 -0.4536 -1.8393  0.3239
 8545SOL     OW37096   3.977   1.141   3.960 -0.1762  0.0436  0.3712
 8545SOL    HW137097   3.979   1.231   3.926  0.3897 -0.5799 -1.2375
 8545SOL    HW237098   3.890   1.107   3.938  0.2474  0.2332 -1.6300
 8546SOL     OW37099   1.224   3.367   0.390  0.4432 -0.1038 -0.2365
 8546SOL    HW137100   1.182   3.281   0.392 -1.7770  0.9426 -1.3575
 8546SOL    HW237101   1.300   3.352   0.335  1.2155  3.1669 -0.1104
 8547SOL     OW37102   0.751   3.192   8.399  0.5035 -0.5944  0.5129
 8547SOL    HW137103   0.726   3.284   8.401  2.2383 -0.1014  0.0098
 8547SOL    HW237104   0.800   3.186   8.481 -0.4922 -0.9939  1.0783
 8548SOL     OW37105   1.507   3.240   6.713 -0.6049  0.5408  0.2250
 8548SOL    HW137106   1.491   3.328   6.746  0.8579  0.4284  1.2207
 8548SOL    HW237107   1.436   3.199   6.762  0.2964  0.8504  1.7695
 8549SOL     OW37108   4.678   2.045  13.513 -0.3270 -0.6423 -0.2431
 8549SOL    HW137109   4.681   2.025  13.607  1.0550  1.4104  0.1351
 8549SOL    HW237110   4.608   1.988  13.481  0.1668 -1.3870 -0.0174
 8550SOL     OW37111   0.981   0.910  10.065  0.8190 -0.5154  0.1389
 8550SOL    HW137112   0.991   0.842   9.999 -0.1598  0.5479 -1.1191
 8550SOL    HW237113   0.919   0.968  10.019  1.0942  0.9177  1.5637
 8551SOL     OW37114   4.097   1.378   1.371 -0.3170  0.2099 -0.2892
 8551SOL    HW137115   4.009   1.348   1.348  0.1396  0.5248 -2.4583
 8551SOL    HW237116   4.131   1.414   1.289  0.6208 -0.9383 -0.4065
 8552SOL     OW37117   4.014   4.200  17.260 -0.8657  0.2760 -0.5488
 8552SOL    HW137118   4.029   4.202  17.354 -0.9803  2.4096 -0.5857
 8552SOL    HW237119   3.927   4.161  17.270 -0.5504 -0.2595  0.1184
 8553SOL     OW37120   1.671   3.845   9.917 -0.9515 -0.7353  0.9376
 8553SOL    HW137121   1.721   3.769   9.886 -3.7695 -2.1806 -0.1277
 8553SOL    HW237122   1.670   3.895   9.835 -2.3498  0.5215  1.7277
 8554SOL     OW37123   1.467   3.781   8.615  0.4374  0.4524  0.2439
 8554SOL    HW137124   1.391   3.780   8.557  0.5111  2.3022  0.0910
 8554SOL    HW237125   1.512   3.700   8.593 -0.3018  1.2731 -4.3382
 8555SOL     OW37126   3.225   3.734   7.212 -0.0626 -0.2765  0.7390
 8555SOL    HW137127   3.260   3.771   7.131  0.0707  2.2863  1.9678
 8555SOL    HW237128   3.181   3.656   7.179 -1.0181  0.8331 -0.6082
 8556SOL     OW37129   0.102   3.501  12.107  0.1105 -0.3474  0.3981
 8556SOL    HW137130   0.010   3.483  12.125 -0.2731  0.2915 -0.9716
 8556SOL    HW237131   0.102   3.585  12.062  2.0845  0.6994  2.3656
 8557SOL     OW37132   0.381   0.065  12.754 -0.4305  0.1573  0.3226
 8557SOL    HW137133   0.402   4.700  12.724 -0.8302  0.2119 -0.1130
 8557SOL    HW237134   0.362   0.049  12.846 -1.6026  0.9657  0.2286
 8558SOL     OW37135   3.982   1.657   4.611  0.0025 -0.2298  0.0349
 8558SOL    HW137136   3.961   1.691   4.524  0.0328  0.5540  0.3333
 8558SOL    HW237137   3.894   1.631   4.639  0.0745 -0.6836 -0.1637
 8559SOL     OW37138   2.524   3.386   4.489 -0.5628  0.3567  0.0786
 8559SOL    HW137139   2.511   3.481   4.494 -2.1753  0.1084  0.6878
 8559SOL    HW237140   2.449   3.357   4.540 -1.3412  1.7633 -0.2456
 8560SOL     OW37141   3.451   1.655  16.146 -0.0254  0.5384  0.0310
 8560SOL    HW137142   3.488   1.582  16.096 -1.7934 -0.6862  0.5269
 8560SOL    HW237143   3.377   1.678  16.090 -0.2666 -0.2772  0.0208
 8561SOL     OW37144   1.357   3.919   3.738 -0.3004  0.5205 -0.3344
 8561SOL    HW137145   1.419   3.957   3.675 -1.2184  0.2842 -1.3687
 8561SOL    HW237146   1.281   3.968   3.709 -0.2293  0.5660 -0.4466
 8562SOL     OW37147   0.783   3.710   2.568 -0.1209  0.1041 -0.1074
 8562SOL    HW137148   0.841   3.769   2.617 -0.1061 -0.4308  0.5140
 8562SOL    HW237149   0.849   3.655   2.524  0.0909 -0.0594  0.4104
 8563SOL     OW37150   4.204   3.080   2.873 -0.0827  0.3830  0.3722
 8563SOL    HW137151   4.176   2.998   2.830  0.1664 -0.4094  1.7208
 8563SOL    HW237152   4.297   3.089   2.853 -0.4737  1.4997 -0.9447
 8564SOL     OW37153   4.120   3.724   5.834  0.7020  0.1305 -0.4167
 8564SOL    HW137154   4.083   3.812   5.843  1.9685  0.6928 -0.7180
 8564SOL    HW237155   4.211   3.736   5.859  0.7895  2.0345 -1.6360
 8565SOL     OW37156   2.902   2.843   6.682  0.1261  0.3534  0.1936
 8565SOL    HW137157   2.835   2.900   6.645  0.5951 -0.2176 -1.5184
 8565SOL    HW237158   2.973   2.846   6.618  0.5151  0.8309  0.6520
 8566SOL     OW37159   1.320   3.964  16.041 -0.1442 -0.3605  0.2076
 8566SOL    HW137160   1.401   3.957  16.092 -0.8544  0.5333  1.4636
 8566SOL    HW237161   1.343   3.920  15.959 -2.4970 -1.0127 -0.0820
 8567SOL     OW37162   4.035   1.856   9.109 -0.7970  0.1895 -0.3475
 8567SOL    HW137163   3.981   1.905   9.170  0.4787  1.3202 -0.1226
 8567SOL    HW237164   4.124   1.868   9.142 -0.8225  0.3552 -0.3401
 8568SOL     OW37165   3.076   0.244   4.302 -0.0043 -0.3283  0.2560
 8568SOL    HW137166   3.005   0.256   4.239  0.7597 -0.5902 -0.6445
 8568SOL    HW237167   3.078   0.149   4.297  0.4332 -0.1700 -2.1537
 8569SOL     OW37168   2.227   0.701   7.597 -0.0429  0.0907 -0.2873
 8569SOL    HW137169   2.244   0.647   7.674  0.9004  0.7322 -0.0507
 8569SOL    HW237170   2.243   0.788   7.634  1.3876 -0.6550  0.8085
 8570SOL     OW37171   1.338   3.657   0.324  0.3669 -0.3308  0.5961
 8570SOL    HW137172   1.431   3.644   0.308 -0.2058 -2.6315 -0.8906
 8570SOL    HW237173   1.311   3.646   0.232  2.9516 -0.6441 -0.1368
 8571SOL     OW37174   1.060   0.628  11.806 -0.0046 -0.3457  0.8101
 8571SOL    HW137175   1.155   0.619  11.798 -0.0752 -0.7035  0.3370
 8571SOL    HW237176   1.052   0.723  11.801  0.7654 -0.3533 -0.5190
 8572SOL     OW37177   3.569   3.087  12.232 -0.2078  0.0834  0.3436
 8572SOL    HW137178   3.549   3.179  12.251 -0.0396  0.5200 -1.5680
 8572SOL    HW237179   3.589   3.051  12.318  0.3927 -0.8640 -0.1879
 8573SOL     OW37180   3.140   3.688   7.836 -0.7273 -0.2005 -0.0105
 8573SOL    HW137181   3.174   3.626   7.771 -1.9077 -0.0503 -0.7689
 8573SOL    HW237182   3.166   3.771   7.795 -0.4866 -0.3625 -0.1876
 8574SOL     OW37183   3.883   2.110  16.803 -0.5076  0.5894 -0.1464
 8574SOL    HW137184   3.879   2.168  16.727  1.1388  2.3327  1.1018
 8574SOL    HW237185   3.975   2.086  16.798 -0.3747  0.8426  1.2841
 8575SOL     OW37186   0.257   2.115   4.851  0.9244  0.0642  0.2588
 8575SOL    HW137187   0.338   2.135   4.898  1.1766  2.6429 -1.3180
 8575SOL    HW237188   0.281   2.147   4.764 -2.2543 -3.0780 -1.8188
 8576SOL     OW37189   0.857   4.006   6.259 -0.3069 -0.1114  0.1410
 8576SOL    HW137190   0.880   3.929   6.311  0.4215 -0.1878 -0.2980
 8576SOL    HW237191   0.802   3.959   6.197  0.8040 -0.7367 -0.3587
 8577SOL     OW37192   1.272   3.747   7.029 -0.1322  0.1547  0.2657
 8577SOL    HW137193   1.234   3.759   6.942  0.2552 -1.4567 -0.1281
 8577SOL    HW237194   1.356   3.708   7.007 -0.4976  0.6438 -2.0457
 8578SOL     OW37195   1.608   2.147   4.853  0.2091  0.1329  0.4060
 8578SOL    HW137196   1.686   2.092   4.864 -0.3910 -0.5630  1.1534
 8578SOL    HW237197   1.650   2.233   4.849  0.8161 -0.2343 -1.2175
 8579SOL     OW37198   4.073   2.287   5.283 -0.4659  0.0553 -0.1707
 8579SOL    HW137199   4.003   2.352   5.289 -0.4654 -0.0347  0.8990
 8579SOL    HW237200   4.145   2.340   5.249 -0.1400 -0.6623 -0.5931
 8580SOL     OW37201   1.847   3.127   2.119  0.0385  0.0854  0.4844
 8580SOL    HW137202   1.768   3.084   2.151 -0.4372  2.0759  1.9522
 8580SOL    HW237203   1.812   3.189   2.054 -1.2431  0.2795  1.3644
 8581SOL     OW37204   1.727   4.638   8.054  0.5175  0.0097 -0.0831
 8581SOL    HW137205   1.743   0.006   8.077  0.7411  0.4483 -1.9972
 8581SOL    HW237206   1.633   4.625   8.071  0.4741 -0.6287 -0.8252
 8582SOL     OW37207   2.871   1.064   1.633 -0.2359  0.4633  0.1233
 8582SOL    HW137208   2.959   1.087   1.660  0.3667 -1.8016  0.0836
 8582SOL    HW237209   2.833   1.006   1.698 -1.6978  1.2339 -0.0264
 8583SOL     OW37210   0.544   4.500  10.506 -0.0197 -0.1192  0.3635
 8583SOL    HW137211   0.618   4.557  10.528 -1.3914  0.6184  3.1171
 8583SOL    HW237212   0.577   4.417  10.471 -1.2727 -0.2083 -0.6046
 8584SOL     OW37213   1.591   1.501  10.945 -0.1319 -0.7601 -0.1934
 8584SOL    HW137214   1.655   1.548  10.891  0.7314 -1.6907  0.0106
 8584SOL    HW237215   1.636   1.419  10.967 -0.7422 -1.6081 -2.0654
 8585SOL     OW37216   2.150   0.608   3.364 -0.1265 -0.0018 -0.4452
 8585SOL    HW137217   2.070   0.645   3.326 -0.6526  0.8356  1.4796
 8585SOL    HW237218   2.211   0.678   3.342 -2.5002  2.2654  0.1111
 8586SOL     OW37219   4.142   4.576  13.455  0.7593 -0.2154  0.4297
 8586SOL    HW137220   4.108   4.490  13.481  0.2442 -0.2898 -0.5196
 8586SOL    HW237221   4.090   4.632  13.512 -0.2508 -1.7374  0.9881
 8587SOL     OW37222   1.687   2.955   7.157 -1.1226  0.5681  0.1478
 8587SOL    HW137223   1.724   2.940   7.071 -2.1878  0.7979 -0.3556
 8587SOL    HW237224   1.691   2.865   7.189 -0.5487  0.9400  1.1179
 8588SOL     OW37225   4.384   3.706   5.880  0.0277  0.5149 -0.3761
 8588SOL    HW137226   4.466   3.705   5.929 -0.7711 -1.9810  0.8965
 8588SOL    HW237227   4.407   3.696   5.788 -1.5050  0.1567 -0.7154
 8589SOL     OW37228   2.796   2.601   7.051  0.4487 -0.0551 -0.5756
 8589SOL    HW137229   2.856   2.527   7.051 -1.8525 -1.9130  1.2771
 8589SOL    HW237230   2.796   2.616   6.956  0.8867 -0.9197 -0.7121
 8590SOL     OW37231   1.858   1.117   4.530  0.7335 -0.1106 -0.1673
 8590SOL    HW137232   1.914   1.158   4.464 -0.4981  2.9387  0.6702
 8590SOL    HW237233   1.912   1.126   4.609 -1.3735  0.4890  1.1961
 8591SOL     OW37234   1.544   1.285   7.039 -0.6026  0.1387 -0.3543
 8591SOL    HW137235   1.469   1.345   7.031 -0.9278 -0.2875 -0.5343
 8591SOL    HW237236   1.529   1.237   6.957  2.6572 -1.0311 -0.2638
 8592SOL     OW37237   4.660   2.751   5.738 -0.2209 -0.2673  0.8690
 8592SOL    HW137238   4.659   2.820   5.805  3.3380  0.7928 -0.1642
 8592SOL    HW237239   4.718   2.787   5.671  0.9152  0.7863  2.4055
 8593SOL     OW37240   3.286   0.638   3.094 -0.2557 -0.1390  0.3238
 8593SOL    HW137241   3.200   0.645   3.053 -0.1837  0.1757  0.2277
 8593SOL    HW237242   3.318   0.728   3.104  1.1282 -0.4808 -1.2307
 8594SOL     OW37243   1.048   1.736  10.429  0.6465  0.0165  0.0556
 8594SOL    HW137244   1.008   1.793  10.494  0.8557  0.5901 -0.3056
 8594SOL    HW237245   1.089   1.664  10.477  2.4585  0.3912 -0.9011
 8595SOL     OW37246   3.954   0.488   5.117 -0.0584  0.8288  0.0810
 8595SOL    HW137247   3.919   0.450   5.036  3.3998  0.4325 -1.2029
 8595SOL    HW237248   3.940   0.579   5.089  2.2653  1.2503  0.3015
 8596SOL     OW37249   0.690   1.833  15.426  0.0341  0.0153 -0.5716
 8596SOL    HW137250   0.631   1.826  15.351 -0.7483 -2.3526  0.2586
 8596SOL    HW237251   0.653   1.758  15.473  0.7188  1.7134  2.6537
 8597SOL     OW37252   2.999   2.724  11.853 -0.2824  0.5124  0.4412
 8597SOL    HW137253   3.044   2.723  11.937 -1.5789  0.2055  1.1437
 8597SOL    HW237254   2.967   2.813  11.867  1.5079  1.3562 -0.7723
 8598SOL     OW37255   2.094   3.099   3.636  0.0091  0.0988  0.2479
 8598SOL    HW137256   1.999   3.099   3.632  0.1948 -2.0297 -3.9467
 8598SOL    HW237257   2.124   3.189   3.620  1.1910 -0.5661 -1.2145
 8599SOL     OW37258   1.147   2.557  17.518 -0.6600 -0.7341  0.9251
 8599SOL    HW137259   1.138   2.462  17.507  0.2270 -0.8378  1.0582
 8599SOL    HW237260   1.152   2.555  17.614 -1.3537  0.3247  0.9758
 8600SOL     OW37261   2.871   2.343   8.713  0.4239 -0.0331 -0.0249
 8600SOL    HW137262   2.955   2.379   8.741  0.2673  0.0826  0.2879
 8600SOL    HW237263   2.871   2.251   8.738  1.5663  0.3664  1.4145
 8601SOL     OW37264   1.282   1.881  10.096  0.4735  0.1668  0.0351
 8601SOL    HW137265   1.350   1.837  10.044 -1.5647 -2.4721 -0.3671
 8601SOL    HW237266   1.222   1.893  10.023  0.9628 -1.5509 -0.6438
 8602SOL     OW37267   0.434   3.997   7.313  0.2344  0.2749  0.4738
 8602SOL    HW137268   0.501   3.929   7.299  0.6413  0.3163  2.3003
 8602SOL    HW237269   0.453   4.046   7.392 -0.3695  0.5875  0.4199
 8603SOL     OW37270   3.284   2.369  15.897  0.1789  0.5407 -0.6151
 8603SOL    HW137271   3.230   2.334  15.967  0.9869  0.3563 -0.0877
 8603SOL    HW237272   3.232   2.362  15.816  1.9181  0.1484 -1.7008
 8604SOL     OW37273   2.685   3.928  14.304  0.0192  0.0937 -0.0869
 8604SOL    HW137274   2.700   4.021  14.287  1.1775 -0.0007  0.4297
 8604SOL    HW237275   2.691   3.895  14.214  0.7422 -1.6540  0.5883
 8605SOL     OW37276   2.746   2.312  16.099 -0.1412 -0.1925  0.0151
 8605SOL    HW137277   2.682   2.379  16.124  0.4478  0.3633  0.0298
 8605SOL    HW237278   2.787   2.344  16.019 -1.1483 -2.7123 -1.5048
 8606SOL     OW37279   0.549   1.135   7.526 -0.3410 -0.2861 -0.4174
 8606SOL    HW137280   0.501   1.148   7.608  0.6550 -0.3739  0.1883
 8606SOL    HW237281   0.639   1.131   7.560  0.4794  1.5715 -2.4234
 8607SOL     OW37282   4.231   2.199   4.816  0.4584  0.5247  0.0234
 8607SOL    HW137283   4.187   2.181   4.900  2.8481 -0.6844  1.0117
 8607SOL    HW237284   4.322   2.170   4.828  0.8883  2.6823  1.9878
 8608SOL     OW37285   1.352   3.061  13.232  0.0893 -0.4525 -0.5620
 8608SOL    HW137286   1.350   3.130  13.299 -3.0668 -1.0225 -0.0452
 8608SOL    HW237287   1.274   3.007  13.247  0.1478 -0.8362 -1.5910
 8609SOL     OW37288   4.436   2.582   1.985 -0.5514  0.3246  0.1776
 8609SOL    HW137289   4.381   2.643   1.936  2.3059  2.6988 -0.0495
 8609SOL    HW237290   4.373   2.510   1.993 -0.9658  0.9271  2.2166
 8610SOL     OW37291   3.601   0.797  11.564  0.0309 -0.6177  0.0670
 8610SOL    HW137292   3.637   0.754  11.641 -0.0540 -0.8307 -0.0110
 8610SOL    HW237293   3.545   0.867  11.597 -0.3793 -0.9543  0.0721
 8611SOL     OW37294   3.413   4.481  13.756  0.1507  0.1601 -0.3085
 8611SOL    HW137295   3.437   4.439  13.673 -1.8251 -0.2778 -0.6641
 8611SOL    HW237296   3.383   4.569  13.734  0.1049  0.4886  1.0458
 8612SOL     OW37297   1.863   3.145   9.816  0.4917  0.0131 -0.1437
 8612SOL    HW137298   1.908   3.107   9.892 -0.5598 -0.1993  0.3911
 8612SOL    HW237299   1.907   3.105   9.742 -0.4443  1.3651 -1.4226
 8613SOL     OW37300   3.659   1.542   6.241 -0.4521  0.0116 -0.3137
 8613SOL    HW137301   3.610   1.480   6.294  2.2668  0.1780  2.4110
 8613SOL    HW237302   3.737   1.551   6.296 -0.4809 -0.0505 -0.2641
 8614SOL     OW37303   3.620   3.088   6.318 -0.2031 -0.1101 -0.4369
 8614SOL    HW137304   3.629   2.993   6.310 -2.0852 -0.3850  0.5027
 8614SOL    HW237305   3.597   3.112   6.228 -0.2650 -1.6126 -0.8307
 8615SOL     OW37306   3.599   2.084   6.171  0.1948 -0.4243 -0.1983
 8615SOL    HW137307   3.533   2.039   6.118 -0.2577 -1.5666  1.3132
 8615SOL    HW237308   3.624   2.161   6.121 -0.4451 -1.4682 -2.1369
 8616SOL     OW37309   2.125   2.979   3.382 -0.0605 -0.4249  0.3941
 8616SOL    HW137310   2.209   2.938   3.361  1.8942  3.4163  0.6087
 8616SOL    HW237311   2.138   3.011   3.472 -0.7904 -0.7023  0.5930
 8617SOL     OW37312   1.490   1.614   4.429 -0.5721 -0.1003  0.5834
 8617SOL    HW137313   1.556   1.603   4.497  1.5931 -1.6948 -1.7834
 8617SOL    HW237314   1.508   1.697   4.384 -0.1377  1.1408  3.0622
 8618SOL     OW37315   2.557   2.890   1.556 -0.2314 -0.0770  0.6143
 8618SOL    HW137316   2.497   2.822   1.587 -0.3528 -0.9046 -1.4157
 8618SOL    HW237317   2.489   2.956   1.540 -0.9511 -1.0831 -0.5415
 8619SOL     OW37318   4.688   3.439  14.158 -0.6022 -0.2047 -0.2579
 8619SOL    HW137319   0.030   3.439  14.227 -0.3444 -0.5705 -0.5019
 8619SOL    HW237320   4.611   3.389  14.187 -0.3733 -1.1962 -1.3905
 8620SOL     OW37321   4.224   3.226  14.170  0.4372 -0.2962 -0.1195
 8620SOL    HW137322   4.183   3.292  14.114  1.9093  0.4873 -0.2802
 8620SOL    HW237323   4.161   3.233  14.242 -2.2385  0.2487 -2.4991
 8621SOL     OW37324   3.717   1.634  15.126  0.8118  0.3268 -0.2388
 8621SOL    HW137325   3.650   1.702  15.118  0.8497  0.5318  1.1547
 8621SOL    HW237326   3.673   1.551  15.107 -1.2962  0.8785  2.2115
 8622SOL     OW37327   2.593   2.968   1.886 -0.5115  0.0822  0.4409
 8622SOL    HW137328   2.521   3.031   1.875 -1.0451  0.0444  3.6676
 8622SOL    HW237329   2.644   3.009   1.817  2.6255 -3.0170  0.9283
 8623SOL     OW37330   4.218   1.390   7.120  0.1747  0.2186  0.3444
 8623SOL    HW137331   4.136   1.351   7.148 -0.0967  1.5702  1.4329
 8623SOL    HW237332   4.220   1.472   7.170 -0.4920 -0.6442  1.7667
 8624SOL     OW37333   2.122   2.067   7.460 -0.3951  0.5182  0.1918
 8624SOL    HW137334   2.113   2.112   7.543 -1.4625  0.9242 -0.1426
 8624SOL    HW237335   2.189   2.116   7.412 -0.6267  0.7993  0.1620
 8625SOL     OW37336   1.400   0.561  15.572  0.0832  0.4749  0.5287
 8625SOL    HW137337   1.340   0.545  15.645 -0.0163 -2.2059 -0.1645
 8625SOL    HW237338   1.403   0.474  15.532  0.7444  0.3157  0.9201
 8626SOL     OW37339   4.434   1.403  14.707 -0.4122  0.2659 -0.2869
 8626SOL    HW137340   4.361   1.359  14.663 -0.0414 -0.8117  0.2120
 8626SOL    HW237341   4.481   1.426  14.627 -0.1372  1.1836  0.1373
 8627SOL     OW37342   3.393   2.338   5.873 -0.0061  0.5298 -0.3158
 8627SOL    HW137343   3.334   2.350   5.799 -0.1817  0.0301 -0.2551
 8627SOL    HW237344   3.447   2.270   5.833 -0.5990  0.4409 -0.9514
 8628SOL     OW37345   4.030   4.001  11.263 -0.5492  0.1808 -0.5786
 8628SOL    HW137346   4.013   3.934  11.329  0.3749  2.4215  1.9311
 8628SOL    HW237347   3.990   3.968  11.183  0.3728 -0.1055 -0.9165
 8629SOL     OW37348   2.166   4.174   8.684 -0.0700 -0.1170 -0.4286
 8629SOL    HW137349   2.244   4.120   8.700 -0.2695  0.3512  2.1207
 8629SOL    HW237350   2.118   4.154   8.764  0.5593 -0.4897 -0.1451
 8630SOL     OW37351   3.663   0.579  14.391  0.0410 -0.3312 -0.2018
 8630SOL    HW137352   3.658   0.489  14.422  1.1088 -0.3209 -0.0230
 8630SOL    HW237353   3.605   0.630  14.448 -0.8335 -1.3781 -0.1591
 8631SOL     OW37354   0.558   2.245  12.250  0.4782 -0.2207  0.6177
 8631SOL    HW137355   0.601   2.271  12.331 -0.2924  1.0848  0.6075
 8631SOL    HW237356   0.641   2.228  12.207  1.2711  1.4994  1.4750
 8632SOL     OW37357   3.073   3.547   8.809  0.2363 -0.2317  0.6837
 8632SOL    HW137358   3.054   3.496   8.887  2.7389  1.1497  2.1925
 8632SOL    HW237359   3.157   3.587   8.831 -0.5456  1.0454  1.3678
 8633SOL     OW37360   1.707   2.105   8.454  0.1939  0.6409  0.1778
 8633SOL    HW137361   1.763   2.162   8.403 -1.0845  0.5638 -1.3114
 8633SOL    HW237362   1.659   2.058   8.385 -1.5688  1.0307  1.1351
 8634SOL     OW37363   0.165   3.444  16.986  0.0022 -0.0568  0.4688
 8634SOL    HW137364   0.072   3.421  16.984 -0.7190  2.7247  1.3368
 8634SOL    HW237365   0.153   3.536  17.010 -1.0848  0.0574 -0.5266
 8635SOL     OW37366   3.668   2.145   3.125 -0.9422 -0.2838 -0.1917
 8635SOL    HW137367   3.607   2.193   3.070 -2.2859 -1.5866  0.1715
 8635SOL    HW237368   3.614   2.145   3.204 -0.3051 -0.2183  0.2477
 8636SOL     OW37369   2.671   4.613   7.049  0.5886  0.1296 -0.3475
 8636SOL    HW137370   2.596   4.556   7.037  1.0383 -0.1443 -1.9562
 8636SOL    HW237371   2.730   4.556   7.098 -0.2788 -0.2894  0.1929
 8637SOL     OW37372   1.168   3.222   3.136 -0.1213  0.2786  0.2210
 8637SOL    HW137373   1.073   3.213   3.137 -0.0826 -0.2500 -1.0142
 8637SOL    HW237374   1.192   3.167   3.211 -0.5873 -0.0928  0.0951
 8638SOL     OW37375   0.297   3.296   0.182  0.2538  0.2935 -0.1143
 8638SOL    HW137376   0.212   3.281   0.224 -0.4405  0.0186 -1.5870
 8638SOL    HW237377   0.327   3.375   0.226  0.2853 -0.3564  1.0140
 8639SOL     OW37378   0.739   1.333   4.865  0.1187 -0.4427 -0.8466
 8639SOL    HW137379   0.657   1.310   4.820 -0.9809 -0.1647  1.0119
 8639SOL    HW237380   0.774   1.396   4.803  1.1963  0.4044  0.6441
 8640SOL     OW37381   4.400   1.800   0.446 -0.0607  0.2791  0.9987
 8640SOL    HW137382   4.451   1.877   0.469  0.6844  0.5682 -1.6079
 8640SOL    HW237383   4.334   1.811   0.514  0.0171  0.4904  1.0400
 8641SOL     OW37384   3.617   3.872  13.597 -0.3973  0.5400  0.9137
 8641SOL    HW137385   3.701   3.915  13.611 -0.2013  0.7147 -0.9296
 8641SOL    HW237386   3.559   3.937  13.636 -3.8712 -1.8427 -0.2895
 8642SOL     OW37387   3.097   2.172   0.312 -0.4280  0.0268  0.5900
 8642SOL    HW137388   3.166   2.207   0.368 -0.2877  0.7856 -0.0539
 8642SOL    HW237389   3.143   2.149   0.231  0.0410 -0.6443  1.0429
 8643SOL     OW37390   3.635   3.941   7.990  0.4508  0.1071 -0.1643
 8643SOL    HW137391   3.644   3.952   8.084  0.9988 -0.5826 -0.1391
 8643SOL    HW237392   3.544   3.911   7.987  0.7069 -0.6696 -0.3206
 8644SOL     OW37393   0.869   1.429   0.830  0.6732 -0.1424 -0.3287
 8644SOL    HW137394   0.875   1.482   0.910  1.9242 -0.9326  0.1224
 8644SOL    HW237395   0.887   1.341   0.864 -0.4550  1.1941  3.7128
 8645SOL     OW37396   3.227   2.836   5.994  0.4104 -0.9240 -0.0475
 8645SOL    HW137397   3.311   2.874   5.969  0.0824 -2.0465 -2.9104
 8645SOL    HW237398   3.175   2.873   5.922 -0.5290 -1.2785  0.4543
 8646SOL     OW37399   1.581   3.201   3.052  0.0899 -0.0576 -0.1265
 8646SOL    HW137400   1.652   3.141   3.029 -1.4960 -1.9311 -0.1140
 8646SOL    HW237401   1.535   3.198   2.968 -0.1254  1.5890 -0.0725
 8647SOL     OW37402   1.052   3.090  13.068  0.0093  0.7557 -0.2058
 8647SOL    HW137403   1.085   3.095  12.979 -1.7629  0.8415 -0.8572
 8647SOL    HW237404   0.966   3.048  13.058  0.7535 -1.0072  0.8895
 8648SOL     OW37405   2.468   0.002  11.323 -0.4854  0.1021  0.3846
 8648SOL    HW137406   2.444   0.094  11.337  1.6588  0.7080  0.0576
 8648SOL    HW237407   2.395   4.694  11.269 -0.7794  0.5476  0.5179
 8649SOL     OW37408   1.612   3.223   7.307  0.0976  0.2270 -0.0166
 8649SOL    HW137409   1.631   3.197   7.398 -0.0095 -0.2141 -0.1198
 8649SOL    HW237410   1.635   3.147   7.255  0.7906  1.4698 -1.5223
 8650SOL     OW37411   1.240   0.579   5.548  0.2471 -0.1611 -0.1115
 8650SOL    HW137412   1.242   0.669   5.516  2.3610  0.1601  0.9499
 8650SOL    HW237413   1.175   0.586   5.618  0.5962  2.6825 -0.0721
 8651SOL     OW37414   4.309   2.976   5.555  0.1574  0.5834  0.3444
 8651SOL    HW137415   4.261   2.970   5.472  0.0891  2.4667  0.2587
 8651SOL    HW237416   4.396   3.001   5.524 -1.1405  2.4247 -1.8148
 8652SOL     OW37417   2.831   3.734   4.978 -0.3321 -0.3007 -0.3230
 8652SOL    HW137418   2.757   3.700   4.928  0.5256 -1.6765 -0.6566
 8652SOL    HW237419   2.790   3.821   4.980  4.0620  1.7618  0.4154
 8653SOL     OW37420   4.502   2.712  10.599  0.3536  0.1881 -0.3138
 8653SOL    HW137421   4.545   2.695  10.682 -0.0725 -1.4944 -0.4470
 8653SOL    HW237422   4.429   2.651  10.605  0.3845  0.1963  0.1018
 8654SOL     OW37423   0.294   1.695   7.658 -0.1222 -0.2199 -0.2594
 8654SOL    HW137424   0.198   1.693   7.663 -0.1519  0.8100 -0.3366
 8654SOL    HW237425   0.318   1.638   7.584  1.4533 -1.4047  1.1700
 8655SOL     OW37426   3.125   3.792   2.723  0.2606  0.0071  0.1512
 8655SOL    HW137427   3.180   3.742   2.783  0.1338  0.6926  0.8491
 8655SOL    HW237428   3.158   3.758   2.640  0.6489  0.7955 -0.0231
 8656SOL     OW37429   2.800   3.280   7.088 -0.0630 -0.4027 -0.4362
 8656SOL    HW137430   2.892   3.254   7.081  0.0749  0.3196 -1.2799
 8656SOL    HW237431   2.803   3.340   7.163 -1.0985  0.0053 -0.7209
 8657SOL     OW37432   1.873   1.970   7.887 -0.5212  0.4818  0.2719
 8657SOL    HW137433   1.912   1.947   7.802 -0.5007 -0.0105  0.4139
 8657SOL    HW237434   1.882   1.881   7.921 -0.2306  1.0443  1.6599
 8658SOL     OW37435   0.314   4.145   7.961  0.1100 -0.5432  0.1900
 8658SOL    HW137436   0.276   4.219   7.913  0.6955 -1.0580 -1.0672
 8658SOL    HW237437   0.266   4.156   8.043  0.8925  0.1196  0.5574
 8659SOL     OW37438   2.891   4.244   8.884 -0.2206 -0.3888 -0.4409
 8659SOL    HW137439   2.853   4.266   8.969  0.3524  0.8519 -0.5070
 8659SOL    HW237440   2.982   4.262   8.908 -1.2756 -0.0446  3.2489
 8660SOL     OW37441   0.584   2.491   8.466 -0.3223 -0.1064 -0.0258
 8660SOL    HW137442   0.593   2.443   8.384 -1.3048 -0.2665 -0.0374
 8660SOL    HW237443   0.544   2.422   8.519 -1.0653 -0.7133 -1.3757
 8661SOL     OW37444   4.238   1.077  14.840 -0.1157 -0.4256 -0.0458
 8661SOL    HW137445   4.232   1.124  14.923 -0.0205  2.5424 -1.6998
 8661SOL    HW237446   4.283   0.997  14.867 -1.0190 -1.3307 -1.1900
 8662SOL     OW37447   3.762   4.061  16.921  0.8802  0.1955 -0.3556
 8662SOL    HW137448   3.802   4.141  16.887 -1.2859  1.8806  1.0692
 8662SOL    HW237449   3.724   4.094  17.002  2.0167  2.1906 -0.6279
 8663SOL     OW37450   0.690   1.564   8.598 -0.5234  0.1972  0.0588
 8663SOL    HW137451   0.770   1.552   8.547 -0.8230  1.6749 -0.7725
 8663SOL    HW237452   0.650   1.477   8.599 -0.4026  0.1046 -2.4317
 8664SOL     OW37453   3.218   0.847  16.707 -0.0644 -0.6863  0.0279
 8664SOL    HW137454   3.268   0.919  16.668  2.0363 -1.2381  1.7563
 8664SOL    HW237455   3.292   0.800  16.745 -0.4861 -0.2795  1.3536
 8665SOL     OW37456   1.483   0.841   2.792 -0.1731 -0.0793 -0.0014
 8665SOL    HW137457   1.542   0.916   2.799 -2.3161  1.5440  0.7121
 8665SOL    HW237458   1.523   0.765   2.833 -0.6974 -0.7344 -0.7160
 8666SOL     OW37459   0.186   2.796  15.287 -0.4572  0.3079  0.6457
 8666SOL    HW137460   0.155   2.784  15.197 -0.9554 -1.8830  1.1097
 8666SOL    HW237461   0.264   2.848  15.270 -0.5528 -0.1269 -1.1045
 8667SOL     OW37462   0.107   1.492   8.523 -0.1582 -0.3300 -0.0891
 8667SOL    HW137463   0.020   1.517   8.493 -0.1012 -1.4322 -1.1261
 8667SOL    HW237464   0.147   1.577   8.542  0.2980 -0.2153 -1.6024
 8668SOL     OW37465   1.595   0.557  16.257  0.1224 -0.0982  0.6740
 8668SOL    HW137466   1.638   0.593  16.180 -0.5358 -1.5442 -0.3664
 8668SOL    HW237467   1.538   0.628  16.286  0.4966 -0.9738  3.5402
 8669SOL     OW37468   2.734   1.342   0.442 -0.2416 -0.3415  0.6628
 8669SOL    HW137469   2.783   1.385   0.372 -2.1938  0.9336  0.0667
 8669SOL    HW237470   2.741   1.406   0.512 -0.7060 -1.1938  1.4810
 8670SOL     OW37471   1.227   4.382   6.552 -0.4830  0.0541 -0.1120
 8670SOL    HW137472   1.142   4.363   6.512  0.3732  1.7649 -2.7633
 8670SOL    HW237473   1.244   4.472   6.523 -1.0311  0.7394  1.6945
 8671SOL     OW37474   4.318   4.570   8.566  0.1893 -0.0832 -0.0796
 8671SOL    HW137475   4.379   4.644   8.562 -0.0585  0.0600 -1.4140
 8671SOL    HW237476   4.245   4.602   8.513  0.5380  0.8620  0.0065
 8672SOL     OW37477   4.097   3.958   7.029  0.5203 -0.7551 -0.2063
 8672SOL    HW137478   4.101   3.977   7.122  1.1556  0.1055 -0.4151
 8672SOL    HW237479   4.089   3.863   7.028 -1.6603 -0.5908  2.6032
 8673SOL     OW37480   1.508   1.393   7.352 -0.2634  0.4459  0.8760
 8673SOL    HW137481   1.600   1.374   7.334 -0.9105 -0.1668 -1.7960
 8673SOL    HW237482   1.492   1.317   7.408 -1.0661  0.5163  0.7540
 8674SOL     OW37483   3.641   1.691   1.743  0.0435 -0.1798  0.3552
 8674SOL    HW137484   3.735   1.695   1.756  0.0317 -0.8698  0.6572
 8674SOL    HW237485   3.629   1.596   1.755 -0.0660 -0.1946  0.1291
 8675SOL     OW37486   0.748   3.840   1.915  0.6714 -0.3385  0.2490
 8675SOL    HW137487   0.749   3.764   1.855 -0.1018 -1.0478  1.1416
 8675SOL    HW237488   0.753   3.783   1.992 -1.2337 -0.4103  0.3298
 8676SOL     OW37489   1.484   2.685   6.668 -0.1777  0.0297 -0.1151
 8676SOL    HW137490   1.505   2.775   6.694  2.7289 -0.0902 -2.0971
 8676SOL    HW237491   1.452   2.642   6.747 -0.1979 -0.0073 -0.1436
 8677SOL     OW37492   0.349   2.649  15.051 -0.0423  0.3798 -0.0258
 8677SOL    HW137493   0.275   2.611  15.003  0.0006  0.0155  0.1923
 8677SOL    HW237494   0.333   2.603  15.134 -0.2834 -0.2146 -0.4000
 8678SOL     OW37495   3.343   0.517  14.712 -0.6263 -0.2309  0.2452
 8678SOL    HW137496   3.303   0.470  14.785 -0.7912 -0.3471  0.0814
 8678SOL    HW237497   3.356   0.435  14.665  1.2364  0.3056 -0.1861
 8679SOL     OW37498   3.384   4.503   2.440 -0.5117 -0.6602 -0.0068
 8679SOL    HW137499   3.308   4.558   2.461  0.2897  0.3633  0.2031
 8679SOL    HW237500   3.372   4.428   2.497  0.4407 -0.3291  0.6383
 8680SOL     OW37501   3.025   2.338  11.921 -0.2238  0.7437 -0.3777
 8680SOL    HW137502   3.066   2.287  11.851  0.8652 -0.9632  1.5021
 8680SOL    HW237503   3.095   2.403  11.926  1.7193 -1.2295 -1.8002
 8681SOL     OW37504   0.348   1.427   2.677  0.3377 -0.4163  0.3812
 8681SOL    HW137505   0.286   1.500   2.682  1.7257  0.4676  4.5696
 8681SOL    HW237506   0.427   1.478   2.658 -0.6237  0.4149 -1.3879
 8682SOL     OW37507   2.525   4.136   2.854  0.1082 -0.2188 -0.7051
 8682SOL    HW137508   2.513   4.199   2.925 -1.4993 -2.6142  1.1458
 8682SOL    HW237509   2.436   4.107   2.837  0.4317 -1.9375  0.5138
 8683SOL     OW37510   2.130   3.095   2.869  0.1642  0.5333  0.3481
 8683SOL    HW137511   2.106   3.130   2.783  0.4640  1.1310  0.5030
 8683SOL    HW237512   2.162   3.006   2.856 -1.8753 -0.2321  0.5684
 8684SOL     OW37513   0.385   3.169   1.931  0.1156 -0.2545  0.0607
 8684SOL    HW137514   0.315   3.118   1.890 -0.3109  1.5559 -1.4873
 8684SOL    HW237515   0.454   3.147   1.868 -0.1474 -2.0698  0.3925
 8685SOL     OW37516   1.344   4.147   5.958 -0.7138 -0.0880  0.1533
 8685SOL    HW137517   1.340   4.225   5.903 -0.8763 -0.7463 -0.7845
 8685SOL    HW237518   1.251   4.127   5.973 -1.1349  0.1580 -2.0611
 8686SOL     OW37519   2.132   1.393   7.203  0.5812 -0.6163  0.1176
 8686SOL    HW137520   2.066   1.397   7.272  0.0788 -2.2793 -0.2488
 8686SOL    HW237521   2.115   1.303   7.174  1.0610 -1.0259  1.0979
 8687SOL     OW37522   2.627   1.637  11.105 -0.1491  0.6640 -0.2464
 8687SOL    HW137523   2.622   1.730  11.081 -0.9099  0.6529 -0.1299
 8687SOL    HW237524   2.535   1.625  11.126 -0.2348  0.3736 -0.8017
 8688SOL     OW37525   3.166   1.654   4.481  0.4379  0.3364  0.5633
 8688SOL    HW137526   3.141   1.564   4.458  0.1396  0.5629  0.0146
 8688SOL    HW237527   3.084   1.703   4.486  0.1189 -0.1516  0.1229
 8689SOL     OW37528   2.960   1.786   8.782  0.2808  0.5678  0.1550
 8689SOL    HW137529   2.933   1.744   8.863  0.7722  1.8802  0.9874
 8689SOL    HW237530   3.048   1.816   8.801  0.5025  0.5138 -0.7921
 8690SOL     OW37531   3.905   1.531   8.813  0.4201 -0.3782  0.0305
 8690SOL    HW137532   3.992   1.541   8.775 -0.0434 -1.4968 -1.3091
 8690SOL    HW237533   3.868   1.462   8.759  2.3907 -1.8212  0.5464
 8691SOL     OW37534   3.011   1.986  12.204 -0.1974  0.0172  0.0338
 8691SOL    HW137535   3.011   2.022  12.293  0.0816 -0.2077  0.1261
 8691SOL    HW237536   2.931   1.933  12.209 -1.0562  1.3546  0.2580
 8692SOL     OW37537   0.434   3.301   2.448 -0.4902 -0.2400 -0.3929
 8692SOL    HW137538   0.490   3.357   2.395  1.1432  1.1140  2.7677
 8692SOL    HW237539   0.350   3.297   2.402 -1.0539 -1.4232  0.7188
 8693SOL     OW37540   3.093   0.204   1.336  0.4673 -0.9930 -0.2786
 8693SOL    HW137541   3.127   0.250   1.260  0.2334  0.3004  0.3932
 8693SOL    HW237542   3.055   0.277   1.385  1.3589 -2.9114  3.3133
 8694SOL     OW37543   1.444   0.493   1.310  0.5324 -0.3136 -0.1623
 8694SOL    HW137544   1.378   0.470   1.375 -0.8429  2.0407 -0.7146
 8694SOL    HW237545   1.389   0.499   1.231  0.4891 -0.4789 -0.1434
 8695SOL     OW37546   4.573   1.598   8.423 -0.1521  0.5739  0.2747
 8695SOL    HW137547   4.541   1.641   8.344  1.3398  0.3895 -0.4333
 8695SOL    HW237548   4.489   1.589   8.467 -1.0689 -0.1922 -1.6621
 8696SOL     OW37549   3.698   1.304   2.990  0.1617 -0.0921  0.0607
 8696SOL    HW137550   3.787   1.295   3.023  0.9994  1.7535 -1.6912
 8696SOL    HW237551   3.697   1.241   2.918  0.5709  0.6083 -0.5528
 8697SOL     OW37552   1.197   0.562  10.845  0.3499 -0.5006  0.5048
 8697SOL    HW137553   1.242   0.587  10.764  1.8393  1.2776  1.8767
 8697SOL    HW237554   1.248   0.606  10.913  0.5942 -1.7050  1.1063
 8698SOL     OW37555   1.239   1.066   1.574 -0.1880 -0.3765 -0.0196
 8698SOL    HW137556   1.315   1.039   1.522  1.9326  3.1194  1.2932
 8698SOL    HW237557   1.273   1.133   1.634 -0.0180 -0.5284  0.0543
 8699SOL     OW37558   3.647   2.265  17.008  0.2907 -0.5063  0.0946
 8699SOL    HW137559   3.697   2.206  17.063 -0.7771 -1.5947 -0.1166
 8699SOL    HW237560   3.642   2.215  16.926  3.3147 -1.4323  0.5020
 8700SOL     OW37561   3.967   2.144   6.505 -0.7242  0.5629 -0.2034
 8700SOL    HW137562   3.887   2.175   6.465 -0.2409  3.4866  1.1031
 8700SOL    HW237563   3.930   2.117   6.589  2.1373 -0.6376  0.6695
 8701SOL     OW37564   4.451   3.166   3.658 -0.1609 -0.2509  0.1385
 8701SOL    HW137565   4.476   3.134   3.744 -0.8628  1.2258  0.8932
 8701SOL    HW237566   4.478   3.256   3.676 -1.1943  0.0592  0.1364
 8702SOL     OW37567   0.583   0.089   3.946 -0.0799  0.3109  0.1558
 8702SOL    HW137568   0.534   0.009   3.926 -0.7924  0.6248  0.6552
 8702SOL    HW237569   0.579   0.100   4.041 -2.2933 -0.4475  0.1539
 8703SOL     OW37570   1.117   4.620   7.985  0.7674 -0.4404  0.1244
 8703SOL    HW137571   1.168   4.555   7.936 -0.2780  0.7579 -2.5736
 8703SOL    HW237572   1.180   4.691   7.970 -0.4616  0.9093  1.3616
 8704SOL     OW37573   3.887   0.172   4.191  0.0616  0.6307 -0.1097
 8704SOL    HW137574   3.917   0.223   4.116 -0.4761  1.5804  0.3204
 8704SOL    HW237575   3.912   0.080   4.184 -3.1128 -0.2791  0.6004
 8705SOL     OW37576   2.037   3.020   8.754 -0.6462  0.6701 -0.7397
 8705SOL    HW137577   2.060   3.031   8.847  2.6098  1.0084 -1.6073
 8705SOL    HW237578   2.113   2.969   8.727 -0.9826  0.0033 -0.4432
 8706SOL     OW37579   0.788   4.526   7.024  0.5765 -0.0070  1.0403
 8706SOL    HW137580   0.759   4.454   7.080 -0.5011  1.6570  2.6271
 8706SOL    HW237581   0.878   4.494   7.019  1.1046  1.5310  0.5617
 8707SOL     OW37582   1.327   4.521   6.156  0.0108 -0.1712  0.0494
 8707SOL    HW137583   1.406   4.572   6.140 -0.8236  1.5595  1.3544
 8707SOL    HW237584   1.292   4.506   6.068 -0.5670  0.2586  0.2011
 8708SOL     OW37585   1.545   0.700  17.126  0.0614  0.6593 -0.1589
 8708SOL    HW137586   1.475   0.703  17.191 -1.3730  0.6958 -1.7046
 8708SOL    HW237587   1.614   0.647  17.167 -0.8682 -0.7976 -0.4689
 8709SOL     OW37588   0.677   3.194  10.176  0.0516 -0.1389  0.1302
 8709SOL    HW137589   0.706   3.251  10.105  0.7756  1.2685  1.5685
 8709SOL    HW237590   0.752   3.135  10.190 -0.5062 -0.9944 -0.4818
 8710SOL     OW37591   1.445   3.320   8.878  0.1688  0.0598  0.2029
 8710SOL    HW137592   1.420   3.321   8.970  1.3896  1.7494  0.5012
 8710SOL    HW237593   1.467   3.411   8.858 -1.4964  0.4481  0.1264
 8711SOL     OW37594   0.508   0.757   8.189 -0.6190  0.2959 -0.3598
 8711SOL    HW137595   0.549   0.741   8.274 -1.7930 -1.1152 -0.0542
 8711SOL    HW237596   0.433   0.698   8.192  0.2999 -0.7015  2.3487
 8712SOL     OW37597   2.052   1.742   9.275  0.4065  0.5657  0.6568
 8712SOL    HW137598   2.076   1.654   9.246  0.3388  0.2880  1.4183
 8712SOL    HW237599   2.007   1.775   9.198  0.9797 -1.7314 -0.6653
 8713SOL     OW37600   4.164   3.885   6.400 -0.0179 -0.3343 -0.2947
 8713SOL    HW137601   4.120   3.935   6.470  2.1397 -0.2836  1.0385
 8713SOL    HW237602   4.237   3.944   6.382 -1.8425  2.3832  1.2174
 8714SOL     OW37603   0.903   3.365   2.107 -0.0769 -0.1623 -0.0799
 8714SOL    HW137604   0.893   3.318   2.190 -1.3339  1.5839  0.7701
 8714SOL    HW237605   0.969   3.430   2.133 -0.3943 -0.1138  0.6098
 8715SOL     OW37606   2.020   2.005   4.285 -0.0892 -0.2783  0.7197
 8715SOL    HW137607   1.990   1.942   4.351 -0.5131 -0.8616 -0.0425
 8715SOL    HW237608   2.112   1.979   4.280 -0.0588  0.0805 -0.4817
 8716SOL     OW37609   3.371   2.991   5.400 -0.2502  0.2427 -0.3196
 8716SOL    HW137610   3.340   2.900   5.393  1.2392 -0.3023  0.0860
 8716SOL    HW237611   3.287   3.037   5.403 -0.2111  0.2324  0.9933
 8717SOL     OW37612   3.859   3.451  11.625  0.5015 -0.3120  0.5994
 8717SOL    HW137613   3.782   3.486  11.581  0.9191 -0.3805 -0.2021
 8717SOL    HW237614   3.910   3.529  11.647  1.9188 -1.5413  1.7393
 8718SOL     OW37615   3.811   3.944   2.308  0.9172 -0.2056 -0.0234
 8718SOL    HW137616   3.788   4.026   2.264 -1.4579  0.8983  3.2736
 8718SOL    HW237617   3.877   3.913   2.246  0.2405  0.9936 -1.3759
 8719SOL     OW37618   0.148   1.122   3.181 -0.3122 -0.4261 -0.3104
 8719SOL    HW137619   0.144   1.217   3.177  2.0923 -0.3321 -0.7451
 8719SOL    HW237620   0.206   1.104   3.107  0.5669  1.9083 -0.1969
 8720SOL     OW37621   4.410   4.565   4.738  0.5987 -0.2936  0.3925
 8720SOL    HW137622   4.350   4.497   4.707 -2.8942  4.4628 -3.2658
 8720SOL    HW237623   4.467   4.568   4.662  1.4727 -1.8656  0.9709
 8721SOL     OW37624   1.029   2.390  12.705  0.1835 -0.0323 -0.9192
 8721SOL    HW137625   0.992   2.359  12.788 -0.6070  0.4441 -1.0929
 8721SOL    HW237626   1.064   2.308  12.670  0.2196 -0.3813 -0.0752
 8722SOL     OW37627   0.464   1.036  14.364 -0.1142 -0.0756  0.1385
 8722SOL    HW137628   0.514   1.113  14.390  0.7244 -0.6066  0.0787
 8722SOL    HW237629   0.502   0.964  14.414  2.7115  1.2654 -0.0856
 8723SOL     OW37630   0.563   2.093   7.962  0.2894 -0.3820  0.3314
 8723SOL    HW137631   0.508   2.035   8.017 -2.5155  2.4406  0.5144
 8723SOL    HW237632   0.599   2.160   8.019 -0.4334  0.0361  0.2956
 8724SOL     OW37633   1.609   3.854  12.094  0.1643 -0.1284  0.1216
 8724SOL    HW137634   1.641   3.944  12.095  0.8159 -0.3512 -1.4764
 8724SOL    HW237635   1.542   3.856  12.026  0.8561  1.6267 -0.5180
 8725SOL     OW37636   4.238   3.665   4.028  0.0630 -0.5666 -0.0872
 8725SOL    HW137637   4.331   3.674   4.048  0.1460 -1.5716  0.0067
 8725SOL    HW237638   4.237   3.570   4.012  1.8987 -0.7751  1.0988
 8726SOL     OW37639   4.151   3.496   5.306  0.4026 -0.1837  0.1755
 8726SOL    HW137640   4.110   3.553   5.241  1.1287 -1.6634 -1.5676
 8726SOL    HW237641   4.146   3.546   5.387  2.6155 -0.0092  0.2009
 8727SOL     OW37642   4.194   2.417   9.984 -0.2448  0.3293 -0.2110
 8727SOL    HW137643   4.169   2.339   9.934  0.5717 -0.1047  0.0445
 8727SOL    HW237644   4.138   2.481   9.941  0.9895  0.8781 -0.9914
 8728SOL     OW37645   1.368   4.069  11.295  0.0972  0.0498 -0.1715
 8728SOL    HW137646   1.402   4.140  11.350  3.4725 -1.7806  0.0395
 8728SOL    HW237647   1.443   4.037  11.246  1.1929 -0.8454  2.0811
 8729SOL     OW37648   1.668   3.903   5.773  0.0982  0.3199 -0.7509
 8729SOL    HW137649   1.678   3.860   5.688  0.5380  0.6055 -0.8459
 8729SOL    HW237650   1.662   3.993   5.741 -0.5121  0.6329  0.2371
 8730SOL     OW37651   2.224   1.249   0.689  0.7981  0.1048 -0.2792
 8730SOL    HW137652   2.167   1.235   0.765  0.0232 -2.3905 -1.3131
 8730SOL    HW237653   2.162   1.247   0.616 -0.8008  0.6936  1.0548
 8731SOL     OW37654   3.339   0.236   6.943  0.2635  0.3977 -0.1215
 8731SOL    HW137655   3.356   0.232   6.849 -0.5569 -0.3074 -0.2421
 8731SOL    HW237656   3.247   0.212   6.950  0.0498  0.6395 -2.2523
 8732SOL     OW37657   3.019   4.302  11.383 -0.2632  0.6328  0.3961
 8732SOL    HW137658   2.969   4.284  11.462  0.9900 -1.1116  0.7908
 8732SOL    HW237659   2.977   4.374  11.335 -1.5379 -0.6727 -0.4526
 8733SOL     OW37660   4.570   4.097   6.864  0.3616 -0.6907 -0.5492
 8733SOL    HW137661   4.639   4.078   6.801  1.4484  2.4582 -0.2750
 8733SOL    HW237662   4.620   4.102   6.945 -1.6622 -0.0770  0.6658
 8734SOL     OW37663   3.017   4.264  11.978 -0.1709 -0.0302  0.0744
 8734SOL    HW137664   2.993   4.172  11.970 -1.1415  0.1681  0.7256
 8734SOL    HW237665   2.939   4.318  11.994  0.4764  1.6517 -2.3819
 8735SOL     OW37666   3.376   4.216  15.232 -0.5368 -0.5225  0.5513
 8735SOL    HW137667   3.347   4.206  15.142 -0.2261  3.5223  0.0187
 8735SOL    HW237668   3.377   4.128  15.268 -0.1488 -0.6637  0.1991
 8736SOL     OW37669   2.657   2.348  12.769  0.3576  0.3206  0.1369
 8736SOL    HW137670   2.585   2.326  12.828  0.7146  1.4261  0.9889
 8736SOL    HW237671   2.709   2.413  12.816  0.3370 -1.1190  2.1503
 8737SOL     OW37672   3.117   4.488   2.541  0.3275 -0.0483 -0.2568
 8737SOL    HW137673   3.127   4.512   2.633  1.8237  0.0402 -0.4483
 8737SOL    HW237674   3.027   4.517   2.524 -0.1175 -2.2393 -1.6305
 8738SOL     OW37675   1.089   0.372   8.383 -0.2439 -0.3803 -0.2009
 8738SOL    HW137676   1.165   0.414   8.423  1.3941 -0.6207 -3.0850
 8738SOL    HW237677   1.082   0.403   8.293  0.8408 -1.8793 -0.7848
 8739SOL     OW37678   4.463   1.955  17.256  0.0648 -0.5683 -0.7377
 8739SOL    HW137679   4.512   1.970  17.175  0.7608  0.6822 -0.0719
 8739SOL    HW237680   4.451   2.049  17.268  1.3109 -0.3060 -1.6240
 8740SOL     OW37681   3.823   0.479   9.117 -0.6055  0.3760  0.2140
 8740SOL    HW137682   3.788   0.556   9.072  1.8715  0.7237 -1.1217
 8740SOL    HW237683   3.743   0.450   9.162 -0.8483 -1.4392 -1.3923
 8741SOL     OW37684   3.423   4.557  17.342  0.3186  0.5877 -0.0626
 8741SOL    HW137685   3.373   4.504  17.404  1.1893 -3.0031 -2.3837
 8741SOL    HW237686   3.473   4.491  17.293 -2.1165  0.5355 -2.4426
 8742SOL     OW37687   0.438   4.550   3.901 -0.0031 -0.6099 -0.3587
 8742SOL    HW137688   0.370   4.484   3.908  0.3259 -1.0867 -1.5392
 8742SOL    HW237689   0.475   4.532   3.814  0.9863 -2.3231  0.4241
 8743SOL     OW37690   1.748   3.584   7.690  0.2804 -0.2311 -0.2174
 8743SOL    HW137691   1.820   3.645   7.706  1.1201 -1.6978  1.5220
 8743SOL    HW237692   1.746   3.553   7.781 -1.1734  0.9300  0.1506
 8744SOL     OW37693   1.789   1.958   3.401 -0.8138  0.4110  0.1269
 8744SOL    HW137694   1.727   2.026   3.376 -0.5018  0.3857 -0.7206
 8744SOL    HW237695   1.776   1.964   3.496 -0.2707  0.5064  0.1976
 8745SOL     OW37696   2.249   1.547   5.397 -0.0077 -0.6153 -0.2918
 8745SOL    HW137697   2.324   1.494   5.422  0.6196 -0.5273 -2.0131
 8745SOL    HW237698   2.217   1.561   5.486 -1.5662  0.0745 -0.9564
 8746SOL     OW37699   2.374   3.244   8.524  0.2126  0.3516  0.3480
 8746SOL    HW137700   2.298   3.186   8.524 -0.4008  1.1519  1.2629
 8746SOL    HW237701   2.412   3.221   8.440  1.8338  0.0185  1.1691
 8747SOL     OW37702   1.010   3.636   2.417 -0.3699 -0.1242  0.2836
 8747SOL    HW137703   1.032   3.709   2.358 -0.5766  0.9766  1.5673
 8747SOL    HW237704   1.084   3.576   2.420  0.8870  1.4378  0.4639
 8748SOL     OW37705   4.673   0.989   5.361 -0.1607  0.1367 -0.0664
 8748SOL    HW137706   4.643   1.063   5.413  2.1046  1.7065 -1.0311
 8748SOL    HW237707   4.592   0.939   5.377 -0.8334  1.4406  0.5858
 8749SOL     OW37708   1.612   2.431  16.020  0.1916  0.2835 -0.3057
 8749SOL    HW137709   1.649   2.343  16.030  0.2154  0.2985 -0.2661
 8749SOL    HW237710   1.544   2.415  15.954  1.7527 -0.9381 -1.6499
 8750SOL     OW37711   4.278   3.807  14.135 -0.2453  0.0501 -0.1332
 8750SOL    HW137712   4.202   3.802  14.077 -0.8474 -0.8319  0.7203
 8750SOL    HW237713   4.353   3.816  14.076 -1.1269  2.1878 -0.9333
 8751SOL     OW37714   3.146   0.549   8.172 -0.6717 -0.1382 -0.8823
 8751SOL    HW137715   3.232   0.523   8.206 -0.6057 -0.6948 -1.4705
 8751SOL    HW237716   3.130   0.488   8.100  0.6469 -0.5811 -0.7993
 8752SOL     OW37717   4.664   2.135   4.521 -0.5429 -0.4394 -0.5236
 8752SOL    HW137718   0.003   2.192   4.475 -0.2702  1.9315  2.7614
 8752SOL    HW237719   4.606   2.202   4.557 -0.1065 -0.0846 -0.4748
 8753SOL     OW37720   4.618   0.573   2.425 -0.0161  0.4850  0.5910
 8753SOL    HW137721   4.662   0.507   2.373  0.0117  1.2205 -0.3097
 8753SOL    HW237722   4.632   0.647   2.366  0.1809 -0.0635 -0.0447
 8754SOL     OW37723   0.982   2.856   7.044  0.3565  0.2939  0.4117
 8754SOL    HW137724   1.019   2.781   7.090 -0.0896  0.6642  1.3575
 8754SOL    HW237725   0.971   2.917   7.117  2.2686 -0.3879  1.2897
 8755SOL     OW37726   0.436   0.582   4.536  0.5135 -0.1945  0.1428
 8755SOL    HW137727   0.460   0.491   4.555 -2.5051 -0.8570  0.8565
 8755SOL    HW237728   0.341   0.577   4.548  0.4412  1.9783  0.4233
 8756SOL     OW37729   1.409   3.054   3.856 -0.2779  0.1744 -0.2878
 8756SOL    HW137730   1.432   3.099   3.774 -1.6075  0.0505 -0.7196
 8756SOL    HW237731   1.431   3.129   3.911  3.0122 -1.4240  0.6023
 8757SOL     OW37732   2.009   2.292   5.810  0.0390 -0.4127  0.2035
 8757SOL    HW137733   2.036   2.382   5.793  1.7605 -0.5071  2.3750
 8757SOL    HW237734   2.081   2.248   5.764  0.6742  0.4273  0.4020
 8758SOL     OW37735   3.862   2.550   7.399  1.2092 -0.1511 -0.0413
 8758SOL    HW137736   3.785   2.515   7.355  1.1689  0.1467 -0.2068
 8758SOL    HW237737   3.857   2.643   7.378  0.3432  0.4513  2.8900
 8759SOL     OW37738   3.240   1.812   3.841  0.4903 -0.1609 -0.5602
 8759SOL    HW137739   3.198   1.822   3.756 -1.5928  2.2927  0.7422
 8759SOL    HW237740   3.254   1.717   3.833 -0.7040 -0.3045 -1.0580
 8760SOL     OW37741   3.702   0.955  16.655 -0.0712  1.1049  0.3979
 8760SOL    HW137742   3.730   0.983  16.743 -1.8417 -1.0309  1.6395
 8760SOL    HW237743   3.609   0.977  16.643 -0.9246 -3.2345 -0.8146
 8761SOL     OW37744   0.138   2.635   5.961  0.5093  0.0573 -0.5092
 8761SOL    HW137745   0.118   2.727   5.948 -0.6188 -0.1125  0.0610
 8761SOL    HW237746   0.059   2.613   6.010  1.9380 -1.4752  1.0667
 8762SOL     OW37747   1.022   1.115   5.186 -0.2577  0.3697  0.4701
 8762SOL    HW137748   0.969   1.186   5.151 -0.2567  0.3453  0.4179
 8762SOL    HW237749   1.088   1.110   5.116  1.1165 -0.8748  1.8740
 8763SOL     OW37750   1.671   4.092  10.008 -0.1595 -0.2147  0.0063
 8763SOL    HW137751   1.665   3.998   9.995 -0.0857 -0.0969 -0.9360
 8763SOL    HW237752   1.703   4.103  10.097  1.9067  1.4929 -0.9352
 8764SOL     OW37753   2.676   4.699  14.422  0.2834 -0.6006 -0.0316
 8764SOL    HW137754   2.706   0.010  14.506  2.4499  0.5484 -1.2736
 8764SOL    HW237755   2.616   0.049  14.419  0.3905 -0.5572 -1.0171
 8765SOL     OW37756   2.423   3.163   6.064  0.5944  0.1586  0.2213
 8765SOL    HW137757   2.452   3.150   6.154  1.2871 -2.6313 -0.4142
 8765SOL    HW237758   2.506   3.172   6.019  1.2023 -0.6263  1.1758
 8766SOL     OW37759   3.192   4.152   0.157 -0.2674 -0.2619  0.9827
 8766SOL    HW137760   3.141   4.170   0.236 -2.7069 -0.2922 -0.5975
 8766SOL    HW237761   3.282   4.139   0.189 -0.2610 -0.3189  0.9428
 8767SOL     OW37762   1.416   0.350   3.883 -0.0273  0.0995  0.0973
 8767SOL    HW137763   1.455   0.355   3.796  1.9937  0.0170  1.0060
 8767SOL    HW237764   1.468   0.276   3.916 -0.8739  0.0947  1.4402
 8768SOL     OW37765   3.332   4.315   1.787  0.1904 -0.2192  0.1566
 8768SOL    HW137766   3.325   4.352   1.699  1.3367  0.9852  0.5576
 8768SOL    HW237767   3.413   4.263   1.788  0.6945  0.5495 -0.1717
 8769SOL     OW37768   1.095   4.527   4.212  0.3462  0.1134  0.0756
 8769SOL    HW137769   1.123   4.531   4.303 -0.7276 -2.5390  0.5365
 8769SOL    HW237770   1.037   4.602   4.202 -0.8691 -0.6248  1.6777
 8770SOL     OW37771   4.125   3.960  13.540  0.2212 -0.0275 -0.2976
 8770SOL    HW137772   4.149   3.904  13.614  0.2305  0.5731  0.1656
 8770SOL    HW237773   4.060   3.918  13.484 -0.4529 -2.5184  2.3471
 8771SOL     OW37774   4.115   3.431   3.946  0.1678  0.0995 -0.2603
 8771SOL    HW137775   4.050   3.493   3.913 -1.6446 -2.3910 -1.4094
 8771SOL    HW237776   4.112   3.368   3.874 -1.4251  0.0569 -0.1484
 8772SOL     OW37777   3.271   1.429   9.587 -0.1134 -0.7394 -0.1459
 8772SOL    HW137778   3.264   1.379   9.506 -0.6808 -0.8186 -0.0441
 8772SOL    HW237779   3.366   1.435   9.575  0.0915 -1.3664  1.2424
 8773SOL     OW37780   1.270   4.425   7.795  0.2562  0.0255  0.1069
 8773SOL    HW137781   1.216   4.386   7.727 -0.5645  1.0970  0.1489
 8773SOL    HW237782   1.321   4.481   7.736  0.2016 -0.3116 -0.2669
 8774SOL     OW37783   0.777   2.800  16.188  0.0261  0.2173 -0.0008
 8774SOL    HW137784   0.801   2.844  16.106 -3.4611 -0.1305 -1.2123
 8774SOL    HW237785   0.684   2.824  16.187 -0.2317 -0.7103  1.6047
 8775SOL     OW37786   4.716   3.729   5.330  0.2127  0.0619 -0.0632
 8775SOL    HW137787   4.708   3.669   5.403  1.9357 -0.7960 -0.5928
 8775SOL    HW237788   0.037   3.796   5.382  0.2463  0.2839 -0.3785
 8776SOL     OW37789   1.976   0.420  10.478  0.1946  0.1144 -0.2752
 8776SOL    HW137790   1.945   0.346  10.426  0.1074 -0.1728  0.1781
 8776SOL    HW237791   1.916   0.423  10.553  2.1343  0.6760  1.2690
 8777SOL     OW37792   2.631   4.263   9.871  0.1673  0.3250  0.2744
 8777SOL    HW137793   2.630   4.240   9.964  0.2974  4.6705  1.3575
 8777SOL    HW237794   2.724   4.257   9.850  0.0435 -2.2190  0.4812
 8778SOL     OW37795   1.609   0.841   1.050 -0.6900 -0.0191 -0.6566
 8778SOL    HW137796   1.660   0.782   1.105  1.7267  2.1119 -0.6058
 8778SOL    HW237797   1.524   0.797   1.053 -1.0428  0.8159  1.1748
 8779SOL     OW37798   1.058   4.234   7.966  0.0971  0.3006 -0.0465
 8779SOL    HW137799   1.146   4.242   8.003 -0.3259 -0.1300  1.0591
 8779SOL    HW237800   1.071   4.199   7.877 -0.8495 -0.0943 -0.0233
 8780SOL     OW37801   4.124   3.868   7.305 -0.2557  0.6225  0.3147
 8780SOL    HW137802   4.193   3.926   7.273 -2.4371  2.9776 -0.0518
 8780SOL    HW237803   4.140   3.854   7.399  2.3759  1.6048  0.0079
 8781SOL     OW37804   0.494   1.903   2.509 -0.2203 -0.0968  0.0512
 8781SOL    HW137805   0.561   1.949   2.560  1.1581 -3.6806  1.5311
 8781SOL    HW237806   0.417   1.902   2.566  1.0273 -4.2020  1.6331
 8782SOL     OW37807   0.113   2.512   6.793  0.4746  0.0509  0.1253
 8782SOL    HW137808   0.045   2.531   6.858 -0.1353 -1.4889 -0.0574
 8782SOL    HW237809   0.061   2.450   6.742  1.4902 -0.7967  0.1457
 8783SOL     OW37810   1.030   3.059   6.330 -0.0775  0.2902  0.8674
 8783SOL    HW137811   1.105   3.105   6.367  0.4142 -0.0942  0.3706
 8783SOL    HW237812   1.015   3.116   6.254  1.2416  0.7674  0.9555
 8784SOL     OW37813   2.508   2.777   5.733 -0.9799 -0.1375 -0.3864
 8784SOL    HW137814   2.529   2.867   5.757  0.2763 -0.1087 -1.5687
 8784SOL    HW237815   2.427   2.775   5.784 -0.0842 -3.3852  0.8646
 8785SOL     OW37816   2.597   4.419   7.289  0.3990  0.2374  0.4899
 8785SOL    HW137817   2.550   4.346   7.329 -1.1935 -0.1064 -2.0102
 8785SOL    HW237818   2.543   4.492   7.318 -0.5833 -2.0814  4.4754
 8786SOL     OW37819   1.554   3.729   2.983  0.0609 -0.3608 -0.3065
 8786SOL    HW137820   1.517   3.656   2.933 -0.1928 -0.8346  0.5809
 8786SOL    HW237821   1.617   3.681   3.036 -0.6567 -1.4386 -0.4238
 8787SOL     OW37822   4.638   4.343  17.676 -0.0795 -0.0959  0.5289
 8787SOL    HW137823   4.599   4.430  17.688  0.6529  0.7330 -3.2202
 8787SOL    HW237824   4.664   4.316   0.068  0.0498  0.3002  0.6126
 8788SOL     OW37825   4.343   3.269   5.454 -0.7311 -0.0579 -0.1493
 8788SOL    HW137826   4.281   3.317   5.399 -0.3311  0.4997 -0.1164
 8788SOL    HW237827   4.426   3.305   5.421 -0.0569  0.8714  2.5983
 8789SOL     OW37828   4.478   1.041   7.018 -0.1151  0.3604  0.3465
 8789SOL    HW137829   4.386   1.067   7.020 -0.4128 -0.6199 -1.3089
 8789SOL    HW237830   4.514   1.128   6.997  1.3651 -0.1622  0.6800
 8790SOL     OW37831   0.404   2.793   6.003 -0.1790 -0.4361  0.1754
 8790SOL    HW137832   0.448   2.751   5.929 -1.5491  0.0301 -0.9034
 8790SOL    HW237833   0.377   2.712   6.047 -0.2135 -1.1152 -1.0776
 8791SOL     OW37834   2.069   1.671  12.907 -0.3509  0.6299  0.3968
 8791SOL    HW137835   2.113   1.669  12.992  1.7665  0.7225 -0.7151
 8791SOL    HW237836   1.990   1.712  12.942 -1.3616 -0.3911 -0.7059
 8792SOL     OW37837   0.210   0.111  17.100 -0.3071 -0.2300 -0.1905
 8792SOL    HW137838   0.223   0.128  17.006  1.6744  1.6892  0.4090
 8792SOL    HW237839   0.222   0.189  17.155  3.1170 -0.5414 -0.4818
 8793SOL     OW37840   3.425   3.127  13.570 -0.0809  0.3168  0.7893
 8793SOL    HW137841   3.438   3.040  13.608 -2.0285  1.1218  3.3221
 8793SOL    HW237842   3.507   3.137  13.522 -0.4164  0.7262  0.2994
 8794SOL     OW37843   1.907   0.235   4.792  0.3920  0.4648 -0.1899
 8794SOL    HW137844   1.884   0.253   4.883  1.5644 -1.1846  0.4136
 8794SOL    HW237845   1.884   0.313   4.741  0.1358  1.3914  1.3369
 8795SOL     OW37846   0.871   4.173  13.612  0.3247 -0.3723  0.3769
 8795SOL    HW137847   0.812   4.230  13.563  0.8306 -0.8015 -0.7226
 8795SOL    HW237848   0.938   4.241  13.620  0.4973 -0.5111  0.1209
 8796SOL     OW37849   0.613   2.674  14.823 -0.3499  0.4463 -0.0205
 8796SOL    HW137850   0.590   2.737  14.754  1.2300  2.2253  1.0657
 8796SOL    HW237851   0.646   2.596  14.780 -1.6122  0.8060 -1.6657
 8797SOL     OW37852   3.672   4.419   3.098 -0.3268  0.6552 -0.3900
 8797SOL    HW137853   3.693   4.428   3.005  0.8539  0.7935 -0.1141
 8797SOL    HW237854   3.744   4.469   3.136 -0.8758  1.5526 -0.5594
 8798SOL     OW37855   2.685   4.204   8.148 -0.1606 -0.1152  0.4881
 8798SOL    HW137856   2.596   4.169   8.155  0.1940 -0.9756  0.7588
 8798SOL    HW237857   2.736   4.123   8.154 -1.0773 -0.5771  2.0915
 8799SOL     OW37858   1.561   0.996  11.999  0.4299  0.0348 -0.0498
 8799SOL    HW137859   1.556   1.039  11.914  0.7958  1.4193  0.6128
 8799SOL    HW237860   1.467   0.978  12.007  0.3126 -0.1168 -1.8598
 8800SOL     OW37861   1.299   2.280   2.978 -0.4412 -0.7687  0.5897
 8800SOL    HW137862   1.382   2.297   3.023 -0.9404 -1.3898  1.7477
 8800SOL    HW237863   1.247   2.348   3.022  1.4938 -0.7717  2.8718
 8801SOL     OW37864   4.500   4.714  10.803  0.1386 -0.3567  0.0670
 8801SOL    HW137865   4.476   4.631  10.764 -1.9773 -0.4203  1.5307
 8801SOL    HW237866   4.550   0.032  10.733 -1.5252  0.7001 -0.4977
 8802SOL     OW37867   1.313   3.861  12.926  0.1922  0.0682  0.0605
 8802SOL    HW137868   1.328   3.824  12.839  0.2543 -0.0659  0.1285
 8802SOL    HW237869   1.228   3.829  12.958  0.1553  0.8175  0.7223
 8803SOL     OW37870   4.038   2.778   4.737  0.0330  0.3957  0.2099
 8803SOL    HW137871   4.029   2.687   4.765  0.9282  0.0803 -0.4980
 8803SOL    HW237872   4.071   2.824   4.814 -2.3614  1.7869  0.3965
 8804SOL     OW37873   2.751   3.856   9.776  0.7324 -0.4010  0.2208
 8804SOL    HW137874   2.693   3.850   9.700 -0.8089 -0.4060  1.4037
 8804SOL    HW237875   2.824   3.796   9.755  1.2598 -0.1007  1.1997
 8805SOL     OW37876   0.283   2.654  13.592 -0.4642 -0.6515  0.8045
 8805SOL    HW137877   0.270   2.613  13.678  0.1886 -1.3959  0.5587
 8805SOL    HW237878   0.213   2.610  13.544 -0.2255  2.5886 -2.4709
 8806SOL     OW37879   2.793   2.526  12.543 -0.2593  0.0069  0.4153
 8806SOL    HW137880   2.831   2.613  12.527 -3.1196  1.8977  3.7506
 8806SOL    HW237881   2.877   2.482  12.548  0.0628  0.5912  0.1126
 8807SOL     OW37882   2.112   3.325   7.127  0.5103 -0.2565  0.3005
 8807SOL    HW137883   2.032   3.287   7.092 -1.0691  1.5781  1.8804
 8807SOL    HW237884   2.082   3.414   7.148 -0.4579 -0.5543  0.1570
 8808SOL     OW37885   3.951   3.288   7.136 -0.4556 -0.4977  0.3251
 8808SOL    HW137886   3.894   3.273   7.211 -2.9927 -1.3097 -1.7888
 8808SOL    HW237887   4.030   3.315   7.183  1.2934 -0.3427 -2.7077
 8809SOL     OW37888   1.729   3.123   6.826  0.1850  0.3564 -0.2342
 8809SOL    HW137889   1.773   3.148   6.744 -0.7051  1.4961 -0.3543
 8809SOL    HW237890   1.646   3.168   6.816 -0.5784 -0.5943  1.7794
 8810SOL     OW37891   2.551   0.215   0.193 -0.4933 -0.4333  0.4206
 8810SOL    HW137892   2.470   0.175   0.223 -0.5373 -1.6308 -1.3136
 8810SOL    HW237893   2.553   0.288   0.254 -0.0373 -0.4810  0.4637
 8811SOL     OW37894   3.400   1.971   9.565  0.4974 -0.3863 -0.5821
 8811SOL    HW137895   3.452   2.014   9.632  0.0764  0.0024 -0.5053
 8811SOL    HW237896   3.456   1.969   9.487 -0.9944  0.6937 -1.6715
 8812SOL     OW37897   4.713   1.921   7.002 -0.2028  0.2145  0.3999
 8812SOL    HW137898   0.054   1.859   7.037 -2.0938 -0.3391  2.9532
 8812SOL    HW237899   0.022   1.927   6.912  1.5541 -1.9390  0.9036
 8813SOL     OW37900   1.529   1.124   7.456 -0.2384  0.2144  0.4919
 8813SOL    HW137901   1.443   1.090   7.480  0.6649 -0.7797  2.3014
 8813SOL    HW237902   1.545   1.072   7.377  2.0321 -0.9638  1.7557
 8814SOL     OW37903   0.157   3.712  11.950  0.3025  0.2268  0.2749
 8814SOL    HW137904   0.244   3.746  11.929  0.8675 -1.2574  0.2343
 8814SOL    HW237905   0.128   3.675  11.867  1.5578 -1.4640  0.5753
 8815SOL     OW37906   4.375   3.673   7.998  0.3459  0.4466  0.3678
 8815SOL    HW137907   4.326   3.717   8.068 -3.4864 -0.4626 -1.7595
 8815SOL    HW237908   4.435   3.741   7.968  1.8045 -2.0092 -2.1304
 8816SOL     OW37909   1.266   1.133   7.075  0.0911 -0.1219 -0.3825
 8816SOL    HW137910   1.247   1.207   7.016  1.1454 -1.5100 -2.4740
 8816SOL    HW237911   1.226   1.171   7.153  1.8473 -0.7761  0.8369
 8817SOL     OW37912   1.358   1.655  16.697  0.0710 -0.1417  0.2368
 8817SOL    HW137913   1.338   1.724  16.633  0.6516 -1.5532 -1.4543
 8817SOL    HW237914   1.268   1.628  16.710  0.3438 -0.0964  2.2218
 8818SOL     OW37915   0.960   2.521  16.686 -0.0986  0.7038 -0.4283
 8818SOL    HW137916   1.035   2.576  16.662  0.9642 -1.1638 -1.4801
 8818SOL    HW237917   0.894   2.580  16.721 -1.1250 -1.1790  0.7772
 8819SOL     OW37918   1.191   1.038   3.277  0.6646 -0.3457  0.3279
 8819SOL    HW137919   1.273   0.988   3.271 -0.8568 -2.5257 -1.8183
 8819SOL    HW237920   1.215   1.103   3.344 -0.2801  1.5745 -1.2182
 8820SOL     OW37921   2.889   4.558   3.166 -0.5492  0.5520  0.1343
 8820SOL    HW137922   2.819   4.624   3.161 -0.5595  0.5054 -0.3439
 8820SOL    HW237923   2.842   4.477   3.145  1.9698 -1.3600  2.0493
 8821SOL     OW37924   3.603   4.330  10.323  0.1846 -0.1280  0.1190
 8821SOL    HW137925   3.570   4.392  10.388 -0.4474  0.3168 -0.6199
 8821SOL    HW237926   3.686   4.306  10.363  0.1522 -0.4998 -0.0378
 8822SOL     OW37927   3.406   3.310   3.925 -0.1613 -0.1436  0.0275
 8822SOL    HW137928   3.458   3.246   3.878  0.0697 -0.2358  0.4036
 8822SOL    HW237929   3.465   3.306   4.001 -1.2907  0.4439  0.9460
 8823SOL     OW37930   2.223   0.353   2.994 -0.0185 -0.9580  0.0232
 8823SOL    HW137931   2.231   0.265   3.030  0.3719 -2.0257 -2.6865
 8823SOL    HW237932   2.147   0.331   2.939 -1.0925 -2.4412  2.1001
 8824SOL     OW37933   1.402   3.840   5.813 -0.2477 -0.0949 -0.1391
 8824SOL    HW137934   1.496   3.858   5.810 -0.3019  0.0179 -1.0862
 8824SOL    HW237935   1.404   3.745   5.807  3.0376 -0.1265  1.2369
 8825SOL     OW37936   3.102   1.571   9.251  0.0644 -0.2714  0.1953
 8825SOL    HW137937   3.102   1.666   9.236  2.1083 -0.2459  0.3308
 8825SOL    HW237938   3.086   1.559   9.345  2.2086 -0.6976  0.5026
 8826SOL     OW37939   1.358   3.008  12.287  0.2430 -0.5143 -0.0787
 8826SOL    HW137940   1.285   2.960  12.249 -0.0497 -0.0750 -0.0642
 8826SOL    HW237941   1.359   3.090  12.237 -0.4140 -1.5632 -1.8029
 8827SOL     OW37942   4.235   1.687   8.020  0.1238 -0.3076 -0.4507
 8827SOL    HW137943   4.163   1.644   8.066  1.3983 -2.5882 -0.5860
 8827SOL    HW237944   4.301   1.691   8.089 -0.0559  0.3873 -0.3155
 8828SOL     OW37945   3.807   1.400   9.277 -0.6183 -0.1627 -0.4760
 8828SOL    HW137946   3.854   1.454   9.213  0.4960  1.4436  1.7315
 8828SOL    HW237947   3.733   1.374   9.221 -0.6437 -2.5143  0.6541
 8829SOL     OW37948   1.353   2.949  11.329 -0.3889 -0.4256 -0.1431
 8829SOL    HW137949   1.318   2.860  11.316  1.1868 -0.7354 -2.2109
 8829SOL    HW237950   1.372   2.936  11.422 -0.4840  0.7223  0.0290
 8830SOL     OW37951   3.415   0.148   6.302  0.6568  0.5336 -0.0451
 8830SOL    HW137952   3.346   0.082   6.306  0.8998  0.2806  0.0185
 8830SOL    HW237953   3.489   0.104   6.345  0.6207  3.3514  2.9375
 8831SOL     OW37954   1.906   3.489   7.455 -0.1374  0.1059  0.0614
 8831SOL    HW137955   1.853   3.546   7.511 -0.8774 -3.2554  2.7997
 8831SOL    HW237956   1.994   3.526   7.450  0.6775 -2.1062 -1.9589
 8832SOL     OW37957   3.725   0.599   4.750 -0.0269  0.0349  0.8980
 8832SOL    HW137958   3.769   0.523   4.789 -0.2357  0.6339  2.3202
 8832SOL    HW237959   3.803   0.653   4.756 -0.7603  1.0045  1.7584
 8833SOL     OW37960   1.279   1.326  16.634 -0.2581  0.0504 -0.0445
 8833SOL    HW137961   1.238   1.305  16.550 -0.0599  0.0232 -0.1359
 8833SOL    HW237962   1.335   1.250  16.654 -1.2338 -0.8763 -0.8384
 8834SOL     OW37963   3.208   2.260   9.323  0.9180 -0.0759  0.3641
 8834SOL    HW137964   3.158   2.316   9.264 -1.5996 -2.2068  0.4771
 8834SOL    HW237965   3.138   2.219   9.373  0.8786  1.0873  1.2554
 8835SOL     OW37966   3.566   1.840  15.258  0.0202  0.4000 -0.5663
 8835SOL    HW137967   3.483   1.844  15.210 -3.0688 -2.4483  4.5264
 8835SOL    HW237968   3.592   1.932  15.255 -0.6031  0.6020  0.1852
 8836SOL     OW37969   3.923   1.561   9.093 -0.3424 -0.2670  0.1705
 8836SOL    HW137970   3.959   1.649   9.088 -1.1783 -0.0709 -2.6711
 8836SOL    HW237971   3.903   1.545   9.001 -0.0422  1.0816 -0.1171
 8837SOL     OW37972   0.675   1.993   2.018 -0.2346 -0.0923 -0.0274
 8837SOL    HW137973   0.636   2.080   2.014 -0.5913 -0.1064  2.9532
 8837SOL    HW237974   0.687   1.978   1.925  1.2938  0.1419  0.1342
 8838SOL     OW37975   2.230   4.687   8.925 -0.0619  0.2066  0.4160
 8838SOL    HW137976   2.267   0.047   8.897 -1.3039  0.6316  0.0657
 8838SOL    HW237977   2.277   4.633   8.861  1.4926  0.2955  1.4958
 8839SOL     OW37978   2.839   2.167  12.679 -0.7984 -0.2567  0.0066
 8839SOL    HW137979   2.785   2.229  12.727 -1.1960  0.1029 -0.9280
 8839SOL    HW237980   2.917   2.220  12.698 -0.6850 -0.1863 -0.6830
 8840SOL     OW37981   3.615   0.617   7.460  0.1313  0.4646  0.1777
 8840SOL    HW137982   3.610   0.657   7.373  1.2128 -4.8072 -2.2838
 8840SOL    HW237983   3.567   0.684   7.509  0.5685  0.2658  0.8798
 8841SOL     OW37984   2.000   4.170  15.592 -0.4138 -0.0532 -0.4647
 8841SOL    HW137985   2.009   4.254  15.638  0.2502 -1.3920  1.8783
 8841SOL    HW237986   1.987   4.196  15.501 -0.0755 -0.4872 -0.6350
 8842SOL     OW37987   3.773   0.133  10.480  0.2693 -0.0188 -0.3346
 8842SOL    HW137988   3.778   0.038  10.487 -0.1197 -0.0808 -0.9863
 8842SOL    HW237989   3.856   0.154  10.438  0.0593  3.9242  1.2055
 8843SOL     OW37990   0.435   4.350   8.177  0.5071 -0.5011 -0.7915
 8843SOL    HW137991   0.479   4.361   8.093 -1.4155 -0.5543 -1.8116
 8843SOL    HW237992   0.482   4.273   8.210  0.0292 -0.3233  0.3169
 8844SOL     OW37993   2.520   1.734   2.132 -0.3628  0.7918 -0.3903
 8844SOL    HW137994   2.588   1.773   2.186 -2.1654  0.1790  2.3100
 8844SOL    HW237995   2.567   1.713   2.052  1.6624  1.2371  0.7024
 8845SOL     OW37996   2.106   2.693   2.393 -0.2177  0.1794  0.7927
 8845SOL    HW137997   2.136   2.728   2.309  3.4559 -0.9838  1.6348
 8845SOL    HW237998   2.047   2.621   2.371  1.1466 -0.3097 -1.2521
 8846SOL     OW37999   0.602   0.367  17.039 -0.3149 -0.1678  0.6306
 8846SOL    HW138000   0.563   0.366  16.952 -1.4497  0.4217  1.1332
 8846SOL    HW238001   0.656   0.288  17.032 -2.1041 -1.1732 -1.8832
 8847SOL     OW38002   4.254   0.096  10.281 -0.0908 -0.1279 -0.3081
 8847SOL    HW138003   4.297   0.024  10.328 -0.5119  0.2232  0.6038
 8847SOL    HW238004   4.290   0.085  10.193 -0.5722  3.1678 -0.9171
 8848SOL     OW38005   4.130   3.412   2.407  0.0276  0.5736  0.2895
 8848SOL    HW138006   4.045   3.455   2.399  0.2510  1.1873  1.2701
 8848SOL    HW238007   4.104   3.321   2.393  0.2712  0.8881 -2.2279
 8849SOL     OW38008   2.056   0.879   3.180  0.6108  0.4333 -0.0582
 8849SOL    HW138009   2.080   0.795   3.142 -0.3828 -0.5255  1.4055
 8849SOL    HW238010   2.093   0.940   3.116  1.4330 -1.6004 -1.5061
 8850SOL     OW38011   2.112   2.901   5.472  0.4887  0.3951 -0.2552
 8850SOL    HW138012   2.137   2.936   5.558  0.3213  1.8411 -0.7907
 8850SOL    HW238013   2.186   2.931   5.419  0.8456 -0.3139 -0.1493
 8851SOL     OW38014   1.864   0.430   5.340  0.3416  0.1685  0.0945
 8851SOL    HW138015   1.768   0.434   5.339  0.3114 -0.5760 -0.7778
 8851SOL    HW238016   1.888   0.486   5.414  0.9535  0.1737 -0.1085
 8852SOL     OW38017   3.404   4.564   8.099  0.6799  0.6095  0.0211
 8852SOL    HW138018   3.339   4.630   8.074 -0.6480 -0.5596  0.4041
 8852SOL    HW238019   3.469   4.580   8.030 -0.2251  1.8063 -0.5603
 8853SOL     OW38020   4.490   3.846   7.625 -0.2264 -0.3568 -0.2215
 8853SOL    HW138021   4.476   3.837   7.719 -0.3320  0.3961 -0.1598
 8853SOL    HW238022   4.398   3.859   7.601 -0.4014  0.6385  0.9510
 8854SOL     OW38023   3.384   1.092   4.879 -0.5855 -0.1717  0.0128
 8854SOL    HW138024   3.400   1.024   4.813  0.4857 -0.8936  1.0202
 8854SOL    HW238025   3.453   1.154   4.855 -2.0522  0.8769 -1.4993
 8855SOL     OW38026   2.752   4.324   0.479  0.0079 -0.5777  0.0561
 8855SOL    HW138027   2.665   4.284   0.474  0.9910 -3.0517  3.3161
 8855SOL    HW238028   2.753   4.378   0.557  1.2734 -1.1921  0.4582
 8856SOL     OW38029   1.998   3.380   4.744  0.0705 -0.0088  0.4149
 8856SOL    HW138030   2.086   3.416   4.729  0.3923 -0.8410  0.3193
 8856SOL    HW238031   1.965   3.366   4.655 -0.0170  0.7823  0.3211
 8857SOL     OW38032   1.773   3.439   7.000 -0.4443  0.0900 -0.3006
 8857SOL    HW138033   1.837   3.482   7.055 -0.4884 -1.6113  1.0915
 8857SOL    HW238034   1.813   3.352   6.991  0.2752  0.4193 -0.2002
 8858SOL     OW38035   0.080   3.143   6.039 -0.0124 -0.1132  0.2534
 8858SOL    HW138036   0.085   3.219   5.982 -0.0308 -1.5445 -1.6694
 8858SOL    HW238037   0.047   3.179   6.122  1.3742  0.0178  0.7408
 8859SOL     OW38038   0.867   0.696   3.254 -0.4236 -0.0547  0.7284
 8859SOL    HW138039   0.816   0.699   3.173  1.4856 -1.0515 -0.5087
 8859SOL    HW238040   0.922   0.772   3.236 -1.0524  0.5825  1.4895
 8860SOL     OW38041   4.282   4.536   9.015 -0.2844 -0.5130  0.2990
 8860SOL    HW138042   4.286   4.450   9.057 -0.3047 -0.0828  1.1770
 8860SOL    HW238043   4.262   4.503   8.927  0.4319 -0.7575  0.2281
 8861SOL     OW38044   1.116   4.062   3.620 -0.5956  0.0633 -0.5285
 8861SOL    HW138045   1.090   4.101   3.703 -0.8471  2.8713 -1.9169
 8861SOL    HW238046   1.140   4.142   3.572  0.8944 -0.1567 -0.1697
 8862SOL     OW38047   2.348   2.373   3.426 -0.2292 -0.6174  0.0629
 8862SOL    HW138048   2.302   2.457   3.430 -0.2230 -0.5706 -0.8016
 8862SOL    HW238049   2.403   2.382   3.504 -1.3253 -0.0869  0.7636
 8863SOL     OW38050   1.289   3.170   5.796 -0.1916 -0.2704 -0.1618
 8863SOL    HW138051   1.230   3.104   5.758 -1.5005  1.0518 -0.4028
 8863SOL    HW238052   1.331   3.109   5.857  0.4980  0.5557  0.1893
 8864SOL     OW38053   4.166   3.644  16.665  0.4375 -0.0048  0.1103
 8864SOL    HW138054   4.088   3.591  16.650  2.0004 -1.8698 -1.4729
 8864SOL    HW238055   4.175   3.653  16.760  0.7786 -2.3994  0.3074
 8865SOL     OW38056   1.671   0.922  14.672  0.5787  0.6858  0.2113
 8865SOL    HW138057   1.678   1.017  14.675 -1.0247  0.8775 -2.6290
 8865SOL    HW238058   1.603   0.908  14.606  1.7919  0.9147 -1.0833
 8866SOL     OW38059   1.665   1.140  10.575  0.5654  0.4602  0.0024
 8866SOL    HW138060   1.703   1.052  10.582  1.0354  1.0486  4.5986
 8866SOL    HW238061   1.740   1.198  10.588  2.1982 -1.5340 -0.4494
 8867SOL     OW38062   4.362   1.852   2.531  0.3391 -0.0754 -0.0534
 8867SOL    HW138063   4.343   1.759   2.543  1.5412 -0.3829 -0.5254
 8867SOL    HW238064   4.424   1.876   2.600  1.7067  0.8119 -1.5825
 8868SOL     OW38065   1.882   3.044   5.911 -0.5723 -0.1477  0.1982
 8868SOL    HW138066   1.906   2.951   5.909 -2.1284 -0.5333 -0.1549
 8868SOL    HW238067   1.884   3.060   6.005  1.3782 -2.6195  0.6018
 8869SOL     OW38068   2.978   1.713   3.387 -0.3046 -0.1960 -0.0720
 8869SOL    HW138069   2.986   1.618   3.390 -1.6002 -0.2745  0.7473
 8869SOL    HW238070   2.886   1.725   3.409 -0.0971  0.6807  0.3321
 8870SOL     OW38071   1.704   1.588   4.184  0.2613 -0.1725  0.5567
 8870SOL    HW138072   1.614   1.567   4.160  0.1738 -0.1230  0.8473
 8870SOL    HW238073   1.687   1.646   4.258 -1.1093 -3.0567  2.4838
 8871SOL     OW38074   1.125   3.688   6.786 -0.8042  0.0560 -0.3030
 8871SOL    HW138075   1.055   3.663   6.725  0.1482  0.6386 -1.6324
 8871SOL    HW238076   1.121   3.783   6.777 -1.9528  0.1169  0.9229
 8872SOL     OW38077   4.702   1.405   5.736  0.2446 -0.1815  0.0575
 8872SOL    HW138078   0.024   1.489   5.732 -2.4654  1.2902 -0.4352
 8872SOL    HW238079   4.617   1.439   5.707  0.0757 -0.4479  0.2394
 8873SOL     OW38080   2.594   1.038   8.104  0.4500  0.3038 -0.3135
 8873SOL    HW138081   2.668   1.072   8.052 -0.8141  0.7822 -1.7938
 8873SOL    HW238082   2.605   1.094   8.181  1.8662 -0.4425  0.0271
 8874SOL     OW38083   4.461   3.839   4.314  0.5419  0.1306  0.0693
 8874SOL    HW138084   4.444   3.758   4.362 -2.1966 -0.2561 -1.5033
 8874SOL    HW238085   4.427   3.816   4.227  1.7174  0.3241 -0.4445
 8875SOL     OW38086   3.490   4.548   1.297 -0.2491 -0.7229 -0.2881
 8875SOL    HW138087   3.421   4.545   1.231  0.3691  0.3225 -0.9811
 8875SOL    HW238088   3.547   4.612   1.256 -1.7333  1.4500  1.0295
 8876SOL     OW38089   1.108   0.680  14.322 -0.4290 -0.1571  0.2357
 8876SOL    HW138090   1.135   0.726  14.242 -1.8590  2.2363  1.1496
 8876SOL    HW238091   1.047   0.613  14.291 -0.3405 -1.0789  2.0724
 8877SOL     OW38092   2.162   4.640   0.796 -0.4063  0.0200 -0.1256
 8877SOL    HW138093   2.085   4.618   0.745 -1.1665  1.6613  0.3243
 8877SOL    HW238094   2.190   4.555   0.831  0.4083  1.9680  3.9870
 8878SOL     OW38095   4.269   1.563   2.527  0.0634  0.1535  0.0950
 8878SOL    HW138096   4.210   1.561   2.602  2.4774  0.8154  2.0208
 8878SOL    HW238097   4.238   1.499   2.463 -2.9631  0.9109  0.8321
 8879SOL     OW38098   0.248   3.285  15.839 -0.2751  0.2760 -0.4085
 8879SOL    HW138099   0.233   3.365  15.889 -1.4229 -0.0431 -0.2295
 8879SOL    HW238100   0.318   3.311  15.779 -0.6327  0.5095 -0.7242
 8880SOL     OW38101   2.971   3.055   6.007  0.0155  0.2061  1.0826
 8880SOL    HW138102   3.038   3.121   6.022 -0.6795  1.1710 -0.1162
 8880SOL    HW238103   2.999   3.014   5.925 -0.3432 -0.4830  1.3050
 8881SOL     OW38104   4.162   0.852   5.389  0.5261 -0.2265 -0.0569
 8881SOL    HW138105   4.102   0.901   5.445 -1.1564 -0.3286 -1.7684
 8881SOL    HW238106   4.099   0.785   5.364  1.6395 -1.1984 -0.2418
 8882SOL     OW38107   0.820   1.632  10.263  0.5017 -0.2788  0.3019
 8882SOL    HW138108   0.913   1.610  10.265 -0.0737 -2.6527  0.7479
 8882SOL    HW238109   0.803   1.698  10.196 -0.5584 -0.7019  0.1526
 8883SOL     OW38110   1.825   0.645   2.130  0.7163 -0.0726 -0.1159
 8883SOL    HW138111   1.851   0.561   2.093  0.8245  0.4476 -1.2251
 8883SOL    HW238112   1.748   0.633   2.186  0.2645 -1.6078 -1.0809
 8884SOL     OW38113   0.312   1.055   6.683  0.3093  0.2710  0.2223
 8884SOL    HW138114   0.254   1.131   6.674  1.6457  0.8788 -3.3945
 8884SOL    HW238115   0.239   0.993   6.684  3.0104 -2.8543  3.8617
 8885SOL     OW38116   0.086   0.854   3.168 -0.3399  0.4411 -0.5148
 8885SOL    HW138117   0.098   0.885   3.078  0.2786  1.9803  0.0887
 8885SOL    HW238118   0.086   0.944   3.202  0.4082 -0.2566  1.2952
 8886SOL     OW38119   1.537   1.446   2.240 -0.3414  0.0033  0.1614
 8886SOL    HW138120   1.537   1.447   2.335 -1.8187 -1.2381  0.1741
 8886SOL    HW238121   1.600   1.376   2.225  1.6286  1.5367  1.3455
 8887SOL     OW38122   1.644   1.103   6.036 -0.9279  0.2441  0.7716
 8887SOL    HW138123   1.722   1.147   6.071 -0.8062  0.8044 -0.1960
 8887SOL    HW238124   1.602   1.063   6.112  2.8160  0.8208  3.1675
 8888SOL     OW38125   0.823   0.218   6.334  0.0394  0.0395  0.9078
 8888SOL    HW138126   0.862   0.276   6.268  0.3078 -1.7423 -0.5219
 8888SOL    HW238127   0.794   0.145   6.280  2.8508  1.5205 -2.6596
 8889SOL     OW38128   3.915   3.330   4.771  0.3375 -0.4640 -0.0421
 8889SOL    HW138129   3.930   3.312   4.863  2.4384 -0.9530 -0.4827
 8889SOL    HW238130   3.833   3.283   4.755  0.9328 -0.6437 -2.6920
 8890SOL     OW38131   2.513   1.822   2.942  0.0208 -0.1199 -0.1705
 8890SOL    HW138132   2.484   1.865   2.861 -1.4585 -0.6126  0.1179
 8890SOL    HW238133   2.503   1.898   2.999  2.7785 -1.0412  1.5796
 8891SOL     OW38134   2.311   4.540   1.539  0.1216 -0.5209  0.6436
 8891SOL    HW138135   2.233   4.587   1.510 -0.0245  0.1295  2.0939
 8891SOL    HW238136   2.316   4.575   1.628  0.3615  0.7132  0.1419
 8892SOL     OW38137   0.945   0.741   7.249  0.7496 -0.4181 -0.6786
 8892SOL    HW138138   0.996   0.777   7.176 -0.6022 -0.4339 -1.6181
 8892SOL    HW238139   0.866   0.716   7.201 -0.2398  0.5076  0.4720
 8893SOL     OW38140   0.592   0.156  16.020  0.2968  0.5477 -0.2018
 8893SOL    HW138141   0.600   0.078  15.965 -0.7524  1.3956 -1.5728
 8893SOL    HW238142   0.582   0.113  16.104 -2.5608 -1.2442 -1.4597
 8894SOL     OW38143   3.366   0.242  17.464 -0.2309  0.8970 -0.4923
 8894SOL    HW138144   3.339   0.332  17.482 -3.5940 -0.6404  2.0064
 8894SOL    HW238145   3.298   0.197  17.514 -1.3421  0.0189 -2.7602
 8895SOL     OW38146   2.974   3.733   5.955  0.0677  0.2567 -0.4178
 8895SOL    HW138147   3.031   3.665   5.993 -0.1435 -0.4367 -1.3411
 8895SOL    HW238148   2.899   3.688   5.917  1.1659 -1.5157 -0.5202
 8896SOL     OW38149   2.159   1.347   3.689  0.1560 -0.0334  0.4390
 8896SOL    HW138150   2.090   1.384   3.743  0.7394  0.5158  0.8200
 8896SOL    HW238151   2.146   1.392   3.606  2.9112 -1.5242 -0.8000
 8897SOL     OW38152   1.921   3.367   8.294 -0.1293 -0.0102  0.1409
 8897SOL    HW138153   1.877   3.374   8.379 -0.3755 -2.6489  0.2462
 8897SOL    HW238154   1.965   3.282   8.301 -2.3160 -1.0771  1.1730
 8898SOL     OW38155   2.118   3.434  12.895 -0.4414 -0.5317  0.4198
 8898SOL    HW138156   2.168   3.515  12.888  0.0460 -0.8035  0.7839
 8898SOL    HW238157   2.124   3.412  12.802 -1.4322  2.9294 -0.4459
 8899SOL     OW38158   3.131   0.545   5.437  0.2536  0.0243 -0.2945
 8899SOL    HW138159   3.126   0.587   5.523  4.2694  0.2676 -0.1853
 8899SOL    HW238160   3.045   0.502   5.435  1.9122 -3.2926 -0.0778
 8900SOL     OW38161   0.437   2.750  17.251 -0.2097 -0.6329 -0.1687
 8900SOL    HW138162   0.511   2.810  17.242 -0.1006 -0.6341  0.7089
 8900SOL    HW238163   0.479   2.677  17.205 -1.3470 -1.4610  0.1071
 8901SOL     OW38164   0.444   2.633   3.761 -0.4870  0.1406  0.1676
 8901SOL    HW138165   0.534   2.603   3.772  0.2948  2.3819  0.0105
 8901SOL    HW238166   0.454   2.719   3.719  0.8894 -1.1129 -2.1243
 8902SOL     OW38167   0.496   2.441   2.195 -0.7157 -0.3079 -0.4259
 8902SOL    HW138168   0.532   2.481   2.116  0.1237 -2.6916 -1.2394
 8902SOL    HW238169   0.532   2.352   2.192  3.0010  1.2309 -1.3503
 8903SOL     OW38170   2.750   2.852   7.986 -0.2426  0.0187 -0.3788
 8903SOL    HW138171   2.766   2.891   8.072  0.7656 -1.1545 -0.0262
 8903SOL    HW238172   2.832   2.802   7.986 -0.2831 -0.0469  1.1992
 8904SOL     OW38173   2.521   1.470  13.912 -0.2261 -0.1322 -0.7723
 8904SOL    HW138174   2.520   1.561  13.882 -2.7633 -0.2963 -1.1917
 8904SOL    HW238175   2.602   1.475  13.962 -1.2884 -0.1990  0.9488
 8905SOL     OW38176   3.974   4.153   5.362  0.0642 -0.1089  0.0216
 8905SOL    HW138177   3.899   4.166   5.305  0.4279 -0.0156 -0.4375
 8905SOL    HW238178   4.024   4.080   5.326 -1.9750 -1.3635 -0.2546
 8906SOL     OW38179   1.330   3.837   6.243 -0.2401  1.3115 -0.3409
 8906SOL    HW138180   1.299   3.832   6.153  1.0147  2.2731 -0.8228
 8906SOL    HW238181   1.396   3.907   6.249  2.3555 -1.1120 -0.4983
 8907SOL     OW38182   2.858   1.876   4.982 -0.0184 -0.5456  0.4463
 8907SOL    HW138183   2.824   1.795   5.020  1.0272 -1.2294 -0.0948
 8907SOL    HW238184   2.863   1.861   4.888 -2.0650  1.3506  0.0369
 8908SOL     OW38185   1.453   4.020   8.821 -0.4270  0.5335 -0.0359
 8908SOL    HW138186   1.410   4.095   8.863 -0.4033  1.5713 -1.8414
 8908SOL    HW238187   1.514   4.069   8.766 -0.4642  0.0051 -0.5413
 8909SOL     OW38188   4.394   2.609   7.455  0.1057  0.0676 -0.1830
 8909SOL    HW138189   4.406   2.592   7.548 -0.9818 -0.6154 -0.1727
 8909SOL    HW238190   4.299   2.620   7.448 -0.0675 -1.2056  0.2770
 8910SOL     OW38191   2.021   0.512   8.738  0.0229 -0.1146 -0.2302
 8910SOL    HW138192   2.076   0.590   8.747  0.3899 -0.0711 -2.8996
 8910SOL    HW238193   2.010   0.494   8.831  1.8169 -1.0160 -0.2138
 8911SOL     OW38194   4.500   3.163   8.707 -0.1588  0.4240 -0.2959
 8911SOL    HW138195   4.461   3.109   8.638  1.2070 -2.2536  1.0148
 8911SOL    HW238196   4.588   3.128   8.694 -0.1108  0.7024 -0.7101
 8912SOL     OW38197   3.321   3.662   1.218  0.0905 -0.6353 -0.0203
 8912SOL    HW138198   3.385   3.709   1.164 -0.4586  1.4233  1.1096
 8912SOL    HW238199   3.326   3.707   1.302  0.2337 -0.9155  0.1210
 8913SOL     OW38200   3.604   4.307  14.616 -0.7504 -0.2336 -0.1955
 8913SOL    HW138201   3.657   4.342  14.688 -1.8425 -1.0965  1.0415
 8913SOL    HW238202   3.666   4.268  14.555  0.1280  1.6900 -0.5339
 8914SOL     OW38203   0.806   2.482   0.985  0.3863 -0.2593 -0.2703
 8914SOL    HW138204   0.738   2.464   1.049  0.5823  0.9420  0.2685
 8914SOL    HW238205   0.879   2.479   1.046  0.6330 -0.2758 -0.5655
 8915SOL     OW38206   2.987   3.015  15.690 -0.3478  0.0019  0.2861
 8915SOL    HW138207   2.967   2.968  15.610 -1.6621  0.7907  0.1472
 8915SOL    HW238208   3.013   3.103  15.662  0.2469 -1.2265 -2.9086
 8916SOL     OW38209   2.245   3.912   1.068  0.7783 -0.0994  0.3322
 8916SOL    HW138210   2.165   3.895   1.019  0.4946 -1.4455  1.2706
 8916SOL    HW238211   2.278   3.822   1.071  1.1490 -0.0639 -2.0919
 8917SOL     OW38212   2.973   0.380  16.837 -0.0642  0.0026 -0.2572
 8917SOL    HW138213   2.957   0.289  16.809  0.8840 -0.2684  0.0921
 8917SOL    HW238214   3.066   0.400  16.837  0.1116 -0.8774 -1.6562
 8918SOL     OW38215   0.268   3.447   4.348  0.3507  0.3703  0.6562
 8918SOL    HW138216   0.256   3.468   4.440  1.3842 -0.4681  0.9814
 8918SOL    HW238217   0.362   3.454   4.328  0.3925  1.0728  1.0939
 8919SOL     OW38218   1.160   2.835   0.997 -0.4553 -0.2862 -0.4855
 8919SOL    HW138219   1.250   2.839   0.965 -0.6651 -1.0203 -1.1834
 8919SOL    HW238220   1.152   2.744   1.024 -2.4487 -0.2421 -0.9266
 8920SOL     OW38221   3.587   1.161  17.118 -0.5718 -0.1196  0.5591
 8920SOL    HW138222   3.621   1.127  17.200  2.2767 -0.8854 -0.9439
 8920SOL    HW238223   3.501   1.196  17.143 -1.4973 -1.5257 -0.6865
 8921SOL     OW38224   2.834   3.723   2.829 -0.0669  0.1351  1.1238
 8921SOL    HW138225   2.900   3.767   2.882 -0.7581  0.4464  1.7197
 8921SOL    HW238226   2.761   3.783   2.841  0.2060  0.1582  2.6952
 8922SOL     OW38227   2.125   4.261   5.696  0.4760  0.0287 -0.0011
 8922SOL    HW138228   2.065   4.235   5.626 -1.1280  2.9134  0.2849
 8922SOL    HW238229   2.076   4.341   5.718 -0.5590 -0.2665 -1.2661
 8923SOL     OW38230   3.205   0.406   2.826  0.4931  0.6711  0.0020
 8923SOL    HW138231   3.190   0.364   2.741 -2.0453  1.1464  0.2297
 8923SOL    HW238232   3.196   0.499   2.807 -0.4365  0.7960  1.0695
 8924SOL     OW38233   2.372   3.238   7.207  0.8591 -0.0340 -0.5441
 8924SOL    HW138234   2.402   3.260   7.119 -0.7229  1.7779 -0.6220
 8924SOL    HW238235   2.286   3.279   7.196  0.1898 -0.7832  1.7481
 8925SOL     OW38236   0.956   3.816   8.398  0.1554 -0.2936  0.4955
 8925SOL    HW138237   0.981   3.909   8.403 -0.5243 -0.1502  1.2582
 8925SOL    HW238238   0.879   3.804   8.453 -1.0768 -0.4867 -1.2735
 8926SOL     OW38239   2.682   2.417   8.551 -0.1025  0.3693  0.4056
 8926SOL    HW138240   2.738   2.370   8.613  0.6708 -0.0418 -0.6244
 8926SOL    HW238241   2.673   2.361   8.475 -1.4504  0.4851  0.4755
 8927SOL     OW38242   3.099   3.862   1.372  0.0914 -0.0775 -0.5197
 8927SOL    HW138243   3.187   3.839   1.399 -0.3597 -0.1423  0.8661
 8927SOL    HW238244   3.118   3.889   1.282  1.0522 -1.5095 -0.7322
 8928SOL     OW38245   1.779   2.252   5.460 -0.3230 -0.2189 -0.1110
 8928SOL    HW138246   1.697   2.237   5.413  0.0030 -0.9507 -0.4466
 8928SOL    HW238247   1.824   2.171   5.438 -0.7367  0.0408 -1.8829
 8929SOL     OW38248   1.693   0.346  11.065 -0.0190 -0.2525 -0.0076
 8929SOL    HW138249   1.623   0.294  11.105 -1.1886  2.3423  1.3758
 8929SOL    HW238250   1.771   0.324  11.115 -2.1660 -1.9495  2.5424
 8930SOL     OW38251   3.857   0.349  17.328 -0.1416  0.0021 -0.4351
 8930SOL    HW138252   3.822   0.315  17.246  0.8739 -3.0053  0.3841
 8930SOL    HW238253   3.780   0.357  17.384  1.7874 -0.6718  2.3171
 8931SOL     OW38254   2.986   1.856   5.564 -0.2873 -0.3715 -0.4525
 8931SOL    HW138255   2.929   1.895   5.631  0.9538  0.6920  0.0001
 8931SOL    HW238256   2.933   1.806   5.503  0.5987 -1.4168 -0.3793
 8932SOL     OW38257   0.453   2.638   1.436  0.0720  0.7309  0.4383
 8932SOL    HW138258   0.400   2.717   1.444 -2.3349 -0.7333 -1.0298
 8932SOL    HW238259   0.386   2.570   1.439  1.0200 -0.1715  0.7566
 8933SOL     OW38260   2.100   3.730   5.274  0.6105 -0.2148  0.2371
 8933SOL    HW138261   2.012   3.721   5.236  0.2055  0.7002  0.9476
 8933SOL    HW238262   2.112   3.825   5.271 -5.1473  0.4881 -0.6764
 8934SOL     OW38263   4.436   1.426   3.955  0.0829 -0.1554  0.5852
 8934SOL    HW138264   4.376   1.422   3.880  0.3411 -0.8298  0.4162
 8934SOL    HW238265   4.372   1.419   4.026 -0.0612 -1.5261  0.3332
 8935SOL     OW38266   1.482   3.344   0.279 -0.3043  0.0816  0.5013
 8935SOL    HW138267   1.566   3.339   0.324 -0.6812  0.3987  1.2509
 8935SOL    HW238268   1.496   3.268   0.223 -1.3130  0.8088 -0.7244
 8936SOL     OW38269   1.688   1.271  10.319  0.4092  0.6849 -0.6410
 8936SOL    HW138270   1.699   1.192  10.266 -0.3852 -0.0279  0.2560
 8936SOL    HW238271   1.668   1.234  10.405  0.4437 -1.8690 -1.7395
 8937SOL     OW38272   2.011   2.780   3.249 -0.1126  0.0755  0.1729
 8937SOL    HW138273   2.055   2.776   3.164 -4.4817  1.7014 -2.2079
 8937SOL    HW238274   2.060   2.841   3.303 -1.2053 -0.0759  1.3283
 8938SOL     OW38275   3.995   0.564  11.047 -0.4706  0.4589 -0.4764
 8938SOL    HW138276   3.954   0.494  10.995  1.0434  0.3530 -1.5079
 8938SOL    HW238277   3.949   0.544  11.129  3.2357 -0.3852  1.3605
 8939SOL     OW38278   1.579   3.591  12.237  0.0444 -0.2693  0.0350
 8939SOL    HW138279   1.649   3.539  12.197  1.3790  0.1810  1.7410
 8939SOL    HW238280   1.588   3.673  12.189 -0.3711 -0.2617 -0.0229
 8940SOL     OW38281   1.004   3.488   3.347 -0.1036 -0.1507 -0.3404
 8940SOL    HW138282   0.988   3.399   3.315 -1.7205  0.6718 -1.8052
 8940SOL    HW238283   0.974   3.484   3.438  0.9184 -1.5600 -0.0633
 8941SOL     OW38284   1.930   3.642   8.522  0.2216  0.4765 -0.2024
 8941SOL    HW138285   1.836   3.642   8.542  0.0164 -2.3035 -1.1605
 8941SOL    HW238286   1.949   3.549   8.520 -1.9633 -0.0096  2.2274
 8942SOL     OW38287   2.002   2.651  11.407 -0.2368 -0.1410 -0.9435
 8942SOL    HW138288   1.912   2.645  11.373 -0.4145  1.6625 -0.8156
 8942SOL    HW238289   2.019   2.735  11.364  2.2427 -0.8745 -1.4045
 8943SOL     OW38290   4.495   4.713  11.977  0.3143  0.2526 -0.2104
 8943SOL    HW138291   4.570   4.708  12.035  0.8106  1.6765 -0.7399
 8943SOL    HW238292   4.496   0.081  11.950 -1.3701  0.4248  0.2977
 8944SOL     OW38293   2.095   3.739  17.082 -0.7188 -0.5028  0.5954
 8944SOL    HW138294   2.033   3.810  17.095  1.1064  1.4658 -1.4570
 8944SOL    HW238295   2.053   3.708  17.002  0.5942  0.5828 -0.5094
 8945SOL     OW38296   1.313   4.281   2.361  0.3851  0.2537  0.4187
 8945SOL    HW138297   1.229   4.326   2.352  0.6512  0.8219  0.8020
 8945SOL    HW238298   1.365   4.356   2.390  1.3114  1.0332 -3.2124
 8946SOL     OW38299   1.342   0.118   0.934 -0.6528  0.7380 -0.6263
 8946SOL    HW138300   1.375   0.110   1.024 -2.0147 -0.6913 -0.2487
 8946SOL    HW238301   1.287   0.040   0.927  0.1414  0.0544  0.7796
 8947SOL     OW38302   1.594   3.303  10.300 -0.0033 -0.1376  0.6510
 8947SOL    HW138303   1.641   3.368  10.249 -0.2680 -0.0731  0.4944
 8947SOL    HW238304   1.525   3.268  10.245  0.9177  0.1534 -0.6908
 8948SOL     OW38305   1.417   3.513   8.261 -0.0493  0.3233  0.0710
 8948SOL    HW138306   1.347   3.490   8.200  0.9632  0.2717 -1.0506
 8948SOL    HW238307   1.478   3.441   8.246 -1.6532 -1.2038  0.7572
 8949SOL     OW38308   0.057   2.919  16.753  0.3841 -0.8603 -0.2628
 8949SOL    HW138309   0.030   2.880  16.836  0.8736 -2.0185 -0.6356
 8949SOL    HW238310   0.079   3.000  16.800  0.7445 -0.7799 -0.5678
 8950SOL     OW38311   0.935   3.234  12.224  0.4686 -0.1036  0.0938
 8950SOL    HW138312   0.855   3.194  12.257  0.6274 -0.0656  0.5253
 8950SOL    HW238313   0.923   3.244  12.130  2.7686 -1.4441 -0.3364
 8951SOL     OW38314   2.716   0.064   4.645 -0.5329  0.7849 -0.7997
 8951SOL    HW138315   2.673   4.702   4.637 -1.4356  1.3588 -2.1111
 8951SOL    HW238316   2.787   0.052   4.708  0.0412  0.9339 -1.4265
 8952SOL     OW38317   1.866   2.506  15.973 -0.1468 -0.9310  0.4148
 8952SOL    HW138318   1.773   2.509  15.994  0.2346 -0.0824  2.0546
 8952SOL    HW238319   1.881   2.601  15.980 -0.9239 -0.8734  1.3001
 8953SOL     OW38320   3.419   2.548  11.693 -0.3094 -0.0471 -0.2811
 8953SOL    HW138321   3.505   2.507  11.700 -1.2605 -2.4725 -2.4627
 8953SOL    HW238322   3.434   2.638  11.722 -0.7933  0.0632 -0.3688
 8954SOL     OW38323   1.807   2.036  10.370  0.0766  0.4976  0.0546
 8954SOL    HW138324   1.758   1.954  10.367 -1.9637  1.7692 -1.8006
 8954SOL    HW238325   1.811   2.051  10.465  0.4510 -0.5275  0.1936
 8955SOL     OW38326   3.407   1.817   1.695 -0.0099 -0.3389 -0.5329
 8955SOL    HW138327   3.491   1.773   1.710  1.1991  1.7991 -1.0250
 8955SOL    HW238328   3.344   1.766   1.747  1.9499 -1.5201  0.6851
 8956SOL     OW38329   2.647   0.986  17.535  0.0310  0.2536  0.1732
 8956SOL    HW138330   2.618   1.063  17.583 -0.1442  0.4060 -0.1736
 8956SOL    HW238331   2.683   1.029  17.458 -0.9122  0.2088 -0.3026
 8957SOL     OW38332   2.686   2.145   7.180  0.1016  0.1879 -0.7408
 8957SOL    HW138333   2.623   2.094   7.129  0.3103 -0.2798 -0.5304
 8957SOL    HW238334   2.650   2.233   7.166  1.2891  1.0138  1.5068
 8958SOL     OW38335   3.033   2.413  16.727 -0.3203 -0.4150 -0.2684
 8958SOL    HW138336   2.938   2.410  16.737 -0.1734  0.3616  1.3557
 8958SOL    HW238337   3.061   2.413  16.819 -1.0117  0.3590 -0.0522
 8959SOL     OW38338   4.639   3.371   1.051  0.2753 -0.1528  0.0505
 8959SOL    HW138339   4.683   3.431   1.111 -1.9524 -0.0727  1.6095
 8959SOL    HW238340   4.720   3.354   1.003 -2.5239 -0.4998 -4.5915
 8960SOL     OW38341   0.099   4.430  16.081  0.1255  0.6311  0.0707
 8960SOL    HW138342   0.042   4.504  16.099  0.2275  0.6306  0.4056
 8960SOL    HW238343   0.036   4.358  16.087 -1.3612  1.9857  0.4788
 8961SOL     OW38344   3.367   0.666   5.999 -0.4369 -0.4050 -0.1265
 8961SOL    HW138345   3.296   0.728   5.980 -0.7406  0.1428  2.7260
 8961SOL    HW238346   3.379   0.634   5.910 -0.9104  1.4843 -0.8777
 8962SOL     OW38347   2.228   3.146   5.042  0.1078  0.4704  0.2801
 8962SOL    HW138348   2.215   3.119   4.952  1.2972  1.2212 -0.1274
 8962SOL    HW238349   2.265   3.070   5.087 -0.9442 -0.8329 -1.0690
 8963SOL     OW38350   2.893   3.674   4.351  0.2514  0.1066  0.0555
 8963SOL    HW138351   2.857   3.699   4.266  3.1321  2.0009 -0.5709
 8963SOL    HW238352   2.862   3.584   4.346 -0.8019  0.3988  1.2346
 8964SOL     OW38353   1.519   2.862   1.220  0.4235  0.2104  0.4539
 8964SOL    HW138354   1.538   2.785   1.274  1.9766 -0.5744 -1.2130
 8964SOL    HW238355   1.567   2.929   1.269 -0.4491 -0.2568  1.9497
 8965SOL     OW38356   4.084   1.551   1.587 -0.0541  1.1578  0.7898
 8965SOL    HW138357   4.115   1.621   1.529  1.1879 -0.3653 -0.3805
 8965SOL    HW238358   4.070   1.487   1.517 -1.8872  0.2812  1.9693
 8966SOL     OW38359   3.225   0.629  15.064  0.7451  0.4300 -0.3176
 8966SOL    HW138360   3.308   0.584  15.078  0.7630  0.8695  0.9915
 8966SOL    HW238361   3.163   0.577  15.116 -0.8291  1.2912 -1.3218
 8967SOL     OW38362   4.704   4.349   8.128  0.1078 -0.7044  0.2512
 8967SOL    HW138363   0.030   4.267   8.131 -0.3120 -1.0140 -1.0775
 8967SOL    HW238364   0.050   4.410   8.151  0.9731 -1.3261 -0.6866
 8968SOL     OW38365   0.598   4.462  16.154  0.3339 -0.2576 -0.5303
 8968SOL    HW138366   0.639   4.527  16.211 -1.1927  0.9690 -0.8246
 8968SOL    HW238367   0.546   4.404  16.209  1.6792  1.3569  2.4490
 8969SOL     OW38368   3.937   3.933  13.321  0.7321 -0.0147  0.8247
 8969SOL    HW138369   4.024   3.949  13.284 -0.3593  0.6826 -1.3826
 8969SOL    HW238370   3.879   3.915  13.248 -1.0669 -0.5108  2.3788
 8970SOL     OW38371   0.775   2.954   4.117 -0.2236 -0.3746 -0.0887
 8970SOL    HW138372   0.785   2.938   4.211 -1.0008 -1.0402 -0.1173
 8970SOL    HW238373   0.798   3.047   4.115 -1.8056 -0.0039 -1.8072
 8971SOL     OW38374   0.053   4.095   7.067 -0.0790 -0.2860  0.3404
 8971SOL    HW138375   0.133   4.134   7.101  0.8175 -0.9866 -0.9659
 8971SOL    HW238376   0.036   4.029   7.134 -1.3538  0.9207  1.2100
 8972SOL     OW38377   2.554   1.962   4.321  0.4499  0.2412 -0.1577
 8972SOL    HW138378   2.538   1.935   4.411  0.8102  0.6453  0.0261
 8972SOL    HW238379   2.467   1.999   4.300  0.3937 -0.7432 -1.6395
 8973SOL     OW38380   3.678   1.083   2.342 -0.2791  0.0064  0.4000
 8973SOL    HW138381   3.724   1.127   2.271  0.0831 -3.0720 -1.2441
 8973SOL    HW238382   3.722   0.998   2.343 -0.3895 -0.0592 -0.9906
 8974SOL     OW38383   0.693   4.494  13.351 -0.0568 -0.0782 -0.3899
 8974SOL    HW138384   0.707   4.587  13.331  2.3817 -0.1218  1.2076
 8974SOL    HW238385   0.736   4.488  13.436 -0.0794  0.6599 -0.3268
 8975SOL     OW38386   0.495   4.279   5.538  0.1911  0.3991  0.5942
 8975SOL    HW138387   0.449   4.246   5.461 -0.4062  0.4610  0.9230
 8975SOL    HW238388   0.506   4.372   5.520 -0.3274  0.4475  0.5209
 8976SOL     OW38389   3.480   2.150   6.981 -0.2661 -0.0073  0.3972
 8976SOL    HW138390   3.499   2.064   6.944 -1.3232  0.5330 -1.3971
 8976SOL    HW238391   3.398   2.186   6.948  0.4477  0.4815 -0.8166
 8977SOL     OW38392   4.522   4.697   3.381 -0.4317  0.3226  0.0626
 8977SOL    HW138393   4.582   4.627   3.405 -0.3097  0.5587  0.4562
 8977SOL    HW238394   4.437   4.654   3.368 -1.5267  1.6799  2.8024
 8978SOL     OW38395   0.388   2.256   4.640 -0.5524  0.2486  0.3828
 8978SOL    HW138396   0.381   2.334   4.695  1.8213  1.0637 -0.4666
 8978SOL    HW238397   0.482   2.239   4.640  0.0212  3.3622  0.7980
 8979SOL     OW38398   0.430   1.411   7.965 -0.0321 -0.3397 -0.2700
 8979SOL    HW138399   0.470   1.460   7.893 -1.0254  2.1409  0.8572
 8979SOL    HW238400   0.479   1.446   8.040 -0.4157 -1.4279  0.4872
 8980SOL     OW38401   0.188   1.104   5.075 -0.6436 -0.1265 -0.1680
 8980SOL    HW138402   0.149   1.159   5.008 -0.4325 -0.5633 -0.6526
 8980SOL    HW238403   0.186   1.162   5.151  0.5482  1.1413 -1.1008
 8981SOL     OW38404   1.504   3.721   1.952  0.7633  0.0260 -0.3915
 8981SOL    HW138405   1.456   3.748   2.030  1.0869  0.0805 -0.2118
 8981SOL    HW238406   1.456   3.642   1.927 -1.1592  1.2569 -0.5961
 8982SOL     OW38407   2.065   3.672   1.010 -0.2609 -0.5957 -0.3415
 8982SOL    HW138408   2.051   3.580   0.986  1.4176 -0.3294 -2.2821
 8982SOL    HW238409   1.980   3.688   1.050  0.4477  1.5252  0.3110
 8983SOL     OW38410   0.745   2.937  12.527 -0.0030  0.3345 -0.4929
 8983SOL    HW138411   0.779   2.864  12.474 -0.5063  0.1580 -0.5739
 8983SOL    HW238412   0.820   2.968  12.578 -0.4042  1.8473 -0.8245
 8984SOL     OW38413   3.701   3.092   4.756 -0.0171  0.8460  0.0472
 8984SOL    HW138414   3.685   3.074   4.849  2.2372 -2.4455 -0.2085
 8984SOL    HW238415   3.753   3.017   4.727 -1.2310 -0.7041  1.8952
 8985SOL     OW38416   4.595   4.540   9.054  0.1655 -0.1815  0.0712
 8985SOL    HW138417   4.509   4.557   9.094  1.0245  0.1069  1.8044
 8985SOL    HW238418   4.628   4.468   9.109 -0.3724  0.2253  0.9344
 8986SOL     OW38419   2.118   3.547   1.921 -0.6660 -0.0490 -0.8194
 8986SOL    HW138420   2.124   3.469   1.977 -0.6284  1.8836  1.8788
 8986SOL    HW238421   2.150   3.617   1.977 -2.5033  1.3800 -1.5526
 8987SOL     OW38422   2.795   2.922  13.950  0.9875 -0.2375  0.0788
 8987SOL    HW138423   2.874   2.959  13.912  2.8948 -1.7365  2.5935
 8987SOL    HW238424   2.766   2.872  13.874  0.2190 -1.3378  1.0847
 8988SOL     OW38425   1.334   4.194   6.293 -0.3591  0.3796 -0.6790
 8988SOL    HW138426   1.245   4.208   6.326  0.1030 -3.9638  2.4223
 8988SOL    HW238427   1.326   4.247   6.213  0.1305  1.9344  0.3009
 8989SOL     OW38428   3.787   3.134   3.978  0.3665 -0.3580 -0.2097
 8989SOL    HW138429   3.780   3.167   3.888  1.4523  1.9937  0.5831
 8989SOL    HW238430   3.784   3.038   3.975  1.7783 -0.3923 -0.7257
 8990SOL     OW38431   0.984   0.930   5.829 -0.3218 -0.3082  0.5675
 8990SOL    HW138432   0.932   0.888   5.760  0.2173  0.3460 -0.2416
 8990SOL    HW238433   0.945   0.903   5.912 -0.6161  0.3106  0.6277
 8991SOL     OW38434   2.287   1.799   1.236  0.1346 -0.2485 -0.0871
 8991SOL    HW138435   2.283   1.895   1.232  1.8878 -0.0968  1.7008
 8991SOL    HW238436   2.381   1.780   1.228  0.1014 -0.5460  0.2829
 8992SOL     OW38437   2.936   1.814   5.295 -0.1520  0.6754  0.0111
 8992SOL    HW138438   3.017   1.864   5.295  0.2761 -0.0297  0.8424
 8992SOL    HW238439   2.870   1.880   5.273 -1.5529  0.0196  2.2119
 8993SOL     OW38440   2.950   1.113   0.896 -0.0427 -0.5987 -0.1534
 8993SOL    HW138441   2.918   1.123   0.807  3.2426 -1.4862 -1.4237
 8993SOL    HW238442   2.873   1.121   0.954 -1.5905  2.4964 -2.6678
 8994SOL     OW38443   4.203   4.293   8.463  0.2899  0.3630  0.0856
 8994SOL    HW138444   4.289   4.335   8.464  0.6574 -0.3199 -2.8812
 8994SOL    HW238445   4.155   4.357   8.410 -0.5899 -1.5400 -1.4310
 8995SOL     OW38446   3.807   3.785  16.203  0.5896  0.5762  0.0445
 8995SOL    HW138447   3.843   3.733  16.275 -2.9970 -1.4237  0.3863
 8995SOL    HW238448   3.814   3.723  16.131  0.8130  0.1127  0.4631
 8996SOL     OW38449   3.113   1.853   2.504 -0.1711 -0.3148 -0.1027
 8996SOL    HW138450   3.190   1.821   2.551 -0.6415  1.1438  1.6718
 8996SOL    HW238451   3.105   1.935   2.554 -0.4752 -0.6312  0.3714
 8997SOL     OW38452   1.878   4.446   0.813  0.0836 -0.7351 -0.1862
 8997SOL    HW138453   1.943   4.403   0.757  0.4431 -0.3377 -0.0733
 8997SOL    HW238454   1.848   4.521   0.761 -2.5472 -0.1772  2.1606
 8998SOL     OW38455   0.891   3.421   6.371  0.0609  0.1783  0.1387
 8998SOL    HW138456   0.844   3.341   6.349  1.4539 -0.6713  0.2355
 8998SOL    HW238457   0.917   3.450   6.284 -0.0498  1.4799  0.5479
 8999SOL     OW38458   4.078   4.370  16.225 -0.0384  0.3597  0.0609
 8999SOL    HW138459   4.141   4.371  16.297 -1.9509 -1.6125  1.7587
 8999SOL    HW238460   4.068   4.281  16.190  0.9570  0.6372 -0.9326
 9000SOL     OW38461   2.345   2.890   5.972 -0.3174 -0.0081 -0.0334
 9000SOL    HW138462   2.390   2.969   6.001  1.2788 -1.4849  1.5610
 9000SOL    HW238463   2.268   2.891   6.029 -0.9210  4.5619 -0.9302
 9001SOL     OW38464   4.138   2.547   1.649  0.2752 -0.0209 -0.7205
 9001SOL    HW138465   4.183   2.604   1.711  0.2161  1.4869 -2.0258
 9001SOL    HW238466   4.065   2.515   1.701  2.2547 -0.7846  1.5319
 9002SOL     OW38467   0.179   1.181   1.185 -0.3018 -0.3950  0.1184
 9002SOL    HW138468   0.178   1.224   1.099 -0.6057 -1.4321 -0.3983
 9002SOL    HW238469   0.183   1.093   1.146  0.6085 -0.0295 -0.6253
 9003SOL     OW38470   4.360   3.431   9.044  0.0309  0.5439 -0.1642
 9003SOL    HW138471   4.388   3.448   9.134  1.0040 -1.8760 -0.0147
 9003SOL    HW238472   4.313   3.514   9.036  0.8574  0.9364 -0.8809
 9004SOL     OW38473   4.037   1.302  13.752  0.7539  0.1537 -0.3555
 9004SOL    HW138474   3.989   1.382  13.733 -1.5263 -0.7723  1.5366
 9004SOL    HW238475   3.969   1.240  13.725 -0.3918  0.6384  1.4417
 9005SOL     OW38476   0.209   3.058  14.942 -0.7686  0.5238 -0.2408
 9005SOL    HW138477   0.153   2.989  14.906  2.5647 -1.5370 -1.4767
 9005SOL    HW238478   0.293   3.013  14.944 -0.4709  1.2374  2.8183
 9006SOL     OW38479   1.459   0.703   7.939  0.1693 -0.2973 -0.5149
 9006SOL    HW138480   1.406   0.675   7.865 -1.9786  2.3924  0.0360
 9006SOL    HW238481   1.522   0.767   7.907 -0.3280  0.3026 -0.2842
 9007SOL     OW38482   1.434   4.479   4.772  0.3531 -0.7548 -0.1265
 9007SOL    HW138483   1.426   4.502   4.865  0.5705  1.9482 -0.8000
 9007SOL    HW238484   1.505   4.537   4.744 -0.3183 -0.4827 -1.2646
 9008SOL     OW38485   3.543   4.094   5.169  0.3603  0.1739  0.1984
 9008SOL    HW138486   3.571   4.050   5.249  1.4786 -0.0868 -0.3393
 9008SOL    HW238487   3.531   4.022   5.107  1.2170  0.7187 -0.6029
 9009SOL     OW38488   2.377   4.642   2.070 -0.3869  0.3738 -0.0236
 9009SOL    HW138489   2.445   4.666   2.133  0.1590  1.3939 -0.9974
 9009SOL    HW238490   2.319   4.716   2.092  0.1554  0.6587  0.4310
 9010SOL     OW38491   4.250   2.727   1.831  0.1911  0.2540 -0.1587
 9010SOL    HW138492   4.232   2.763   1.918  0.1109  3.5751 -1.5414
 9010SOL    HW238493   4.202   2.790   1.777 -0.0087 -2.4128 -3.0839
 9011SOL     OW38494   1.440   4.326   2.005  0.0383  0.2066  0.2147
 9011SOL    HW138495   1.352   4.364   2.017 -0.4275 -0.6780 -0.3780
 9011SOL    HW238496   1.505   4.396   2.004  0.8138 -0.5465 -2.3615
 9012SOL     OW38497   0.705   1.052   0.741 -0.0415 -0.1668  0.0860
 9012SOL    HW138498   0.764   0.995   0.790 -1.8151 -0.5049  1.8385
 9012SOL    HW238499   0.655   1.079   0.817  2.0950  0.7889  1.1467
 9013SOL     OW38500   1.791   4.366  10.666  0.0741 -0.2576 -0.1817
 9013SOL    HW138501   1.819   4.364  10.575  1.5328  2.5832  0.2405
 9013SOL    HW238502   1.876   4.351  10.706  1.1454  0.1737 -2.3015
 9014SOL     OW38503   0.847   4.652  15.435 -0.3506 -0.1454 -0.1983
 9014SOL    HW138504   0.840   0.011  15.482 -1.0256  0.0496 -0.6440
 9014SOL    HW238505   0.942   4.647  15.423 -0.2768 -3.3784  1.7910
 9015SOL     OW38506   3.704   4.340   2.573 -0.6437 -0.0494 -0.2319
 9015SOL    HW138507   3.722   4.387   2.492  0.3986  0.2867  0.2003
 9015SOL    HW238508   3.742   4.255   2.556  0.9852  0.3431  1.4340
 9016SOL     OW38509   1.561   0.498   3.186 -0.3542  0.4989  0.1391
 9016SOL    HW138510   1.482   0.468   3.142 -0.3815  2.3455 -1.0313
 9016SOL    HW238511   1.614   0.510   3.107  0.0938 -1.9208  0.0557
 9017SOL     OW38512   3.155   3.401   4.876 -0.4392 -0.2424  0.1852
 9017SOL    HW138513   3.188   3.388   4.787 -2.0306  0.2982 -0.4776
 9017SOL    HW238514   3.071   3.439   4.850  0.4202  1.0064 -0.7817
 9018SOL     OW38515   1.579   2.640   1.900  0.1609  0.1359  0.3308
 9018SOL    HW138516   1.602   2.548   1.888  0.4172  0.3279 -0.6197
 9018SOL    HW238517   1.552   2.631   1.991 -2.2525  0.8362 -0.3281
 9019SOL     OW38518   3.969   1.143  14.430 -0.5224 -0.0935  0.0717
 9019SOL    HW138519   4.022   1.188  14.496 -0.8515  0.2219  0.1198
 9019SOL    HW238520   4.038   1.084  14.399 -1.4043  0.6435 -3.2221
 9020SOL     OW38521   1.367   2.908  11.597  0.1297  0.0629 -0.1638
 9020SOL    HW138522   1.318   2.989  11.605 -0.2674  0.0384 -2.3052
 9020SOL    HW238523   1.363   2.872  11.685 -1.8575 -0.7770 -0.6062
 9021SOL     OW38524   0.878   4.701   4.172 -0.0340  1.1663  0.1022
 9021SOL    HW138525   0.791   4.687   4.208  1.1858 -1.4671  2.0983
 9021SOL    HW238526   0.892   0.066   4.204  2.8322  1.1645 -1.0543
 9022SOL     OW38527   1.911   0.120   2.855  0.8545  0.0396 -0.2245
 9022SOL    HW138528   1.952   0.199   2.818 -0.4363  1.3746  1.1780
 9022SOL    HW238529   1.857   0.084   2.785 -0.0640  1.1291 -0.0796
 9023SOL     OW38530   1.751   4.539   6.119 -0.2610 -0.0431  0.0566
 9023SOL    HW138531   1.723   4.523   6.209 -1.5551 -1.1352 -0.5538
 9023SOL    HW238532   1.843   4.562   6.131  0.0009 -0.6426 -0.8018
 9024SOL     OW38533   1.630   3.024  12.788 -0.4121 -0.0948  0.0010
 9024SOL    HW138534   1.600   3.000  12.876 -0.3951  1.9669  0.5563
 9024SOL    HW238535   1.635   2.939  12.743  0.0067 -0.6083  0.9996
 9025SOL     OW38536   2.968   2.929  13.440  0.3196  0.3954  0.3268
 9025SOL    HW138537   2.923   2.865  13.495  1.6644  0.9521  2.0540
 9025SOL    HW238538   2.973   2.884  13.355  1.3758  0.5346  0.3162
 9026SOL     OW38539   2.149   1.876  14.642 -0.0392  0.3808 -0.1629
 9026SOL    HW138540   2.117   1.870  14.552 -2.3258 -0.1822  0.6963
 9026SOL    HW238541   2.241   1.898  14.630 -0.7338  2.0327 -2.5208
 9027SOL     OW38542   4.166   0.461  10.004 -0.2186  0.1896 -0.0936
 9027SOL    HW138543   4.187   0.379   9.957 -0.2721 -0.7366  1.4993
 9027SOL    HW238544   4.193   0.440  10.093 -1.5022  2.1332  0.7366
 9028SOL     OW38545   0.002   3.168  15.171  0.2773 -0.2345 -0.5625
 9028SOL    HW138546   4.685   3.082  15.176  1.6109 -0.7820  0.8878
 9028SOL    HW238547   0.041   3.164  15.083  2.4032 -0.7540  0.4076
 9029SOL     OW38548   3.393   4.314  12.916 -0.4314  0.5177 -0.4946
 9029SOL    HW138549   3.342   4.296  12.838 -2.5897  1.6750  0.6503
 9029SOL    HW238550   3.390   4.409  12.920  0.4650  0.5747 -1.3034
 9030SOL     OW38551   3.809   3.911  13.081  0.5008  0.5257 -0.3111
 9030SOL    HW138552   3.866   3.841  13.049 -0.7574 -0.6144 -0.0578
 9030SOL    HW238553   3.836   3.982  13.023 -0.3913 -1.8024 -3.5310
 9031SOL     OW38554   0.141   2.361   7.174 -0.0311  0.2924  0.2154
 9031SOL    HW138555   0.077   2.298   7.139 -0.5194  0.4532  0.8415
 9031SOL    HW238556   0.118   2.384   7.263 -0.2152  2.4636 -0.3932
 9032SOL     OW38557   1.082   0.220   8.060  0.4027 -0.1179 -0.1220
 9032SOL    HW138558   1.012   0.285   8.048 -0.7104 -0.8816  2.2988
 9032SOL    HW238559   1.112   0.219   7.970 -0.6003 -0.1289 -0.4611
 9033SOL     OW38560   4.307   3.056  17.395  0.6346 -0.0502  0.0797
 9033SOL    HW138561   4.236   3.012  17.349  1.0334  0.1487 -0.7164
 9033SOL    HW238562   4.258   3.086  17.472 -0.8520 -0.2588 -0.7934
 9034SOL     OW38563   4.112   3.707   6.822 -0.0070  0.1117 -0.0744
 9034SOL    HW138564   4.025   3.669   6.808 -0.5036  0.0952  3.2046
 9034SOL    HW238565   4.138   3.666   6.904  1.2647 -1.2870 -1.1742
 9035SOL     OW38566   1.428   3.012  13.535  0.2407  0.1813 -0.1297
 9035SOL    HW138567   1.403   3.103  13.521 -0.3961 -0.4161 -2.8116
 9035SOL    HW238568   1.415   3.009  13.630  1.7623  1.5184  0.1205
 9036SOL     OW38569   0.894   2.059   7.556 -0.4911 -0.5165  0.4511
 9036SOL    HW138570   0.840   2.112   7.615  0.1260  0.9088 -0.2644
 9036SOL    HW238571   0.912   1.978   7.604 -0.7086 -0.6440  0.3201
 9037SOL     OW38572   3.701   3.843   6.823 -0.1830  0.6121 -0.3075
 9037SOL    HW138573   3.609   3.825   6.844 -0.0192 -0.1647 -0.2653
 9037SOL    HW238574   3.708   3.935   6.850 -1.4938  0.8371 -0.7261
 9038SOL     OW38575   4.065   2.420   3.979 -0.2064 -0.5950  0.3925
 9038SOL    HW138576   4.118   2.350   3.940  0.8814 -0.4230  1.5384
 9038SOL    HW238577   3.980   2.378   3.971 -1.4244  1.4514  2.8022
 9039SOL     OW38578   1.271   2.928   0.044 -0.0761  0.1767 -0.6830
 9039SOL    HW138579   1.185   2.904   0.012 -0.5404  2.3436 -1.0853
 9039SOL    HW238580   1.318   2.845   0.050  0.4080  0.5530  0.9325
 9040SOL     OW38581   4.520   4.365   6.912  0.6951  0.2579  0.0296
 9040SOL    HW138582   4.475   4.406   6.838  1.6894  1.7441  0.2620
 9040SOL    HW238583   4.535   4.274   6.886 -2.2731 -0.3669  0.4514
 9041SOL     OW38584   0.608   1.926   3.580 -0.6146  0.1901 -0.5371
 9041SOL    HW138585   0.549   1.970   3.641 -0.8901 -0.9408  0.0184
 9041SOL    HW238586   0.665   1.876   3.639 -0.2724 -0.0501 -1.0716
 9042SOL     OW38587   2.364   1.202   8.047  0.6583  0.4529 -0.1370
 9042SOL    HW138588   2.428   1.262   8.009  0.2245  2.3411  2.1451
 9042SOL    HW238589   2.428   1.135   8.069  0.6278  0.1534 -0.9611
 9043SOL     OW38590   1.916   4.033   3.573  0.0767 -0.3531 -0.3351
 9043SOL    HW138591   1.848   4.003   3.633  0.3261 -0.0128  0.1222
 9043SOL    HW238592   1.988   4.066   3.626 -0.2193 -1.3522  0.6930
 9044SOL     OW38593   0.452   0.302   7.294  0.3367  0.2245 -0.8767
 9044SOL    HW138594   0.398   0.377   7.319  0.4689 -0.1428  0.4594
 9044SOL    HW238595   0.391   0.229   7.282 -0.5781  1.0785 -1.4228
 9045SOL     OW38596   3.003   0.544  13.130  0.3715 -0.0997 -0.0502
 9045SOL    HW138597   3.073   0.485  13.156  2.2942  2.4724  0.6342
 9045SOL    HW238598   2.929   0.484  13.139  0.7863 -0.8644 -1.7981
 9046SOL     OW38599   0.579   0.712   8.720  0.4661 -0.3311  0.3398
 9046SOL    HW138600   0.542   0.685   8.804 -0.8439  0.0709 -0.1059
 9046SOL    HW238601   0.509   0.765   8.682 -0.2898  1.1954  3.8276
 9047SOL     OW38602   0.613   4.205   5.818 -0.6358 -0.1173  0.0118
 9047SOL    HW138603   0.617   4.244   5.730 -0.2602  0.4714  0.2868
 9047SOL    HW238604   0.599   4.284   5.870  0.4746 -0.9761  1.6060
 9048SOL     OW38605   3.132   3.925   1.112 -0.0294 -0.1311 -0.1541
 9048SOL    HW138606   3.072   3.878   1.056 -0.4994  0.0999  0.1571
 9048SOL    HW238607   3.120   4.015   1.081 -0.7856  0.3285  1.4605
 9049SOL     OW38608   3.902   4.522   8.255 -0.7177  0.9636  0.0207
 9049SOL    HW138609   3.852   4.573   8.191 -0.1573  0.2142 -1.0127
 9049SOL    HW238610   3.862   4.436   8.250  0.6382  0.3697 -0.5976
 9050SOL     OW38611   2.062   1.201   5.619  0.4474 -0.1129 -0.0609
 9050SOL    HW138612   2.136   1.262   5.610  0.5071  0.1154  2.0218
 9050SOL    HW238613   2.001   1.247   5.677  1.1426  0.3917  0.2784
 9051SOL     OW38614   0.563   1.548   3.034  0.4262 -0.1609 -0.1024
 9051SOL    HW138615   0.631   1.596   3.082 -0.7590  0.0571  1.3419
 9051SOL    HW238616   0.618   1.477   3.001 -0.0139  0.1864 -1.5855
 9052SOL     OW38617   2.556   1.592   3.272 -0.4069 -0.2562  0.3248
 9052SOL    HW138618   2.618   1.627   3.337  0.1776  0.3383 -0.5632
 9052SOL    HW238619   2.490   1.655   3.299  0.5074  0.1779  1.5612
 9053SOL     OW38620   3.175   1.327  13.975 -0.2205 -0.2714 -0.6696
 9053SOL    HW138621   3.157   1.351  14.066  0.5483  0.7998 -0.7991
 9053SOL    HW238622   3.085   1.311  13.947  0.0980 -2.2338 -0.5487
 9054SOL     OW38623   3.379   1.479   2.981 -0.2704  0.1856  0.4975
 9054SOL    HW138624   3.364   1.400   2.929  1.4033  0.7562 -0.8350
 9054SOL    HW238625   3.358   1.446   3.069  1.5759 -0.5134  0.6899
 9055SOL     OW38626   3.741   1.150   6.471 -0.0768  0.0675  0.8742
 9055SOL    HW138627   3.696   1.101   6.540 -2.5783  0.2334 -0.6217
 9055SOL    HW238628   3.789   1.082   6.424  0.5896  1.7999 -0.9801
 9056SOL     OW38629   3.855   2.376   8.547 -0.2035  0.4511 -0.0763
 9056SOL    HW138630   3.905   2.435   8.491 -0.6654  0.9680  0.0538
 9056SOL    HW238631   3.805   2.427   8.611 -0.2806  0.9905 -0.5658
 9057SOL     OW38632   2.462   0.451   0.640 -0.2126  0.1851 -0.6421
 9057SOL    HW138633   2.475   0.535   0.684  1.0563 -1.1660  1.5211
 9057SOL    HW238634   2.555   0.432   0.634 -0.5469 -1.5604 -0.2870
 9058SOL     OW38635   4.273   0.697  12.260 -0.2739  0.4392  1.0781
 9058SOL    HW138636   4.267   0.718  12.354  1.3975 -0.4026  1.3583
 9058SOL    HW238637   4.197   0.640  12.246 -2.6342  4.0180 -0.6469
 9059SOL     OW38638   1.498   0.798   8.863 -0.3114 -0.4785 -0.5161
 9059SOL    HW138639   1.573   0.741   8.844  0.7542 -0.1092  2.6731
 9059SOL    HW238640   1.543   0.867   8.912 -1.4722 -0.2895  0.2681
 9060SOL     OW38641   1.948   1.633   7.582  0.1265 -0.2227 -0.8802
 9060SOL    HW138642   1.860   1.641   7.617  0.6597 -0.3276  0.4757
 9060SOL    HW238643   1.928   1.580   7.505 -0.9206  0.7767 -1.3014
 9061SOL     OW38644   0.705   0.638  11.224  0.0484  0.7628 -0.6124
 9061SOL    HW138645   0.763   0.673  11.292 -0.1944 -0.1717  0.0744
 9061SOL    HW238646   0.681   0.716  11.174 -1.9164 -0.4927 -1.6036
 9062SOL     OW38647   3.952   1.456   4.063 -0.1859 -0.0466 -0.5119
 9062SOL    HW138648   3.914   1.471   3.976  0.2176 -0.2292 -0.7159
 9062SOL    HW238649   3.919   1.530   4.115  1.3879  2.3132 -2.8454
 9063SOL     OW38650   2.598   2.811   2.980 -0.1706  0.1103  0.5322
 9063SOL    HW138651   2.646   2.793   3.060  1.4030 -0.4416 -0.5408
 9063SOL    HW238652   2.637   2.887   2.937  0.7063 -0.8378 -0.3401
 9064SOL     OW38653   4.596   2.820  14.848 -0.3913  0.2261  0.2691
 9064SOL    HW138654   4.576   2.733  14.816 -2.5569  1.3896 -1.5477
 9064SOL    HW238655   4.554   2.864  14.774 -0.1223 -2.5266 -1.5056
 9065SOL     OW38656   4.119   3.518   5.602 -0.4292  0.2245  0.1019
 9065SOL    HW138657   4.162   3.456   5.662 -0.2156  1.6611  1.4305
 9065SOL    HW238658   4.099   3.586   5.666  0.8401  0.7073 -0.0089
 9066SOL     OW38659   0.192   4.463   0.999 -0.0742 -0.0103 -0.1591
 9066SOL    HW138660   0.286   4.455   1.019 -0.3474 -1.0173  0.7414
 9066SOL    HW238661   0.203   4.494   0.909  0.4345 -2.4271 -0.9340
 9067SOL     OW38662   3.581   4.294   4.836  0.3871 -0.2276  0.3100
 9067SOL    HW138663   3.524   4.222   4.862  1.1925 -1.4560 -1.2781
 9067SOL    HW238664   3.567   4.307   4.742  0.0972 -0.5402  0.3081
 9068SOL     OW38665   2.603   2.889   2.143 -0.0834 -0.0703 -0.1849
 9068SOL    HW138666   2.687   2.846   2.161 -1.3563 -2.2423  0.6005
 9068SOL    HW238667   2.620   2.920   2.054 -0.7996  0.8373 -0.0076
 9069SOL     OW38668   1.360   3.375   5.572  0.4085  0.4582  0.4346
 9069SOL    HW138669   1.382   3.376   5.479  0.9360  1.1668  0.5711
 9069SOL    HW238670   1.393   3.290   5.601 -4.1874 -1.9246 -1.1907
 9070SOL     OW38671   4.077   1.981   4.460  0.3052  0.8057 -0.0838
 9070SOL    HW138672   4.015   1.914   4.431  0.4318 -0.2385  2.0648
 9070SOL    HW238673   4.150   1.970   4.400  0.0027 -1.4256 -0.0309
 9071SOL     OW38674   2.088   3.876   9.470  0.0109 -0.0821 -0.0428
 9071SOL    HW138675   2.035   3.904   9.544 -0.0069 -0.1182 -0.0417
 9071SOL    HW238676   2.036   3.806   9.429  1.1133 -0.4522 -0.8232
 9072SOL     OW38677   2.581   1.358   8.013 -0.0934  0.1834  0.1016
 9072SOL    HW138678   2.668   1.350   7.975  0.2852  0.2758  0.9324
 9072SOL    HW238679   2.605   1.428   8.074  3.4665  0.5531 -1.7041
 9073SOL     OW38680   4.373   1.850   0.768 -0.5494  0.0771  0.0723
 9073SOL    HW138681   4.352   1.758   0.751  2.1703 -0.4356 -0.4358
 9073SOL    HW238682   4.293   1.880   0.811  0.0653  0.5652  0.8626
 9074SOL     OW38683   3.992   3.225   7.685 -0.1026 -0.3204 -0.0275
 9074SOL    HW138684   3.910   3.177   7.695  0.7309 -1.1548  2.7635
 9074SOL    HW238685   4.030   3.177   7.612 -1.1314 -1.2963  0.0658
 9075SOL     OW38686   2.329   3.732   5.528 -0.2487  0.5233 -0.5465
 9075SOL    HW138687   2.374   3.653   5.560 -0.3200 -0.0029 -1.7317
 9075SOL    HW238688   2.269   3.744   5.602 -2.6689  1.6638 -2.7048
 9076SOL     OW38689   2.465   4.480   8.043  0.0747  0.1738 -0.0455
 9076SOL    HW138690   2.539   4.452   7.990 -0.9485  1.0384 -1.9346
 9076SOL    HW238691   2.388   4.465   7.988 -0.3686  1.8601  0.0932
 9077SOL     OW38692   4.274   4.707   1.933 -0.6185 -0.5255  0.2977
 9077SOL    HW138693   4.282   0.047   2.003  3.3845  0.0907 -0.7249
 9077SOL    HW238694   4.217   0.029   1.870 -1.6802 -0.8428  1.0180
 9078SOL     OW38695   4.527   0.400  17.615  0.5021 -0.1403  0.5268
 9078SOL    HW138696   4.511   0.359   0.004  0.5518 -0.0813  0.5640
 9078SOL    HW238697   4.524   0.492  17.640 -2.0671 -0.7547  2.4310
 9079SOL     OW38698   2.446   0.063  17.440 -0.4488 -0.1976 -0.2523
 9079SOL    HW138699   2.407   0.145  17.473  2.8520  1.7550 -1.1890
 9079SOL    HW238700   2.509   0.094  17.375 -2.3361 -0.1942 -2.0512
 9080SOL     OW38701   1.835   1.394  12.611  0.0945  0.3630 -0.2737
 9080SOL    HW138702   1.838   1.300  12.598 -0.8322 -0.1609  3.3227
 9080SOL    HW238703   1.916   1.416  12.566 -0.9888 -2.7192 -3.7366
 9081SOL     OW38704   3.579   3.441   7.336 -0.1327 -0.3271 -0.1753
 9081SOL    HW138705   3.498   3.395   7.318 -0.8491  0.2472  1.5684
 9081SOL    HW238706   3.562   3.474   7.425 -0.4704  1.3251 -0.8592
 9082SOL     OW38707   1.168   0.508   6.733 -0.0845 -0.1516  0.4813
 9082SOL    HW138708   1.134   0.472   6.651  0.7258  0.8667 -0.3030
 9082SOL    HW238709   1.172   0.433   6.792 -0.8522 -1.1977 -0.8096
 9083SOL     OW38710   4.152   1.391   1.072 -0.1301  0.1624  0.3488
 9083SOL    HW138711   4.115   1.321   1.019  0.3263 -0.3715  0.7278
 9083SOL    HW238712   4.234   1.353   1.104 -1.2828 -0.2774  2.7224
 9084SOL     OW38713   2.293   1.906   5.447  0.5772 -0.4639  0.5854
 9084SOL    HW138714   2.281   1.983   5.503 -0.0425  0.4163 -0.7333
 9084SOL    HW238715   2.238   1.839   5.488 -0.6045 -0.4068 -0.8981
 9085SOL     OW38716   2.741   4.221   3.731 -0.4090  0.5746  0.1317
 9085SOL    HW138717   2.720   4.162   3.659 -1.1860 -1.3826  1.9906
 9085SOL    HW238718   2.657   4.242   3.771 -1.2267  0.1263 -1.3531
 9086SOL     OW38719   3.669   2.245   0.825  0.5879  0.0364  0.0433
 9086SOL    HW138720   3.641   2.178   0.887 -0.2249  0.5435  0.2280
 9086SOL    HW238721   3.598   2.305   0.845 -0.5429 -0.9671 -0.9356
 9087SOL     OW38722   1.166   3.184   2.842 -0.2084  0.4076  0.2463
 9087SOL    HW138723   1.131   3.137   2.918  2.6345 -0.4510  1.0502
 9087SOL    HW238724   1.109   3.147   2.775 -0.1651  0.7068  0.0436
 9088SOL     OW38725   0.491   0.656   8.979 -0.2051  0.3419  0.0530
 9088SOL    HW138726   0.529   0.572   9.005 -1.5032 -0.3466 -0.3339
 9088SOL    HW238727   0.567   0.715   8.988  0.9028 -0.7068 -2.5691
 9089SOL     OW38728   4.035   3.483   3.054  0.5168  0.0161 -0.1042
 9089SOL    HW138729   3.951   3.439   3.050  0.9246 -0.6242 -1.7949
 9089SOL    HW238730   4.083   3.405   3.082 -0.4478 -0.1621  1.0432
 9090SOL     OW38731   2.456   4.099   5.121  0.3144  0.5357  0.4236
 9090SOL    HW138732   2.419   4.119   5.207  0.4633 -0.1787  0.6523
 9090SOL    HW238733   2.476   4.006   5.129 -2.0595 -0.0180 -0.2700
 9091SOL     OW38734   4.485   0.530   7.462  0.2635 -0.2417 -0.0646
 9091SOL    HW138735   4.460   0.600   7.522 -1.0763 -0.2463 -0.6296
 9091SOL    HW238736   4.577   0.515   7.484  0.3255 -1.8054 -1.3812
 9092SOL     OW38737   4.575   3.389   3.752  0.0477 -0.7002 -0.2523
 9092SOL    HW138738   4.667   3.395   3.727  0.5524 -1.3632  1.4793
 9092SOL    HW238739   4.551   3.480   3.733  0.7055 -1.0029 -2.6015
 9093SOL     OW38740   4.479   0.625  10.336  0.1189  0.4878 -0.2975
 9093SOL    HW138741   4.392   0.657  10.313 -0.3016 -0.9517 -0.7140
 9093SOL    HW238742   4.451   0.560  10.400  2.5135  1.1338  1.3948
 9094SOL     OW38743   3.191   3.593   0.529 -0.2946  0.1638  1.0243
 9094SOL    HW138744   3.205   3.680   0.492  0.6855  0.7270  2.7184
 9094SOL    HW238745   3.236   3.535   0.468 -2.3557 -1.4274  1.0371
 9095SOL     OW38746   0.072   2.456   7.444 -0.9106 -0.2411 -0.2793
 9095SOL    HW138747   0.087   2.361   7.438 -0.1921  0.0172 -2.9972
 9095SOL    HW238748   0.160   2.482   7.471 -1.8735  1.2424  1.4034
 9096SOL     OW38749   2.574   0.434   7.375  0.0731  0.6394  0.7581
 9096SOL    HW138750   2.637   0.497   7.339 -0.2653 -0.1550 -1.2533
 9096SOL    HW238751   2.515   0.490   7.425  0.3542 -0.6361  2.5295
 9097SOL     OW38752   2.246   2.187   6.789 -0.1116  0.3766  0.4495
 9097SOL    HW138753   2.222   2.261   6.845  2.7287 -0.3969  2.7110
 9097SOL    HW238754   2.201   2.112   6.828  0.0108 -0.5938 -1.2772
 9098SOL     OW38755   4.090   2.348   7.254 -0.4963  0.3292 -0.1828
 9098SOL    HW138756   4.040   2.396   7.188 -0.1189  0.3330 -0.4645
 9098SOL    HW238757   4.177   2.352   7.215  0.3488 -2.5720  1.4318
 9099SOL     OW38758   3.316   3.259   2.627 -0.5546 -0.1736  0.3026
 9099SOL    HW138759   3.242   3.246   2.687 -1.1768 -0.5739 -0.5373
 9099SOL    HW238760   3.268   3.283   2.547 -0.5751 -0.0916  0.3396
 9100SOL     OW38761   4.250   2.675  14.287  0.6317 -0.5325 -0.5543
 9100SOL    HW138762   4.282   2.765  14.291  0.1212 -0.4354  1.0771
 9100SOL    HW238763   4.246   2.657  14.381  0.8047  0.8186 -0.2851
 9101SOL     OW38764   1.114   2.184   7.403  0.2659  0.3253 -0.6069
 9101SOL    HW138765   1.059   2.131   7.461 -0.8620  2.0335 -0.1024
 9101SOL    HW238766   1.147   2.112   7.350 -0.6433 -1.4123  1.2039
 9102SOL     OW38767   0.823   4.186   3.834 -0.3073 -0.0027  1.0242
 9102SOL    HW138768   0.763   4.129   3.884 -0.4118 -0.7119  0.0979
 9102SOL    HW238769   0.767   4.228   3.769 -0.4472 -0.2375  0.9922
 9103SOL     OW38770   4.634   4.717  14.358  0.7563 -0.0639 -0.0401
 9103SOL    HW138771   4.647   4.682  14.270 -2.5546  1.1579 -1.0326
 9103SOL    HW238772   4.626   4.641  14.415  1.5136 -0.1928 -0.1118
 9104SOL     OW38773   2.510   4.583   3.141 -0.1958 -0.3673 -0.4820
 9104SOL    HW138774   2.419   4.610   3.155  0.3099  1.1287 -0.0376
 9104SOL    HW238775   2.552   4.669   3.137 -0.0214 -0.3839  1.1416
 9105SOL     OW38776   3.800   1.207   2.141 -0.0260  0.1570  0.4507
 9105SOL    HW138777   3.885   1.218   2.098 -0.6955  0.5062 -0.7986
 9105SOL    HW238778   3.744   1.258   2.082  2.2151  2.9217  0.7560
 9106SOL     OW38779   0.592   0.029   4.273  0.0610 -0.1884 -0.3465
 9106SOL    HW138780   0.508   0.070   4.251  0.2553  0.6479  0.5000
 9106SOL    HW238781   0.631   0.100   4.322  0.3072  0.9062 -2.1330
 9107SOL     OW38782   0.458   4.370   4.824  0.2399  0.1262  0.1420
 9107SOL    HW138783   0.535   4.377   4.767  0.2615  1.4387  0.3426
 9107SOL    HW238784   0.485   4.279   4.841  3.2585  0.7683 -1.2136
 9108SOL     OW38785   1.406   3.842   3.990 -0.1708  0.7177  0.5740
 9108SOL    HW138786   1.377   3.865   3.902 -0.2045  0.4216  0.5058
 9108SOL    HW238787   1.388   3.925   4.035 -1.0872 -0.6474  2.7606
 9109SOL     OW38788   3.548   1.422   9.609 -0.0259 -0.5512 -0.2014
 9109SOL    HW138789   3.630   1.388   9.644 -0.1851 -1.9258 -1.1544
 9109SOL    HW238790   3.570   1.486   9.541 -1.7841  0.7440  0.4279
 9110SOL     OW38791   4.615   1.790   7.924  0.1388  0.2573 -0.1673
 9110SOL    HW138792   4.675   1.860   7.949  0.0278  0.0312  0.7375
 9110SOL    HW238793   4.669   1.733   7.869 -0.4838  0.8991 -1.4217
 9111SOL     OW38794   0.161   0.954   8.277  0.3854 -0.0282 -0.2656
 9111SOL    HW138795   0.155   0.900   8.356  1.9582  0.1181 -0.0356
 9111SOL    HW238796   0.140   0.885   8.214  1.7391  1.7641 -2.7053
 9112SOL     OW38797   2.319   4.370   8.575 -0.0391  0.1646 -0.4497
 9112SOL    HW138798   2.262   4.294   8.587 -0.4145  0.4221 -0.5912
 9112SOL    HW238799   2.358   4.341   8.492  0.4009 -1.0863  0.1888
 9113SOL     OW38800   1.888   1.723   8.294 -0.7687  0.2548 -0.5155
 9113SOL    HW138801   1.904   1.799   8.238  0.6710  0.8546  0.7137
 9113SOL    HW238802   1.953   1.736   8.362 -1.3840 -2.4929  0.5721
 9114SOL     OW38803   2.721   4.180   5.527 -0.1284  0.0578 -0.0812
 9114SOL    HW138804   2.727   4.158   5.620 -1.4710 -2.2089 -0.5298
 9114SOL    HW238805   2.800   4.230   5.507  0.5251 -0.4920  1.1086
 9115SOL     OW38806   4.497   2.846   6.530 -0.2733  0.1184 -0.3638
 9115SOL    HW138807   4.473   2.792   6.606 -0.8514  0.3565 -0.3734
 9115SOL    HW238808   4.502   2.930   6.577 -0.2865  0.3882 -0.8481
 9116SOL     OW38809   2.523   2.764   4.226 -0.3212 -0.1443  0.8548
 9116SOL    HW138810   2.584   2.835   4.244 -0.4200  0.8644 -2.8601
 9116SOL    HW238811   2.575   2.708   4.170  0.3547  0.1958  1.1481
 9117SOL     OW38812   2.511   0.333  17.028 -0.0834 -0.1240 -0.4103
 9117SOL    HW138813   2.503   0.407  17.088  1.0616 -0.6611  0.4280
 9117SOL    HW238814   2.459   0.363  16.954  0.5391  0.4042 -0.6346
 9118SOL     OW38815   3.810   4.142   7.906  0.1335 -0.2858  0.2236
 9118SOL    HW138816   3.741   4.207   7.920 -0.2731 -0.5813 -0.3971
 9118SOL    HW238817   3.756   4.063   7.908  0.1776 -0.3565 -1.2256
 9119SOL     OW38818   2.838   3.765   1.904 -0.2123 -0.3503  0.1277
 9119SOL    HW138819   2.760   3.814   1.931 -0.1218 -0.8333  1.2663
 9119SOL    HW238820   2.859   3.801   1.818  0.7258  2.3416  1.4646
 9120SOL     OW38821   2.031   2.936  16.456 -0.1022  0.3676 -0.0639
 9120SOL    HW138822   1.999   3.001  16.518  0.8992  0.9606 -0.1893
 9120SOL    HW238823   1.950   2.907  16.413 -0.2171  0.6157 -0.0176
 9121SOL     OW38824   0.754   1.670   3.975 -0.4448 -0.4603  0.1358
 9121SOL    HW138825   0.848   1.668   3.995 -0.1194  1.0093 -1.1831
 9121SOL    HW238826   0.737   1.578   3.956  0.4436 -0.6474  0.2640
 9122SOL     OW38827   4.267   2.227  11.818  0.7022  0.5078 -0.8461
 9122SOL    HW138828   4.344   2.260  11.864 -1.0631  3.5600 -0.0845
 9122SOL    HW238829   4.238   2.304  11.769 -0.3645  0.2410 -0.6293
 9123SOL     OW38830   4.089   1.768   5.861 -0.2624 -0.1213  0.3399
 9123SOL    HW138831   4.025   1.782   5.931 -1.0521  1.0994 -0.6180
 9123SOL    HW238832   4.155   1.830   5.892 -0.4435  1.2755 -2.0296
 9124SOL     OW38833   1.832   1.653   9.064  0.0047  0.1670  1.3137
 9124SOL    HW138834   1.790   1.733   9.097 -1.6211 -0.9542  1.9294
 9124SOL    HW238835   1.757   1.596   9.079  0.4734 -0.8262 -0.1149
 9125SOL     OW38836   1.082   1.447   0.056  0.9393 -0.1450  0.0775
 9125SOL    HW138837   1.061   1.526   0.106 -2.0149 -1.4185  0.8214
 9125SOL    HW238838   1.050   1.388   0.123  0.5377 -2.0068 -1.7568
 9126SOL     OW38839   2.531   2.041   6.279 -0.8577  0.5440 -0.2414
 9126SOL    HW138840   2.480   2.120   6.262  0.0873  0.7727 -1.9052
 9126SOL    HW238841   2.462   1.985   6.316 -0.8162 -0.0441 -1.0500
 9127SOL     OW38842   2.248   0.067   3.297 -0.0446 -0.2206 -0.2541
 9127SOL    HW138843   2.259   0.150   3.343 -2.5578  0.9145 -1.7458
 9127SOL    HW238844   2.272   4.723   3.361 -2.2361 -1.0905 -0.3617
 9128SOL     OW38845   0.205   3.695  14.214  0.3457  0.1566 -0.0376
 9128SOL    HW138846   0.167   3.620  14.260  3.3928 -0.2004  1.9079
 9128SOL    HW238847   0.206   3.658  14.126 -0.5446 -0.2760  0.1379
 9129SOL     OW38848   0.050   3.880  10.536  0.1039  0.6474  0.2476
 9129SOL    HW138849   0.074   3.795  10.574  0.0415  0.0884 -0.9855
 9129SOL    HW238850   0.030   3.850  10.447  2.0032  0.2094 -0.0270
 9130SOL     OW38851   0.053   1.384  13.588  0.3026 -0.4368 -0.5566
 9130SOL    HW138852   4.719   1.460  13.585  0.4292 -0.3055  0.4598
 9130SOL    HW238853   0.024   1.346  13.670  0.3046 -1.6360 -1.1100
 9131SOL     OW38854   1.291   1.811  11.682 -0.5435  0.3959  0.0623
 9131SOL    HW138855   1.238   1.800  11.603 -0.4302  0.2691  0.0022
 9131SOL    HW238856   1.324   1.899  11.669  4.3918 -1.5449 -0.6399
 9132SOL     OW38857   4.314   2.012  11.654  0.0849  0.4832 -0.1335
 9132SOL    HW138858   4.355   2.054  11.579 -0.3667  0.1720 -0.5528
 9132SOL    HW238859   4.325   2.075  11.725  0.4891  2.1733 -1.6983
 9133SOL     OW38860   2.185   0.003  13.370  0.0969  0.2105 -0.3014
 9133SOL    HW138861   2.218   4.638  13.353  1.7141  0.6049  0.8670
 9133SOL    HW238862   2.235   0.063  13.315 -2.7748  3.5149  0.7138
 9134SOL     OW38863   2.286   1.375   9.876 -0.3043 -0.2966 -0.0879
 9134SOL    HW138864   2.368   1.422   9.892 -0.1964  0.2504 -2.2363
 9134SOL    HW238865   2.283   1.360   9.782  0.0060  1.7663 -0.4292
 9135SOL     OW38866   4.061   1.448   5.359  0.4906  0.2829  0.4465
 9135SOL    HW138867   4.039   1.540   5.373 -1.6077 -0.0393 -0.7585
 9135SOL    HW238868   4.153   1.449   5.331 -0.0264 -0.6712 -1.2953
 9136SOL     OW38869   0.283   3.340   3.323  0.7876 -0.6093  0.0435
 9136SOL    HW138870   0.283   3.336   3.228 -0.1597  2.8275 -0.1182
 9136SOL    HW238871   0.248   3.253   3.343  0.3491 -0.7606 -1.4043
 9137SOL     OW38872   0.526   2.818   2.414  0.5197 -0.4878 -0.7014
 9137SOL    HW138873   0.449   2.770   2.443  0.1591  0.0484 -0.7782
 9137SOL    HW238874   0.565   2.847   2.496 -2.0293 -0.2743  0.4204
 9138SOL     OW38875   3.996   0.917  13.030 -0.4837 -0.1629 -0.5016
 9138SOL    HW138876   3.913   0.938  12.987 -0.5865 -0.7248 -0.5756
 9138SOL    HW238877   4.016   1.005  13.062 -2.3090  0.9929 -2.5559
 9139SOL     OW38878   4.617   4.472  10.498 -0.0831  0.1747  0.5498
 9139SOL    HW138879   4.563   4.460  10.576  0.6520 -0.5145  0.9542
 9139SOL    HW238880   4.600   4.383  10.464  0.5608  0.8457 -1.4997
 9140SOL     OW38881   2.399   1.949   2.277  0.7679 -0.3346 -0.1142
 9140SOL    HW138882   2.479   1.925   2.324  1.1484  0.4092 -0.3809
 9140SOL    HW238883   2.364   2.014   2.339  2.0914  0.8896 -0.6824
 9141SOL     OW38884   1.731   3.300  14.208  0.4828  0.3881 -0.0093
 9141SOL    HW138885   1.753   3.324  14.118 -3.0840  1.2501 -0.6874
 9141SOL    HW238886   1.649   3.350  14.216  1.1150  1.4892 -0.4126
 9142SOL     OW38887   2.845   4.223   1.555  0.3055  0.1506  0.1050
 9142SOL    HW138888   2.875   4.165   1.485  2.8936  1.8747 -0.2488
 9142SOL    HW238889   2.929   4.266   1.574 -1.7745  3.2890  2.1089
 9143SOL     OW38890   4.698   1.578   7.431  0.8273 -0.1795  0.2473
 9143SOL    HW138891   4.636   1.563   7.502 -0.5953  0.8335 -0.7734
 9143SOL    HW238892   0.004   1.668   7.446 -1.5906  0.0078  3.8289
 9144SOL     OW38893   0.278   3.762   2.483 -0.2451 -0.2345 -0.2175
 9144SOL    HW138894   0.354   3.722   2.525 -0.1825  0.5790  0.4480
 9144SOL    HW238895   0.277   3.725   2.395  0.7293  0.6635 -0.6013
 9145SOL     OW38896   0.063   0.924   4.314  0.2172 -0.1749  0.1662
 9145SOL    HW138897   0.008   0.991   4.273  1.6711  1.9304  1.6509
 9145SOL    HW238898   0.133   0.924   4.248 -1.4845 -1.1592 -1.6415
 9146SOL     OW38899   2.302   0.988   4.370 -0.5543  0.1814  0.3433
 9146SOL    HW138900   2.245   0.912   4.364 -0.7552  0.4536 -1.1874
 9146SOL    HW238901   2.386   0.943   4.370  0.6984  2.5311  2.0456
 9147SOL     OW38902   4.185   1.980   6.027  0.1262 -0.3319 -0.1776
 9147SOL    HW138903   4.215   2.069   6.046 -0.1008 -0.1276 -0.7726
 9147SOL    HW238904   4.112   1.974   6.089 -0.5357  0.6185 -0.8611
 9148SOL     OW38905   3.436   3.208  10.380  0.0396  0.8755  0.8086
 9148SOL    HW138906   3.398   3.146  10.319  0.4934  1.9429 -0.5770
 9148SOL    HW238907   3.355   3.246  10.415 -0.1581  0.1055  1.1910
 9149SOL     OW38908   3.348   2.361   3.350  0.2881  0.1734  0.3638
 9149SOL    HW138909   3.288   2.348   3.276  1.5104  2.9725 -1.1489
 9149SOL    HW238910   3.317   2.296   3.412 -0.9338 -0.4114 -0.8816
 9150SOL     OW38911   2.707   0.780   6.600 -0.9683  0.4157  0.5099
 9150SOL    HW138912   2.753   0.697   6.616  0.1318  0.7231 -1.1361
 9150SOL    HW238913   2.734   0.800   6.511  1.2661  1.2189  1.3679
 9151SOL     OW38914   0.597   4.585   3.209  0.0492  0.5059 -0.5926
 9151SOL    HW138915   0.678   4.635   3.202  0.7975 -0.4956  1.0250
 9151SOL    HW238916   0.635   4.499   3.192 -0.8661 -0.0683  0.2700
 9152SOL     OW38917   2.249   4.238   7.954  0.3012  0.2277  0.0132
 9152SOL    HW138918   2.336   4.199   7.950  0.4784  0.7510 -1.3074
 9152SOL    HW238919   2.244   4.286   7.871 -0.1193 -3.0365 -1.8330
 9153SOL     OW38920   4.534   1.634  10.928  0.1360 -0.5828  0.0670
 9153SOL    HW138921   4.609   1.678  10.888 -0.3234  0.0318 -0.1183
 9153SOL    HW238922   4.576   1.550  10.945  1.0674  0.2462  1.7333
 9154SOL     OW38923   1.173   1.525   7.172  0.4769 -0.8087 -0.3383
 9154SOL    HW138924   1.226   1.448   7.152  0.0902 -1.6990  2.0583
 9154SOL    HW238925   1.154   1.504   7.264  0.6083  0.3625 -0.0314
 9155SOL     OW38926   3.191   4.185   9.789  0.0455 -0.1989 -0.4526
 9155SOL    HW138927   3.136   4.113   9.819  1.0058 -1.1512 -0.9733
 9155SOL    HW238928   3.281   4.152   9.794 -0.6267 -1.6784  1.8971
 9156SOL     OW38929   2.596   3.856   9.562 -0.3669  0.4313 -0.0842
 9156SOL    HW138930   2.584   3.805   9.481 -1.0623 -0.6720  0.7047
 9156SOL    HW238931   2.511   3.839   9.602  0.0547 -0.6580  0.3684
 9157SOL     OW38932   1.317   4.273   5.096 -0.4795 -0.0004 -0.0164
 9157SOL    HW138933   1.374   4.293   5.171 -0.0005 -0.0295 -0.3690
 9157SOL    HW238934   1.263   4.205   5.135 -1.2482 -0.6298 -2.1836
 9158SOL     OW38935   3.392   2.692   5.398 -0.2843  0.2210 -0.5747
 9158SOL    HW138936   3.457   2.635   5.357  0.6226 -0.2348  1.5555
 9158SOL    HW238937   3.428   2.709   5.484 -1.3513 -0.5294  0.0204
 9159SOL     OW38938   0.858   0.397  11.150  0.6973  0.3463  0.4358
 9159SOL    HW138939   0.791   0.465  11.141  0.0369 -0.3194  0.2782
 9159SOL    HW238940   0.933   0.454  11.166  2.1192 -1.4840  0.2716
 9160SOL     OW38941   1.866   1.226   5.856 -0.1271  0.0044 -0.5066
 9160SOL    HW138942   1.873   1.130   5.859 -1.8119 -0.1056  0.0917
 9160SOL    HW238943   1.868   1.245   5.950  1.1024 -0.1616 -0.5042
 9161SOL     OW38944   1.368   4.190  10.825  0.2146  0.6916  0.3923
 9161SOL    HW138945   1.308   4.238  10.882 -0.6958 -0.1049  0.1185
 9161SOL    HW238946   1.335   4.103  10.848  0.3453  1.2762  2.7180
 9162SOL     OW38947   3.582   3.186   4.533  0.1300 -0.2272  0.6537
 9162SOL    HW138948   3.612   3.154   4.618 -1.6529 -1.0629  0.9647
 9162SOL    HW238949   3.665   3.184   4.487 -0.5889  1.0101 -0.7088
 9163SOL     OW38950   4.646   2.770  12.973  0.1968 -0.2020  0.3187
 9163SOL    HW138951   0.013   2.742  12.980  0.2898  0.2469  0.9349
 9163SOL    HW238952   4.621   2.794  13.062  0.0983  3.0532 -0.6117
 9164SOL     OW38953   3.557   4.120   4.342 -0.3297 -0.0629  0.4889
 9164SOL    HW138954   3.620   4.096   4.409 -1.3465 -0.3110  1.3510
 9164SOL    HW238955   3.616   4.123   4.267  0.0762  2.7572  0.8994
 9165SOL     OW38956   3.639   1.188  15.338 -0.8024 -0.5905  0.2794
 9165SOL    HW138957   3.710   1.216  15.396 -0.0967 -0.6645 -0.5438
 9165SOL    HW238958   3.591   1.270  15.338 -1.2560 -0.8528  0.7816
 9166SOL     OW38959   3.221   1.780   0.325 -0.1688  0.1638 -0.1011
 9166SOL    HW138960   3.208   1.699   0.374  2.6888 -2.0684 -2.9920
 9166SOL    HW238961   3.194   1.750   0.238  0.6413 -0.6729 -0.0663
 9167SOL     OW38962   3.286   2.760   8.487 -0.4383 -0.0496  0.1946
 9167SOL    HW138963   3.374   2.790   8.510 -0.8876  1.8165 -0.5179
 9167SOL    HW238964   3.233   2.819   8.541  0.0139  0.8784 -0.3795
 9168SOL     OW38965   2.775   4.130   0.065 -0.0810 -0.0601  0.1975
 9168SOL    HW138966   2.708   4.158   0.003  1.0169  2.5122  0.1862
 9168SOL    HW238967   2.811   4.049   0.028 -1.6065  0.0834 -1.6264
 9169SOL     OW38968   4.072   0.584   6.476 -0.0914  0.0221 -0.4498
 9169SOL    HW138969   4.075   0.629   6.560  0.4132 -1.4167  0.3129
 9169SOL    HW238970   4.129   0.642   6.427  0.2134 -0.3121 -0.4894
 9170SOL     OW38971   3.042   2.799   9.419 -0.4007  0.1020 -0.3111
 9170SOL    HW138972   3.039   2.709   9.451 -0.5855  0.5903  1.0347
 9170SOL    HW238973   2.962   2.804   9.367 -2.2423 -1.7960  2.3385
 9171SOL     OW38974   3.417   3.847   2.718  0.1378  0.3481 -0.1140
 9171SOL    HW138975   3.480   3.919   2.716  0.2987  0.2056 -0.1268
 9171SOL    HW238976   3.360   3.883   2.786  0.2152 -0.7898  0.5463
 9172SOL     OW38977   4.039   1.112   7.505  0.2904 -0.1771 -0.1572
 9172SOL    HW138978   4.021   1.031   7.552 -3.7898 -0.3969 -2.0906
 9172SOL    HW238979   3.953   1.151   7.523  1.8373  3.0209  0.4061
 9173SOL     OW38980   2.400   3.148   6.746 -0.5846  0.1880  0.4694
 9173SOL    HW138981   2.469   3.119   6.806  0.2278  0.9471 -0.0938
 9173SOL    HW238982   2.397   3.071   6.690 -0.9762  0.8442 -0.4106
 9174SOL     OW38983   4.203   2.398   8.104  0.5674 -0.0778  0.3335
 9174SOL    HW138984   4.289   2.360   8.122  0.6770  0.2198  0.4537
 9174SOL    HW238985   4.155   2.328   8.060  0.7349  0.7938 -1.2648
 9175SOL     OW38986   0.434   3.800   1.308 -0.2035 -0.4688  0.2628
 9175SOL    HW138987   0.421   3.705   1.309 -0.4770 -0.4155  1.0753
 9175SOL    HW238988   0.494   3.807   1.234  1.4255 -2.4070  1.3812
 9176SOL     OW38989   2.915   0.319   6.795 -0.0989  0.1988 -0.3952
 9176SOL    HW138990   2.936   0.258   6.724  1.0981  0.1036  0.0366
 9176SOL    HW238991   2.984   0.289   6.854 -1.3483  0.4651  1.2050
 9177SOL     OW38992   3.671   1.637   8.709 -0.2912  0.4864 -0.3377
 9177SOL    HW138993   3.744   1.645   8.770 -0.3548  0.7827 -0.2978
 9177SOL    HW238994   3.610   1.691   8.759 -1.0274 -0.8626  0.2158
 9178SOL     OW38995   3.237   3.936   4.368  0.3893  0.3075 -0.4086
 9178SOL    HW138996   3.200   3.902   4.287 -0.4572 -2.0523  0.9586
 9178SOL    HW238997   3.244   4.025   4.334 -0.4336  1.0191  1.3203
 9179SOL     OW38998   3.785   0.170   5.973 -0.2552 -0.1693 -0.5203
 9179SOL    HW138999   3.711   0.111   5.956  1.1615 -1.3224 -2.5796
 9179SOL    HW239000   3.854   0.133   5.919  0.8741  3.3615 -1.4973
 9180SOL     OW39001   2.092   0.774  11.993 -0.0134  0.5596  0.4351
 9180SOL    HW139002   2.086   0.703  11.930 -0.3985  0.1522  0.9340
 9180SOL    HW239003   2.099   0.854  11.940  1.2633  1.0420  1.3313
 9181SOL     OW39004   0.654   1.440  10.132 -0.2375 -0.0301 -0.0390
 9181SOL    HW139005   0.688   1.515  10.180 -0.7682  0.3062 -0.1990
 9181SOL    HW239006   0.732   1.391  10.105  0.0512  1.3931 -1.7063
 9182SOL     OW39007   2.316   4.532  11.941  0.4438  0.3228 -0.2483
 9182SOL    HW139008   2.382   4.566  11.881  0.1106 -0.9094 -1.3171
 9182SOL    HW239009   2.297   4.615  11.985  0.6694  0.2335  0.0127
 9183SOL     OW39010   1.332   2.221   1.038 -0.1917  0.1391 -0.1229
 9183SOL    HW139011   1.377   2.239   0.956  1.4744  1.8655  1.1814
 9183SOL    HW239012   1.386   2.145   1.060  0.2017  0.6217  0.5715
 9184SOL     OW39013   2.785   3.232   7.793 -0.3894 -0.0802  0.2691
 9184SOL    HW139014   2.689   3.237   7.787 -0.4405 -1.0866  0.1667
 9184SOL    HW239015   2.799   3.148   7.749 -1.2586 -0.3245  0.4542
 9185SOL     OW39016   2.474   3.613   0.103  0.0930 -0.0626  0.1912
 9185SOL    HW139017   2.409   3.678   0.131 -1.9817 -2.0215 -0.0807
 9185SOL    HW239018   2.445   3.602   0.012 -2.0184 -3.8257  1.3184
 9186SOL     OW39019   2.764   1.945   2.552  0.5585 -0.6379 -0.4434
 9186SOL    HW139020   2.845   1.902   2.581 -0.2893 -1.1992  1.1268
 9186SOL    HW239021   2.726   1.964   2.638  1.4055  0.3557 -0.2845
 9187SOL     OW39022   2.358   1.504   3.115 -0.6637 -0.0603  0.1257
 9187SOL    HW139023   2.298   1.557   3.167  1.3080  1.9608  0.3419
 9187SOL    HW239024   2.448   1.533   3.133 -0.6749 -0.2437  0.4883
 9188SOL     OW39025   1.402   0.442   5.389 -0.6970 -0.0002 -0.2855
 9188SOL    HW139026   1.342   0.490   5.446  0.7034  0.5508  0.7332
 9188SOL    HW239027   1.344   0.393   5.331 -0.8782  1.8906 -1.6960
 9189SOL     OW39028   1.107   4.058   2.136  0.1553 -0.0533 -0.0446
 9189SOL    HW139029   1.080   4.043   2.045 -1.0932 -1.3314  0.5385
 9189SOL    HW239030   1.044   4.123   2.166  0.2260 -0.3336  0.7077
 9190SOL     OW39031   3.798   0.575  14.019 -0.7446  0.8092 -0.2673
 9190SOL    HW139032   3.735   0.573  13.947 -1.2004 -4.4933  0.3226
 9190SOL    HW239033   3.880   0.555  13.973 -0.6346 -0.0012  0.2940
 9191SOL     OW39034   1.227   0.415  17.031 -0.6016 -0.4764  0.1771
 9191SOL    HW139035   1.142   0.413  16.988 -0.9667 -0.5358  0.8922
 9191SOL    HW239036   1.223   0.504  17.068  0.6728  0.6812 -2.4286
 9192SOL     OW39037   2.745   1.285   6.699 -0.4822  0.0058  0.2954
 9192SOL    HW139038   2.793   1.363   6.670 -1.5507  0.4022 -0.3964
 9192SOL    HW239039   2.718   1.238   6.620  0.4774  0.1251 -0.1092
 9193SOL     OW39040   4.011   3.158   6.584  0.4835 -0.3132 -0.0916
 9193SOL    HW139041   4.088   3.125   6.538  0.8102  0.5976 -0.1972
 9193SOL    HW239042   3.950   3.118   6.522  0.0235  2.9740 -1.7481
 9194SOL     OW39043   3.199   2.940   2.852  0.0535  0.4404  0.0844
 9194SOL    HW139044   3.286   2.901   2.857 -0.0029  0.2524 -0.4268
 9194SOL    HW239045   3.158   2.900   2.928  1.4099 -0.8876  0.1066
 9195SOL     OW39046   0.560   2.908   1.181 -0.1989 -0.0700  0.1311
 9195SOL    HW139047   0.560   2.819   1.144 -1.6026 -0.5367  1.2438
 9195SOL    HW239048   0.505   2.891   1.257  0.2437 -1.1430  0.2229
 9196SOL     OW39049   3.266   3.130  14.825  0.0147  0.5253 -1.3184
 9196SOL    HW139050   3.286   3.204  14.767 -1.0955 -0.5131 -3.0287
 9196SOL    HW239051   3.263   3.176  14.908  1.6963  1.1581 -1.6036
 9197SOL     OW39052   1.502   1.642   5.208  0.3606  0.4590 -0.0054
 9197SOL    HW139053   1.409   1.663   5.217 -0.3677 -1.5531 -2.8054
 9197SOL    HW239054   1.531   1.726   5.244 -4.8215  2.8308 -1.2966
 9198SOL     OW39055   0.909   2.766   2.101 -0.0203  0.4130  0.3687
 9198SOL    HW139056   0.948   2.718   2.028 -1.7991 -0.0570 -0.2974
 9198SOL    HW239057   0.860   2.828   2.047 -2.4586 -0.2079  1.8085
 9199SOL     OW39058   4.344   0.124   7.031  0.0343 -0.1860 -0.3081
 9199SOL    HW139059   4.383   0.038   7.046  2.2080  1.1812  1.9371
 9199SOL    HW239060   4.386   0.144   6.947  0.3021 -0.1404 -0.1619
 9200SOL     OW39061   2.850   0.330   8.016  0.3812  0.3685  0.0849
 9200SOL    HW139062   2.790   0.400   8.045 -0.6373 -0.4921  0.0555
 9200SOL    HW239063   2.811   0.296   7.936  1.0560 -2.3796  0.9582
 9201SOL     OW39064   0.239   4.554   0.479  0.9621  0.3764 -0.1931
 9201SOL    HW139065   0.303   4.548   0.408  1.3692  2.4097  0.0085
 9201SOL    HW239066   0.161   4.573   0.425  0.8239 -1.4151 -0.6623
 9202SOL     OW39067   1.327   1.214   1.792  0.1270 -0.3093 -0.2097
 9202SOL    HW139068   1.415   1.207   1.828 -0.2844  1.4198  1.1566
 9202SOL    HW239069   1.276   1.162   1.855  1.0608  0.3485  1.0909
 9203SOL     OW39070   1.926   1.728   7.199 -0.3222 -0.1869  0.2817
 9203SOL    HW139071   1.955   1.819   7.207 -2.2186  0.3332  1.2027
 9203SOL    HW239072   1.852   1.727   7.260 -0.9220  3.1902 -0.3876
 9204SOL     OW39073   1.795   4.700   2.397  0.1661  0.0226  0.3849
 9204SOL    HW139074   1.815   4.707   2.490  0.3535 -1.1897  0.4380
 9204SOL    HW239075   1.719   0.034   2.385  0.6835  0.6277  0.0033
 9205SOL     OW39076   0.546   2.839   7.390  0.0575 -0.0255  0.6316
 9205SOL    HW139077   0.619   2.901   7.391  1.1277 -1.2936  0.6166
 9205SOL    HW239078   0.462   2.883   7.383  0.4543  0.5224 -0.8465
 9206SOL     OW39079   2.502   4.306   3.095 -0.4195 -0.0571  0.3988
 9206SOL    HW139080   2.545   4.391   3.102  0.9571 -0.8910  2.0512
 9206SOL    HW239081   2.410   4.329   3.110 -0.7481 -1.1194  0.0237
 9207SOL     OW39082   4.322   0.273   5.603 -1.0018  0.1236 -0.3427
 9207SOL    HW139083   4.251   0.336   5.589 -1.0218  0.2061  0.1293
 9207SOL    HW239084   4.392   0.339   5.600 -0.8525 -0.1215 -2.0250
 9208SOL     OW39085   1.119   0.712   4.801 -0.5774  0.4273  0.0881
 9208SOL    HW139086   1.120   0.686   4.708  0.1209  1.3198 -0.1498
 9208SOL    HW239087   1.029   0.743   4.813 -1.2536 -0.6325 -2.0868
 9209SOL     OW39088   0.114   0.956   2.212  0.9023  0.8593 -0.4604
 9209SOL    HW139089   0.058   1.010   2.157 -0.6827  0.2355  0.5530
 9209SOL    HW239090   0.202   0.993   2.202  0.8406  1.0393 -0.3395
 9210SOL     OW39091   0.727   3.716   1.517  0.2278 -0.2176  0.0402
 9210SOL    HW139092   0.785   3.689   1.446  0.1773  0.0423 -0.1007
 9210SOL    HW239093   0.786   3.720   1.592  0.4124  2.2843 -0.2450
 9211SOL     OW39094   1.821   3.469   4.942 -0.1958 -0.1989 -0.1086
 9211SOL    HW139095   1.894   3.436   4.891 -1.1170 -1.3702 -0.6601
 9211SOL    HW239096   1.755   3.462   4.874  0.2280 -2.3074 -0.3009
 9212SOL     OW39097   1.616   0.234   7.107 -0.0675 -0.0173 -0.0154
 9212SOL    HW139098   1.602   0.295   7.180  1.1057  1.3044 -0.9091
 9212SOL    HW239099   1.547   0.171   7.129  1.9506 -2.1549  0.1655
 9213SOL     OW39100   0.629   0.968   0.396  0.4985  0.3344  0.1790
 9213SOL    HW139101   0.542   0.973   0.436  1.1112  0.3669  1.5243
 9213SOL    HW239102   0.632   0.890   0.340  1.0355 -0.6095  1.5131
 9214SOL     OW39103   2.756   2.190  11.446  0.4752  0.0953  0.1801
 9214SOL    HW139104   2.723   2.104  11.473 -0.1087  0.2681 -0.0003
 9214SOL    HW239105   2.794   2.221  11.529 -1.0306  2.2642  0.0499
 9215SOL     OW39106   2.584   2.159  13.963  0.2709 -0.2295 -0.1305
 9215SOL    HW139107   2.586   2.106  14.043  0.3290  1.3437  0.9120
 9215SOL    HW239108   2.491   2.180  13.952  0.0188 -1.1796  0.1652
 9216SOL     OW39109   2.948   3.955   3.440  0.1035  0.2017 -0.1945
 9216SOL    HW139110   3.005   3.978   3.513 -0.5468  0.4631  0.2219
 9216SOL    HW239111   2.940   3.860   3.437  2.2047  0.0371 -0.8514
 9217SOL     OW39112   3.100   0.677   0.547 -0.1446  0.7454  0.3256
 9217SOL    HW139113   3.059   0.716   0.623 -0.1837  2.2773 -0.4794
 9217SOL    HW239114   3.115   0.583   0.562 -2.0468  0.4068  0.1199
 9218SOL     OW39115   4.219   0.595   2.684  0.0310 -0.8109  0.6151
 9218SOL    HW139116   4.149   0.531   2.698 -1.7601  1.1729  0.6974
 9218SOL    HW239117   4.262   0.569   2.603 -0.1545 -1.8871  0.8639
 9219SOL     OW39118   2.872   1.911   2.814 -0.0609  0.1828 -0.4201
 9219SOL    HW139119   2.961   1.926   2.846  0.7303  1.1579 -3.1302
 9219SOL    HW239120   2.823   1.878   2.890  0.0837  3.6659  1.1970
 9220SOL     OW39121   1.653   2.945  14.523 -0.7574 -0.1574 -0.0668
 9220SOL    HW139122   1.575   2.911  14.478 -0.3324 -0.2313 -0.7396
 9220SOL    HW239123   1.616   2.980  14.604  2.2117  0.8607  0.8365
 9221SOL     OW39124   0.236   2.006   8.951  0.1745 -0.2992  0.2442
 9221SOL    HW139125   0.192   2.083   8.986  1.2286  0.8236 -0.9205
 9221SOL    HW239126   0.249   1.964   9.037 -1.5032 -0.4774  0.4249
 9222SOL     OW39127   0.707   4.082   2.005  0.1650 -0.0030 -0.1202
 9222SOL    HW139128   0.750   4.120   1.929  0.1277 -0.8236 -0.5482
 9222SOL    HW239129   0.705   3.992   1.972 -0.3384  0.2760 -0.8449
 9223SOL     OW39130   2.652   1.382  12.948 -0.0137  0.0393  0.0919
 9223SOL    HW139131   2.607   1.441  12.887  0.2872 -0.6712 -0.8173
 9223SOL    HW239132   2.737   1.363  12.908  0.4348 -0.7379  1.3995
 9224SOL     OW39133   1.756   0.329   2.228  0.6037 -0.2391 -0.1379
 9224SOL    HW139134   1.686   0.360   2.171  0.6433  0.6014  0.2759
 9224SOL    HW239135   1.723   0.341   2.318 -3.1520  1.0386 -1.6845
 9225SOL     OW39136   1.893   4.413   7.074 -0.2088  0.0653 -0.0818
 9225SOL    HW139137   1.891   4.351   7.001 -1.9913  0.3789 -0.2796
 9225SOL    HW239138   1.931   4.489   7.028 -0.6762  0.8455  0.8381
 9226SOL     OW39139   0.672   0.208   4.809  0.1883  0.2154 -0.4277
 9226SOL    HW139140   0.626   0.292   4.802 -0.7820 -0.3737 -1.1004
 9226SOL    HW239141   0.596   0.156   4.837  1.6955 -1.1417  1.1728
 9227SOL     OW39142   1.480   1.560  12.922  0.7815  0.7156  0.3744
 9227SOL    HW139143   1.403   1.503  12.916  0.7446  0.8690 -0.5862
 9227SOL    HW239144   1.505   1.559  13.014  3.4106 -0.2005 -0.3262
 9228SOL     OW39145   2.898   2.372   5.099 -0.1208 -0.0472 -0.4368
 9228SOL    HW139146   2.804   2.357   5.110  0.1281 -0.0303  1.8172
 9228SOL    HW239147   2.927   2.282   5.107  1.1368  0.3479 -0.5864
 9229SOL     OW39148   3.826   2.268   9.522  0.3774 -0.0135  0.0298
 9229SOL    HW139149   3.790   2.231   9.602  0.9484  0.0681  0.3250
 9229SOL    HW239150   3.919   2.246   9.526  1.0048  2.8042  1.2927
 9230SOL     OW39151   3.786   4.099   8.602  0.1521 -0.6217 -0.4326
 9230SOL    HW139152   3.767   4.006   8.590  0.8652 -1.1938  2.8433
 9230SOL    HW239153   3.802   4.096   8.696 -0.2477 -2.2796 -0.4135
 9231SOL     OW39154   3.544   2.831   1.752 -0.0975  0.6591 -0.1063
 9231SOL    HW139155   3.489   2.888   1.699 -0.0784  2.4534  1.8170
 9231SOL    HW239156   3.472   2.775   1.779 -0.8121  2.4732  1.7370
 9232SOL     OW39157   3.301   2.232   0.450 -0.6136 -0.0447  0.0880
 9232SOL    HW139158   3.338   2.306   0.402 -0.0118 -1.1581 -1.1596
 9232SOL    HW239159   3.384   2.192   0.477 -0.3865  0.3690  0.0120
 9233SOL     OW39160   1.349   2.018  12.450 -0.2689 -0.3772 -0.0525
 9233SOL    HW139161   1.338   1.923  12.459  1.5772 -0.6397 -0.5644
 9233SOL    HW239162   1.368   2.031  12.357  1.3866  1.1592  0.5178
 9234SOL     OW39163   1.729   1.031   4.874 -0.1504 -0.6688 -0.7785
 9234SOL    HW139164   1.819   1.040   4.842 -0.4476 -2.0222 -1.9857
 9234SOL    HW239165   1.751   1.046   4.966 -2.5723 -1.0599 -0.1595
 9235SOL     OW39166   1.083   2.729   5.590  0.3033  0.7702  0.1600
 9235SOL    HW139167   0.991   2.744   5.614 -0.3796 -1.2503 -1.1644
 9235SOL    HW239168   1.074   2.636   5.572  0.3063  1.2597 -2.4261
 9236SOL     OW39169   2.601   2.197   2.153 -0.4638 -0.0949  0.2021
 9236SOL    HW139170   2.618   2.129   2.218 -0.9277 -1.4933 -1.1693
 9236SOL    HW239171   2.594   2.145   2.074  1.9204 -0.5457  0.3050
 9237SOL     OW39172   3.575   2.234   3.988  0.3511  0.1894 -0.7274
 9237SOL    HW139173   3.561   2.287   3.910 -0.6864  0.9304 -0.0365
 9237SOL    HW239174   3.518   2.159   3.971  0.8963 -0.3868  0.0020
 9238SOL     OW39175   0.855   0.273   5.414  0.3193  0.2708 -0.1163
 9238SOL    HW139176   0.807   0.333   5.472 -1.6659 -1.5868  0.1839
 9238SOL    HW239177   0.803   0.262   5.335 -1.4525  0.2595  1.0380
 9239SOL     OW39178   4.560   0.631   6.256 -0.1456 -0.2651  0.1379
 9239SOL    HW139179   4.642   0.678   6.241 -0.2401 -0.7814 -2.0189
 9239SOL    HW239180   4.536   0.605   6.167 -1.6761 -1.7524  0.9777
 9240SOL     OW39181   0.487   0.804   4.339  0.4094  0.0716  0.3459
 9240SOL    HW139182   0.445   0.721   4.319 -2.6781  1.9968 -1.1514
 9240SOL    HW239183   0.549   0.829   4.271  0.7970 -0.5497  0.4759
 9241SOL     OW39184   3.361   3.937   8.022 -1.0338 -0.6616  0.0881
 9241SOL    HW139185   3.305   3.866   8.053  0.9468 -2.9780 -1.6298
 9241SOL    HW239186   3.331   3.950   7.933  1.5818  1.7530 -0.4632
 9242SOL     OW39187   0.513   3.997   6.176  0.1376  0.2297 -0.1467
 9242SOL    HW139188   0.541   3.915   6.134  1.6375  0.7914 -0.2362
 9242SOL    HW239189   0.459   4.034   6.107 -0.1402 -0.9013 -0.5279
 9243SOL     OW39190   1.632   1.800  12.899  0.4493 -0.0127  0.1381
 9243SOL    HW139191   1.651   1.803  12.805  0.6152 -1.6091  0.1271
 9243SOL    HW239192   1.560   1.737  12.893 -1.0811  1.5368  2.1260
 9244SOL     OW39193   2.721   4.091   7.492 -0.1704  0.5494  0.3818
 9244SOL    HW139194   2.631   4.104   7.522 -0.6884 -2.9487  0.3353
 9244SOL    HW239195   2.701   4.069   7.401 -0.4314  1.1443  0.2939
 9245SOL     OW39196   4.386   0.319   9.408 -0.3473 -0.3091 -0.1591
 9245SOL    HW139197   4.464   0.349   9.362  0.1813 -1.0984  0.2070
 9245SOL    HW239198   4.368   0.387   9.472 -0.3778  0.7572 -1.2987
 9246SOL     OW39199   2.278   3.045  17.354  0.1047  0.8799  0.7350
 9246SOL    HW139200   2.261   2.962  17.309  0.8056  1.1481 -0.0062
 9246SOL    HW239201   2.233   3.036  17.438  0.8135  0.3196  1.0582
 9247SOL     OW39202   3.733   0.098  11.928 -0.6616  0.9635 -0.0281
 9247SOL    HW139203   3.646   0.060  11.935 -0.0305 -0.5231 -0.3312
 9247SOL    HW239204   3.748   0.112  12.022 -2.6379 -0.1394  0.4557
 9248SOL     OW39205   2.608   2.458   8.002  0.4124 -0.2685 -0.0280
 9248SOL    HW139206   2.691   2.421   8.033 -0.2764 -1.2496  0.6710
 9248SOL    HW239207   2.580   2.529   8.060  2.0408  1.1134 -0.9527
 9249SOL     OW39208   3.240   4.707   0.453 -0.4053  0.3721  0.3434
 9249SOL    HW139209   3.158   4.722   0.407  0.1685  1.4459 -0.3441
 9249SOL    HW239210   3.216   4.629   0.502  1.5109 -0.9978 -0.8901
 9250SOL     OW39211   4.645   3.814   1.711 -0.0675 -0.3550  0.0928
 9250SOL    HW139212   4.579   3.878   1.685  0.7836  0.2973 -0.4484
 9250SOL    HW239213   4.583   3.752   1.751  1.3753 -0.8315  1.5851
 9251SOL     OW39214   2.678   2.908   7.716  0.2943 -0.6229  0.5828
 9251SOL    HW139215   2.690   2.878   7.806 -2.8585 -3.5484  0.0193
 9251SOL    HW239216   2.728   2.839   7.673  0.3433 -0.2647  0.0685
 9252SOL     OW39217   0.434   0.950   8.610 -0.1081 -0.3366  0.4941
 9252SOL    HW139218   0.483   0.975   8.531 -0.9115 -0.3647 -0.0167
 9252SOL    HW239219   0.409   1.032   8.654 -0.8911 -0.0478 -0.4663
 9253SOL     OW39220   4.558   2.734  15.965  0.2237  0.3016  0.3758
 9253SOL    HW139221   4.603   2.818  15.955  0.2334  0.3997  1.2487
 9253SOL    HW239222   4.614   2.676  15.913 -1.0192 -0.3706 -0.2245
 9254SOL     OW39223   2.495   3.819   6.897  0.2662  0.1658  0.2229
 9254SOL    HW139224   2.497   3.730   6.932  3.1881 -0.7725 -2.2959
 9254SOL    HW239225   2.400   3.809   6.887  0.2343 -0.5562  1.2281
 9255SOL     OW39226   3.681   2.349   7.041 -0.9319 -0.0135 -0.4093
 9255SOL    HW139227   3.613   2.297   6.998 -0.8714  0.3053 -0.8844
 9255SOL    HW239228   3.633   2.414   7.092  2.6664  1.5239  1.0649
 9256SOL     OW39229   3.916   1.734   3.303  0.2186 -0.2770 -0.4500
 9256SOL    HW139230   3.828   1.726   3.338 -0.4803 -1.5681 -2.4402
 9256SOL    HW239231   3.947   1.820   3.330  0.6112  0.3500 -2.8721
 9257SOL     OW39232   0.515   0.059  17.203 -0.0132 -0.2930 -0.3983
 9257SOL    HW139233   0.558   0.085  17.121  1.4976 -1.8127 -0.1004
 9257SOL    HW239234   0.426   0.070  17.169  0.2242 -1.3471 -1.3831
 9258SOL     OW39235   4.112   0.388   4.825  0.3970  0.3863 -0.1454
 9258SOL    HW139236   4.112   0.477   4.790 -1.0229  0.2860 -0.4223
 9258SOL    HW239237   4.186   0.394   4.885 -0.6247  2.8110  0.8623
 9259SOL     OW39238   0.329   4.246   0.125 -0.2303 -0.5268 -0.1144
 9259SOL    HW139239   0.317   4.266   0.218  1.8794 -0.6305  0.1857
 9259SOL    HW239240   0.240   4.264   0.094  1.2505  2.3925 -2.6682
 9260SOL     OW39241   1.107   3.944  12.323  0.7039 -0.3930 -0.4911
 9260SOL    HW139242   1.200   3.939  12.301  0.5249 -1.5916 -0.9724
 9260SOL    HW239243   1.071   3.952  12.235 -0.7055 -0.7887  0.0443
 9261SOL     OW39244   2.961   3.701   4.064 -0.1016 -0.0682 -0.1825
 9261SOL    HW139245   2.882   3.714   4.011  0.1258  0.3603 -0.4185
 9261SOL    HW239246   3.000   3.617   4.040  0.2582 -0.5390  2.1130
 9262SOL     OW39247   0.210   1.322   6.183  0.0988 -0.1750  0.5112
 9262SOL    HW139248   0.258   1.270   6.119 -0.5528  0.6366 -0.6422
 9262SOL    HW239249   0.208   1.263   6.258  1.9734  0.2258  0.8694
 9263SOL     OW39250   1.999   4.450   5.845 -0.1227  0.3396 -0.0284
 9263SOL    HW139251   1.990   4.538   5.809  1.2703  0.7275  0.5783
 9263SOL    HW239252   1.931   4.451   5.912  0.3043  1.0678  0.3889
 9264SOL     OW39253   2.450   0.801   1.740  0.6887 -0.2182 -0.0702
 9264SOL    HW139254   2.498   0.814   1.659 -0.1044  1.3472 -0.2965
 9264SOL    HW239255   2.362   0.775   1.711  0.2307  1.2928 -0.0367
 9265SOL     OW39256   0.005   3.771   4.449  0.3397  0.5181 -0.1751
 9265SOL    HW139257   0.025   3.840   4.386  1.6354  0.8077  0.5559
 9265SOL    HW239258   4.633   3.775   4.453  0.3206 -0.1709  0.0079
 9266SOL     OW39259   1.521   2.849   3.108  0.1218 -0.1068 -0.8942
 9266SOL    HW139260   1.507   2.800   3.189 -0.9713  0.6592 -0.6230
 9266SOL    HW239261   1.577   2.923   3.133 -0.8656  0.3277  0.0260
 9267SOL     OW39262   2.995   4.353  11.091  0.4500  0.1921  0.0346
 9267SOL    HW139263   3.000   4.435  11.141  3.2857  0.9430 -1.4759
 9267SOL    HW239264   2.904   4.360  11.063  0.1511  0.3833  1.0287
 9268SOL     OW39265   4.464   2.655   3.380 -0.3657 -0.1854  0.4840
 9268SOL    HW139266   4.554   2.686   3.377 -1.0627  1.8859  0.1707
 9268SOL    HW239267   4.416   2.725   3.334  2.4872  1.0182 -0.6550
 9269SOL     OW39268   1.592   3.959  11.711 -0.2097  0.5408 -0.9805
 9269SOL    HW139269   1.534   3.894  11.672  1.1657 -1.4661  0.2762
 9269SOL    HW239270   1.670   3.956  11.656  1.1705  1.9479  0.9404
 9270SOL     OW39271   2.978   2.164  11.300  0.2532 -0.1677 -0.7054
 9270SOL    HW139272   3.037   2.211  11.357 -0.4482 -1.4593  1.0984
 9270SOL    HW239273   2.898   2.169  11.352  0.6361  1.7505 -0.3234
 9271SOL     OW39274   2.400   1.216   5.251 -0.0158  0.5373  0.1580
 9271SOL    HW139275   2.435   1.170   5.175 -1.5308  1.7428 -1.2891
 9271SOL    HW239276   2.368   1.137   5.294  1.4365 -2.1562 -3.7552
 9272SOL     OW39277   3.292   3.106   4.704 -0.6250  0.0721  0.4314
 9272SOL    HW139278   3.299   3.041   4.634  0.7885  3.4244 -2.5252
 9272SOL    HW239279   3.328   3.182   4.658  0.5504 -1.4840 -1.2491
 9273SOL     OW39280   1.825   2.125   6.105 -0.2949  0.1019  0.3883
 9273SOL    HW139281   1.747   2.116   6.159  1.4104 -3.0290  2.3141
 9273SOL    HW239282   1.831   2.220   6.099 -0.4804  0.0561 -0.5432
 9274SOL     OW39283   1.692   1.648   0.327  0.1752 -0.1244 -0.0013
 9274SOL    HW139284   1.665   1.731   0.367 -0.1789 -0.4354  0.3955
 9274SOL    HW239285   1.620   1.622   0.269  1.4390 -2.0080 -0.7293
 9275SOL     OW39286   1.933   2.234  15.093  0.3843  0.4880 -0.3836
 9275SOL    HW139287   1.999   2.172  15.062 -0.9163 -0.7056 -0.7920
 9275SOL    HW239288   1.881   2.242  15.013 -0.2135 -0.4297 -0.0957
 9276SOL     OW39289   3.748   2.245   2.639 -0.0866  0.4211 -0.7486
 9276SOL    HW139290   3.758   2.294   2.720  1.4330 -0.3169 -0.4900
 9276SOL    HW239291   3.741   2.317   2.576 -1.4571  2.0739  1.3249
 9277SOL     OW39292   0.371   3.201   6.814  0.5928 -0.2148  0.0220
 9277SOL    HW139293   0.404   3.236   6.732 -2.3102  2.9995  0.2394
 9277SOL    HW239294   0.361   3.279   6.869  0.2268  0.4629 -1.0113
 9278SOL     OW39295   4.409   1.903   5.929 -0.0622  0.5860 -0.1831
 9278SOL    HW139296   4.322   1.935   5.953 -1.4503 -2.5830 -0.9535
 9278SOL    HW239297   4.446   1.979   5.885  0.4412  0.6532  0.3598
 9279SOL     OW39298   4.650   3.775   2.598 -0.7043 -0.0264 -0.0887
 9279SOL    HW139299   4.584   3.754   2.532  0.6558 -1.9378 -0.8682
 9279SOL    HW239300   4.664   3.692   2.644 -0.7078 -1.1987 -2.1708
 9280SOL     OW39301   3.969   1.760  11.082  0.8208 -0.3141  0.1739
 9280SOL    HW139302   4.041   1.724  11.029  1.9140  1.7286  0.2632
 9280SOL    HW239303   3.975   1.711  11.164 -0.1938 -0.2308  0.2888
 9281SOL     OW39304   4.096   3.447  13.914  0.2101 -0.3828  0.3496
 9281SOL    HW139305   4.039   3.502  13.861 -0.1623 -1.3065 -0.2104
 9281SOL    HW239306   4.052   3.453  13.999 -0.7854 -2.5699 -0.0072
 9282SOL     OW39307   1.166   2.134   7.781 -0.8572 -0.3645  0.3085
 9282SOL    HW139308   1.117   2.055   7.758 -1.2193 -0.3537  1.0370
 9282SOL    HW239309   1.134   2.195   7.715 -1.2509 -0.9750 -0.0668
 9283SOL     OW39310   1.024   0.518  16.871 -0.3348 -0.4098  0.5058
 9283SOL    HW139311   1.026   0.564  16.787 -2.4274 -3.1147 -1.0376
 9283SOL    HW239312   0.951   0.572  16.902 -1.4329 -1.6428  0.0630
 9284SOL     OW39313   4.669   0.005   7.778  0.0259  0.0695 -0.3789
 9284SOL    HW139314   4.723   0.078   7.808  1.9446 -2.5988  2.6915
 9284SOL    HW239315   4.586   0.040   7.810 -0.9224  1.2222 -4.1604
 9285SOL     OW39316   2.392   1.785   8.799  0.1084  0.0318 -0.9261
 9285SOL    HW139317   2.457   1.763   8.732  2.6694  0.7329  1.3388
 9285SOL    HW239318   2.428   1.724   8.864  2.0977  0.4747 -1.6177
 9286SOL     OW39319   3.860   2.009   2.481 -0.1428  0.0099 -0.0229
 9286SOL    HW139320   3.955   2.015   2.490  0.1129 -0.4308 -2.4344
 9286SOL    HW239321   3.827   2.086   2.528  0.2304  0.4624 -0.5070
 9287SOL     OW39322   1.597   1.306  17.009  0.4191 -0.2518 -0.2074
 9287SOL    HW139323   1.622   1.338  16.923 -0.1132  1.7509  0.3876
 9287SOL    HW239324   1.669   1.337  17.065  1.0440  0.0202 -1.1618
 9288SOL     OW39325   2.635   0.313   3.496  0.7484 -0.0182 -0.2609
 9288SOL    HW139326   2.730   0.307   3.490  0.6701 -0.7534 -0.7699
 9288SOL    HW239327   2.618   0.225   3.529 -0.0965  0.7490  1.3695
 9289SOL     OW39328   0.330   2.422   6.973 -0.4494 -0.2626 -0.3453
 9289SOL    HW139329   0.269   2.420   7.047 -0.0579 -1.3062 -0.0494
 9289SOL    HW239330   0.279   2.436   6.893 -0.7395 -1.4277 -0.3595
 9290SOL     OW39331   3.266   4.383  11.902  0.2025  0.2405 -0.1259
 9290SOL    HW139332   3.308   4.427  11.976  0.5400  0.3466 -0.3790
 9290SOL    HW239333   3.180   4.362  11.938 -0.3173  0.7199 -1.0802
 9291SOL     OW39334   3.610   2.755   3.838  0.0381  0.0211  0.1837
 9291SOL    HW139335   3.555   2.830   3.862 -1.0606 -0.5114 -0.6709
 9291SOL    HW239336   3.569   2.687   3.890  1.6870 -1.2613 -0.1908
 9292SOL     OW39337   0.318   1.803   2.020 -0.1055  0.2566 -0.0862
 9292SOL    HW139338   0.335   1.897   2.006 -0.4878  0.4604  0.8293
 9292SOL    HW239339   0.241   1.793   1.964 -0.1291  0.9726 -0.1852
 9293SOL     OW39340   1.500   0.522   8.722  0.1284  0.0732  0.1184
 9293SOL    HW139341   1.515   0.605   8.678  2.9377  1.0164  2.8720
 9293SOL    HW239342   1.583   0.476   8.708  0.7095  0.8600  0.9768
 9294SOL     OW39343   3.803   2.870   4.308  0.2295 -0.0341 -0.1157
 9294SOL    HW139344   3.844   2.831   4.230 -0.4861 -1.6763  0.3230
 9294SOL    HW239345   3.847   2.955   4.306 -1.6007  0.8877 -0.3428
 9295SOL     OW39346   2.157   1.121   1.396  0.2247  0.3583  0.1166
 9295SOL    HW139347   2.093   1.159   1.456 -2.1651 -1.9567 -0.9752
 9295SOL    HW239348   2.150   1.185   1.325  4.1772  0.7134 -0.0011
 9296SOL     OW39349   0.854   0.161  15.063  0.0475  0.5362  0.8038
 9296SOL    HW139350   0.905   0.241  15.061 -0.4804  0.8871  1.2423
 9296SOL    HW239351   0.853   0.129  14.972  1.4832  3.9023 -0.4002
 9297SOL     OW39352   0.230   3.484   5.088  0.1393 -0.3696 -0.1731
 9297SOL    HW139353   0.182   3.412   5.048 -0.4417 -1.7651  2.9701
 9297SOL    HW239354   0.309   3.442   5.123  1.2557  1.5671 -0.3855
 9298SOL     OW39355   1.487   1.470  16.347 -0.2339  0.2747 -0.6643
 9298SOL    HW139356   1.425   1.409  16.306  0.3176 -1.0453  0.4455
 9298SOL    HW239357   1.460   1.540  16.288 -0.5977  0.9597  0.3020
 9299SOL     OW39358   3.665   2.584   4.192 -0.2602 -0.0635  0.2175
 9299SOL    HW139359   3.632   2.635   4.266 -2.7286  0.1537 -1.0309
 9299SOL    HW239360   3.760   2.594   4.195 -0.1333 -1.1146 -0.2912
 9300SOL     OW39361   4.108   2.360  14.473 -0.2203  0.3627  0.2953
 9300SOL    HW139362   4.182   2.326  14.525 -0.7150 -0.2936  0.5742
 9300SOL    HW239363   4.148   2.427  14.418 -1.4887  0.0142 -1.0394
 9301SOL     OW39364   2.747   0.816  13.312  0.3848  0.8547  0.1086
 9301SOL    HW139365   2.661   0.778  13.325  0.8325  0.1432  0.9903
 9301SOL    HW239366   2.731   0.909  13.300 -1.6211  0.5547  0.4504
 9302SOL     OW39367   2.186   1.312   1.181  0.7622 -0.0947 -0.1717
 9302SOL    HW139368   2.210   1.254   1.108  1.4992  1.5965 -1.2649
 9302SOL    HW239369   2.239   1.387   1.156 -0.2451 -0.0555 -2.1962
 9303SOL     OW39370   0.544   0.728   3.641 -0.1879  0.5816 -0.5214
 9303SOL    HW139371   0.470   0.668   3.651 -0.5475  0.8489 -1.4995
 9303SOL    HW239372   0.619   0.669   3.646  1.0779  2.2082 -0.0613
 9304SOL     OW39373   3.080   2.046   8.509  0.4259  0.0745  0.3853
 9304SOL    HW139374   3.111   2.125   8.553 -0.3076  0.4419  0.2435
 9304SOL    HW239375   3.096   2.087   8.424  1.4163  3.3709  2.1500
 9305SOL     OW39376   2.864   3.032   6.256 -0.2766 -0.4929  0.0070
 9305SOL    HW139377   2.874   3.031   6.161 -0.4624  1.6008 -0.0382
 9305SOL    HW239378   2.949   3.005   6.290 -0.2865 -2.2081 -1.3734
 9306SOL     OW39379   3.057   2.225  13.102  0.3029  0.0483 -0.5453
 9306SOL    HW139380   3.080   2.253  13.191  0.3535  0.6061 -0.7321
 9306SOL    HW239381   2.976   2.277  13.103 -0.4335 -1.1658  2.6443
 9307SOL     OW39382   4.622   0.133   0.016 -0.2637  0.1835  0.4720
 9307SOL    HW139383   4.713   0.162   0.029 -0.1006 -0.7720  1.5081
 9307SOL    HW239384   4.603   0.157  17.622  0.9345 -1.1789 -0.1414
 9308SOL     OW39385   3.877   1.282   5.208 -0.3467 -0.4913 -0.0568
 9308SOL    HW139386   3.927   1.312   5.284  1.1232 -1.4394 -0.6589
 9308SOL    HW239387   3.947   1.253   5.150  0.1320 -0.3223  0.4348
 9309SOL     OW39388   3.687   2.578   8.686  0.3599 -0.1122 -0.3401
 9309SOL    HW139389   3.652   2.579   8.596  0.1756  1.6505 -0.2328
 9309SOL    HW239390   3.776   2.610   8.674 -0.4858  1.6281 -1.9137
 9310SOL     OW39391   3.922   4.303   2.892  0.1051  0.3739  0.3668
 9310SOL    HW139392   3.860   4.376   2.880 -0.6331 -0.4947 -1.1295
 9310SOL    HW239393   3.968   4.305   2.808 -1.1112 -1.5053 -0.3386
 9311SOL     OW39394   3.698   1.655   3.871  0.2844 -0.4689  1.0356
 9311SOL    HW139395   3.624   1.603   3.841  1.0735 -0.0406 -1.6646
 9311SOL    HW239396   3.770   1.617   3.822  0.1170 -0.2009  0.5784
 9312SOL     OW39397   2.961   1.748  17.392  0.2034  0.3708 -0.4293
 9312SOL    HW139398   3.012   1.754  17.472  0.8211  2.3422 -0.9645
 9312SOL    HW239399   2.908   1.827  17.407 -1.9456 -1.2104  0.4042
 9313SOL     OW39400   3.906   2.593   8.894  0.6564  0.3938  0.4091
 9313SOL    HW139401   3.840   2.549   8.948  1.6150 -1.0405  0.4373
 9313SOL    HW239402   3.976   2.527   8.887  0.0332 -0.2628  0.3563
 9314SOL     OW39403   2.066   1.388   7.798 -0.1066 -0.7590 -0.1631
 9314SOL    HW139404   2.010   1.377   7.721 -1.4206 -1.1901  0.8317
 9314SOL    HW239405   2.109   1.471   7.780  1.9821 -1.4164  1.8037
 9315SOL     OW39406   1.583   3.669   5.255  0.1552 -0.1532 -0.4135
 9315SOL    HW139407   1.519   3.688   5.323  0.1304  0.1594 -0.5264
 9315SOL    HW239408   1.540   3.690   5.172 -0.8653  0.8050  0.3748
 9316SOL     OW39409   2.835   2.532  12.854 -0.5067  0.1357 -0.1546
 9316SOL    HW139410   2.853   2.602  12.791  2.0976  0.9878  1.5571
 9316SOL    HW239411   2.921   2.494  12.870 -0.6315 -0.5090 -1.0430
 9317SOL     OW39412   3.602   1.828   8.929  0.0078  0.3902 -0.0749
 9317SOL    HW139413   3.694   1.848   8.916  0.1456  0.8510  1.7069
 9317SOL    HW239414   3.565   1.916   8.920  1.0595  0.6914 -1.4955
 9318SOL     OW39415   0.295   4.570  14.978  0.2044  0.1409  0.3343
 9318SOL    HW139416   0.271   4.662  14.969 -0.8926 -0.1152  0.5549
 9318SOL    HW239417   0.364   4.555  14.913 -1.2745 -0.2119 -1.1522
 9319SOL     OW39418   2.089   3.334   1.072  0.1444  0.4748  0.2930
 9319SOL    HW139419   2.148   3.278   1.021 -0.5237 -1.8296  2.0272
 9319SOL    HW239420   2.135   3.352   1.154  0.1185 -1.2035  0.6902
 9320SOL     OW39421   0.728   2.822   5.203 -0.1468 -0.0535 -0.3642
 9320SOL    HW139422   0.758   2.907   5.236  2.1794 -0.2598 -1.9296
 9320SOL    HW239423   0.784   2.815   5.126  0.4479  1.9060 -0.1387
 9321SOL     OW39424   2.462   3.077   5.401  0.3554 -0.0981 -0.4778
 9321SOL    HW139425   2.466   3.153   5.342  1.2511 -0.8984 -1.4626
 9321SOL    HW239426   2.489   3.102   5.489 -1.8417 -0.2420  0.2493
 9322SOL     OW39427   4.372   0.959   4.027  0.0225 -0.4586 -0.5148
 9322SOL    HW139428   4.405   1.010   3.953 -1.2634  1.3663  0.1790
 9322SOL    HW239429   4.427   0.991   4.098 -1.0314 -1.8264  0.9197
 9323SOL     OW39430   4.275   2.575   2.847  0.0601  0.1008  0.1266
 9323SOL    HW139431   4.234   2.498   2.886  0.7404 -0.4115 -0.1836
 9323SOL    HW239432   4.253   2.562   2.755  3.9471 -1.9177 -0.5109
 9324SOL     OW39433   4.196   0.378   6.619 -0.5253  0.1620 -0.4617
 9324SOL    HW139434   4.158   0.422   6.543  0.3040  1.2579 -0.2349
 9324SOL    HW239435   4.244   0.456   6.645  0.7718 -0.3912 -1.2291
 9325SOL     OW39436   3.839   3.622   5.605  0.2518 -0.2985 -0.6206
 9325SOL    HW139437   3.748   3.619   5.574  0.3859  0.5800 -1.0992
 9325SOL    HW239438   3.874   3.534   5.591  1.1563 -0.4614  2.8463
 9326SOL     OW39439   1.325   2.847   4.875 -0.2728 -0.3166  0.3263
 9326SOL    HW139440   1.380   2.850   4.954 -0.0818  1.3670  0.1347
 9326SOL    HW239441   1.381   2.902   4.819 -1.3412 -0.1913 -0.6032
 9327SOL     OW39442   2.582   1.074   4.657 -0.2342  0.2083 -0.7163
 9327SOL    HW139443   2.641   1.141   4.692  0.2535  0.2944 -1.7145
 9327SOL    HW239444   2.647   1.014   4.621 -0.6917  0.5230 -2.0499
 9328SOL     OW39445   2.944   0.565   2.652 -0.2133  0.0490 -0.1478
 9328SOL    HW139446   2.971   0.524   2.569 -1.1247  3.0873 -1.9411
 9328SOL    HW239447   2.851   0.582   2.637 -0.4482 -2.6167 -1.7192
 9329SOL     OW39448   3.810   1.395   0.095  0.3349  0.0898  0.3491
 9329SOL    HW139449   3.816   1.482   0.135 -0.4475 -0.4502  1.6404
 9329SOL    HW239450   3.831   1.353   0.178 -2.9118 -0.1205  1.0767
 9330SOL     OW39451   2.853   2.787   1.691  0.1514  0.2970 -0.2149
 9330SOL    HW139452   2.764   2.819   1.676  0.2020  0.4147 -0.2620
 9330SOL    HW239453   2.834   2.697   1.719 -3.0752  1.3210  0.9266
 9331SOL     OW39454   1.864   0.967   7.526 -0.5077 -0.0967 -0.0036
 9331SOL    HW139455   1.821   0.949   7.443  1.9117  2.8586 -1.9138
 9331SOL    HW239456   1.824   0.899   7.580 -3.1962  0.2118 -1.5978
 9332SOL     OW39457   0.776   2.873   8.496 -0.0297 -0.2643  0.8140
 9332SOL    HW139458   0.771   2.875   8.592 -1.2063 -0.5121  0.7571
 9332SOL    HW239459   0.872   2.877   8.494 -0.0175 -0.6819  0.6479
 9333SOL     OW39460   2.777   0.363   1.494  0.1895  0.8815 -0.7140
 9333SOL    HW139461   2.771   0.268   1.481  0.2491  1.0337 -1.8441
 9333SOL    HW239462   2.821   0.367   1.579 -0.5636  3.0075 -0.4192
 9334SOL     OW39463   2.676   0.478  12.677  0.0668  0.2958 -0.0232
 9334SOL    HW139464   2.658   0.390  12.709 -0.6004  1.3725  2.5684
 9334SOL    HW239465   2.754   0.499  12.728 -0.7612  0.8221  1.0391
 9335SOL     OW39466   1.418   4.433   0.539  0.1544 -0.0431 -0.5921
 9335SOL    HW139467   1.398   4.426   0.446  2.0507 -1.4590 -0.8989
 9335SOL    HW239468   1.492   4.374   0.555 -0.7642 -0.0806  3.4681
 9336SOL     OW39469   1.295   2.036   4.432  0.0495 -0.7357 -0.2990
 9336SOL    HW139470   1.271   1.943   4.432  0.3298 -0.8223  2.0315
 9336SOL    HW239471   1.368   2.037   4.495  0.0390  0.7981 -0.3106
 9337SOL     OW39472   1.053   4.281  10.459 -0.5599 -0.0973  0.2850
 9337SOL    HW139473   1.067   4.347  10.391  0.3751 -0.6426 -0.0491
 9337SOL    HW239474   1.062   4.333  10.539 -0.2363  0.5868 -0.1986
 9338SOL     OW39475   1.769   4.579   7.256  0.3232  0.4949  0.1657
 9338SOL    HW139476   1.738   4.514   7.319  0.0671 -0.4122 -0.9057
 9338SOL    HW239477   1.796   4.527   7.180 -1.6646 -1.5393  0.8681
 9339SOL     OW39478   2.873   2.202   5.353 -0.0462  0.3779  0.2757
 9339SOL    HW139479   2.913   2.179   5.269  1.9095 -0.1061  1.3434
 9339SOL    HW239480   2.818   2.124   5.356  1.0571 -0.4403 -0.7724
 9340SOL     OW39481   1.648   2.395   8.669 -0.3817  0.3892 -0.4220
 9340SOL    HW139482   1.696   2.315   8.645 -0.2657 -0.1042  1.4267
 9340SOL    HW239483   1.628   2.430   8.582  0.0851  1.7093 -0.0021
 9341SOL     OW39484   4.065   3.238   5.300  0.0850 -0.0951  0.1149
 9341SOL    HW139485   4.094   3.328   5.308 -0.1420 -0.1382  1.3706
 9341SOL    HW239486   4.003   3.227   5.372  1.4594  0.4501  1.3642
 9342SOL     OW39487   1.976   3.704   2.261 -0.3521  0.1633 -0.1129
 9342SOL    HW139488   1.931   3.622   2.283 -1.2180  0.9348  0.9437
 9342SOL    HW239489   2.058   3.686   2.307  0.1074 -0.4247 -1.1522
 9343SOL     OW39490   0.272   1.473  12.127 -0.0929  0.0628 -0.3820
 9343SOL    HW139491   0.250   1.390  12.085  2.9628 -1.1354  0.3961
 9343SOL    HW239492   0.289   1.439  12.214 -0.1542  2.7844  0.6946
 9344SOL     OW39493   0.815   3.673   2.151  0.2886  0.1148  0.1349
 9344SOL    HW139494   0.749   3.698   2.215 -0.6142  2.9079 -1.8901
 9344SOL    HW239495   0.891   3.668   2.210 -0.9599  0.2331  1.7329
 9345SOL     OW39496   3.781   4.459   5.449 -0.4149 -0.4090  0.0260
 9345SOL    HW139497   3.769   4.391   5.382  0.6398 -0.2114 -0.3725
 9345SOL    HW239498   3.786   4.540   5.399  0.2569 -0.4662 -0.0019
 9346SOL     OW39499   3.767   4.205  14.432  0.0760 -0.3755 -0.2570
 9346SOL    HW139500   3.727   4.181  14.349  0.5174 -1.0136 -0.2895
 9346SOL    HW239501   3.837   4.139  14.432 -1.0110 -1.5588  2.8291
 9347SOL     OW39502   0.475   0.866   2.981  0.1982  0.5631 -0.6119
 9347SOL    HW139503   0.556   0.813   2.981 -1.2516 -1.6627  0.0310
 9347SOL    HW239504   0.415   0.791   2.975  1.1828 -0.3342  0.6795
 9348SOL     OW39505   4.539   3.723  17.288  0.1058  0.0937 -0.3419
 9348SOL    HW139506   4.552   3.815  17.313 -0.0213  0.0806 -0.2314
 9348SOL    HW239507   4.529   3.731  17.193 -1.2585 -1.1049 -0.2956
 9349SOL     OW39508   1.193   2.885   7.255 -0.2602  0.0076 -0.4097
 9349SOL    HW139509   1.154   2.798   7.242 -1.5966  0.4882  0.3296
 9349SOL    HW239510   1.127   2.927   7.310  0.0954  1.4234 -1.0618
 9350SOL     OW39511   1.916   1.229   1.523  0.3794 -0.6256  0.0314
 9350SOL    HW139512   1.869   1.308   1.493 -0.0462 -1.3547 -1.2267
 9350SOL    HW239513   1.918   1.246   1.617 -0.0591 -1.3999  0.1826
 9351SOL     OW39514   0.176   2.273   3.170 -0.0273 -0.6633 -0.1248
 9351SOL    HW139515   0.270   2.286   3.176  0.0555 -0.9153 -0.8017
 9351SOL    HW239516   0.137   2.360   3.181 -3.0922 -2.1553  0.9924
 9352SOL     OW39517   4.104   1.307  12.580 -0.5627 -0.1327 -0.4395
 9352SOL    HW139518   4.108   1.354  12.663 -3.6042  0.6081 -0.7077
 9352SOL    HW239519   4.077   1.218  12.600  3.0735 -0.2553  3.9252
 9353SOL     OW39520   2.813   1.775  13.898 -0.3185  0.4099  0.0019
 9353SOL    HW139521   2.726   1.799  13.867  0.3221  3.1120  0.2935
 9353SOL    HW239522   2.848   1.861  13.919  0.8290 -0.3233  1.0641
 9354SOL     OW39523   2.209   3.491   4.551  0.2169  0.2744  0.0783
 9354SOL    HW139524   2.152   3.479   4.475  2.0187 -1.9763 -0.9120
 9354SOL    HW239525   2.244   3.579   4.542  0.0830  0.3733  0.5072
 9355SOL     OW39526   1.553   4.592   5.742  0.2321 -0.3980 -0.2600
 9355SOL    HW139527   1.589   4.581   5.654  0.8012 -2.2792  0.1972
 9355SOL    HW239528   1.497   4.514   5.740 -0.1037 -0.1176 -1.6812
 9356SOL     OW39529   0.050   2.760   3.351 -0.2546  0.0968  0.3890
 9356SOL    HW139530   0.140   2.751   3.319 -0.7418 -0.9087 -0.6877
 9356SOL    HW239531   0.014   2.757   3.263 -3.6208 -2.8582  1.8840
 9357SOL     OW39532   2.751   3.199   5.060  0.5557 -0.4546  0.4251
 9357SOL    HW139533   2.707   3.271   5.105 -0.0526  0.4700 -1.6175
 9357SOL    HW239534   2.770   3.244   4.977  2.1580 -1.4124  0.2813
 9358SOL     OW39535   0.539   2.934  16.155  0.0794  0.1251  0.1635
 9358SOL    HW139536   0.454   2.891  16.156  0.2800 -0.2884 -0.7866
 9358SOL    HW239537   0.519   3.016  16.110 -0.8152 -0.5505 -0.6757
 9359SOL     OW39538   4.674   4.105   2.178  0.3578  0.3924  0.1181
 9359SOL    HW139539   4.676   4.038   2.110  1.7136 -0.1039  0.6320
 9359SOL    HW239540   4.581   4.126   2.179  0.4653  0.8136  2.2953
 9360SOL     OW39541   4.628   3.456  17.016 -0.1687  0.1206  0.2340
 9360SOL    HW139542   4.578   3.527  17.055  0.5411  0.5936  0.2813
 9360SOL    HW239543   4.575   3.441  16.938  0.1601  3.1029 -0.5569
 9361SOL     OW39544   3.933   0.474   8.277 -0.3291  0.5428 -0.2174
 9361SOL    HW139545   3.980   0.397   8.309  0.4593  0.8375 -0.6476
 9361SOL    HW239546   3.954   0.475   8.184 -1.2392  2.1640 -0.3998
 9362SOL     OW39547   3.270   4.290   6.797  0.2790  0.0974 -0.2140
 9362SOL    HW139548   3.297   4.246   6.716  2.9069 -0.2257  0.8556
 9362SOL    HW239549   3.351   4.323   6.834  0.1904  0.2268 -0.1335
 9363SOL     OW39550   2.888   0.701   0.371 -0.0389  0.7093  0.4033
 9363SOL    HW139551   2.910   0.608   0.380  1.2675  0.8011 -1.8175
 9363SOL    HW239552   2.905   0.728   0.461 -0.9087  1.5412  0.3193
 9364SOL     OW39553   2.540   0.257   5.082 -0.1740 -0.3471  0.3158
 9364SOL    HW139554   2.454   0.238   5.043  0.0321  1.0762 -0.8218
 9364SOL    HW239555   2.516   0.249   5.174 -1.2769  2.7824  0.3004
 9365SOL     OW39556   2.310   0.438   6.175 -0.0992  0.2215  0.0650
 9365SOL    HW139557   2.324   0.376   6.247 -0.4951 -1.4557 -1.3187
 9365SOL    HW239558   2.220   0.454   6.204 -0.9005 -0.3995 -2.1386
 9366SOL     OW39559   1.537   2.045   2.625 -0.1698  0.6274 -0.4347
 9366SOL    HW139560   1.613   2.099   2.646  2.1212 -2.6432 -0.2974
 9366SOL    HW239561   1.467   2.110   2.615  0.6234  1.6603  0.6268
 9367SOL     OW39562   3.069   4.663   0.896 -0.0730 -0.0354 -0.0154
 9367SOL    HW139563   3.061   4.575   0.933 -0.2477  1.1695  2.8286
 9367SOL    HW239564   3.064   4.652   0.801 -2.0288 -1.8178  0.2915
 9368SOL     OW39565   1.228   0.354   4.334  0.3134 -0.2101 -0.0723
 9368SOL    HW139566   1.288   0.310   4.274 -0.5870 -1.1305 -0.2992
 9368SOL    HW239567   1.286   0.421   4.370  0.6710 -0.3037 -0.4702
 9369SOL     OW39568   0.367   1.147   7.719 -0.2257  0.4746 -0.0821
 9369SOL    HW139569   0.361   1.179   7.809 -0.5028  0.5925 -0.1419
 9369SOL    HW239570   0.328   1.061   7.736 -0.1395  0.5751  0.6267
 9370SOL     OW39571   3.726   0.152  13.007 -0.6923  0.3745  0.2645
 9370SOL    HW139572   3.709   0.058  13.008  0.8843  0.0745 -0.2967
 9370SOL    HW239573   3.822   0.156  13.006 -0.6368 -0.6187  1.4920
 9371SOL     OW39574   0.226   1.560  10.900  0.3122  0.3701  0.7590
 9371SOL    HW139575   0.312   1.597  10.881 -0.7790  2.3218 -0.3995
 9371SOL    HW239576   0.199   1.605  10.980  0.2688  0.7082  0.5545
 9372SOL     OW39577   0.100   1.846   7.385 -0.2307  0.0806 -0.9101
 9372SOL    HW139578   0.127   1.903   7.456 -0.1728 -0.6999 -0.3065
 9372SOL    HW239579   0.185   1.837   7.340 -1.1945 -0.4978 -2.6505
 9373SOL     OW39580   2.638   1.720   8.650 -0.3660  0.4524 -0.5624
 9373SOL    HW139581   2.681   1.775   8.584  0.6710 -0.4661 -0.6499
 9373SOL    HW239582   2.688   1.638   8.649 -0.1390  0.5889 -0.2167
 9374SOL     OW39583   4.135   2.701   7.408 -0.1959  0.1871 -0.0362
 9374SOL    HW139584   4.075   2.627   7.414  0.2891 -0.1249  0.9176
 9374SOL    HW239585   4.069   2.770   7.411  0.8343  1.2088 -0.9400
 9375SOL     OW39586   4.410   0.567  12.037 -0.3274 -0.3873  0.4221
 9375SOL    HW139587   4.423   0.598  11.947  1.0204 -2.9880 -0.2959
 9375SOL    HW239588   4.315   0.576  12.044 -0.3032 -0.2186  0.5174
 9376SOL     OW39589   2.788   4.395   9.223  0.0655 -0.2715  0.6769
 9376SOL    HW139590   2.881   4.407   9.244  0.0529  1.2576 -0.1948
 9376SOL    HW239591   2.743   4.453   9.284 -0.1851  0.1641  0.0799
 9377SOL     OW39592   2.512   4.302   3.864  0.3555 -0.4426 -0.3098
 9377SOL    HW139593   2.505   4.395   3.843  1.1957 -0.3182 -0.0494
 9377SOL    HW239594   2.431   4.257   3.839  0.4906 -0.8194 -0.0692
 9378SOL     OW39595   4.307   0.343   0.992  0.2734  0.0643 -0.0557
 9378SOL    HW139596   4.371   0.283   1.030 -1.5807 -2.0838 -0.3556
 9378SOL    HW239597   4.362   0.419   0.974  0.0629  0.8501  2.5973
 9379SOL     OW39598   0.364   4.721   7.783  0.4135 -0.4421 -0.1234
 9379SOL    HW139599   0.305   4.713   7.858  1.3961 -2.0011  0.5065
 9379SOL    HW239600   0.302   0.006   7.711 -0.9815 -3.0660  0.7402
 9380SOL     OW39601   4.579   2.659  17.152 -0.0481  0.4506  0.2191
 9380SOL    HW139602   4.484   2.661  17.146 -0.1605 -0.7758  1.6111
 9380SOL    HW239603   4.600   2.691  17.240 -0.1039 -2.3416  1.2462
 9381SOL     OW39604   0.506   3.763   7.693  0.0811  0.0002 -0.2687
 9381SOL    HW139605   0.473   3.746   7.605 -0.9947  0.0456  0.1203
 9381SOL    HW239606   0.552   3.846   7.702 -1.6684  1.1220 -1.8103
 9382SOL     OW39607   4.171   0.711   9.867  0.4927  0.5312  0.4582
 9382SOL    HW139608   4.257   0.749   9.885  2.6310 -3.3224 -1.7328
 9382SOL    HW239609   4.179   0.627   9.912  0.4116  0.4242  0.2713
 9383SOL     OW39610   4.060   2.378   8.810 -0.1284  0.4206 -0.4109
 9383SOL    HW139611   4.045   2.333   8.727 -2.2012  1.9714 -0.8895
 9383SOL    HW239612   4.144   2.418   8.789  0.3941  1.2833  3.4367
 9384SOL     OW39613   2.148   0.902   1.074  0.2959 -0.2809  0.4688
 9384SOL    HW139614   2.121   0.827   1.022  2.8620 -0.8019 -0.1111
 9384SOL    HW239615   2.240   0.906   1.050  0.7330  2.3122  2.5082
 9385SOL     OW39616   1.364   1.532   2.017  0.1176  0.0134  0.1241
 9385SOL    HW139617   1.364   1.465   2.085  0.7220 -0.4706 -0.3526
 9385SOL    HW239618   1.332   1.607   2.067 -0.1633  0.3690 -0.5845
 9386SOL     OW39619   1.063   3.203  12.456 -0.6826  0.2879  0.6557
 9386SOL    HW139620   1.083   3.295  12.476 -2.6986  0.9699 -0.4018
 9386SOL    HW239621   1.018   3.212  12.372  1.3344 -0.8499 -0.5556
 9387SOL     OW39622   3.331   2.813  10.257  0.2782 -0.0059 -0.1283
 9387SOL    HW139623   3.262   2.776  10.313 -0.1255  0.7337 -0.1388
 9387SOL    HW239624   3.403   2.750  10.261  0.0439 -0.2744 -0.1780
 9388SOL     OW39625   3.629   1.372  15.077 -0.6651 -0.1381  0.2507
 9388SOL    HW139626   3.539   1.373  15.109 -0.9332  0.7193 -0.5263
 9388SOL    HW239627   3.612   1.356  14.984 -0.4074 -1.0496  0.3627
 9389SOL     OW39628   3.567   1.578   9.405 -0.2183 -0.1291 -0.0154
 9389SOL    HW139629   3.506   1.650   9.391 -0.5006 -0.4553 -0.4551
 9389SOL    HW239630   3.650   1.624   9.412 -0.9998  0.7359  3.6344
 9390SOL     OW39631   2.868   1.051  12.561 -0.0827 -0.0364  0.0739
 9390SOL    HW139632   2.930   0.987  12.596  1.8269  1.4020 -0.6799
 9390SOL    HW239633   2.871   1.118  12.629  0.9652 -0.7170  0.7132
 9391SOL     OW39634   0.044   3.601   3.042 -0.7508 -0.1188 -0.6877
 9391SOL    HW139635   0.102   3.584   2.968  1.5435  0.0352  1.0693
 9391SOL    HW239636   0.109   3.659   3.082  0.7237 -0.7547 -2.1956
 9392SOL     OW39637   0.438   2.607   8.810 -0.3508 -0.6200 -0.0373
 9392SOL    HW139638   0.360   2.657   8.835 -0.2768 -0.1471 -0.7518
 9392SOL    HW239639   0.478   2.600   8.896  0.2766  2.8326 -0.0631
 9393SOL     OW39640   1.038   1.398  16.799 -0.3560  0.7166  0.6534
 9393SOL    HW139641   1.075   1.464  16.859 -0.3397  0.5431  0.8348
 9393SOL    HW239642   1.105   1.377  16.734 -1.1171 -1.8825  0.7254
 9394SOL     OW39643   3.858   4.359   6.379 -0.6502  0.1091  0.4546
 9394SOL    HW139644   3.856   4.306   6.459  3.0155 -0.0828  0.3785
 9394SOL    HW239645   3.776   4.329   6.339 -0.6948 -2.2303  2.2512
 9395SOL     OW39646   3.698   1.000  14.413 -0.1550  0.4529  0.7097
 9395SOL    HW139647   3.792   1.000  14.427  0.0436  1.5591 -0.5701
 9395SOL    HW239648   3.694   0.943  14.336  1.3100  1.3989 -0.0597
 9396SOL     OW39649   0.930   2.549  15.963  0.1434 -0.1030  0.1584
 9396SOL    HW139650   0.921   2.471  15.909  0.2902 -0.0359  0.0333
 9396SOL    HW239651   0.858   2.602  15.929 -1.0662 -2.7284 -1.3083
 9397SOL     OW39652   1.103   1.413   1.110  0.2949  0.0379 -0.6348
 9397SOL    HW139653   1.085   1.339   1.052  1.4799 -0.6519 -0.1422
 9397SOL    HW239654   1.021   1.457   1.089 -1.1912 -1.5157  1.8581
 9398SOL     OW39655   3.974   1.046   5.648 -0.0201 -0.4745  0.1872
 9398SOL    HW139656   3.899   1.059   5.707 -0.4118  0.5248 -0.5303
 9398SOL    HW239657   3.986   1.137   5.624  0.7721 -0.0859  2.0873
 9399SOL     OW39658   1.266   3.227   1.711  0.1460  0.0305  0.0046
 9399SOL    HW139659   1.205   3.274   1.653  0.3570 -1.2431 -1.2493
 9399SOL    HW239660   1.197   3.186   1.763 -1.6996  2.7049 -0.3065
 9400SOL     OW39661   2.125   1.428  14.389  0.4032  0.3979 -0.0000
 9400SOL    HW139662   2.083   1.368  14.450  1.8117 -0.6581 -0.0739
 9400SOL    HW239663   2.168   1.365  14.332 -1.6075 -1.6172  0.7613
 9401SOL     OW39664   1.772   4.381   5.679  0.4165  0.2481 -0.8025
 9401SOL    HW139665   1.852   4.410   5.635  0.0474  0.4233 -1.3658
 9401SOL    HW239666   1.712   4.401   5.606 -0.5276  0.2845 -0.0127
 9402SOL     OW39667   1.817   2.573   2.119 -0.1448  0.0966  0.3986
 9402SOL    HW139668   1.790   2.492   2.162 -1.1589  0.7681  1.0113
 9402SOL    HW239669   1.846   2.547   2.031  1.5306  0.3681  0.8770
 9403SOL     OW39670   2.430   1.299  10.517 -0.6835 -0.0316  0.1828
 9403SOL    HW139671   2.464   1.389  10.514  0.8119 -0.6332 -1.5017
 9403SOL    HW239672   2.472   1.260  10.593 -0.3585 -0.5409 -0.2569
 9404SOL     OW39673   0.799   1.003   7.372 -0.0005  0.0502  0.2369
 9404SOL    HW139674   0.822   1.047   7.290  0.8332 -1.0497 -0.1135
 9404SOL    HW239675   0.850   1.061   7.429 -0.6981  1.0187 -0.1293
 9405SOL     OW39676   0.168   1.806   4.672 -0.2277 -0.0555 -0.8461
 9405SOL    HW139677   0.195   1.764   4.754 -2.6645 -0.6900 -0.3751
 9405SOL    HW239678   0.237   1.870   4.654 -1.3437  1.6804  0.9561
 9406SOL     OW39679   0.800   4.082   7.456  0.1971 -0.4148 -0.6675
 9406SOL    HW139680   0.891   4.053   7.466  0.1150 -1.0848 -1.8583
 9406SOL    HW239681   0.783   4.043   7.370 -0.0598  0.0393 -0.8224
 9407SOL     OW39682   3.758   1.827   3.549 -0.0321 -0.2269  0.8841
 9407SOL    HW139683   3.732   1.918   3.535 -1.3096 -0.9114 -1.3381
 9407SOL    HW239684   3.666   1.798   3.545 -0.3758  0.8118  1.3177
 9408SOL     OW39685   1.536   2.752  12.757 -0.9102  0.6361 -0.3270
 9408SOL    HW139686   1.481   2.706  12.695  1.0729 -0.7342 -1.0628
 9408SOL    HW239687   1.470   2.786  12.818 -0.1304  0.5473  0.5711
 9409SOL     OW39688   4.025   3.236   6.303 -0.2520  0.3679  0.1331
 9409SOL    HW139689   4.115   3.257   6.328  0.4235 -0.6705 -1.4228
 9409SOL    HW239690   4.046   3.152   6.262 -1.3667  0.2496 -0.2019
 9410SOL     OW39691   1.698   0.045   4.950  0.7038  0.1773  0.0182
 9410SOL    HW139692   1.746   4.694   4.985  1.8706  0.1711 -1.5527
 9410SOL    HW239693   1.754   0.108   4.996  1.5817 -2.3786  2.4446
 9411SOL     OW39694   2.818   1.799  12.293 -0.3759  0.3141  0.1460
 9411SOL    HW139695   2.850   1.743  12.365  1.5577 -0.4140 -1.2879
 9411SOL    HW239696   2.824   1.730  12.227  0.7705  2.0909 -1.6153
 9412SOL     OW39697   1.169   2.620  16.535  0.2787  0.0698 -0.3305
 9412SOL    HW139698   1.190   2.712  16.519  0.3431  0.2430  0.7705
 9412SOL    HW239699   1.245   2.574  16.499 -0.4212 -1.1897 -0.1982
 9413SOL     OW39700   1.714   2.218   7.323  0.0865  0.1744  0.1313
 9413SOL    HW139701   1.742   2.184   7.408  2.0002  1.2341 -0.0735
 9413SOL    HW239702   1.626   2.180   7.312  0.0803  0.2465 -0.0690
 9414SOL     OW39703   1.316   0.398   3.147  0.4031  0.1433 -0.1920
 9414SOL    HW139704   1.324   0.313   3.104 -0.4197 -0.9761  1.8694
 9414SOL    HW239705   1.222   0.413   3.140  0.3990  0.3349  0.2930
 9415SOL     OW39706   0.171   4.674  13.126 -0.2167 -0.3394  0.3306
 9415SOL    HW139707   0.126   4.647  13.046  1.2575 -0.5843 -0.4269
 9415SOL    HW239708   0.258   4.678  13.086 -0.3525 -3.1853 -0.3140
 9416SOL     OW39709   0.404   2.147   9.553 -0.0472 -0.5147  0.2309
 9416SOL    HW139710   0.360   2.063   9.546 -0.7624 -0.2174  1.2869
 9416SOL    HW239711   0.463   2.156   9.477  0.4898 -1.6439  0.5099
 9417SOL     OW39712   2.899   4.580   7.622  0.4797 -0.2322  0.0969
 9417SOL    HW139713   2.867   4.490   7.612 -1.0871  0.3504 -0.0122
 9417SOL    HW239714   2.821   4.608   7.669  0.6077  0.0015  0.1692
 9418SOL     OW39715   0.772   2.805   6.096  0.7018  0.4150  0.9063
 9418SOL    HW139716   0.724   2.777   6.173  1.0883 -0.5862  0.7828
 9418SOL    HW239717   0.714   2.880   6.079 -0.4827 -0.2846  1.8356
 9419SOL     OW39718   2.963   0.617   7.072  0.4865  0.1388 -0.1284
 9419SOL    HW139719   3.047   0.659   7.055 -0.4182  1.4943 -1.1924
 9419SOL    HW239720   2.917   0.698   7.089 -0.6483 -0.3427 -0.9443
 9420SOL     OW39721   1.130   4.661  16.186 -0.0863  0.1620 -0.5270
 9420SOL    HW139722   1.089   0.016  16.152 -2.9496 -1.6727 -1.3086
 9420SOL    HW239723   1.060   4.596  16.195  2.2260 -2.4534 -1.1833
 9421SOL     OW39724   1.770   1.690   6.982  0.6068  0.5486  0.4141
 9421SOL    HW139725   1.836   1.695   7.051  1.4110  2.4319 -0.4934
 9421SOL    HW239726   1.707   1.633   7.024  1.2502 -1.9791 -2.0244
 9422SOL     OW39727   4.532   2.488  12.191  0.1471  0.3390 -0.8400
 9422SOL    HW139728   4.537   2.437  12.271 -0.5340  0.5949 -0.6280
 9422SOL    HW239729   4.543   2.577  12.222 -0.5584 -0.1476  0.7998
 9423SOL     OW39730   4.350   2.979  15.581 -0.5496 -0.1314  0.0520
 9423SOL    HW139731   4.419   3.037  15.549  0.7478 -1.2378  0.8619
 9423SOL    HW239732   4.394   2.927  15.648 -2.6097 -1.0407  0.6906
 9424SOL     OW39733   4.362   4.364   7.673  0.0284 -0.2462  0.4261
 9424SOL    HW139734   4.440   4.364   7.619  0.6789  1.9410  1.3942
 9424SOL    HW239735   4.392   4.337   7.760 -1.0211  1.6179  1.3690
 9425SOL     OW39736   2.487   2.059  11.239 -0.2481  0.2122  0.2108
 9425SOL    HW139737   2.547   2.032  11.308 -1.8648  1.6023  2.1948
 9425SOL    HW239738   2.423   1.988  11.243 -1.2643  1.0956 -0.1819
 9426SOL     OW39739   2.478   2.543  12.395 -0.1096  0.0298  0.5582
 9426SOL    HW139740   2.490   2.625  12.443  1.1339 -0.2845  0.7623
 9426SOL    HW239741   2.424   2.571  12.320  0.3996  0.6997  0.4398
 9427SOL     OW39742   3.127   3.869   1.751  0.6967 -0.0309 -0.2742
 9427SOL    HW139743   3.060   3.827   1.698  1.2609 -0.3280 -0.7566
 9427SOL    HW239744   3.128   3.955   1.707  1.9711 -0.1786 -0.5465
 9428SOL     OW39745   4.692   4.237   5.745 -0.7515 -0.6049 -0.1578
 9428SOL    HW139746   4.632   4.164   5.754 -1.3160 -0.4454 -2.7960
 9428SOL    HW239747   4.661   4.278   5.665 -1.1081  0.1514  0.3646
 9429SOL     OW39748   4.501   0.110   6.810  0.1970  0.1223 -0.0737
 9429SOL    HW139749   4.536   0.024   6.832  0.9789  0.7659  1.2077
 9429SOL    HW239750   4.523   0.120   6.717  1.9922 -1.7808  0.1685
 9430SOL     OW39751   2.416   4.392   0.718 -0.5256 -0.0527  0.2492
 9430SOL    HW139752   2.353   4.424   0.782  0.1109  1.3449  0.1691
 9430SOL    HW239753   2.425   4.300   0.744 -0.5139  0.2573  1.3333
 9431SOL     OW39754   2.740   3.862   6.829 -0.0883  0.4001  0.4783
 9431SOL    HW139755   2.653   3.861   6.869  0.7749 -2.6894  2.2728
 9431SOL    HW239756   2.729   3.941   6.776 -1.0309  0.0468  0.1538
 9432SOL     OW39757   0.019   2.877   0.694  0.3820 -0.2188 -0.5831
 9432SOL    HW139758   4.678   2.807   0.694 -0.3832  0.4837 -0.6472
 9432SOL    HW239759   4.700   2.939   0.753 -1.3535 -0.8513 -1.1722
 9433SOL     OW39760   1.999   1.349   8.073 -0.1538  0.4164 -0.0663
 9433SOL    HW139761   2.058   1.422   8.088 -1.1893  0.8542  1.8220
 9433SOL    HW239762   2.001   1.368   7.979  0.3010  1.9648  0.2613
 9434SOL     OW39763   2.871   0.360  17.667 -0.0030  0.8016  0.3369
 9434SOL    HW139764   2.881   0.454  17.650 -2.2437  1.0697  0.5825
 9434SOL    HW239765   2.784   0.339  17.633  0.2295  2.3005 -1.2367
 9435SOL     OW39766   0.301   1.427   5.726  0.3038 -0.2674 -0.4242
 9435SOL    HW139767   0.237   1.370   5.683 -0.0216 -0.8805  0.8700
 9435SOL    HW239768   0.271   1.514   5.701 -0.0485 -0.0227  0.8534
 9436SOL     OW39769   3.466   4.578  14.051 -0.0893  0.4049  0.2075
 9436SOL    HW139770   3.492   4.521  14.124 -2.6834 -0.2741  0.6021
 9436SOL    HW239771   3.393   4.616  14.100 -1.3289 -0.6142 -0.8557
 9437SOL     OW39772   1.919   1.607   8.803 -0.0465 -0.2571  0.0267
 9437SOL    HW139773   1.994   1.662   8.826 -0.4712  0.1221  0.5048
 9437SOL    HW239774   1.901   1.563   8.885 -0.6628 -2.3057 -1.2202
 9438SOL     OW39775   2.868   0.893   8.665 -0.1915 -0.6591 -0.1783
 9438SOL    HW139776   2.911   0.814   8.699 -0.5852  0.4014  2.7833
 9438SOL    HW239777   2.881   0.873   8.573  1.1662 -1.7292  0.2358
 9439SOL     OW39778   0.825   1.108   8.328  0.2207  0.2840 -0.1931
 9439SOL    HW139779   0.730   1.101   8.321  0.2875 -0.9394  0.0890
 9439SOL    HW239780   0.857   1.024   8.362  0.0156 -0.9939 -3.0977
 9440SOL     OW39781   3.285   1.997  15.073  0.1596 -0.3214 -0.4686
 9440SOL    HW139782   3.207   1.967  15.120  1.9345 -0.9792  2.0810
 9440SOL    HW239783   3.240   2.029  14.995  3.9251  1.9647 -1.7117
 9441SOL     OW39784   3.795   4.545   8.897  0.3109  0.2383  0.3430
 9441SOL    HW139785   3.854   4.527   8.824 -1.1273 -0.6509 -0.5826
 9441SOL    HW239786   3.737   4.469   8.890  0.3230  0.4069 -1.6397
 9442SOL     OW39787   3.190   0.962  10.992  0.2396  0.2067  0.4276
 9442SOL    HW139788   3.192   0.957  10.897 -1.0884 -0.0634  0.4187
 9442SOL    HW239789   3.281   0.988  11.007  1.2452 -3.5947  0.8675
 9443SOL     OW39790   2.044   0.064   7.687 -0.7576  0.2395  0.1773
 9443SOL    HW139791   2.009   0.039   7.773  0.4927 -0.4473  0.4909
 9443SOL    HW239792   2.038   0.160   7.686  1.6552  0.3668 -1.1266
 9444SOL     OW39793   4.586   4.310   4.119 -0.1595  0.4277  0.4499
 9444SOL    HW139794   4.608   4.226   4.160  0.4260  1.2017  1.7439
 9444SOL    HW239795   4.515   4.272   4.067  0.5040  1.0271 -0.8791
 9445SOL     OW39796   2.657   3.089  10.810  0.0498 -0.0637 -0.0060
 9445SOL    HW139797   2.710   3.031  10.754 -1.1971 -0.5537 -0.6733
 9445SOL    HW239798   2.578   3.036  10.815 -0.3364  0.4229 -1.0046
 9446SOL     OW39799   2.613   4.441   8.436 -0.2041  0.0695 -0.2372
 9446SOL    HW139800   2.572   4.516   8.480  0.8071 -0.8612  2.2428
 9446SOL    HW239801   2.534   4.401   8.400 -2.1503  2.4862  1.3495
 9447SOL     OW39802   0.340   0.076   6.985 -0.1345 -0.0834 -0.7706
 9447SOL    HW139803   0.329   0.045   7.075 -2.1071  0.4725 -0.8279
 9447SOL    HW239804   0.371   0.166   6.998 -0.6912  0.1181 -0.8634
 9448SOL     OW39805   1.674   0.006   6.496 -0.3840 -0.2643 -0.0215
 9448SOL    HW139806   1.695   0.091   6.535  3.1011 -1.3530  0.4104
 9448SOL    HW239807   1.580   0.013   6.513 -0.1399  0.4530  0.9955
 9449SOL     OW39808   1.728   3.267   1.654  0.2267 -0.0919 -0.4106
 9449SOL    HW139809   1.645   3.290   1.611 -0.5026  0.0127  1.0419
 9449SOL    HW239810   1.788   3.253   1.581 -0.1325 -1.6453 -0.4011
 9450SOL     OW39811   1.465   1.123   4.898  0.5375 -0.5232  0.2000
 9450SOL    HW139812   1.554   1.092   4.916  0.5122  0.0137  1.2576
 9450SOL    HW239813   1.416   1.041   4.898 -3.9883  2.2048  1.5255
 9451SOL     OW39814   4.598   0.017   2.851 -0.3112  0.7203  0.1194
 9451SOL    HW139815   4.570   0.049   2.936 -0.1521 -1.1336  0.8604
 9451SOL    HW239816   4.639   0.095   2.812 -0.0535  0.2325 -0.6075
 9452SOL     OW39817   3.041   2.623  12.676  0.0700  0.5551 -0.0773
 9452SOL    HW139818   3.094   2.589  12.604 -0.4831 -0.7528  0.1382
 9452SOL    HW239819   3.003   2.701  12.636 -0.1218  0.6461  0.2829
 9453SOL     OW39820   2.217   2.712  12.439  0.2668 -0.7118 -0.4589
 9453SOL    HW139821   2.217   2.626  12.481 -2.6688  0.3714  1.8124
 9453SOL    HW239822   2.141   2.765  12.464 -0.8632 -2.2472 -0.6057
 9454SOL     OW39823   2.165   1.625   7.737 -0.0337  0.1288  0.3943
 9454SOL    HW139824   2.090   1.623   7.678  1.7405  0.5975 -1.8337
 9454SOL    HW239825   2.230   1.661   7.677  1.5125  0.7717  2.4501
 9455SOL     OW39826   0.833   1.148   4.286  0.1260  0.3054  0.6342
 9455SOL    HW139827   0.757   1.154   4.227 -1.6048  0.6216  2.8933
 9455SOL    HW239828   0.894   1.114   4.221 -1.4497 -1.9866  0.3726
 9456SOL     OW39829   4.357   2.568  13.176 -0.3188 -0.1863  0.4615
 9456SOL    HW139830   4.328   2.477  13.172  1.0047 -0.5976  0.1201
 9456SOL    HW239831   4.285   2.610  13.129 -0.2200 -2.0279 -1.3492
 9457SOL     OW39832   2.326   2.937  12.638  0.4992  0.2566  0.0143
 9457SOL    HW139833   2.286   2.984  12.565  1.0086  0.4096 -0.1667
 9457SOL    HW239834   2.247   2.915  12.688  1.4192 -1.7072  0.5954
 9458SOL     OW39835   2.745   1.121   4.374  0.7800  0.1330  0.3360
 9458SOL    HW139836   2.797   1.073   4.309  2.4034  1.6549  0.5117
 9458SOL    HW239837   2.747   1.057   4.445 -0.5974 -2.0954 -1.6094
 9459SOL     OW39838   3.145   0.234   8.445  0.7823  0.1398  0.6788
 9459SOL    HW139839   3.151   0.238   8.540  0.3318  2.9204  0.5993
 9459SOL    HW239840   3.071   0.293   8.432  1.1657  0.7062  1.0180
 9460SOL     OW39841   0.228   4.139   3.601  0.1921  0.3964 -0.2198
 9460SOL    HW139842   0.195   4.205   3.662 -0.7138 -0.4460  0.2079
 9460SOL    HW239843   0.193   4.149   3.513  1.7830  0.2706 -0.8538
 9461SOL     OW39844   0.498   0.048  11.699 -0.3572  0.4064  0.8329
 9461SOL    HW139845   0.567   0.110  11.719  1.3545 -1.0391 -0.5783
 9461SOL    HW239846   0.414   0.091  11.685 -1.1269 -0.9127  1.3993
 9462SOL     OW39847   1.384   2.020   5.185  0.0589 -0.7849  0.1334
 9462SOL    HW139848   1.371   2.071   5.105 -1.5272 -1.4524 -0.0429
 9462SOL    HW239849   1.299   2.008   5.227 -1.8332  1.7915 -2.9347
 9463SOL     OW39850   3.107   2.724   7.173 -0.1004 -0.2276  0.3488
 9463SOL    HW139851   3.039   2.684   7.228  0.2197  1.8630  2.2682
 9463SOL    HW239852   3.161   2.649   7.149  1.0161  0.8463 -0.4502
 9464SOL     OW39853   0.559   0.472   3.449 -0.3292 -0.2897  0.3797
 9464SOL    HW139854   0.502   0.469   3.526  1.2876 -1.4790  1.5317
 9464SOL    HW239855   0.542   0.559   3.413  0.2680  0.0782  0.9840
 9465SOL     OW39856   4.088   2.641  13.088 -0.1509  0.5422  0.1834
 9465SOL    HW139857   4.034   2.587  13.031 -0.3634  1.5336 -0.5637
 9465SOL    HW239858   4.045   2.727  13.081  2.5192  1.5710 -3.3960
 9466SOL     OW39859   0.652   0.881  10.579 -0.0454  0.4251 -0.1446
 9466SOL    HW139860   0.603   0.963  10.570  1.8081  1.4020 -1.4093
 9466SOL    HW239861   0.725   0.914  10.632  1.4093 -1.6343 -0.8469
 9467SOL     OW39862   2.692   2.723   3.997 -0.5273 -0.2571 -0.3384
 9467SOL    HW139863   2.686   2.759   3.909  4.0064  1.4223  0.0304
 9467SOL    HW239864   2.749   2.786   4.041  0.1403 -0.3286 -1.1065
 9468SOL     OW39865   2.560   0.498   6.743 -0.6732  0.3174  0.6271
 9468SOL    HW139866   2.487   0.442   6.715 -0.3756  0.6168 -0.7567
 9468SOL    HW239867   2.544   0.497   6.838 -0.1883  4.8638  0.7438
 9469SOL     OW39868   1.825   0.313   0.678  0.2407 -0.2327 -0.7878
 9469SOL    HW139869   1.778   0.331   0.597  2.4163 -1.0863 -2.2172
 9469SOL    HW239870   1.753   0.272   0.726  3.0766 -1.0887  2.7815
 9470SOL     OW39871   3.227   2.306   0.726  0.2366  0.9098 -0.0221
 9470SOL    HW139872   3.175   2.386   0.729  0.0033  0.8104 -1.1386
 9470SOL    HW239873   3.226   2.277   0.634  3.0045 -1.9001  0.8480
 9471SOL     OW39874   2.159   0.821  15.225 -0.3619  0.9717 -0.8658
 9471SOL    HW139875   2.204   0.738  15.243  0.6796  1.7372  0.0481
 9471SOL    HW239876   2.177   0.842  15.134  0.0968  0.0668 -0.9830
 9472SOL     OW39877   0.971   3.794   2.756 -0.5585 -0.1893  0.2493
 9472SOL    HW139878   0.968   3.890   2.758 -0.9338 -0.1796 -0.9848
 9472SOL    HW239879   1.056   3.782   2.715 -1.5194  1.3244 -2.2132
 9473SOL     OW39880   4.363   3.322   1.977  0.4295  0.0855  0.0048
 9473SOL    HW139881   4.320   3.388   2.030 -0.5443 -1.9696  1.7662
 9473SOL    HW239882   4.456   3.339   1.992  0.4743 -2.3646  2.5580
 9474SOL     OW39883   3.924   0.436  14.233 -0.7250  0.0130  0.1963
 9474SOL    HW139884   3.876   0.466  14.310  2.1724  1.1783  1.5591
 9474SOL    HW239885   3.876   0.482  14.165  1.5910  0.7988 -0.9216
 9475SOL     OW39886   3.830   2.164  14.786 -0.1246 -0.2845 -0.1022
 9475SOL    HW139887   3.750   2.215  14.774  0.4011  1.0671  2.1040
 9475SOL    HW239888   3.790   2.078  14.797 -2.4464  0.7935 -0.0641
 9476SOL     OW39889   0.807   2.276   4.497 -0.1406 -0.2826  0.6824
 9476SOL    HW139890   0.883   2.219   4.483  0.3797  0.5371  0.2215
 9476SOL    HW239891   0.761   2.266   4.414  3.7305  0.3896 -1.5284
 9477SOL     OW39892   0.009   0.973  13.040 -0.3353  0.6734  0.0467
 9477SOL    HW139893   0.059   1.005  13.115  0.3350  0.6915 -0.4063
 9477SOL    HW239894   4.679   0.909  13.085 -0.0967  0.2459 -0.2795
 9478SOL     OW39895   3.213   1.784   8.507  0.5395  0.2858  0.0713
 9478SOL    HW139896   3.268   1.825   8.440  2.1095 -1.1890  0.4461
 9478SOL    HW239897   3.157   1.858   8.530 -0.0288 -0.9806  2.7749
 9479SOL     OW39898   0.012   2.855  17.043 -0.2931  0.3600  0.5054
 9479SOL    HW139899   4.687   2.933  17.067  2.8284  2.7579 -0.8888
 9479SOL    HW239900   4.690   2.776  17.073  0.3333  0.5385  1.9578
 9480SOL     OW39901   2.179   2.901  14.443 -0.1648 -0.2875 -0.0509
 9480SOL    HW139902   2.187   2.883  14.349 -0.9853 -0.0293 -0.1794
 9480SOL    HW239903   2.128   2.824  14.467  2.6935 -1.7190  1.3851
 9481SOL     OW39904   0.395   2.492  11.307  0.3156  0.3921 -0.3072
 9481SOL    HW139905   0.373   2.474  11.398  2.0451  2.2507  0.4609
 9481SOL    HW239906   0.479   2.534  11.319  1.2562 -1.7185  0.6061
 9482SOL     OW39907   1.298   4.004   1.036  0.1385 -0.1972  0.2191
 9482SOL    HW139908   1.350   3.952   0.975  1.5620  0.1236  1.1620
 9482SOL    HW239909   1.293   4.084   0.984  2.6853  0.3161  0.7788
 9483SOL     OW39910   4.577   3.465   3.173 -0.1557  0.0687 -0.2585
 9483SOL    HW139911   4.652   3.508   3.131 -0.0928  0.3565  0.1605
 9483SOL    HW239912   4.538   3.421   3.097 -1.1969 -0.6279  0.7008
 9484SOL     OW39913   3.413   0.525  10.476  0.5810  0.7754 -0.2209
 9484SOL    HW139914   3.455   0.443  10.450 -0.3595  0.1024  0.3583
 9484SOL    HW239915   3.377   0.560  10.394 -0.6011  0.7326  0.2812
 9485SOL     OW39916   3.230   1.305   3.156 -0.1085  0.2398  0.0177
 9485SOL    HW139917   3.205   1.228   3.105 -0.0728  0.7708 -0.8088
 9485SOL    HW239918   3.288   1.263   3.219 -0.0351 -0.5375 -0.5658
 9486SOL     OW39919   2.029   0.175  13.734  0.1951  0.6224 -0.4111
 9486SOL    HW139920   2.023   0.270  13.744  0.3100  0.4652  1.1148
 9486SOL    HW239921   2.115   0.169  13.776 -0.1489 -1.0749  0.0605
 9487SOL     OW39922   1.801   2.330   7.833  0.3136 -0.4811 -0.1953
 9487SOL    HW139923   1.843   2.342   7.748 -1.0086 -1.4897 -0.9937
 9487SOL    HW239924   1.802   2.423   7.858 -2.7299 -0.1455 -1.3045
 9488SOL     OW39925   1.316   0.774   4.296 -0.0037  0.3690  0.3306
 9488SOL    HW139926   1.389   0.835   4.305  1.0179 -0.6838 -0.6734
 9488SOL    HW239927   1.245   0.828   4.329 -0.7113 -1.2033  1.3796
 9489SOL     OW39928   4.712   2.478   4.958  0.2125 -0.4405  0.0237
 9489SOL    HW139929   0.053   2.424   4.912 -0.1395 -0.9563  0.1348
 9489SOL    HW239930   4.681   2.541   4.893 -0.5054  1.9774  2.7503
 9490SOL     OW39931   3.548   0.730  14.210  0.4441 -0.0262  0.0012
 9490SOL    HW139932   3.627   0.784  14.202  1.6254 -2.4007 -4.3618
 9490SOL    HW239933   3.588   0.658  14.258 -0.2978 -0.3774  0.0833
 9491SOL     OW39934   0.575   0.026  17.467  0.2575  0.4646  0.8370
 9491SOL    HW139935   0.550   4.661  17.442 -0.6788  1.2699 -1.1251
 9491SOL    HW239936   0.581   0.065  17.380  1.1514  1.4956  1.3647
 9492SOL     OW39937   1.129   1.403   9.383  0.1734 -0.4027  0.0727
 9492SOL    HW139938   1.172   1.383   9.300 -1.0771 -0.8015 -0.4821
 9492SOL    HW239939   1.144   1.497   9.395  0.5047 -0.5649  0.9139
 9493SOL     OW39940   0.478   2.374   9.132  0.1255  0.0013 -0.0931
 9493SOL    HW139941   0.550   2.355   9.072 -0.4906 -0.7504 -0.6013
 9493SOL    HW239942   0.482   2.469   9.143  2.3867 -0.2862  1.5091
 9494SOL     OW39943   4.627   2.112   7.691  0.2181  0.3686 -0.3650
 9494SOL    HW139944   4.548   2.063   7.666  1.4596 -1.8444  0.0744
 9494SOL    HW239945   4.595   2.201   7.674  1.1221  0.2947 -2.3330
 9495SOL     OW39946   3.787   2.069   7.744  0.1246 -0.2445  0.1503
 9495SOL    HW139947   3.749   2.065   7.831  2.1697  1.6185  1.1091
 9495SOL    HW239948   3.800   2.163   7.731  0.0854 -0.1292  0.9463
 9496SOL     OW39949   0.645   0.463   8.286  0.0243  0.5833  0.7164
 9496SOL    HW139950   0.595   0.497   8.360  1.6576 -2.7124  3.3062
 9496SOL    HW239951   0.670   0.378   8.323 -2.0806  0.6664  2.3016
 9497SOL     OW39952   2.956   2.792  10.378  0.3728 -0.3412 -0.1055
 9497SOL    HW139953   3.044   2.772  10.409 -0.0603 -1.3592  0.4878
 9497SOL    HW239954   2.963   2.884  10.401  3.6323 -0.0752 -2.1650
 9498SOL     OW39955   2.765   0.918   4.576  0.1053 -0.4531  0.1976
 9498SOL    HW139956   2.857   0.937   4.595 -0.6318  2.5197  0.8714
 9498SOL    HW239957   2.772   0.825   4.555  2.3884  0.4984 -3.3368
 9499SOL     OW39958   2.891   0.121   5.563  0.3496  0.2543  0.6909
 9499SOL    HW139959   2.974   0.115   5.517 -0.7701  1.9718 -1.5705
 9499SOL    HW239960   2.910   0.198   5.618 -0.5626  0.1872  1.0997
 9500SOL     OW39961   1.820   1.542  17.109 -0.2644 -0.8248  0.2000
 9500SOL    HW139962   1.840   1.605  17.039  0.0740  0.1970  1.2194
 9500SOL    HW239963   1.750   1.578  17.162  0.0751  0.8073 -0.4732
 9501SOL     OW39964   3.153   3.211   2.865  0.5069 -0.3732 -0.3238
 9501SOL    HW139965   3.139   3.116   2.872 -0.3812 -0.0184  2.5369
 9501SOL    HW239966   3.222   3.224   2.930 -0.9076  1.3067  0.8391
 9502SOL     OW39967   2.581   0.860   4.859  0.7746  0.1614  0.0100
 9502SOL    HW139968   2.597   0.843   4.766 -0.2251  0.7499 -0.2820
 9502SOL    HW239969   2.538   0.779   4.886 -2.2048  1.6849 -0.0839
 9503SOL     OW39970   1.840   3.338  14.731 -0.2149 -0.3877 -0.5202
 9503SOL    HW139971   1.747   3.319  14.737 -0.6759  2.1164 -0.0094
 9503SOL    HW239972   1.836   3.409  14.667 -0.0888  1.3994  1.4462
 9504SOL     OW39973   3.665   0.284   8.031 -0.4721 -0.2641 -0.7506
 9504SOL    HW139974   3.744   0.270   7.977  0.8381  0.8228  0.9130
 9504SOL    HW239975   3.649   0.378   8.038 -1.7866 -0.6187  0.9965
 9505SOL     OW39976   0.290   4.518   2.784  0.1947  0.1416  0.4254
 9505SOL    HW139977   0.262   4.603   2.819  2.2831  0.9890 -0.0153
 9505SOL    HW239978   0.207   4.485   2.749  0.1150  1.1384 -0.3238
 9506SOL     OW39979   3.900   0.127   3.354 -0.3090  0.1885  0.1752
 9506SOL    HW139980   3.935   0.143   3.267 -1.3203  1.9037  0.0965
 9506SOL    HW239981   3.877   0.216   3.379 -0.0545  0.5962 -1.0590
 9507SOL     OW39982   2.378   0.715  10.931  0.7281  0.2671 -0.2957
 9507SOL    HW139983   2.378   0.692  10.838  0.4705 -0.2749 -0.1623
 9507SOL    HW239984   2.465   0.698  10.968  0.6543  1.5233  0.4666
 9508SOL     OW39985   2.459   2.830  10.897  0.3088  0.0973  0.5236
 9508SOL    HW139986   2.446   2.846  10.804 -0.2481  1.1615  0.7819
 9508SOL    HW239987   2.373   2.794  10.916  0.4757  0.6801  2.3879
 9509SOL     OW39988   4.371   1.957  11.303  0.3528 -0.0652 -0.1198
 9509SOL    HW139989   4.431   1.932  11.233 -0.7729  1.7163 -1.6877
 9509SOL    HW239990   4.415   2.030  11.347  0.8899 -0.0212 -0.7378
 9510SOL     OW39991   4.097   0.111   2.837 -0.0017  0.1647  0.0585
 9510SOL    HW139992   4.146   0.117   2.755  1.3562 -1.2290  0.7786
 9510SOL    HW239993   4.171   0.140   2.889  0.9316 -1.7684 -0.1923
 9511SOL     OW39994   4.247   0.445  11.184 -0.0280  0.0220  0.7903
 9511SOL    HW139995   4.171   0.443  11.242 -0.4310 -2.1473  0.1746
 9511SOL    HW239996   4.201   0.518  11.142 -0.4565 -0.1065  1.0330
 9512SOL     OW39997   1.945   1.982   5.406 -0.3642  0.1625 -0.0626
 9512SOL    HW139998   2.002   1.931   5.464  2.4938  0.7558 -2.3098
 9512SOL    HW239999   1.926   1.918   5.337 -0.3029 -0.7718  0.7734
 9513SOL     OW40000   2.054   0.363   3.878  0.0851 -0.0776 -0.5520
 9513SOL    HW140001   1.986   0.411   3.925 -0.1589 -1.0628  0.1048
 9513SOL    HW240002   2.036   0.397   3.791 -2.7339  4.8631  1.9800
 9514SOL     OW40003   3.399   1.374  10.769 -0.4961  0.5363 -0.0946
 9514SOL    HW140004   3.344   1.308  10.727  0.1795  1.0029 -1.7323
 9514SOL    HW240005   3.330   1.440  10.774  0.5428  1.7182 -1.1780
 9515SOL     OW40006   4.490   3.470  16.775  0.4071 -0.1497  0.1277
 9515SOL    HW140007   4.474   3.534  16.706 -0.6831 -0.8588 -0.2880
 9515SOL    HW240008   4.411   3.478  16.829 -0.0859  2.8223 -1.0524
 9516SOL     OW40009   2.063   2.199   5.366  0.1816  0.5059 -0.0162
 9516SOL    HW140010   2.135   2.206   5.428  1.8224  0.3325 -1.9007
 9516SOL    HW240011   2.019   2.118   5.391 -0.3423  0.6503 -0.4722
 9517SOL     OW40012   1.134   0.276   7.800 -0.1357 -0.1643  0.2456
 9517SOL    HW140013   1.172   0.205   7.748 -0.5912 -0.6754  0.6112
 9517SOL    HW240014   1.103   0.336   7.732 -1.1825 -0.9146  0.0624
 9518SOL     OW40015   1.420   3.689  15.106  0.6489 -0.7042 -0.3794
 9518SOL    HW140016   1.495   3.629  15.111  0.8074 -0.3228  1.7374
 9518SOL    HW240017   1.349   3.638  15.067 -0.0928 -0.1565  0.2562
 9519SOL     OW40018   3.256   0.005   1.432  0.1115 -0.3649  0.0636
 9519SOL    HW140019   3.268   4.712   1.339  1.5296  1.3156 -0.0518
 9519SOL    HW240020   3.202   0.083   1.420  1.5168  0.5272 -0.4369
 9520SOL     OW40021   3.140   4.599   5.661  0.3501  0.4840 -0.3001
 9520SOL    HW140022   3.063   4.565   5.707  0.3153 -1.3239 -1.6584
 9520SOL    HW240023   3.130   4.693   5.673 -1.7216 -0.0561  2.2540
 9521SOL     OW40024   3.275   4.331  11.444  0.3434  0.2962  0.4931
 9521SOL    HW140025   3.317   4.325  11.358  0.4080 -0.6724  0.5877
 9521SOL    HW240026   3.182   4.318  11.423  0.2405  0.1852  1.0103
 9522SOL     OW40027   4.479   0.904   7.455 -0.4662 -0.2244  0.2708
 9522SOL    HW140028   4.460   0.972   7.390  1.5747  1.6343  1.6172
 9522SOL    HW240029   4.427   0.835   7.415 -1.7418  0.3910  0.8846
 9523SOL     OW40030   1.616   4.482   5.495 -0.4462 -0.5228 -0.4208
 9523SOL    HW140031   1.669   4.545   5.446 -0.3835  1.6896  2.4792
 9523SOL    HW240032   1.538   4.464   5.443 -0.3747 -1.1992 -0.2997
 9524SOL     OW40033   0.284   3.715   4.184 -0.5107 -0.2702 -0.2095
 9524SOL    HW140034   0.330   3.670   4.254 -1.0907  0.8362  0.8764
 9524SOL    HW240035   0.244   3.788   4.232 -2.0411 -2.3070  1.6222
 9525SOL     OW40036   2.531   0.030   9.708  0.0422 -0.2560  0.0838
 9525SOL    HW140037   2.462   4.714   9.761 -0.1409 -0.3531 -0.2248
 9525SOL    HW240038   2.490   0.116   9.692 -2.5154 -1.0099  2.5590
 9526SOL     OW40039   4.059   2.378   5.850  0.0252  0.1539 -0.0328
 9526SOL    HW140040   4.097   2.310   5.795 -0.6205  0.9500 -1.4627
 9526SOL    HW240041   4.043   2.327   5.930  0.3252 -0.5833 -0.4396
 9527SOL     OW40042   0.577   2.380   7.718 -0.1646 -0.1807  0.2933
 9527SOL    HW140043   0.613   2.467   7.730  1.5052 -0.7918 -0.2273
 9527SOL    HW240044   0.650   2.323   7.743 -0.2011 -0.0356  0.7180
 9528SOL     OW40045   3.060   4.595  11.223 -0.1745  0.1957 -0.5413
 9528SOL    HW140046   3.047   4.686  11.196 -3.6639 -0.3723 -0.6863
 9528SOL    HW240047   3.156   4.589  11.214 -0.3565 -1.5255 -1.3245
 9529SOL     OW40048   2.945   4.240   2.853 -0.0473  0.2110 -0.0915
 9529SOL    HW140049   3.037   4.222   2.872  0.0149  0.6143  0.0059
 9529SOL    HW240050   2.924   4.158   2.809  0.9078 -0.5050  0.8164
 9530SOL     OW40051   3.727   0.763   3.214 -0.3032 -0.2190  0.0075
 9530SOL    HW140052   3.811   0.803   3.192 -1.2001  0.6968 -1.7267
 9530SOL    HW240053   3.685   0.772   3.128  0.0382 -1.4391 -0.2828
 9531SOL     OW40054   0.747   2.843  10.075  0.5862 -0.2400  0.1592
 9531SOL    HW140055   0.810   2.788  10.122  0.7069  0.7266  1.1181
 9531SOL    HW240056   0.799   2.884  10.006 -0.9855 -1.4877 -1.7951
 9532SOL     OW40057   4.355   1.465   7.890 -0.7518 -0.3557  0.3361
 9532SOL    HW140058   4.379   1.421   7.971  1.4982 -0.5327 -0.4299
 9532SOL    HW240059   4.298   1.536   7.919  0.1381  0.6323 -0.2696
 9533SOL     OW40060   2.893   1.220   6.901  0.3695 -0.2442 -0.2147
 9533SOL    HW140061   2.845   1.235   6.819 -2.1313  2.1844  1.6870
 9533SOL    HW240062   2.970   1.174   6.867  0.7504 -0.0560  0.4020
 9534SOL     OW40063   1.785   0.642   6.408  0.3273 -0.0440  0.3106
 9534SOL    HW140064   1.726   0.566   6.407  0.3866 -0.0933  0.5683
 9534SOL    HW240065   1.836   0.635   6.328 -0.3215 -0.3667 -0.0809
 9535SOL     OW40066   1.773   2.841   7.464 -0.1390  0.3667 -0.1769
 9535SOL    HW140067   1.734   2.886   7.539  0.3875  0.8137 -0.1731
 9535SOL    HW240068   1.857   2.887   7.455 -0.3367  0.4237 -1.8178
 9536SOL     OW40069   1.301   2.309   6.306  0.0219  0.3967 -0.1200
 9536SOL    HW140070   1.303   2.304   6.211  1.1914 -2.1696  0.0593
 9536SOL    HW240071   1.392   2.333   6.324 -0.3673  2.0873 -0.3188
 9537SOL     OW40072   0.937   1.598   8.429  0.4227  0.4526 -0.4050
 9537SOL    HW140073   0.964   1.506   8.430 -0.4096  0.2418  1.6922
 9537SOL    HW240074   1.023   1.639   8.437  0.2134  1.0351 -1.0941
 9538SOL     OW40075   2.467   0.790   8.040  0.5119  0.3407  0.0817
 9538SOL    HW140076   2.464   0.804   7.945  0.6310  2.2872  0.3529
 9538SOL    HW240077   2.525   0.862   8.064  1.0519 -0.0015 -0.2044
 9539SOL     OW40078   1.043   2.963   8.446  0.1365  0.1075 -0.0391
 9539SOL    HW140079   1.034   3.050   8.406 -2.1595  0.6447  1.6207
 9539SOL    HW240080   1.137   2.959   8.459  0.1325  1.7934  0.5669
 9540SOL     OW40081   0.705   0.637   4.477 -0.4545  0.0365 -0.5436
 9540SOL    HW140082   0.694   0.725   4.514 -0.6939 -0.2494  0.0597
 9540SOL    HW240083   0.621   0.603   4.508  1.2656 -0.2462  3.9325
 9541SOL     OW40084   2.731   2.281   1.846  0.3750  0.1420 -0.0344
 9541SOL    HW140085   2.779   2.203   1.875 -1.3105 -0.3207  1.5363
 9541SOL    HW240086   2.793   2.307   1.778 -0.1089  1.5453  0.0597
 9542SOL     OW40087   2.688   0.569   3.707 -0.0233 -0.1201  0.0786
 9542SOL    HW140088   2.612   0.589   3.652  1.9323 -0.8928 -2.9221
 9542SOL    HW240089   2.758   0.598   3.648 -0.5115  0.0364 -0.4347
 9543SOL     OW40090   1.700   3.352   5.674  0.3334  0.4028 -0.4840
 9543SOL    HW140091   1.739   3.415   5.615 -0.2312  3.2987  2.2132
 9543SOL    HW240092   1.662   3.291   5.612  0.4634 -0.4534  0.2681
 9544SOL     OW40093   4.218   3.335   4.164  0.4055 -0.5949  0.6113
 9544SOL    HW140094   4.303   3.306   4.131  0.2892 -0.7108  0.4135
 9544SOL    HW240095   4.187   3.360   4.077 -0.4207  3.1837  2.0190
 9545SOL     OW40096   1.461   1.044   2.320 -0.4363  0.4304  0.2794
 9545SOL    HW140097   1.552   1.051   2.349  0.1086 -1.3901 -1.0432
 9545SOL    HW240098   1.432   0.961   2.358  0.7814  0.1778  0.6249
 9546SOL     OW40099   2.717   2.963   4.276  0.5742  0.7274  0.5230
 9546SOL    HW140100   2.662   3.023   4.227 -1.6263  0.0242  2.1201
 9546SOL    HW240101   2.725   3.026   4.347  0.0867  0.8015  0.5148
 9547SOL     OW40102   1.212   3.018  10.700 -0.4140 -0.1073  0.2525
 9547SOL    HW140103   1.160   2.975  10.768 -3.3557 -1.9502 -3.1549
 9547SOL    HW240104   1.193   3.108  10.727  1.1156 -0.8117  3.5615
 9548SOL     OW40105   2.280   4.687   9.411 -0.3007  0.3817 -0.8539
 9548SOL    HW140106   2.298   4.710   9.320  0.4525  0.1940 -0.7494
 9548SOL    HW240107   2.330   4.606   9.422 -3.0885 -1.3323 -0.7639
 9549SOL     OW40108   0.192   2.475   5.540 -0.4136 -0.3697 -0.1210
 9549SOL    HW140109   0.286   2.489   5.534 -0.4243  0.0496  0.6499
 9549SOL    HW240110   0.192   2.432   5.625 -0.3611  0.0125  0.0729
 9550SOL     OW40111   4.389   1.358   6.461 -0.0865 -0.3378  0.0293
 9550SOL    HW140112   4.472   1.311   6.452  0.5052  0.4703  1.1715
 9550SOL    HW240113   4.392   1.413   6.382 -0.1249  0.6474  0.7060
 9551SOL     OW40114   3.637   0.768   5.692  0.2628 -0.9290  0.3799
 9551SOL    HW140115   3.612   0.786   5.601  2.5147  2.5261  0.4598
 9551SOL    HW240116   3.731   0.753   5.688  0.5501  2.2429 -4.3235
 9552SOL     OW40117   3.045   2.131  17.403 -0.1143 -0.2385  0.0245
 9552SOL    HW140118   3.087   2.209  17.365 -2.6098  0.8810 -0.4670
 9552SOL    HW240119   3.116   2.073  17.431 -0.4187  0.6912  2.6709
 9553SOL     OW40120   3.271   3.557  10.337 -0.3303  0.0106  0.1609
 9553SOL    HW140121   3.255   3.480  10.392 -0.0026 -0.6410 -0.6451
 9553SOL    HW240122   3.348   3.592  10.381  1.0358  1.1730 -3.1460
 9554SOL     OW40123   1.281   0.829   5.458  0.0828  0.6226 -0.0360
 9554SOL    HW140124   1.342   0.841   5.531  0.4344 -1.8061  0.0568
 9554SOL    HW240125   1.334   0.858   5.384  0.0906  1.4415  0.2872
 9555SOL     OW40126   2.410   1.129   0.538 -0.3851 -0.3942 -0.6958
 9555SOL    HW140127   2.338   1.182   0.573 -1.4794 -0.6799 -2.5149
 9555SOL    HW240128   2.412   1.047   0.588 -3.2503  0.1298  0.2858
 9556SOL     OW40129   3.557   1.038   6.133  0.1757  0.0328  0.3948
 9556SOL    HW140130   3.646   1.067   6.152  0.1730  0.3884 -0.1167
 9556SOL    HW240131   3.576   0.957   6.086 -0.7940 -0.8490  1.5059
 9557SOL     OW40132   2.777   1.755  14.238 -0.3074 -1.0351 -0.1925
 9557SOL    HW140133   2.683   1.759  14.260  0.0654  0.6356  1.1188
 9557SOL    HW240134   2.809   1.845  14.247 -1.0750 -0.6292 -1.4632
 9558SOL     OW40135   1.821   0.348   8.904 -0.4643 -0.2811  0.3582
 9558SOL    HW140136   1.811   0.337   8.809  0.6690  1.6961  0.0042
 9558SOL    HW240137   1.868   0.270   8.933 -0.0615  0.0546  0.6045
 9559SOL     OW40138   0.719   2.664  14.554  0.0138  0.3058 -0.0065
 9559SOL    HW140139   0.763   2.631  14.476 -1.6980  2.4502 -1.8782
 9559SOL    HW240140   0.668   2.587  14.582  0.0117  0.2569 -0.1405
 9560SOL     OW40141   3.511   0.712   3.834 -0.2771 -0.5121 -0.2388
 9560SOL    HW140142   3.492   0.795   3.790  0.9037 -0.7103 -1.0973
 9560SOL    HW240143   3.596   0.684   3.802 -0.9109 -1.0333 -1.4432
 9561SOL     OW40144   0.096   1.926   4.959 -0.4385 -0.7154  0.0417
 9561SOL    HW140145   0.041   1.918   4.881 -0.3945  1.8474 -0.2605
 9561SOL    HW240146   0.168   1.985   4.936 -1.8432 -0.4518 -3.6963
 9562SOL     OW40147   3.777   3.399   2.251 -0.1794  0.1884  0.4815
 9562SOL    HW140148   3.701   3.447   2.284  1.3549  0.6440  3.3135
 9562SOL    HW240149   3.776   3.318   2.301 -3.2643 -1.2878 -1.9253
 9563SOL     OW40150   2.929   2.001  11.595  0.1268  0.2993  0.2965
 9563SOL    HW140151   2.997   1.969  11.535  1.6291  3.0142  0.5445
 9563SOL    HW240152   2.886   1.917  11.608  0.4849  0.1840  0.7321
 9564SOL     OW40153   0.019   2.749   2.370 -0.3737 -0.0437 -0.1084
 9564SOL    HW140154   0.077   2.680   2.339 -0.0384  0.4616 -0.6079
 9564SOL    HW240155   0.030   2.808   2.295  1.8138  1.5854  1.5075
 9565SOL     OW40156   3.905   2.795   0.323 -0.2654  0.2393 -0.3883
 9565SOL    HW140157   3.843   2.723   0.315 -1.8658  1.2227  3.4299
 9565SOL    HW240158   3.850   2.864   0.287 -0.4588  0.1603 -0.2426
 9566SOL     OW40159   0.030   0.284  10.058 -0.1322  0.2621  0.4029
 9566SOL    HW140160   4.659   0.285  10.043 -0.3280  0.6075  1.5697
 9566SOL    HW240161   0.044   0.364  10.110  1.0225  0.3459 -0.0555
 9567SOL     OW40162   0.525   2.120   4.868 -0.0842 -0.1764  0.5679
 9567SOL    HW140163   0.566   2.041   4.902  0.7499 -0.0682 -0.1903
 9567SOL    HW240164   0.593   2.166   4.819 -0.1098  0.7598  1.4059
 9568SOL     OW40165   0.999   2.567   1.629 -0.2947 -0.4877 -0.6176
 9568SOL    HW140166   1.069   2.511   1.594 -1.0595 -0.5167 -2.1317
 9568SOL    HW240167   0.918   2.556   1.578 -1.2298 -2.0931  1.2091
   4.72367   4.72367  17.69641
