Membrane in water
40167
    1TCq1    O1    1   0.928   1.867  10.746 -0.0015 -0.1426 -0.1359
    1TCq1    C1    2   0.942   1.855  10.877  0.0146 -0.4570  0.3132
    1TCq1    O2    3   0.965   1.951  10.950 -0.5028  0.1433  0.7983
    1TCq1    C2    4   0.892   1.723  10.916 -0.0470 -0.4399 -0.4236
    1TCq1    C3    5   0.896   1.617  10.830  0.0603  0.5038 -0.8876
    1TCq1    C4    6   0.848   1.494  10.875  0.4668 -0.4353  0.1311
    1TCq1    C5    7   0.806   1.481  11.002 -1.1484  0.2960 -0.0968
    1TCq1    C6    8   0.831   1.587  11.091 -0.0078  0.0549 -0.6352
    1TCq1    C7    9   0.872   1.712  11.049  0.6129 -0.0531  1.1272
    1TCq1    C8   10   0.756   1.582  11.220  0.5750  0.2150  0.3923
    1TCq1    O4   11   0.776   1.670  11.301 -0.1431 -0.7355  0.8542
    1TCq1    C9   12   0.843   1.387  10.789 -0.9071 -0.3323  0.0539
    1TCq1    O5   13   0.915   1.398  10.684  0.1980 -0.3627  0.0489
    1TCq1    O6   14   0.761   1.294  10.814 -0.2548  0.5422  0.4360
    1TCq1    H1   15   0.867   1.800  10.708  0.9374 -1.2454  0.3228
    1TCq1    H2   16   0.927   1.636  10.728  0.6973 -0.4855 -0.8813
    1TCq1    H3   17   0.776   1.384  11.041  0.0589  0.1238  0.3880
    1TCq1    H4   18   0.858   1.796  11.115 -0.5518  0.6485 -0.0203
    2MPD2     C   19   0.453   1.331  11.553 -0.8756  1.3247 -0.3580
    2MPD2    C1   20   0.522   1.449  11.567 -0.3330  0.0136  0.1991
    2MPD2    C2   21   0.590   1.506  11.466  0.1073  0.3323  0.7220
    2MPD2    C3   22   0.598   1.435  11.342  0.2700 -0.2040 -0.2341
    2MPD2    C4   23   0.528   1.320  11.331 -0.7251  0.6569  0.4614
    2MPD2    C5   24   0.457   1.267  11.432  0.2017 -0.6227 -0.0768
    2MPD2     H   25   0.645   1.598  11.482 -0.4745  0.7689  0.2047
    2MPD2    H1   26   0.537   1.263  11.239 -0.4258  0.0276  0.8773
    2MPD2    H2   27   0.399   1.280  11.633 -2.6575  3.9468  0.1275
    2MPD2    H3   28   0.421   1.167  11.414  1.7201 -1.3047  0.7099
    2MPD2     N   29   0.670   1.475  11.226  0.0052 -0.2356 -0.1708
    2MPD2    H5   30   0.669   1.410  11.147  3.1287 -2.9182  1.9980
    2MPD2    N1   31   0.534   1.515  11.692  0.0681 -0.1000 -0.0005
    2MPD2    H7   32   0.574   1.608  11.693  2.0918 -0.9789  0.2157
    3TCq1    O1   33   4.053   2.886  11.209  0.4878  0.3070 -0.3529
    3TCq1    C1   34   4.100   2.935  11.326 -0.5425  0.5278 -0.2957
    3TCq1    O2   35   4.090   2.887  11.436 -0.2140 -0.7508 -0.1284
    3TCq1    C2   36   4.126   3.077  11.298 -0.0722  0.0573  0.8032
    3TCq1    C3   37   4.025   3.154  11.239  0.2904  0.0640  0.6474
    3TCq1    C4   38   4.021   3.286  11.261  0.1823  0.0097  0.6339
    3TCq1    C5   39   4.116   3.352  11.336 -0.0913 -0.1615  0.1841
    3TCq1    C6   40   4.209   3.267  11.403 -0.2676 -0.2640  0.4363
    3TCq1    C7   41   4.212   3.130  11.386  0.2684  0.4582 -0.4955
    3TCq1    C8   42   4.330   3.325  11.458 -0.4396  0.0359  0.6513
    3TCq1    O4   43   4.407   3.243  11.500 -0.0695 -0.4182 -0.0123
    3TCq1    C9   44   3.915   3.365  11.212 -0.5297 -0.1389 -0.4337
    3TCq1    O5   45   3.808   3.313  11.179 -0.5426  0.0517  0.7612
    3TCq1    O6   46   3.946   3.483  11.183 -0.2418  0.2592 -0.2087
    3TCq1    H1   47   4.071   2.944  11.132 -1.0169 -1.2721 -1.8775
    3TCq1    H2   48   3.954   3.099  11.180 -0.3296  0.7077  0.7942
    3TCq1    H3   49   4.115   3.460  11.341 -1.1828 -0.2133  1.0407
    3TCq1    H4   50   4.286   3.067  11.434 -1.8730 -1.2815  0.5716
    4MPD2     C   51   4.623   3.689  11.673  0.5308 -0.1144  0.6870
    4MPD2    C1   52   4.523   3.752  11.592  0.6863 -0.0199  0.0458
    4MPD2    C2   53   4.420   3.676  11.541  0.2257  0.2991  0.6725
    4MPD2    C3   54   4.429   3.540  11.538  1.1379  0.4317 -0.6447
    4MPD2    C4   55   4.540   3.479  11.592  0.1576 -0.0545 -0.8924
    4MPD2    C5   56   4.637   3.552  11.663  0.4105 -0.2143 -0.0639
    4MPD2     H   57   4.333   3.726  11.500  1.0077  1.5029  0.4848
    4MPD2    H1   58   4.569   3.375  11.582  1.1106  0.1623 -0.3743
    4MPD2    H2   59   4.694   3.738  11.740  0.9847 -0.4278  0.4337
    4MPD2    H3   60   4.714   3.494  11.713 -0.0964 -1.3830 -0.6567
    4MPD2     N   61   4.330   3.465  11.479 -0.4574  0.6245 -0.1236
    4MPD2    H5   62   4.253   3.522  11.445 -0.0269  2.8106  2.5285
    4MPD2    N1   63   4.529   3.890  11.569 -0.5996  0.4240 -0.7059
    4MPD2    H7   64   4.448   3.929  11.521 -2.0686  0.2974  1.6439
    5TCq1    O1   65   1.883   0.363  12.140  0.4106 -0.3982  0.4701
    5TCq1    C1   66   1.810   0.256  12.098  0.1792  0.5807  0.6785
    5TCq1    O2   67   1.850   0.146  12.070  0.6524 -0.2652 -0.1835
    5TCq1    C2   68   1.670   0.292  12.064  0.5563 -0.3388 -0.3704
    5TCq1    C3   69   1.613   0.400  12.126 -0.5769  0.2799  0.5865
    5TCq1    C4   70   1.490   0.433  12.081 -0.9552 -0.6636 -0.0954
    5TCq1    C5   71   1.432   0.390  11.969  0.0725  0.0266 -0.1406
    5TCq1    C6   72   1.504   0.285  11.905 -0.1422 -0.9299  0.5195
    5TCq1    C7   73   1.613   0.232  11.959 -0.6554 -0.3019  0.2665
    5TCq1    C8   74   1.446   0.223  11.783  0.2732  0.4980 -0.3652
    5TCq1    O4   75   1.504   0.120  11.753  0.0665 -0.0919 -0.1384
    5TCq1    C9   76   1.424   0.544  12.140 -0.3763 -0.0381 -0.3281
    5TCq1    O5   77   1.476   0.608  12.239 -0.0279 -0.5105  0.4105
    5TCq1    O6   78   1.317   0.585  12.093 -0.1891  0.1888 -0.0643
    5TCq1    H1   79   1.830   0.445  12.127 -1.2837 -1.3769  1.1597
    5TCq1    H2   80   1.658   0.444  12.215 -0.1751  0.3385  0.3556
    5TCq1    H3   81   1.352   0.445  11.922  0.1951 -1.6884 -2.3382
    5TCq1    H4   82   1.668   0.152  11.912 -3.3585 -1.4555 -0.9680
    6MPD2     C   83   1.134   0.285  11.592  0.5203 -0.1237  0.1665
    6MPD2    C1   84   1.248   0.222  11.633 -0.0607  1.1956 -0.0013
    6MPD2    C2   85   1.265   0.089  11.591 -0.1134 -1.2398 -0.6692
    6MPD2    C3   86   1.182   0.032  11.501 -0.0194  0.5516  0.1293
    6MPD2    C4   87   1.059   0.096  11.473  0.0645 -0.3065 -0.1831
    6MPD2    C5   88   1.033   0.224  11.525  0.3888 -0.0516  0.4625
    6MPD2     H   89   1.349   0.030  11.624  1.2417  1.8935  1.4299
    6MPD2    H1   90   0.985   0.046  11.412 -0.6008  1.7992 -1.1097
    6MPD2    H2   91   1.120   0.389  11.620  1.7797  0.0289  0.2324
    6MPD2    H3   92   0.936   0.270  11.510  0.5924  0.3893  0.4944
    6MPD2     N   93   1.228   4.635  11.443 -0.5570  0.4550 -0.1316
    6MPD2    H5   94   1.319   4.602  11.472 -0.7397 -1.2525 -1.4666
    6MPD2    N1   95   1.335   0.288  11.721 -0.6560 -0.1704  0.0559
    6MPD2    H7   96   1.317   0.383  11.752 -1.5793 -0.2424 -0.2750
    7TCq1    O1   97   2.963   0.077  13.246 -0.2619 -0.3753  0.0630
    7TCq1    C1   98   2.917   0.044  13.121 -0.3846 -0.0483 -0.0742
    7TCq1    O2   99   2.900   0.114  13.020  0.4111 -0.4270  0.0790
    7TCq1    C2  100   2.930   4.626  13.099  0.5847 -0.1974  0.3904
    7TCq1    C3  101   2.942   4.595  12.964  0.4878 -0.5956  0.8728
    7TCq1    C4  102   2.971   4.465  12.939 -0.2626 -0.0688 -0.2736
    7TCq1    C5  103   3.001   4.369  13.035  0.0949 -0.5388  0.1116
    7TCq1    C6  104   2.989   4.405  13.166 -0.0459  0.7312 -0.6095
    7TCq1    C7  105   2.955   4.530  13.201  0.1420 -0.6129 -0.2123
    7TCq1    C8  106   3.021   4.314  13.273 -0.0892  0.1761 -0.2991
    7TCq1    O4  107   2.982   4.198  13.246  0.0328  0.2220 -0.5568
    7TCq1    C9  108   2.966   4.410  12.805  0.0600  0.3050 -0.7445
    7TCq1    O5  109   2.962   4.287  12.784 -0.0757  0.2686  0.2615
    7TCq1    O6  110   2.947   4.485  12.707  0.0388 -0.1547  0.9745
    7TCq1    H1  111   2.991   0.002  13.303  0.5763  2.3096  3.1690
    7TCq1    H2  112   2.910   4.661  12.884 -1.0033  0.0442  1.9920
    7TCq1    H3  113   3.021   4.265  13.012  0.8309 -0.2918 -0.3884
    7TCq1    H4  114   2.937   4.564  13.302 -0.4820 -2.3790  0.2769
    8MPD2     C  115   3.257   4.205  13.722  0.2958  0.1397 -0.4727
    8MPD2    C1  116   3.221   4.117  13.622 -0.1579 -0.2632 -0.7412
    8MPD2    C2  117   3.156   4.170  13.511 -0.4243  0.1689  0.3049
    8MPD2    C3  118   3.129   4.307  13.499 -0.2759  0.1619 -0.6469
    8MPD2    C4  119   3.156   4.388  13.609 -0.9985  0.4288 -0.0924
    8MPD2    C5  120   3.223   4.337  13.719 -0.1607  0.3211 -0.0303
    8MPD2     H  121   3.134   4.097  13.433  1.0631 -0.6247  0.6134
    8MPD2    H1  122   3.148   4.496  13.606  1.1767  0.5732 -0.9321
    8MPD2    H2  123   3.293   4.173  13.820  0.4893  1.6246 -0.0532
    8MPD2    H3  124   3.251   4.383  13.813  0.2549  0.4853 -0.2357
    8MPD2     N  125   3.077   4.370  13.383 -0.6211  0.2457 -0.0645
    8MPD2    H5  126   3.103   4.468  13.376  1.1344 -0.0821  1.7969
    8MPD2    N1  127   3.242   3.981  13.646  0.0928 -0.3623 -0.0898
    8MPD2    H7  128   3.281   3.973  13.740 -0.3752 -1.4320  0.0021
    9TCq1    O1  129   0.423   2.934  10.997  0.1143 -0.1143 -0.2621
    9TCq1    C1  130   0.481   2.819  11.007 -0.6929  0.3866  0.2353
    9TCq1    O2  131   0.443   2.727  11.082 -0.3754 -0.0946 -0.3117
    9TCq1    C2  132   0.619   2.850  10.990  0.0878 -0.2030 -0.3529
    9TCq1    C3  133   0.652   2.891  10.865 -0.6751  0.2210  0.1887
    9TCq1    C4  134   0.788   2.904  10.843  0.3395 -0.4858 -0.0605
    9TCq1    C5  135   0.887   2.869  10.937  0.0565  0.6734  0.6430
    9TCq1    C6  136   0.845   2.825  11.055 -0.7655  0.4224 -0.8361
    9TCq1    C7  137   0.710   2.807  11.083 -0.2161 -0.7589  0.4656
    9TCq1    C8  138   0.938   2.743  11.129  0.9303  0.1918 -0.5826
    9TCq1    O4  139   1.030   2.690  11.067  0.1292  0.5080 -0.4076
    9TCq1    C9  140   0.833   2.934  10.710 -0.1630  0.2280 -0.1710
    9TCq1    O5  141   0.746   2.988  10.634 -0.4351  0.4547 -0.1409
    9TCq1    O6  142   0.959   2.936  10.698 -0.0131 -0.1934  0.4642
    9TCq1    H1  143   0.469   3.000  10.940 -0.0520  1.9938  2.0614
    9TCq1    H2  144   0.573   2.906  10.792  1.3797  0.8660 -1.8999
    9TCq1    H3  145   0.993   2.872  10.913 -0.1796 -1.9487 -0.7694
    9TCq1    H4  146   0.672   2.757  11.171 -0.3330 -2.8316 -0.7701
   10MPD2     C  147   1.011   2.508  11.312  0.3286  0.2268 -0.5385
   10MPD2    C1  148   0.952   2.622  11.353  0.6935  0.1776 -0.7159
   10MPD2    C2  149   0.911   2.641  11.486  0.6541 -0.1473  0.7878
   10MPD2    C3  150   0.936   2.546  11.583 -0.2496 -0.2362  0.0223
   10MPD2    C4  151   0.997   2.432  11.539  0.2507  0.1760  0.1584
   10MPD2    C5  152   1.040   2.417  11.412  0.3789  0.4535  0.3817
   10MPD2     H  153   0.856   2.731  11.511  1.8487  0.0466  2.6686
   10MPD2    H1  154   0.999   2.342  11.599 -1.9880 -0.7626 -1.1574
   10MPD2    H2  155   1.043   2.488  11.211 -0.5315 -0.2538 -0.7125
   10MPD2    H3  156   1.081   2.321  11.383  1.5596  0.8077  0.8566
   10MPD2     N  157   0.901   2.555  11.719 -0.0928  0.0295  0.1929
   10MPD2    H5  158   0.929   2.473  11.772  2.0697  1.6194  1.4606
   10MPD2    N1  159   0.904   2.722  11.261  0.2333  0.0860 -0.5652
   10MPD2    H7  160   0.843   2.795  11.296  0.9458  0.8893 -0.9996
   11TCq1    O1  161   2.058   3.605  14.318 -0.4607  0.4373 -0.3060
   11TCq1    C1  162   2.046   3.477  14.346  0.4209  0.0885  0.5562
   11TCq1    O2  163   2.112   3.420  14.434  0.4546 -0.0494  0.5462
   11TCq1    C2  164   1.915   3.423  14.301 -0.0590 -0.6162  0.0799
   11TCq1    C3  165   1.866   3.472  14.186  0.5882 -0.8939 -0.5374
   11TCq1    C4  166   1.737   3.436  14.160  0.0077 -0.0127  1.2706
   11TCq1    C5  167   1.654   3.369  14.246  0.2581 -0.6442 -0.0659
   11TCq1    C6  168   1.707   3.338  14.366  0.2535  0.3055 -0.1208
   11TCq1    C7  169   1.836   3.363  14.398  0.6824 -0.2064 -0.1443
   11TCq1    C8  170   1.642   3.239  14.438 -0.5844  0.2069 -0.5496
   11TCq1    O4  171   1.677   3.229  14.557 -0.7908 -0.2166 -0.2958
   11TCq1    C9  172   1.683   3.491  14.035  0.2843 -0.8363  0.1797
   11TCq1    O5  173   1.557   3.516  14.021  0.4212 -0.7121  0.1730
   11TCq1    O6  174   1.762   3.526  13.937 -0.2864 -0.5955 -0.3626
   11TCq1    H1  175   1.998   3.636  14.247 -2.0879 -0.8540  0.4920
   11TCq1    H2  176   1.929   3.516  14.109  2.9461 -1.4996  1.0483
   11TCq1    H3  177   1.546   3.360  14.232  0.3179 -2.2484  0.4036
   11TCq1    H4  178   1.871   3.343  14.498 -0.6347 -1.0188  0.1587
   12MPD2     C  179   1.527   2.976  14.528 -0.1514 -0.9300 -0.3704
   12MPD2    C1  180   1.539   3.012  14.399  0.2455  0.3558  0.1584
   12MPD2    C2  181   1.507   2.918  14.305  0.2029 -0.0338 -0.3316
   12MPD2    C3  182   1.467   2.789  14.339  0.3104 -0.0574  0.2795
   12MPD2    C4  183   1.450   2.762  14.468 -0.0023 -0.7038  0.2919
   12MPD2    C5  184   1.477   2.853  14.563  0.4419 -0.3561  0.4435
   12MPD2     H  185   1.506   2.950  14.202  0.7987  0.7837 -0.0766
   12MPD2    H1  186   1.403   2.671  14.506  2.5194 -1.5792  1.2800
   12MPD2    H2  187   1.555   3.046  14.607  0.7506 -0.5588 -1.0159
   12MPD2    H3  188   1.464   2.841  14.670  0.0421 -2.0772  0.1991
   12MPD2     N  189   1.428   2.693  14.243  0.4522  0.0838 -0.0709
   12MPD2    H5  190   1.409   2.721  14.147 -1.2954 -3.1822 -0.6780
   12MPD2    N1  191   1.589   3.141  14.356  0.3482  0.0699  0.4893
   12MPD2    H7  192   1.596   3.154  14.256  0.4493  0.0966  0.4999
   13TCq1    O1  193   1.166   2.758  10.680 -0.1548  0.2644  0.1093
   13TCq1    C1  194   1.123   2.640  10.727 -0.1472 -0.1274  0.9237
   13TCq1    O2  195   1.187   2.577  10.810  0.6482 -0.8221 -0.2051
   13TCq1    C2  196   0.984   2.636  10.703  0.1212 -0.3391  0.7721
   13TCq1    C3  197   0.943   2.666  10.573 -0.1453  0.4025 -1.2412
   13TCq1    C4  198   0.807   2.647  10.554  0.5792 -0.4360  0.0141
   13TCq1    C5  199   0.717   2.597  10.647  0.1341 -0.1930 -0.4135
   13TCq1    C6  200   0.771   2.563  10.766  0.5041  0.5999  0.4919
   13TCq1    C7  201   0.899   2.585  10.802  0.1201 -0.0517 -0.1720
   13TCq1    C8  202   0.686   2.486  10.858  0.9840  0.1283 -0.0415
   13TCq1    O4  203   0.564   2.485  10.850 -0.0361  0.0548  0.7123
   13TCq1    C9  204   0.750   2.667  10.419  0.5145  0.1727 -0.4940
   13TCq1    O5  205   0.627   2.649  10.425 -0.0623  0.3337  0.0614
   13TCq1    O6  206   0.824   2.703  10.322  0.4057 -0.2953  0.1877
   13TCq1    H1  207   1.087   2.814  10.663  0.6714  2.3026  3.1088
   13TCq1    H2  208   1.005   2.700  10.492  0.4624  1.5398 -0.3009
   13TCq1    H3  209   0.615   2.565  10.631  0.0871  0.5519 -1.5704
   13TCq1    H4  210   0.939   2.571  10.902 -1.4143 -0.4824  0.3793
   14MPD2     C  211   0.804   2.299  11.151  0.0794  0.1677 -0.6007
   14MPD2    C1  212   0.715   2.363  11.064  0.2438  0.3089  0.5861
   14MPD2    C2  213   0.594   2.388  11.119 -0.0345 -0.4962 -0.5574
   14MPD2    C3  214   0.553   2.338  11.243 -0.0263 -0.3185 -0.1083
   14MPD2    C4  215   0.648   2.268  11.319  0.1827 -0.3216 -0.5986
   14MPD2    C5  216   0.779   2.262  11.279  0.2940  0.1869  0.0709
   14MPD2     H  217   0.525   2.457  11.071 -0.1300  0.4305  0.9205
   14MPD2    H1  218   0.628   2.211  11.410  0.8106 -1.0610 -0.9173
   14MPD2    H2  219   0.907   2.278  11.123 -0.1833 -0.6855 -0.9360
   14MPD2    H3  220   0.856   2.207  11.332 -1.3589 -0.3484  1.9299
   14MPD2     N  221   0.425   2.385  11.293  0.0755  0.2600  0.3033
   14MPD2    H5  222   0.372   2.437  11.224  0.8996  0.0065 -0.5235
   14MPD2    N1  223   0.764   2.411  10.945 -0.0250 -0.1221  0.0127
   14MPD2    H7  224   0.865   2.407  10.938  0.0469  2.3734 -0.3726
   15TCq1    O1  225   2.237   1.164   2.243  0.6270 -0.6065 -0.3517
   15TCq1    C1  226   2.351   1.141   2.173  0.4170  0.1998  0.0967
   15TCq1    O2  227   2.420   1.035   2.174  0.5157 -0.2999 -0.0799
   15TCq1    C2  228   2.375   1.245   2.070 -0.1289  0.3894 -0.3536
   15TCq1    C3  229   2.332   1.377   2.088  0.3937 -0.4643 -0.2394
   15TCq1    C4  230   2.375   1.477   2.005 -0.2283  0.2280 -0.4583
   15TCq1    C5  231   2.445   1.440   1.891 -0.3263 -0.1755  0.1481
   15TCq1    C6  232   2.483   1.310   1.866 -0.1284 -0.0370  0.2757
   15TCq1    C7  233   2.452   1.213   1.960  0.8823 -0.5123 -0.6626
   15TCq1    C8  234   2.551   1.271   1.745 -0.8059  0.1774  0.2998
   15TCq1    O4  235   2.609   1.166   1.758 -0.1659  0.0413  0.7351
   15TCq1    C9  236   2.333   1.608   2.030 -0.2413 -0.1337  0.3650
   15TCq1    O5  237   2.372   1.703   1.953 -0.1922  0.4061  0.0002
   15TCq1    O6  238   2.235   1.619   2.107 -0.3178  0.4863  0.2794
   15TCq1    H1  239   2.181   1.239   2.215  1.4720  0.2704  0.3411
   15TCq1    H2  240   2.275   1.403   2.177  0.9138 -0.4284  0.0791
   15TCq1    H3  241   2.453   1.524   1.824 -1.5801 -0.4981 -0.3939
   15TCq1    H4  242   2.478   1.109   1.943  1.9958 -0.4320  0.5652
   16MPD2     C  243   2.657   1.483   1.463  0.2704 -0.0265 -0.2209
   16MPD2    C1  244   2.635   1.366   1.533 -0.1031 -0.5195 -0.4169
   16MPD2    C2  245   2.687   1.248   1.484  0.6477  0.6114 -0.3095
   16MPD2    C3  246   2.763   1.245   1.369 -0.1587 -0.1833 -0.0189
   16MPD2    C4  247   2.785   1.364   1.305 -0.1302 -0.1651  0.0636
   16MPD2    C5  248   2.729   1.485   1.341  0.4868 -0.1103  0.1979
   16MPD2     H  249   2.663   1.153   1.531 -0.4852 -0.0713 -2.2827
   16MPD2    H1  250   2.856   1.367   1.222  2.7173  1.0403  2.5185
   16MPD2    H2  251   2.623   1.582   1.489 -0.1883 -0.4320  0.7384
   16MPD2    H3  252   2.739   1.581   1.292  1.6662 -0.7748 -0.8763
   16MPD2     N  253   2.808   1.123   1.316  0.7661  0.2543 -0.0357
   16MPD2    H5  254   2.795   1.042   1.376  0.0731  0.7957  0.5480
   16MPD2    N1  255   2.560   1.375   1.654  0.4099  0.7561 -0.1450
   16MPD2    H7  256   2.519   1.464   1.680 -2.3212  0.0596 -2.0277
   17TCq1    O1  257   0.673   1.213  10.580 -0.1403 -0.1550  0.3372
   17TCq1    C1  258   0.541   1.196  10.535  0.4646  0.6299  0.4911
   17TCq1    O2  259   0.508   1.131  10.437  0.0908  0.3003  0.1707
   17TCq1    C2  260   0.467   1.213  10.655 -0.2828 -0.0805 -0.4734
   17TCq1    C3  261   0.415   1.104  10.718 -0.9829 -0.3959 -0.6303
   17TCq1    C4  262   0.377   1.117  10.846 -0.0648 -0.1309  0.2700
   17TCq1    C5  263   0.386   1.235  10.911  0.5213 -0.4440  0.4563
   17TCq1    C6  264   0.430   1.345  10.846  0.0449 -0.2271 -0.4172
   17TCq1    C7  265   0.467   1.339  10.713 -0.1671 -0.2554  0.7387
   17TCq1    C8  266   0.442   1.458  10.938 -0.4571  0.0371  0.7626
   17TCq1    O4  267   0.434   1.444  11.061  0.3252  0.2868  0.2537
   17TCq1    C9  268   0.344   1.000  10.924  0.1858 -0.0828  0.4887
   17TCq1    O5  269   0.371   0.889  10.871 -0.3630  0.0829 -0.1823
   17TCq1    O6  270   0.273   1.018  11.024 -0.2219 -0.1388  0.1851
   17TCq1    H1  271   0.684   1.235  10.675 -0.4264  1.5197 -0.0130
   17TCq1    H2  272   0.413   1.003  10.679  1.1167 -1.0534  0.9387
   17TCq1    H3  273   0.365   1.232  11.018  1.0372 -1.2609  0.5346
   17TCq1    H4  274   0.516   1.424  10.667 -0.0460  0.2959  1.8825
   18MPD2     C  275   0.496   1.727  11.059  0.4310  0.3527  0.4308
   18MPD2    C1  276   0.489   1.701  10.923 -0.0521  0.3080  0.8747
   18MPD2    C2  277   0.540   1.803  10.840 -0.1889 -0.7140  0.0322
   18MPD2    C3  278   0.589   1.924  10.888 -0.5099 -0.2810 -0.1578
   18MPD2    C4  279   0.580   1.947  11.022  0.2457 -0.0931  0.1332
   18MPD2    C5  280   0.541   1.843  11.108 -0.2483 -0.4892  1.2684
   18MPD2     H  281   0.536   1.787  10.733  2.8455 -0.3617 -0.1268
   18MPD2    H1  282   0.612   2.041  11.067 -2.1801  0.0408  1.5738
   18MPD2    H2  283   0.470   1.648  11.128  2.3143  0.9209  1.8152
   18MPD2    H3  284   0.548   1.863  11.214  1.7200  1.6161  0.7548
   18MPD2     N  285   0.636   2.028  10.813  0.0723  0.1674 -0.5130
   18MPD2    H5  286   0.673   2.110  10.860 -0.1575 -1.5369  2.6377
   18MPD2    N1  287   0.471   1.573  10.865 -0.9492  0.1770 -0.0662
   18MPD2    H7  288   0.479   1.564  10.764  0.9568 -1.4633  0.2356
   19TMC2    C1  289   2.486   2.448  14.269  0.4778 -0.4154  0.6990
   19TMC2    C2  290   2.386   2.545  14.261 -0.0537  0.0319  0.5859
   19TMC2    C3  291   2.256   2.495  14.288  0.3201  0.2080 -0.2316
   19TMC2    C4  292   2.465   2.314  14.288  0.1097  0.2593 -1.0507
   19TMC2    C5  293   2.338   2.281  14.320 -0.0217 -0.2146  0.5983
   19TMC2    C6  294   2.229   2.364  14.311 -0.8407  0.0817  0.2995
   19TMC2     C  295   2.621   2.499  14.241  0.6482  0.3435 -0.3273
   19TMC2     O  296   2.623   2.607  14.183  0.0686  0.1496 -0.0423
   19TMC2     H  297   2.403   2.648  14.233  0.5023 -0.3758 -0.5593
   19TMC2    H1  298   2.546   2.242  14.287 -0.8509 -0.8118 -1.3727
   19TMC2    H2  299   2.127   2.328  14.312 -0.9386  0.3611  0.3924
   19TMC2    C7  300   2.303   2.151  14.370  0.1490 -0.9045  0.5728
   19TMC2    C8  301   2.149   2.581  14.231  0.0647 -0.6282 -0.1456
   19TMC2    O1  302   2.197   2.141  14.431  0.0099  0.0519  0.1216
   19TMC2    O2  303   2.058   2.543  14.160  0.8713  0.7802  0.6155
   19TMC2    O5  304   2.144   2.698  14.306  0.7620  1.0197  0.1082
   19TMC2    H5  305   2.226   2.709  14.359  0.1901 -1.5133  1.5756
   20MPD2     C  306   2.914   2.583  14.249  0.4421  0.5095 -0.0341
   20MPD2    C1  307   2.861   2.474  14.313  0.3514 -0.4623 -0.1963
   20MPD2    C2  308   2.950   2.389  14.388 -0.9413  0.1460  0.1645
   20MPD2    C3  309   3.086   2.419  14.395  0.4142 -0.3113  0.4440
   20MPD2    C4  310   3.134   2.531  14.339 -0.2845 -0.5792  0.3650
   20MPD2    C5  311   3.048   2.608  14.266  0.4919  0.3897  0.6582
   20MPD2     H  312   2.906   2.305  14.441  1.2421 -0.6583  0.7194
   20MPD2    H1  313   3.237   2.562  14.353 -1.1921  2.1220  0.9694
   20MPD2    H2  314   2.855   2.656  14.194 -0.9925 -0.6253 -0.0124
   20MPD2    H3  315   3.084   2.698  14.217  0.2165  0.1717  0.0581
   20MPD2     N  316   3.181   2.332  14.453 -0.6814  0.4294  0.3819
   20MPD2    H5  317   3.279   2.348  14.430 -0.4067 -1.9993 -0.1596
   20MPD2    N1  318   2.721   2.440  14.314  0.5226 -0.6187  0.2629
   20MPD2    H7  319   2.711   2.348  14.357  1.6393 -0.5497  0.6683
   21MPD2     C  320   0.555   3.330  14.330 -0.3922  0.2324  0.1341
   21MPD2    C1  321   0.579   3.197  14.348 -0.3438  0.3941  0.0562
   21MPD2    C2  322   0.489   3.131  14.431 -0.2490  0.3358  0.1381
   21MPD2    C3  323   0.382   3.182  14.503 -0.5822  0.4270  0.2156
   21MPD2    C4  324   0.356   3.317  14.474 -0.4373 -0.2180  0.0197
   21MPD2    C5  325   0.447   3.386  14.398  0.9881  0.0505  0.1387
   21MPD2     H  326   0.507   3.024  14.438  1.4916  0.7505  1.8968
   21MPD2    H1  327   0.270   3.366  14.518  1.3918  0.5369  2.7783
   21MPD2    H2  328   0.616   3.401  14.274 -0.5805  0.3656  0.0992
   21MPD2    H3  329   0.435   3.492  14.382  2.2247  0.2697  0.6725
   21MPD2     N  330   0.288   3.110  14.578  0.3058  0.3179  0.1684
   21MPD2    H5  331   0.202   3.156  14.605 -0.6930 -1.9273  0.7834
   21MPD2    N1  332   0.690   3.123  14.290  0.0700 -0.6261 -0.2296
   21MPD2    H7  333   0.696   3.024  14.313  0.0971 -0.8385 -1.1591
   22TCq2    C1  334   0.318   2.992  14.633 -0.2845 -0.4543  0.1950
   22TCq2    O2  335   0.429   2.938  14.638  0.1029 -0.1962  0.2398
   22TCq2    C2  336   0.207   2.927  14.704 -0.0008 -0.7140 -0.4269
   22TCq2    C3  337   0.242   2.811  14.757 -0.5027  0.3778 -0.2876
   22TCq2    C4  338   0.146   2.762  14.844 -0.0613  0.0385  0.0628
   22TCq2    C5  339   0.035   2.832  14.868  0.2510 -0.6014  0.6510
   22TCq2    C6  340   0.011   2.951  14.806  0.4505 -0.1000  0.1400
   22TCq2    C7  341   0.101   3.010  14.730 -0.0425 -0.8169  0.2239
   22TCq2    C8  342   4.632   3.035  14.875  0.1763  0.5600  0.0000
   22TCq2    O4  343   4.635   3.022  14.997  0.6151 -0.5664 -0.2297
   22TCq2    C9  344   0.168   2.637  14.913  0.0280 -0.1757  0.4079
   22TCq2    O5  345   0.093   2.610  15.001  0.4870  0.0264 -0.4058
   22TCq2    O6  346   0.245   2.553  14.866  0.2727  0.1895 -0.2421
   22TCq2    H2  347   0.325   2.746  14.734 -1.5857 -1.1074 -0.0157
   22TCq2    H3  348   4.688   2.793  14.944 -1.1967  3.9213  1.6704
   22TCq2    H4  349   0.089   3.117  14.717  1.8522 -0.3674  2.1450
   23MPD2     C  350   2.012   3.610  14.768 -0.2364  0.0489  0.2384
   23MPD2    C1  351   1.928   3.662  14.865 -0.1483  0.4936  0.7566
   23MPD2    C2  352   1.889   3.795  14.850 -0.3600  0.8830 -0.0897
   23MPD2    C3  353   1.915   3.867  14.736 -0.0311 -0.1501  0.4746
   23MPD2    C4  354   1.995   3.818  14.643  0.1715  0.6000 -0.5272
   23MPD2    C5  355   2.039   3.684  14.655 -0.3787  0.8609  0.0462
   23MPD2     H  356   1.817   3.826  14.924  0.5383  0.1885  1.0723
   23MPD2    H1  357   2.021   3.877  14.556  2.9441 -0.4469 -0.3994
   23MPD2    H2  358   2.050   3.509  14.773  1.5168  0.6191 -1.4294
   23MPD2    H3  359   2.107   3.658  14.575  0.0846 -1.3294  1.1303
   23MPD2     N  360   1.865   3.999  14.711  0.3671  0.0483  0.3451
   23MPD2    H5  361   1.889   4.058  14.631  1.6453 -2.2155 -0.9468
   23MPD2    N1  362   1.899   3.598  14.980  0.6171  0.2558  0.1825
   23MPD2    H7  363   1.863   3.654  15.057  1.8050  1.8309 -0.4115
   24TCq2    C1  364   1.772   4.058  14.787 -0.0982  0.0563 -0.8288
   24TCq2    O2  365   1.714   4.015  14.884  0.2075 -0.0844 -0.2112
   24TCq2    C2  366   1.697   4.162  14.711  1.1418 -0.5397  0.0222
   24TCq2    C3  367   1.767   4.241  14.624 -0.2953  0.5193  0.7192
   24TCq2    C4  368   1.714   4.357  14.585 -0.0517 -0.0735  0.2659
   24TCq2    C5  369   1.586   4.389  14.615 -0.0952  0.2810  0.5965
   24TCq2    C6  370   1.515   4.315  14.706 -0.4758  0.2396  0.3258
   24TCq2    C7  371   1.570   4.202  14.766 -0.4563 -0.0033 -0.0096
   24TCq2    C8  372   1.371   4.316  14.693 -0.1366 -1.0262 -0.5116
   24TCq2    O4  373   1.315   4.221  14.744  0.2139  0.3294  0.3062
   24TCq2    C9  374   1.790   4.435  14.494  0.0712  0.3145 -0.4590
   24TCq2    O5  375   1.899   4.387  14.458  0.1751  0.5283 -0.6968
   24TCq2    O6  376   1.750   4.551  14.466 -0.2414  0.0039  0.3999
   24TCq2    H2  377   1.873   4.224  14.607 -1.0481 -1.1638 -2.4190
   24TCq2    H3  378   1.544   4.480  14.574  1.0777 -0.2193 -1.6553
   24TCq2    H4  379   1.511   4.137  14.829 -2.1975  0.6341 -0.9951
   25TMC2    C1  380   0.151   1.818  11.126  0.2730  0.0919 -0.0925
   25TMC2    C2  381   0.174   1.951  11.121 -0.3132 -0.0721  0.3848
   25TMC2    C3  382   0.211   2.019  11.235  0.2509 -0.0748 -0.5531
   25TMC2    C4  383   0.155   1.752  11.247  0.1386  0.1331 -0.9971
   25TMC2    C5  384   0.193   1.816  11.358  0.1080 -0.1728 -0.5806
   25TMC2    C6  385   0.230   1.952  11.352  0.2839 -0.3007  0.9891
   25TMC2     C  386   0.123   1.765  10.996 -0.3435  0.4405 -0.1789
   25TMC2     O  387   0.097   1.849  10.909  0.0092  0.0651  0.0532
   25TMC2     H  388   0.179   2.004  11.027  1.0685 -0.1922  0.3898
   25TMC2    H1  389   0.112   1.655  11.270  2.4481 -0.2670  1.5877
   25TMC2    H2  390   0.251   2.008  11.442 -1.3243  1.8750  0.0041
   25TMC2    C7  391   0.205   1.758  11.494 -0.4642  0.5962  0.4974
   25TMC2    C8  392   0.141   2.140  11.264 -0.1537  0.1891  0.4398
   25TMC2    O1  393   0.237   1.825  11.591 -0.2302  0.8073  0.4476
   25TMC2    O2  394   0.091   2.150  11.372  0.4009  0.7226 -0.3738
   25TMC2    O5  395   0.073   2.171  11.153 -0.1474 -0.0807 -0.6965
   25TMC2    H5  396   0.144   2.182  11.086  1.3543 -0.5083  0.8489
   26MPD2     C  397   0.109   1.400  10.641  0.3451  0.0996 -0.4128
   26MPD2    C1  398   0.076   1.344  10.762 -0.3057 -0.2716  0.0918
   26MPD2    C2  399   0.091   1.422  10.879  0.1921  0.3733  0.9162
   26MPD2    C3  400   0.111   1.554  10.872  0.0865 -0.2257  0.3180
   26MPD2    C4  401   0.138   1.610  10.747 -0.6607  0.6471 -0.1968
   26MPD2    C5  402   0.140   1.533  10.637 -0.2152 -0.1107  0.4609
   26MPD2     H  403   0.069   1.389  10.980  1.5399  1.5218  1.5824
   26MPD2    H1  404   0.166   1.713  10.729  0.9911 -0.3340 -3.1618
   26MPD2    H2  405   0.073   1.357  10.548 -1.2363 -0.1676  0.3158
   26MPD2    H3  406   0.160   1.584  10.544  1.0876  1.1480  1.4343
   26MPD2     N  407   0.116   1.632  10.988 -0.2916 -0.9019 -0.2841
   26MPD2    H5  408   0.136   1.588  11.078  0.5009  2.0755  0.9935
   26MPD2    N1  409   0.042   1.203  10.763  0.5600  0.5996  0.2822
   26MPD2    H7  410   0.055   1.158  10.673  1.2786  2.3181 -0.4670
   27TMC2    C1  411   4.238   3.733  12.068  0.0281  0.2813 -0.1349
   27TMC2    C2  412   4.234   3.814  11.963  0.6336 -0.0783 -0.3416
   27TMC2    C3  413   4.278   3.943  11.969 -0.3707 -0.1098 -0.2151
   27TMC2    C4  414   4.287   3.773  12.192  0.3639  0.0983 -0.8841
   27TMC2    C5  415   4.324   3.909  12.190 -0.1226  0.3533 -0.6398
   27TMC2    C6  416   4.318   3.997  12.084 -0.0688  0.4704 -0.0373
   27TMC2     C  417   4.136   3.633  12.057  0.3524  0.9484 -0.4008
   27TMC2     O  418   4.144   3.559  11.958  0.2818  0.0613  0.3651
   27TMC2     H  419   4.202   3.783  11.864 -0.4546  1.9024 -0.6065
   27TMC2    H1  420   4.291   3.707  12.277  0.4992  1.4277  0.1437
   27TMC2    H2  421   4.361   4.096  12.089 -0.4312  0.7564 -2.4892
   27TMC2    C7  422   4.331   3.961  12.328 -0.8399 -0.2098  0.2805
   27TMC2    C8  423   4.301   4.007  11.835 -0.7325 -0.6841 -0.1636
   27TMC2    O1  424   4.339   3.878  12.419  0.2006  0.1148  0.3235
   27TMC2    O2  425   4.228   3.982  11.743  0.4880  0.2952  0.2617
   27TMC2    O5  426   4.421   4.069  11.833  0.4953 -0.1853 -0.0870
   27TMC2    H5  427   4.471   4.048  11.915  1.9827 -0.4891 -1.0584
   28MPD2     C  428   3.678   3.435  12.210 -0.4416  0.0209 -0.0747
   28MPD2    C1  429   3.694   3.556  12.279  0.2052  0.8548 -0.2934
   28MPD2    C2  430   3.811   3.625  12.251  0.0099 -0.3330 -0.4904
   28MPD2    C3  431   3.911   3.581  12.168  0.0152 -0.2156  0.0963
   28MPD2    C4  432   3.877   3.480  12.084 -0.0861  0.6078 -0.0215
   28MPD2    C5  433   3.758   3.409  12.102 -0.3149  0.2422 -0.0752
   28MPD2     H  434   3.835   3.712  12.312  0.8167 -1.0473  0.2196
   28MPD2    H1  435   3.931   3.458  11.993 -0.1701  3.1514 -0.6882
   28MPD2    H2  436   3.593   3.372  12.231  0.5899 -1.6790 -0.9741
   28MPD2    H3  437   3.749   3.319  12.042 -2.8629 -0.2910  1.1218
   28MPD2     N  438   4.034   3.648  12.154  0.5544 -0.6960  0.2848
   28MPD2    H5  439   4.047   3.725  12.219 -1.5169  1.2762 -1.6255
   28MPD2    N1  440   3.594   3.593  12.369  0.5512 -0.6217 -0.5286
   28MPD2    H7  441   3.522   3.523  12.383  0.8664 -1.0220 -0.9214
   29MPD2     C  442   3.303   0.872  14.339 -0.1885 -0.5970 -0.2030
   29MPD2    C1  443   3.376   0.852  14.453  0.5422  0.1389 -0.2967
   29MPD2    C2  444   3.409   0.964  14.535 -0.1401 -0.9004  0.3559
   29MPD2    C3  445   3.367   1.088  14.485  0.6083  0.5419 -0.3264
   29MPD2    C4  446   3.286   1.097  14.374  0.5282 -0.4494 -0.3616
   29MPD2    C5  447   3.259   0.992  14.295 -0.2054  0.2049  0.1710
   29MPD2     H  448   3.473   0.942  14.620  0.3047  1.1702  0.5481
   29MPD2    H1  449   3.240   1.192  14.350  1.1617  0.3088  1.3551
   29MPD2    H2  450   3.281   0.785  14.279  0.0286  0.2942 -1.5765
   29MPD2    H3  451   3.205   1.003  14.202 -1.9982 -0.5724  1.1293
   29MPD2     N  452   3.390   1.215  14.546 -0.1940  0.4993  0.4015
   29MPD2    H5  453   3.341   1.289  14.498 -0.5968 -1.9701 -3.0161
   29MPD2    N1  454   3.433   0.723  14.480 -0.6212 -0.4186  0.2791
   29MPD2    H7  455   3.512   0.721  14.544 -0.4677  0.4577  0.1118
   30TCq2    C1  456   3.464   1.232  14.658 -0.2862 -0.7103  0.0544
   30TCq2    O2  457   3.524   1.160  14.739 -0.2853  0.2056 -0.3585
   30TCq2    C2  458   3.481   1.372  14.689  0.2009  0.0072 -0.7624
   30TCq2    C3  459   3.521   1.399  14.817  0.0456  0.2809 -0.7602
   30TCq2    C4  460   3.567   1.522  14.838 -0.3305 -0.4367 -0.5643
   30TCq2    C5  461   3.575   1.622  14.744 -0.8377 -0.5062 -0.4155
   30TCq2    C6  462   3.541   1.581  14.612  0.0526 -0.2965  0.0657
   30TCq2    C7  463   3.483   1.463  14.585  0.5032  0.4298 -0.2898
   30TCq2    C8  464   3.518   1.677  14.505 -0.3755  0.2745  0.8019
   30TCq2    O4  465   3.434   1.658  14.417 -0.5095  0.6914 -0.5592
   30TCq2    C9  466   3.621   1.554  14.965 -0.1214  0.8133  0.6245
   30TCq2    O5  467   3.607   1.476  15.061  0.3266 -0.3683  1.1176
   30TCq2    O6  468   3.651   1.674  14.985 -0.6506  0.0647 -0.7106
   30TCq2    H2  469   3.515   1.318  14.889 -0.7651  3.1309  2.3654
   30TCq2    H3  470   3.619   1.719  14.760  1.0606 -1.1992 -1.4150
   30TCq2    H4  471   3.468   1.441  14.480 -0.7240  2.4775 -0.5384
   31MPD2     C  472   1.614   4.599  14.890  0.1984  0.0159  0.4453
   31MPD2    C1  473   1.497   4.667  14.877 -0.0348 -0.6297 -0.1256
   31MPD2    C2  474   1.402   4.671  14.983  0.0032 -0.5227 -0.4917
   31MPD2    C3  475   1.432   4.598  15.100 -0.8427  0.5585 -0.7404
   31MPD2    C4  476   1.551   4.530  15.107  0.2669 -0.2055  0.3953
   31MPD2    C5  477   1.638   4.527  15.005 -1.0616 -0.7822  0.1594
   31MPD2     H  478   1.309   0.006  14.972  0.9081  1.1114  0.1144
   31MPD2    H1  479   1.585   4.482  15.198  0.3743 -0.8051  0.0372
   31MPD2    H2  480   1.681   4.585  14.806  0.8087 -1.2139  1.1365
   31MPD2    H3  481   1.729   4.469  15.013 -0.6241 -0.1083  0.0905
   31MPD2     N  482   1.344   4.590  15.213 -0.0411 -0.4323 -0.6111
   31MPD2    H5  483   1.389   4.539  15.289  0.8458 -0.1457 -0.9448
   31MPD2    N1  484   1.471   0.025  14.759 -0.2200 -0.9743 -0.4417
   31MPD2    H7  485   1.548   0.035  14.694 -0.2699 -2.6759 -0.7661
   32TCq2    C1  486   1.231   4.665  15.231 -0.3822 -0.3826 -0.4262
   32TCq2    O2  487   1.186   0.030  15.155 -0.4194  0.6463  0.0504
   32TCq2    C2  488   1.139   4.602  15.325  0.4108 -0.1352 -0.6504
   32TCq2    C3  489   1.004   4.622  15.311  0.2008 -0.2688  0.2241
   32TCq2    C4  490   0.907   4.584  15.403 -1.0630 -0.5813 -0.1806
   32TCq2    C5  491   0.949   4.501  15.504  0.0856 -0.4398 -0.0742
   32TCq2    C6  492   1.082   4.464  15.509  0.4848 -0.2788  0.2580
   32TCq2    C7  493   1.185   4.515  15.424 -0.5876 -0.2806 -0.1518
   32TCq2    C8  494   1.124   4.407  15.630 -0.2987 -0.6917  0.0185
   32TCq2    O4  495   1.241   4.368  15.631 -0.5048 -0.0623  0.9252
   32TCq2    C9  496   0.765   4.622  15.387  0.7354  0.1409 -0.0706
   32TCq2    O5  497   0.702   4.640  15.495  0.7362  0.0931  0.5845
   32TCq2    O6  498   0.718   4.641  15.274 -0.3566 -0.4176  0.0158
   32TCq2    H2  499   0.972   4.667  15.218 -0.5913 -0.0116  0.6240
   32TCq2    H3  500   0.867   4.451  15.554 -0.3163  1.2609  0.9740
   32TCq2    H4  501   1.289   4.496  15.446 -0.7711 -1.9168 -0.6895
   33MPD2     C  502   0.926   2.171   9.998 -0.0567  0.5359 -0.4762
   33MPD2    C1  503   1.012   2.172  10.105  0.1853  0.1133 -0.8525
   33MPD2    C2  504   1.143   2.150  10.072  0.1076  0.2091  0.1503
   33MPD2    C3  505   1.180   2.134   9.937 -0.4662  0.1304  0.1909
   33MPD2    C4  506   1.089   2.114   9.838 -0.2512  0.2107  0.1949
   33MPD2    C5  507   0.956   2.143   9.870  0.0543 -0.7969  0.2044
   33MPD2     H  508   1.216   2.162  10.152 -1.3556 -0.6855  1.6319
   33MPD2    H1  509   1.118   2.092   9.736 -3.1667 -1.3471 -0.3009
   33MPD2    H2  510   0.824   2.203  10.017 -0.4794 -1.2935  0.3251
   33MPD2    H3  511   0.873   2.141   9.800 -1.3146  1.1865  1.7615
   33MPD2     N  512   1.315   2.120   9.896  0.0425 -0.2947 -0.2322
   33MPD2    H5  513   1.326   2.080   9.803  0.5311  1.4858 -0.9449
   33MPD2    N1  514   0.977   2.189  10.236 -0.0173 -0.5675 -0.0273
   33MPD2    H7  515   1.048   2.202  10.308 -1.6235  2.1231  1.0671
   34TCq2    C1  516   1.422   2.160   9.972  0.5167  0.4291 -0.1550
   34TCq2    O2  517   1.422   2.240  10.064 -0.1982 -0.6745  0.2390
   34TCq2    C2  518   1.550   2.133   9.910  0.5696  1.3138  0.0601
   34TCq2    C3  519   1.552   2.051   9.796 -0.0892 -0.1451  0.1131
   34TCq2    C4  520   1.647   2.075   9.707  0.4719 -0.1620 -0.1630
   34TCq2    C5  521   1.743   2.175   9.717 -0.1085 -0.0147 -0.4659
   34TCq2    C6  522   1.738   2.255   9.834  0.3949 -0.0624  0.8102
   34TCq2    C7  523   1.645   2.236   9.936 -0.3708  0.4261  0.1602
   34TCq2    C8  524   1.817   2.377   9.830 -0.0596 -0.1145 -0.3492
   34TCq2    O4  525   1.836   2.434   9.725  0.7791 -0.2800 -0.2225
   34TCq2    C9  526   1.639   2.009   9.584 -0.3163 -0.4683 -0.3885
   34TCq2    O5  527   1.541   1.930   9.567  0.6232 -0.1523 -0.2695
   34TCq2    O6  528   1.736   2.016   9.505 -0.0917  0.7289 -0.2419
   34TCq2    H2  529   1.472   1.980   9.780 -0.3389 -0.0558  0.9327
   34TCq2    H3  530   1.817   2.200   9.643  1.6122 -3.2561  0.1581
   34TCq2    H4  531   1.638   2.307  10.018 -2.0993  0.1032  0.2863
   35MPD2     C  532   2.970   4.477  11.879 -0.4413 -0.1076 -0.4341
   35MPD2    C1  533   2.961   4.338  11.878 -0.1210 -0.7314 -0.5066
   35MPD2    C2  534   2.895   4.273  11.774 -0.3032 -0.3932 -0.2462
   35MPD2    C3  535   2.825   4.353  11.678  0.7735 -0.3987  0.0410
   35MPD2    C4  536   2.847   4.489  11.679  0.5670 -0.4320 -0.6008
   35MPD2    C5  537   2.921   4.551  11.777  0.0391 -0.2366  0.4813
   35MPD2     H  538   2.891   4.165  11.768 -2.3167 -0.2525 -1.5211
   35MPD2    H1  539   2.808   4.551  11.599 -3.2032 -0.5690  1.1224
   35MPD2    H2  540   3.018   4.535  11.957 -1.9505 -1.0331  1.2074
   35MPD2    H3  541   2.935   4.659  11.775  0.9694 -0.3729 -0.4637
   35MPD2     N  542   2.748   4.287  11.580  0.6103 -0.1950  0.3770
   35MPD2    H5  543   2.755   4.186  11.585 -0.5518 -0.1344  2.9316
   35MPD2    N1  544   3.023   4.277  11.988  0.5710  0.0302  0.2759
   35MPD2    H7  545   3.056   4.338  12.062  0.9184  0.7991 -0.5244
   36TCq2    C1  546   2.681   4.345  11.476  0.3134 -0.0560  0.4890
   36TCq2    O2  547   2.680   4.461  11.433 -0.3119  0.5451 -0.5788
   36TCq2    C2  548   2.599   4.245  11.403 -0.5318 -1.2048 -0.0496
   36TCq2    C3  549   2.563   4.280  11.274  0.1158 -0.9164  1.0027
   36TCq2    C4  550   2.494   4.190  11.202 -0.2328  0.0353 -0.5403
   36TCq2    C5  551   2.447   4.075  11.258  0.7147 -0.4906  0.6931
   36TCq2    C6  552   2.479   4.040  11.388  0.9724 -0.0663  0.0460
   36TCq2    C7  553   2.553   4.134  11.462 -0.3443  0.0350 -0.1100
   36TCq2    C8  554   2.424   3.913  11.436 -0.5072  0.5303 -0.0208
   36TCq2    O4  555   2.362   3.842  11.355 -0.0062 -0.7222 -0.4098
   36TCq2    C9  556   2.467   4.218  11.060  0.4870  0.4852  0.2260
   36TCq2    O5  557   2.371   4.151  11.015  0.1783 -0.3651 -0.3860
   36TCq2    O6  558   2.500   4.334  11.019  0.6631 -0.3210 -0.0481
   36TCq2    H2  559   2.596   4.371  11.225  1.2230 -0.9078  1.7599
   36TCq2    H3  560   2.383   4.015  11.194 -1.6577  2.1077  0.6422
   36TCq2    H4  561   2.554   4.116  11.569  1.8536 -1.1796 -0.3451
   37TMC2    C1  562   0.300   2.932  11.749 -0.0643  0.5145 -0.5185
   37TMC2    C2  563   0.323   2.800  11.752 -1.6291  0.1684 -0.3815
   37TMC2    C3  564   0.449   2.762  11.721 -1.0311  0.1388 -0.1410
   37TMC2    C4  565   0.393   3.029  11.722 -0.3066 -0.2047 -0.1984
   37TMC2    C5  566   0.523   2.986  11.685 -1.1006 -0.0081  0.1694
   37TMC2    C6  567   0.549   2.845  11.672  0.4129 -1.0489 -0.0936
   37TMC2     C  568   0.159   2.972  11.764  0.0288 -0.5457 -0.4536
   37TMC2     O  569   0.077   2.888  11.733 -0.4451  0.2620 -0.0704
   37TMC2     H  570   0.255   2.723  11.787 -3.4305  1.1563 -1.7131
   37TMC2    H1  571   0.364   3.133  11.734  3.6278  0.6240  1.9939
   37TMC2    H2  572   0.633   2.808  11.614  0.4993 -2.8254  1.1514
   37TMC2    C7  573   0.631   3.083  11.664  0.1680 -0.0828 -0.2408
   37TMC2    C8  574   0.492   2.623  11.729 -0.1725 -0.4528  0.1251
   37TMC2    O1  575   0.604   3.200  11.689  0.2876 -0.1276  0.5720
   37TMC2    O2  576   0.565   2.568  11.647 -0.4194  0.2513  0.4668
   37TMC2    O5  577   0.454   2.564  11.844  0.7128  0.4172  0.0150
   37TMC2    H5  578   0.395   2.615  11.904  0.8696 -0.7257  1.1552
   38MPD2     C  579   4.515   3.319  11.889 -0.0883  0.0032  0.5814
   38MPD2    C1  580   4.631   3.353  11.949  0.1581  0.3483 -0.3615
   38MPD2    C2  581   0.034   3.288  11.923 -0.7822  0.3617  0.1280
   38MPD2    C3  582   0.024   3.169  11.844 -0.1881  0.5528  0.1798
   38MPD2    C4  583   4.619   3.133  11.784  0.3735  0.7261  0.5832
   38MPD2    C5  584   4.515   3.220  11.791 -0.0882  0.4397 -0.0241
   38MPD2     H  585   0.127   3.306  11.976 -2.3078  2.1241  2.1748
   38MPD2    H1  586   4.612   3.042  11.725 -2.5555  1.0258  0.4723
   38MPD2    H2  587   4.424   3.378  11.900 -1.2846 -2.0379  1.7014
   38MPD2    H3  588   4.423   3.188  11.743  1.7431  0.1693 -3.3699
   38MPD2     N  589   0.145   3.095  11.826 -0.3403  0.0894  0.9626
   38MPD2    H5  590   0.231   3.133  11.865 -0.7263 -0.0273  1.9361
   38MPD2    N1  591   4.636   3.459  12.049  0.9367 -0.4815  0.1812
   38MPD2    H7  592   0.007   3.472  12.094  0.5937  4.5485 -0.6028
   39MPD2     C  593   3.147   0.137   1.871 -1.0025  0.0967  0.0054
   39MPD2    C1  594   3.184   0.093   1.747  0.4076  0.0955 -0.1347
   39MPD2    C2  595   3.103   0.124   1.639  0.3030 -0.3505 -0.1839
   39MPD2    C3  596   2.981   0.187   1.658  0.1314 -0.5825 -0.3339
   39MPD2    C4  597   2.940   0.219   1.786 -0.1694  0.5401  0.0489
   39MPD2    C5  598   3.016   0.181   1.895 -0.7733 -0.4157 -0.1260
   39MPD2     H  599   3.135   0.114   1.536  2.4541  1.7723  0.2584
   39MPD2    H1  600   2.844   0.266   1.804  0.9299  3.5946 -2.2321
   39MPD2    H2  601   3.206   0.136   1.962  0.0208  0.0644 -0.6659
   39MPD2    H3  602   2.991   0.215   1.995  0.0894  1.8413 -0.6772
   39MPD2     N  603   2.901   0.237   1.558  0.8991  0.6883  0.2404
   39MPD2    H5  604   2.813   0.277   1.590 -0.5257 -1.4589 -1.0365
   39MPD2    N1  605   3.301   0.018   1.738  0.1083 -0.1814  0.3916
   39MPD2    H7  606   3.336   0.004   1.833  0.1178 -1.6340  0.1592
   40TCq2    C1  607   3.360   4.677   1.629 -0.4440  0.8121  0.7342
   40TCq2    O2  608   3.338   4.691   1.510  0.2037  0.5462  0.2024
   40TCq2    C2  609   3.480   4.596   1.660  0.4708 -0.3354 -0.3391
   40TCq2    C3  610   3.488   4.530   1.775 -0.4532  0.6375  0.0195
   40TCq2    C4  611   3.606   4.477   1.820  0.1982 -0.6598 -0.6597
   40TCq2    C5  612   3.720   4.490   1.744 -0.7273  0.3021  0.0151
   40TCq2    C6  613   3.717   4.550   1.618 -0.0189 -0.1004  0.0661
   40TCq2    C7  614   3.594   4.601   1.578 -0.4242 -0.1246 -0.1861
   40TCq2    C8  615   3.840   4.574   1.545  0.5156  0.2490  0.4102
   40TCq2    O4  616   3.932   4.508   1.581 -0.0250  0.2269  0.0142
   40TCq2    C9  617   3.610   4.385   1.932  0.0500 -0.1620 -0.0595
   40TCq2    O5  618   3.701   4.303   1.918 -0.0254  0.2631 -0.0127
   40TCq2    O6  619   3.497   4.367   1.986  0.0263 -0.1448  0.1722
   40TCq2    H2  620   3.403   4.525   1.842 -0.5687  0.4033 -0.1422
   40TCq2    H3  621   3.809   4.441   1.780 -0.2555  0.2706 -1.1791
   40TCq2    H4  622   3.569   4.656   1.487  2.8028  1.2002 -0.2747
   41TMC2    C1  623   2.427   4.097  13.732  0.0314  0.4013 -0.1306
   41TMC2    C2  624   2.303   4.087  13.779  0.1116  1.0719 -0.2365
   41TMC2    C3  625   2.209   4.150  13.699  0.9112 -0.0527  0.5243
   41TMC2    C4  626   2.469   4.150  13.613  0.6725 -0.0553  0.0625
   41TMC2    C5  627   2.369   4.210  13.541  0.1977 -0.4667 -0.0191
   41TMC2    C6  628   2.245   4.213  13.584 -0.0931  1.0963 -0.3428
   41TMC2     C  629   2.529   4.015  13.799  0.0471 -0.5562 -0.7381
   41TMC2     O  630   2.616   3.968  13.728 -0.0194 -0.4528  0.4593
   41TMC2     H  631   2.263   4.013  13.847 -0.5558  1.4136 -0.2517
   41TMC2    H1  632   2.574   4.149  13.590 -0.2667  0.9257 -4.1991
   41TMC2    H2  633   2.169   4.259  13.521 -1.3081 -0.3911  0.0343
   41TMC2    C7  634   2.403   4.269  13.417  0.0737 -0.3727  0.0698
   41TMC2    C8  635   2.072   4.163  13.739  0.0898 -0.7519  0.6576
   41TMC2    O1  636   2.324   4.349  13.376  0.1572  0.3117  0.3225
   41TMC2    O2  637   1.988   4.174  13.653 -0.1127 -0.2299 -0.4505
   41TMC2    O5  638   2.060   4.130  13.867  0.3042 -0.6038 -0.1313
   41TMC2    H5  639   2.143   4.159  13.911 -0.5914  1.3674  0.2517
   42MPD2     C  640   2.690   3.847  13.995 -0.3651 -0.2656  0.3899
   42MPD2    C1  641   2.577   3.918  14.026 -0.1339  0.0055  0.2338
   42MPD2    C2  642   2.521   3.906  14.153 -0.0247  0.1254 -0.5726
   42MPD2    C3  643   2.575   3.825  14.248 -0.7418  0.8932  1.3024
   42MPD2    C4  644   2.689   3.754  14.220  0.0870  0.4777 -0.0172
   42MPD2    C5  645   2.748   3.765  14.093  0.0463  0.0682  0.1282
   42MPD2     H  646   2.439   3.972  14.181  1.1372  1.4191 -0.2089
   42MPD2    H1  647   2.726   3.672  14.280 -1.1995 -0.9882 -1.2131
   42MPD2    H2  648   2.740   3.851  13.900  1.1023  0.7420  1.2052
   42MPD2    H3  649   2.834   3.712  14.053 -1.8085 -2.0390 -1.0173
   42MPD2     N  650   2.523   3.802  14.379 -0.2351 -0.0098  0.1325
   42MPD2    H5  651   2.581   3.749  14.443  1.1192  0.5228 -0.6339
   42MPD2    N1  652   2.506   4.002  13.937 -0.5093 -0.6121 -0.1622
   42MPD2    H7  653   2.418   4.044  13.965 -0.1701 -0.8021  1.1754
   43MPD2     C  654   3.572   1.345   0.959  0.2647  0.3077  0.0366
   43MPD2    C1  655   3.639   1.237   1.021 -0.1395 -0.1266  0.0492
   43MPD2    C2  656   3.602   1.204   1.148 -0.4094  0.3397 -0.3624
   43MPD2    C3  657   3.520   1.277   1.233 -0.0368  0.0560 -0.6097
   43MPD2    C4  658   3.452   1.378   1.175 -0.4302 -0.2852 -0.5372
   43MPD2    C5  659   3.475   1.404   1.040  0.5650  1.3393  0.1257
   43MPD2     H  660   3.651   1.119   1.192  1.7353  2.1628  0.7669
   43MPD2    H1  661   3.376   1.433   1.230  3.1297  3.6445  0.5037
   43MPD2    H2  662   3.591   1.381   0.858 -1.4774 -1.1351 -0.7963
   43MPD2    H3  663   3.410   1.479   0.996  2.0469  1.9657 -1.0098
   43MPD2     N  664   3.504   1.255   1.372  0.1089  0.6918  0.8010
   43MPD2    H5  665   3.426   1.302   1.417 -0.6369  0.2171  0.0165
   43MPD2    N1  666   3.738   1.162   0.950  0.5381  0.1261  0.7359
   43MPD2    H7  667   3.761   1.070   0.987  0.1014 -0.4340 -0.3664
   44TCq2    C1  668   3.426   0.870   1.820 -0.1298  0.0604 -0.7775
   44TCq2    O2  669   3.465   0.773   1.755  0.2641 -0.4229 -0.0716
   44TCq2    C2  670   3.454   1.009   1.768 -0.2010  1.1934 -0.5686
   44TCq2    C3  671   3.373   1.113   1.821  0.2166  0.3490 -0.3524
   44TCq2    C4  672   3.378   1.231   1.756  0.2388 -0.7955 -0.5526
   44TCq2    C5  673   3.438   1.253   1.633 -0.4718  0.0351  0.6238
   44TCq2    C6  674   3.498   1.142   1.577 -0.2988  0.0995 -0.0637
   44TCq2    C7  675   3.507   1.021   1.643 -0.3961 -0.1556 -0.4289
   44TCq2    C8  676   3.558   1.148   1.447 -0.5362  0.8512 -0.0094
   44TCq2    O4  677   3.615   1.046   1.413  0.1401  0.1557 -0.2542
   44TCq2    C9  678   3.307   1.339   1.814 -0.0759  0.1522  0.3489
   44TCq2    O5  679   3.345   1.458   1.785 -0.0040  0.6399  0.4854
   44TCq2    O6  680   3.227   1.321   1.904 -0.4022 -0.8529  0.6495
   44TCq2    H2  681   3.328   1.119   1.919 -0.3852  0.6361 -0.6461
   44TCq2    H3  682   3.430   1.351   1.589  0.4353 -0.6864 -1.1362
   44TCq2    H4  683   3.558   0.938   1.594 -0.5546 -1.2191  1.1919
   45TMC2    C1  684   4.151   3.666   9.564 -0.4510  0.1659 -1.3301
   45TMC2    C2  685   4.251   3.576   9.583 -0.3772 -0.4057 -0.2387
   45TMC2    C3  686   4.366   3.613   9.640  0.2179  0.1932  0.4235
   45TMC2    C4  687   4.162   3.796   9.601  0.2993 -0.4858 -0.1118
   45TMC2    C5  688   4.278   3.826   9.664  0.4661 -1.0232 -0.3463
   45TMC2    C6  689   4.386   3.740   9.677 -0.7436  0.3657  0.3024
   45TMC2     C  690   4.015   3.611   9.545 -0.8582  0.9854 -0.0284
   45TMC2     O  691   4.012   3.489   9.544  0.0624 -0.0791 -0.3519
   45TMC2     H  692   4.244   3.470   9.560  2.4878 -0.8432  0.8740
   45TMC2    H1  693   4.081   3.862   9.632 -0.4101 -0.0014 -3.0503
   45TMC2    H2  694   4.483   3.769   9.715  0.4097  1.4709 -3.3980
   45TMC2    C7  695   4.306   3.961   9.718 -0.1226 -0.5185 -0.0173
   45TMC2    C8  696   4.476   3.516   9.631  0.3357  0.9916  0.1146
   45TMC2    O1  697   4.400   3.978   9.792  0.5449  0.1290 -0.1524
   45TMC2    O2  698   4.479   3.430   9.542 -0.5865 -0.1890 -0.2852
   45TMC2    O5  699   4.529   3.520   9.756 -0.5253  0.0558 -0.0772
   45TMC2    H5  700   4.483   3.575   9.823 -1.8545  1.4604 -2.1632
   46MPD2     C  701   3.721   3.554   9.553 -0.6977 -0.0756 -0.3205
   46MPD2    C1  702   3.775   3.673   9.512 -0.2896  0.0443  0.2574
   46MPD2    C2  703   3.693   3.774   9.468 -0.2781 -0.5491 -0.3804
   46MPD2    C3  704   3.558   3.752   9.445  0.2719  0.1824  1.1854
   46MPD2    C4  705   3.505   3.634   9.490  0.0200 -0.5574  0.1641
   46MPD2    C5  706   3.585   3.538   9.536  0.0998 -0.0895  0.1672
   46MPD2     H  707   3.726   3.870   9.429  1.6685 -0.0899  2.3378
   46MPD2    H1  708   3.399   3.608   9.491 -0.0539 -0.2592 -1.5069
   46MPD2    H2  709   3.776   3.485   9.618 -1.3200 -0.6902 -0.4526
   46MPD2    H3  710   3.531   3.453   9.577 -0.3481  0.4366  0.6615
   46MPD2     N  711   3.489   3.852   9.369  0.2581  0.3882 -0.3994
   46MPD2    H5  712   3.544   3.936   9.355  1.3306 -0.3897 -0.7859
   46MPD2    N1  713   3.915   3.702   9.516  0.9009 -0.1351  0.1741
   46MPD2    H7  714   3.945   3.798   9.504 -2.6460  1.0532  0.8461
   47TMC2    C1  715   1.481   0.107   9.631 -0.8802 -0.4634 -0.2676
   47TMC2    C2  716   1.534   0.089   9.507 -0.1078  0.0373  0.1070
   47TMC2    C3  717   1.450   0.059   9.401  0.4563 -0.4596 -0.3896
   47TMC2    C4  718   1.352   0.128   9.655 -0.3911  0.0065 -0.3770
   47TMC2    C5  719   1.272   0.101   9.548  0.7472  0.3449  0.2872
   47TMC2    C6  720   1.317   0.076   9.424 -0.1866 -0.1810 -0.2613
   47TMC2     C  721   1.574   0.128   9.738 -0.4637 -0.1897 -0.5330
   47TMC2     O  722   1.538   0.184   9.839 -0.0741 -0.6803 -0.3248
   47TMC2     H  723   1.639   0.078   9.484 -0.1566 -0.1722 -0.0152
   47TMC2    H1  724   1.307   0.153   9.750 -0.7134 -1.7403 -0.0690
   47TMC2    H2  725   1.242   0.043   9.354 -1.8383  0.2702  1.3039
   47TMC2    C7  726   1.131   0.082   9.572 -0.9434  0.6561 -0.5978
   47TMC2    C8  727   1.496   0.139   9.287  0.0413  0.1451  0.5215
   47TMC2    O1  728   1.061   0.115   9.480  0.4876 -0.2556  0.2381
   47TMC2    O2  729   1.549   0.251   9.312 -0.6039  0.3669  0.4359
   47TMC2    O5  730   1.400   0.111   9.195 -0.1627 -0.4606 -0.2822
   47TMC2    H5  731   1.394   0.015   9.174  1.0373 -0.3247 -1.2573
   48MPD2     C  732   1.829   0.144   9.888 -0.4940  0.1652 -0.4279
   48MPD2    C1  733   1.806   0.059   9.784  0.4693  0.4973 -0.4581
   48MPD2    C2  734   1.897   4.682   9.741  0.7592 -0.0841 -0.0087
   48MPD2    C3  735   2.007   4.660   9.823 -0.0015  0.6502  0.3254
   48MPD2    C4  736   2.035   0.029   9.928 -0.5517 -0.8963 -0.1915
   48MPD2    C5  737   1.952   0.142   9.953  0.4542 -0.1560  0.3421
   48MPD2     H  738   1.889   4.618   9.654 -0.3742  0.6761 -0.4574
   48MPD2    H1  739   2.109   0.019  10.007 -0.1493 -0.0140 -0.4501
   48MPD2    H2  740   1.753   0.221   9.900 -1.4121 -0.6927 -0.7211
   48MPD2    H3  741   1.970   0.216  10.030 -0.0033  1.6275 -1.2748
   48MPD2     N  742   2.068   4.532   9.807  0.1646  0.1136 -0.3657
   48MPD2    H5  743   2.026   4.471   9.737  0.2068 -0.3870  0.0481
   48MPD2    N1  744   1.691   0.060   9.708  0.1893 -0.1302  0.0546
   48MPD2    H7  745   1.682   4.716   9.629 -0.0144 -0.5491  0.4164
   49MPD2     C  746   4.541   1.759  10.079 -0.2280 -0.6164 -0.1779
   49MPD2    C1  747   4.433   1.672  10.094  0.2183  0.4838  0.1564
   49MPD2    C2  748   4.414   1.609  10.215  0.2443  0.1024  0.3245
   49MPD2    C3  749   4.502   1.636  10.322  0.4365 -0.8116  0.2615
   49MPD2    C4  750   4.608   1.725  10.300  0.2782 -0.4627 -0.4035
   49MPD2    C5  751   4.624   1.788  10.183 -0.1544  0.1567  0.0833
   49MPD2     H  752   4.325   1.548  10.222 -1.3826  2.3847 -0.2909
   49MPD2    H1  753   4.680   1.743  10.379 -1.6016  1.8073  0.8130
   49MPD2    H2  754   4.554   1.818   9.989  2.8358 -1.9640 -0.6040
   49MPD2    H3  755   4.708   1.856  10.175 -0.8631  1.0297  0.0994
   49MPD2     N  756   4.489   1.577  10.449  0.6340  0.3880 -0.3505
   49MPD2    H5  757   4.543   1.612  10.528 -0.8050 -1.9332  1.6623
   49MPD2    N1  758   4.351   1.625   9.983 -0.1265  0.5262  0.1206
   49MPD2    H7  759   4.287   1.550  10.007 -1.0880  0.1032 -3.7813
   50TCq2    C1  760   4.349   1.679   9.852  0.6858 -0.0872 -0.0728
   50TCq2    O2  761   4.427   1.758   9.799 -0.2850  0.0903  0.1700
   50TCq2    C2  762   4.233   1.639   9.768  0.5568  0.2527 -0.2895
   50TCq2    C3  763   4.206   1.711   9.660 -0.0203 -0.2735  0.5691
   50TCq2    C4  764   4.118   1.666   9.560  0.1145 -0.2894  0.1631
   50TCq2    C5  765   4.052   1.551   9.584 -0.2809 -0.5783  0.1520
   50TCq2    C6  766   4.080   1.480   9.693  0.6794  0.1005  0.4016
   50TCq2    C7  767   4.170   1.518   9.793  0.6238  0.4412 -0.2854
   50TCq2    C8  768   4.037   1.344   9.710 -0.2906  0.2835 -0.6851
   50TCq2    O4  769   4.055   1.289   9.816 -0.0224 -0.8553  0.0426
   50TCq2    C9  770   4.101   1.744   9.442  0.5112 -0.0366  0.4069
   50TCq2    O5  771   4.157   1.861   9.444 -0.3349  0.2347 -0.7703
   50TCq2    O6  772   4.029   1.702   9.351  0.5209  0.5171 -0.0080
   50TCq2    H2  773   4.260   1.803   9.639  0.9728 -1.0551 -0.3107
   50TCq2    H3  774   3.980   1.529   9.507 -0.2189  1.0597 -0.3819
   50TCq2    H4  775   4.186   1.457   9.881 -0.3560 -1.1958 -1.2366
   51MPD2     C  776   0.482   0.330   0.767  0.4596 -0.5868 -0.9169
   51MPD2    C1  777   0.476   0.249   0.879  0.0620 -0.5043  0.2582
   51MPD2    C2  778   0.481   0.314   0.998  0.3799  0.1917 -0.2305
   51MPD2    C3  779   0.486   0.456   1.005  0.4886  0.7371  0.3541
   51MPD2    C4  780   0.486   0.528   0.886 -1.2077  0.4149 -0.1299
   51MPD2    C5  781   0.485   0.472   0.767 -0.1258  0.3063  0.1103
   51MPD2     H  782   0.470   0.253   1.087  0.0929 -0.1587 -0.5089
   51MPD2    H1  783   0.500   0.636   0.891  1.3834  0.0376  0.6928
   51MPD2    H2  784   0.460   0.303   0.664 -4.4462  2.8876 -0.8337
   51MPD2    H3  785   0.475   0.525   0.674  2.1215 -2.2268 -1.5820
   51MPD2     N  786   0.487   0.531   1.124 -0.1053 -0.4898 -0.1977
   51MPD2    H5  787   0.463   0.629   1.114  1.9755  0.3593  3.1242
   51MPD2    N1  788   0.465   0.107   0.871 -0.3146 -0.2746  0.1480
   51MPD2    H7  789   0.434   0.066   0.958  0.9073 -0.2277  0.6030
   52TCq2    C1  790   0.485   0.475   1.248 -0.2321  0.1862 -0.6067
   52TCq2    O2  791   0.497   0.355   1.277  0.3313  0.4570  0.0082
   52TCq2    C2  792   0.458   0.574   1.343 -0.6052  0.1414  0.1532
   52TCq2    C3  793   0.428   0.702   1.304 -0.1596 -0.3453 -0.1196
   52TCq2    C4  794   0.448   0.807   1.389 -0.1581 -0.1786 -0.5550
   52TCq2    C5  795   0.497   0.784   1.516  0.3666 -0.7247 -0.0804
   52TCq2    C6  796   0.533   0.655   1.556 -0.2022 -0.4599 -0.6999
   52TCq2    C7  797   0.511   0.547   1.467 -0.4016  0.3134  0.2779
   52TCq2    C8  798   0.627   0.643   1.652  0.1241  0.0289 -0.2589
   52TCq2    O4  799   0.696   0.740   1.678 -0.6920 -0.3425  0.3674
   52TCq2    C9  800   0.397   0.936   1.353 -0.2954 -1.0113 -0.1234
   52TCq2    O5  801   0.443   1.035   1.414 -0.2251  0.6581  0.4572
   52TCq2    O6  802   0.289   0.930   1.293 -0.1869  0.1442 -0.1564
   52TCq2    H2  803   0.392   0.728   1.205 -1.4786  2.8859  1.2045
   52TCq2    H3  804   0.520   0.869   1.579 -1.8406 -0.2847  0.1464
   52TCq2    H4  805   0.568   0.456   1.478 -0.2930  0.4609  0.9977
   53TMC2    C1  806   1.062   3.660  11.648  0.2920 -0.0699  0.5288
   53TMC2    C2  807   1.153   3.744  11.591  0.5580 -0.5942 -0.4570
   53TMC2    C3  808   1.123   3.874  11.582  0.2578  0.1509  1.0791
   53TMC2    C4  809   0.944   3.707  11.694  0.0332 -0.6701 -0.4083
   53TMC2    C5  810   0.916   3.843  11.680  0.4543 -0.4308 -0.3379
   53TMC2    C6  811   1.007   3.925  11.616  0.1261  0.3285  0.0764
   53TMC2     C  812   1.104   3.521  11.653  0.3959  0.1989 -0.0437
   53TMC2     O  813   1.223   3.500  11.671  0.1472 -0.1128 -0.0096
   53TMC2     H  814   1.247   3.704  11.556 -0.1055 -3.4093  1.0245
   53TMC2    H1  815   0.869   3.650  11.748  0.3903 -0.4491  0.3158
   53TMC2    H2  816   0.985   4.028  11.589  2.8138  1.5740  2.5572
   53TMC2    C7  817   0.830   3.888  11.785 -0.3665  0.3478  0.6379
   53TMC2    C8  818   1.223   3.947  11.502  0.0240  0.5306 -0.2978
   53TMC2    O1  819   0.746   3.813  11.832 -0.0307 -0.8155  0.1931
   53TMC2    O2  820   1.257   3.908  11.390  1.0914 -0.2476 -0.0424
   53TMC2    O5  821   1.227   4.072  11.558 -0.0870 -0.1210 -0.1974
   53TMC2    H5  822   1.186   4.065  11.647 -1.2172  0.8338 -0.6525
   54MPD2     C  823   1.120   3.223  11.648  0.0662  0.3562 -0.2890
   54MPD2    C1  824   1.004   3.300  11.660  0.0274 -0.7517  0.3413
   54MPD2    C2  825   0.889   3.234  11.658  0.6423  0.2585 -0.5337
   54MPD2    C3  826   0.881   3.094  11.646 -0.5400  0.2707 -0.1632
   54MPD2    C4  827   0.997   3.025  11.628  1.1252 -0.7423 -0.4431
   54MPD2    C5  828   1.115   3.087  11.631 -1.2967 -0.3194  0.3333
   54MPD2     H  829   0.798   3.292  11.660 -0.3744 -1.3798  0.6373
   54MPD2    H1  830   0.992   2.917  11.624 -0.8986 -0.6510 -0.6390
   54MPD2    H2  831   1.220   3.263  11.656  0.4901 -0.3818 -1.9070
   54MPD2    H3  832   1.206   3.028  11.624  0.6896  3.0196 -1.7157
   54MPD2     N  833   0.755   3.027  11.650  0.3875 -0.6861  0.0945
   54MPD2    H5  834   0.767   2.926  11.646  1.2933 -0.6064  0.9785
   54MPD2    N1  835   0.999   3.438  11.661 -0.0402 -0.4969  0.2751
   54MPD2    H7  836   0.910   3.482  11.645 -1.1045 -3.1150 -0.8936
   55MPD2     C  837   1.768   1.355  17.088 -0.3691  0.5573 -0.0617
   55MPD2    C1  838   1.788   1.318  17.223  0.6399  0.1103  0.3512
   55MPD2    C2  839   1.739   1.400  17.319  0.0668  0.2177  0.2193
   55MPD2    C3  840   1.670   1.518  17.288  0.2433  0.4320 -0.3599
   55MPD2    C4  841   1.642   1.551  17.161 -0.1799  0.1233 -0.2428
   55MPD2    C5  842   1.692   1.470  17.060  0.3821 -0.6160  0.0504
   55MPD2     H  843   1.753   1.377  17.424 -3.1882  0.4554  0.7099
   55MPD2    H1  844   1.585   1.640  17.138  0.1529  0.4338  0.1386
   55MPD2    H2  845   1.800   1.287  17.010  1.2123 -0.0384  1.0971
   55MPD2    H3  846   1.668   1.497  16.958  1.3563  0.6419  0.1570
   55MPD2     N  847   1.630   1.588  17.405  0.7208  0.2705 -0.2818
   55MPD2    H5  848   1.663   1.559  17.496  0.2985  1.9026  0.3924
   55MPD2    N1  849   1.838   1.191  17.248 -0.9891 -0.4004  0.4464
   55MPD2    H7  850   1.891   1.158  17.168 -3.0032  0.2478 -1.1585
   56TCq2    C1  851   1.834   1.125  17.371  0.5283 -0.4622  0.0575
   56TCq2    O2  852   1.774   1.161  17.474 -0.0235  0.2811 -0.0686
   56TCq2    C2  853   1.896   0.996  17.372 -0.2223  0.3491  0.5742
   56TCq2    C3  854   1.946   0.942  17.258 -0.1331  0.4509 -0.2728
   56TCq2    C4  855   2.003   0.819  17.266 -0.6787  0.1707  0.4739
   56TCq2    C5  856   2.017   0.751  17.383 -0.5983  0.2066 -0.1247
   56TCq2    C6  857   1.973   0.817  17.496 -0.9269  0.2730 -0.1431
   56TCq2    C7  858   1.911   0.936  17.493 -0.3038  0.2191  0.0752
   56TCq2    C8  859   1.939   0.729  17.607 -0.3004  0.2000 -0.0356
   56TCq2    O4  860   1.917   0.610  17.587 -0.7210  0.5476 -0.0642
   56TCq2    C9  861   2.033   0.748  17.144 -0.3511 -0.7092  0.0620
   56TCq2    O5  862   2.084   0.631  17.160  0.5094 -0.5333  0.1208
   56TCq2    O6  863   2.016   0.814  17.036  0.4615 -0.1396  0.4390
   56TCq2    H2  864   1.932   0.979  17.157 -0.3316  1.0452 -0.0227
   56TCq2    H3  865   2.050   0.648  17.368 -2.0575 -0.3177  0.2906
   56TCq2    H4  866   1.862   0.981  17.579  1.2630  1.2471  0.4352
   57TMC2    C1  867   1.006   2.924  13.687 -0.3845  0.1710  0.3087
   57TMC2    C2  868   1.073   2.924  13.806 -0.9116  0.2633  0.1412
   57TMC2    C3  869   1.201   2.870  13.820  0.4868 -0.2700 -0.6622
   57TMC2    C4  870   1.070   2.903  13.568 -0.4094 -0.3613  0.3962
   57TMC2    C5  871   1.193   2.855  13.581 -0.3361  0.4193  0.1563
   57TMC2    C6  872   1.264   2.835  13.699  0.0329 -0.2450  0.0010
   57TMC2     C  873   0.862   2.934  13.704  0.1855 -0.2534 -0.0739
   57TMC2     O  874   0.812   2.951  13.812 -0.2831 -0.0354 -0.0727
   57TMC2     H  875   1.025   2.944  13.902 -0.7918 -0.1191  0.2771
   57TMC2    H1  876   1.024   2.910  13.470 -2.1359 -1.0978  1.1420
   57TMC2    H2  877   1.368   2.805  13.703  0.2356  0.0916 -2.6545
   57TMC2    C7  878   1.245   2.775  13.476 -0.3612 -0.9872  0.5229
   57TMC2    C8  879   1.265   2.875  13.955 -0.3032 -0.2283 -0.1807
   57TMC2    O1  880   1.302   2.671  13.511  0.3391 -0.5715  0.1037
   57TMC2    O2  881   1.213   2.948  14.041  0.5437 -0.1855 -0.0762
   57TMC2    O5  882   1.369   2.793  13.970 -0.4187 -0.4886 -0.9768
   57TMC2    H5  883   1.384   2.739  13.889  0.8864 -0.1916 -0.9423
   58MPD2     C  884   0.381   2.933  13.534  1.2626  0.0739  0.4871
   58MPD2    C1  885   0.416   2.922  13.662  0.3556 -0.2103 -0.7895
   58MPD2    C2  886   0.555   2.914  13.683 -0.0651  0.6162 -0.3815
   58MPD2    C3  887   0.652   2.941  13.577  0.1499 -0.3924 -0.2231
   58MPD2    C4  888   0.607   2.953  13.451 -0.1537  0.0549  0.0048
   58MPD2    C5  889   0.475   2.949  13.434 -0.8405  0.4413  0.0429
   58MPD2     H  890   0.586   2.891  13.784 -2.5535 -0.5167  0.1028
   58MPD2    H1  891   0.677   2.962  13.368 -1.7921  0.1262 -1.3903
   58MPD2    H2  892   0.277   2.934  13.504  0.2193  0.2494  4.0922
   58MPD2    H3  893   0.442   2.955  13.331 -0.4062 -2.5366 -0.2556
   58MPD2     N  894   0.791   2.952  13.587  0.1334 -0.0971 -0.0693
   58MPD2    H5  895   0.836   2.975  13.498  1.5828  0.8611  0.8973
   58MPD2    N1  896   0.317   2.915  13.766  0.1566 -0.1820 -0.2916
   58MPD2    H7  897   0.353   2.918  13.861  0.7543 -0.4868 -0.5093
   59MPD2     C  898   3.255   3.026  13.130 -1.0560 -0.6831  0.3552
   59MPD2    C1  899   3.339   3.072  13.033 -0.2547  0.2823  0.0246
   59MPD2    C2  900   3.437   3.157  13.081 -0.1564 -0.2635 -0.0557
   59MPD2    C3  901   3.452   3.190  13.217  0.0452 -0.0367  0.2842
   59MPD2    C4  902   3.363   3.130  13.304 -0.2415  0.1422 -0.5838
   59MPD2    C5  903   3.258   3.053  13.260  0.2311 -0.2607  0.4347
   59MPD2     H  904   3.500   3.203  13.006 -0.8121  0.8060  0.0486
   59MPD2    H1  905   3.364   3.157  13.409  0.8588 -0.9065 -0.3255
   59MPD2    H2  906   3.181   2.952  13.101  1.7751 -3.0662 -0.7564
   59MPD2    H3  907   3.192   3.010  13.335 -2.2262  0.1439 -1.5172
   59MPD2     N  908   3.555   3.271  13.268  0.4199 -0.1633 -0.1766
   59MPD2    H5  909   3.565   3.272  13.369  1.7724  2.2791 -0.3494
   59MPD2    N1  910   3.325   3.040  12.894  0.5602 -0.1642 -0.1947
   59MPD2    H7  911   3.260   2.963  12.878  0.5169  0.0984 -1.3110
   60TCq2    C1  912   3.376   3.107  12.785 -0.4920  0.2263 -0.6049
   60TCq2    O2  913   3.433   3.217  12.777  0.3657 -0.2096  0.1870
   60TCq2    C2  914   3.346   3.041  12.659  0.4183 -0.1838  0.3028
   60TCq2    C3  915   3.303   2.906  12.660  0.0879 -0.1288 -0.1981
   60TCq2    C4  916   3.262   2.857  12.540 -0.0896 -0.2023  0.5829
   60TCq2    C5  917   3.273   2.931  12.426 -0.4774 -0.4256  0.0757
   60TCq2    C6  918   3.301   3.062  12.431  0.3086  0.3841 -0.5078
   60TCq2    C7  919   3.344   3.119  12.553 -0.7643 -0.4170  0.5941
   60TCq2    C8  920   3.327   3.122  12.299  0.3208 -0.8501 -0.1068
   60TCq2    O4  921   3.353   3.053  12.202  0.4269  0.6872 -0.3511
   60TCq2    C9  922   3.208   2.720  12.536 -0.6330 -0.1450 -0.4281
   60TCq2    O5  923   3.212   2.656  12.427  0.1691 -0.5909 -0.2371
   60TCq2    O6  924   3.183   2.676  12.648  0.6259  0.5001  0.7242
   60TCq2    H2  925   3.300   2.848  12.752  2.8493 -3.1566 -2.0154
   60TCq2    H3  926   3.238   2.889  12.332  0.8068 -0.8808 -0.1922
   60TCq2    H4  927   3.394   3.215  12.550  0.6304 -1.2166 -1.7795
   61MPD2     C  928   2.823   4.487  14.394 -0.4256 -0.1442  0.7740
   61MPD2    C1  929   2.737   4.499  14.508 -0.1899  0.6130  0.5227
   61MPD2    C2  930   2.604   4.543  14.497  0.3033  0.4675 -0.4679
   61MPD2    C3  931   2.566   4.598  14.376 -0.1114  0.3573 -0.5570
   61MPD2    C4  932   2.655   4.601  14.273 -0.2652  0.6443 -0.1239
   61MPD2    C5  933   2.781   4.547  14.278 -0.5979 -0.0498 -0.1125
   61MPD2     H  934   2.537   4.553  14.582 -0.3424  0.1455 -0.9432
   61MPD2    H1  935   2.628   4.641  14.176  1.7006 -2.7304 -2.0996
   61MPD2    H2  936   2.921   4.441  14.389 -0.8918 -1.2000  1.2274
   61MPD2    H3  937   2.846   4.546  14.192  0.5219  1.4239  0.7175
   61MPD2     N  938   2.438   4.665  14.360 -0.3240 -0.0469  0.1767
   61MPD2    H5  939   2.429   0.009  14.282 -0.7730  1.3870  1.3847
   61MPD2    N1  940   2.782   4.452  14.632  0.2485 -0.3044 -0.0370
   61MPD2    H7  941   2.723   4.471  14.712 -1.1815 -0.9908 -0.9217
   62TCq2    C1  942   2.912   4.411  14.665 -0.1799 -0.1287 -0.1745
   62TCq2    O2  943   3.012   4.392  14.595  1.0449  0.8277 -0.3475
   62TCq2    C2  944   2.928   4.404  14.808  0.0853  0.3242  0.7466
   62TCq2    C3  945   3.022   4.314  14.862 -0.1077  0.2944 -0.7156
   62TCq2    C4  946   3.039   4.311  14.999 -0.3807  0.4812 -0.3542
   62TCq2    C5  947   2.972   4.400  15.070 -0.2048  0.0062 -0.4012
   62TCq2    C6  948   2.894   4.494  15.014 -0.0167 -0.4948  0.5133
   62TCq2    C7  949   2.863   4.500  14.885 -0.3622  0.1542  0.2736
   62TCq2    C8  950   2.814   4.585  15.099 -0.5649  0.4196 -0.5869
   62TCq2    O4  951   2.867   4.637  15.198  0.0428  0.2206  0.1732
   62TCq2    C9  952   3.120   4.207  15.062  0.2206 -0.6320 -0.3259
   62TCq2    O5  953   3.173   4.230  15.171  0.3905  0.5697  0.0929
   62TCq2    O6  954   3.184   4.135  14.980 -0.8364  0.3343  0.2450
   62TCq2    H2  955   3.073   4.239  14.803 -1.3135 -1.3952  0.3819
   62TCq2    H3  956   2.976   4.390  15.178 -0.7941  2.1327 -0.1724
   62TCq2    H4  957   2.801   4.581  14.847 -0.4290 -0.2846 -0.5561
   63TMC2    C1  958   1.754   4.518  10.671 -0.3305 -0.1764 -0.1960
   63TMC2    C2  959   1.791   4.501  10.808 -0.5491  0.6432 -0.2245
   63TMC2    C3  960   1.876   4.604  10.849 -0.5110 -0.4538 -0.2016
   63TMC2    C4  961   1.773   4.625  10.593  0.0640  0.1116 -0.3071
   63TMC2    C5  962   1.846   0.003  10.645 -0.1625 -0.5147 -0.4575
   63TMC2    C6  963   1.897   4.715  10.772 -0.0405 -0.8277  0.1232
   63TMC2     C  964   1.673   4.409  10.615  0.0845 -0.0117 -0.3624
   63TMC2     O  965   1.598   4.442  10.524 -0.2441 -0.0791 -0.6288
   63TMC2     H  966   1.748   4.418  10.862 -0.3885  0.1564 -0.8430
   63TMC2    H1  967   1.742   4.624  10.489  0.0145  1.2957 -0.3060
   63TMC2    H2  968   1.952   0.081  10.810  2.6031 -2.3154 -0.2893
   63TMC2    C7  969   1.858   0.122  10.560  0.5319  0.3595 -0.2045
   63TMC2    C8  970   1.890   4.630  10.990  0.2835  0.5963 -1.0488
   63TMC2    O1  971   1.766   0.127  10.480  0.4075 -0.3063  0.0851
   63TMC2    O2  972   1.972   4.707  11.038 -0.2609 -0.2996  0.0448
   63TMC2    O5  973   1.777   4.592  11.060 -0.2220  0.2644 -0.4708
   63TMC2    H5  974   1.720   4.529  11.012 -1.1302 -0.4497  1.5466
   64MPD2     C  975   1.536   3.914  10.585 -0.5030 -0.3508  0.2879
   64MPD2    C1  976   1.649   3.921  10.668  0.4385 -0.1296  0.2534
   64MPD2    C2  977   1.694   4.049  10.700 -0.0141  0.3226  0.5052
   64MPD2    C3  978   1.635   4.166  10.646  0.8402  0.4132  0.0570
   64MPD2    C4  979   1.524   4.153  10.569 -0.7878  0.1399 -0.0137
   64MPD2    C5  980   1.484   4.028  10.535  0.0176  0.1734 -0.1813
   64MPD2     H  981   1.781   4.050  10.764 -1.1784  1.5078  2.0913
   64MPD2    H1  982   1.474   4.242  10.531  3.1048  2.3296 -0.1058
   64MPD2    H2  983   1.484   3.820  10.570 -1.2487 -0.0896  1.2707
   64MPD2    H3  984   1.389   4.020  10.484  0.7505  1.0492 -1.6980
   64MPD2     N  985   1.701   4.289  10.670  0.0750 -0.4319 -0.5166
   64MPD2    H5  986   1.790   4.281  10.718  0.7553  1.4172 -1.4793
   64MPD2    N1  987   1.724   3.811  10.708  0.0640 -0.4868 -0.3572
   64MPD2    H7  988   1.813   3.831  10.753  0.1948 -0.4521 -0.6325
   65MPD2     C  989   3.084   3.743  16.121  0.1869 -0.5630 -0.0274
   65MPD2    C1  990   3.116   3.709  15.999  0.0184  0.0242 -0.3246
   65MPD2    C2  991   3.085   3.581  15.957  0.0483  0.6016  0.5051
   65MPD2    C3  992   3.040   3.479  16.034 -0.0251 -0.0833  0.3307
   65MPD2    C4  993   3.005   3.517  16.161  0.5983  0.6504 -0.1618
   65MPD2    C5  994   3.022   3.644  16.198  0.3554 -0.1496 -0.1218
   65MPD2     H  995   3.100   3.559  15.852 -1.8093 -0.0947  0.3828
   65MPD2    H1  996   2.955   3.442  16.223  1.6820 -0.8180 -1.0628
   65MPD2    H2  997   3.111   3.841  16.158  1.1611 -0.4799 -0.9296
   65MPD2    H3  998   2.997   3.677  16.298  0.9716  2.2412 -0.7479
   65MPD2     N  999   3.027   3.339  15.994  0.4580  0.2267 -0.5240
   65MPD2    H5 1000   3.000   3.272  16.066 -0.5895 -0.2554 -1.3645
   65MPD2    N1 1001   3.172   3.813  15.911  0.1086  0.5401 -0.1264
   65MPD2    H7 1002   3.173   3.909  15.943 -0.5506  0.6005 -0.2859
   66TCq2    C1 1003   3.206   3.795  15.780  0.9910 -0.3692 -0.2458
   66TCq2    O2 1004   3.215   3.690  15.713  0.2478 -0.4176 -0.2561
   66TCq2    C2 1005   3.271   3.908  15.711  0.1983 -0.8333 -0.6128
   66TCq2    C3 1006   3.331   3.875  15.590  0.5125 -0.4888  0.0547
   66TCq2    C4 1007   3.337   3.970  15.485 -0.1032 -1.1946  0.0925
   66TCq2    C5 1008   3.300   4.097  15.516  0.2291 -0.1850  0.2257
   66TCq2    C6 1009   3.234   4.123  15.634 -0.1313  0.0715  0.2735
   66TCq2    C7 1010   3.212   4.027  15.734  1.0281 -0.0276 -0.5629
   66TCq2    C8 1011   3.206   4.262  15.645 -0.3515 -0.7141  0.8888
   66TCq2    O4 1012   3.214   4.343  15.555 -0.3150 -0.2017 -0.2910
   66TCq2    C9 1013   3.409   3.940  15.361 -0.5195  0.5602  0.0751
   66TCq2    O5 1014   3.459   4.037  15.302  0.6727  0.0110  0.0611
   66TCq2    O6 1015   3.445   3.819  15.346 -0.8401 -0.5010 -0.2120
   66TCq2    H2 1016   3.374   3.778  15.569  0.2327 -1.0025  1.8398
   66TCq2    H3 1017   3.310   4.167  15.434  2.1846 -2.2304 -1.2746
   66TCq2    H4 1018   3.163   4.056  15.826  1.6669  0.8987 -0.5146
   67MPD2     C 1019   3.491   3.085  14.341 -0.1000  0.1066 -0.1347
   67MPD2    C1 1020   3.418   3.200  14.368  0.0478 -0.0108  0.8736
   67MPD2    C2 1021   3.323   3.251  14.279 -0.0864  0.6611  0.2589
   67MPD2    C3 1022   3.294   3.173  14.170  1.0504 -0.3928  0.4380
   67MPD2    C4 1023   3.375   3.061  14.139 -0.3922 -0.6270 -0.0728
   67MPD2    C5 1024   3.475   3.016  14.223 -0.4257 -0.0249 -0.1223
   67MPD2     H 1025   3.280   3.350  14.292 -0.9324  0.1601  1.2339
   67MPD2    H1 1026   3.357   3.007  14.047  0.7538 -1.8458  0.4088
   67MPD2    H2 1027   3.570   3.048  14.404  0.6931  3.2815  0.7552
   67MPD2    H3 1028   3.533   2.929  14.198 -0.1167  0.0882  0.1978
   67MPD2     N 1029   3.212   3.215  14.068 -0.3608  0.1655 -0.6111
   67MPD2    H5 1030   3.183   3.140  14.007  0.6528  0.4243 -1.4030
   67MPD2    N1 1031   3.440   3.285  14.475  0.6951 -0.0944 -0.3833
   67MPD2    H7 1032   3.376   3.361  14.494  3.9975  2.3440  1.0317
   68TCq2    C1 1033   3.561   3.288  14.540  0.6368 -0.0207 -0.3350
   68TCq2    O2 1034   3.665   3.230  14.516 -0.2135  0.1191  1.1067
   68TCq2    C2 1035   3.565   3.392  14.635 -0.3949  0.6470  0.2681
   68TCq2    C3 1036   3.445   3.438  14.688  0.3695 -0.8191  0.4322
   68TCq2    C4 1037   3.448   3.528  14.794  0.2901  0.6410 -0.5918
   68TCq2    C5 1038   3.565   3.550  14.855 -0.2608 -0.0263  0.4187
   68TCq2    C6 1039   3.682   3.498  14.811 -0.0978 -0.0465 -0.3362
   68TCq2    C7 1040   3.679   3.423  14.701 -0.0618 -0.4619  0.3367
   68TCq2    C8 1041   3.807   3.484  14.890 -0.4364  0.3167  0.4928
   68TCq2    O4 1042   3.910   3.446  14.836  0.3154 -0.1585 -0.1040
   68TCq2    C9 1043   3.328   3.595  14.843 -0.0771  0.2775 -0.6199
   68TCq2    O5 1044   3.227   3.556  14.788 -0.3772 -0.9928 -0.1671
   68TCq2    O6 1045   3.345   3.683  14.935 -0.1138  0.1179  0.0987
   68TCq2    H2 1046   3.351   3.409  14.642  0.4833  0.9073 -0.8634
   68TCq2    H3 1047   3.562   3.617  14.940  0.2754 -0.7114  0.9741
   68TCq2    H4 1048   3.768   3.377  14.659  1.2420  3.5848 -1.3338
   69TMC2    C1 1049   0.651   0.046  12.563 -0.2889 -0.4843  0.6653
   69TMC2    C2 1050   0.594   0.164  12.598 -0.5785 -0.2868  0.1678
   69TMC2    C3 1051   0.680   0.271  12.601 -0.0540 -0.0406  0.0317
   69TMC2    C4 1052   0.781   0.032  12.542  0.4876 -0.5676 -0.1080
   69TMC2    C5 1053   0.858   0.140  12.564  0.2114  0.1266 -0.1184
   69TMC2    C6 1054   0.811   0.266  12.597 -0.3510 -0.4223 -1.0290
   69TMC2     C 1055   0.572   4.649  12.560 -0.3252 -0.1066 -0.5344
   69TMC2     O 1056   0.639   4.549  12.577 -0.2468 -0.5638  0.1391
   69TMC2     H 1057   0.486   0.174  12.601 -0.7378 -2.2883  0.9230
   69TMC2    H1 1058   0.812   4.660  12.494 -0.9996 -0.5556 -1.1114
   69TMC2    H2 1059   0.877   0.348  12.619  1.0034 -2.2669  1.6769
   69TMC2    C7 1060   0.997   0.131  12.521  1.2845 -0.2661 -0.2097
   69TMC2    C8 1061   0.632   0.387  12.670 -0.4860  0.0455 -0.0176
   69TMC2    O1 1062   1.033   0.025  12.467  0.3551  0.1992  0.7642
   69TMC2    O2 1063   0.705   0.483  12.675 -0.0678  0.7404 -0.4038
   69TMC2    O5 1064   0.529   0.363  12.749 -0.4075 -0.3858  0.0806
   69TMC2    H5 1065   0.485   0.275  12.750  0.4138 -0.7549  4.0025
   70MPD2     C 1066   0.211   4.616  12.515  0.2076 -0.4557 -0.3090
   70MPD2    C1 1067   0.335   4.581  12.554  0.9804 -0.1576 -1.4101
   70MPD2    C2 1068   0.355   4.466  12.628  0.1299 -0.3990  0.2183
   70MPD2    C3 1069   0.244   4.401  12.691  0.2324 -0.6015 -0.0786
   70MPD2    C4 1070   0.115   4.443  12.659  0.1952  0.3847  0.0230
   70MPD2    C5 1071   0.103   4.548  12.572 -0.2391 -0.0775  0.0689
   70MPD2     H 1072   0.459   4.446  12.652  0.3968  0.1775 -0.4506
   70MPD2    H1 1073   0.026   4.395  12.696 -0.3641  0.4260 -1.2525
   70MPD2    H2 1074   0.189   4.701  12.451  1.3980  0.4053  0.4475
   70MPD2    H3 1075   0.006   4.584  12.541  0.3504  1.6841  0.2403
   70MPD2     N 1076   0.265   4.288  12.770  0.1258  0.7275  0.2054
   70MPD2    H5 1077   0.185   4.250  12.819  0.1764  1.9671  1.2450
   70MPD2    N1 1078   0.440   4.668  12.521  0.0804  0.2370 -0.4641
   70MPD2    H7 1079   0.413   0.041  12.491  1.1986  0.6027 -0.3181
   71TMC2    C1 1080   2.915   4.569   1.456  0.4979  0.0863  0.3439
   71TMC2    C2 1081   3.011   4.506   1.521  0.7583 -0.3388  0.1952
   71TMC2    C3 1082   3.007   4.504   1.658 -0.1770 -0.5152 -0.5600
   71TMC2    C4 1083   2.807   4.633   1.517 -0.2663 -0.6117  0.6821
   71TMC2    C5 1084   2.806   4.627   1.649  0.5165 -0.4126  0.0497
   71TMC2    C6 1085   2.903   4.570   1.721 -0.2023  0.6216  0.1900
   71TMC2     C 1086   2.913   4.560   1.312 -0.3916 -0.0256 -0.2530
   71TMC2     O 1087   2.842   4.640   1.247  0.0194 -0.0987 -0.0198
   71TMC2     H 1088   3.088   4.448   1.472 -0.0241  0.6592 -2.1814
   71TMC2    H1 1089   2.720   4.680   1.472  0.3304  0.0262  0.1897
   71TMC2    H2 1090   2.913   4.587   1.828  1.4898 -0.7437  0.2413
   71TMC2    C7 1091   2.687   4.670   1.726  0.0989 -0.1439 -0.5605
   71TMC2    C8 1092   3.118   4.439   1.721 -0.6719 -0.5230  0.0092
   71TMC2    O1 1093   2.704   4.695   1.841  0.7385  0.3885 -0.1318
   71TMC2    O2 1094   3.224   4.413   1.666 -0.6964 -0.4506 -0.0168
   71TMC2    O5 1095   3.091   4.426   1.851  0.3968 -0.0939 -0.2371
   71TMC2    H5 1096   2.994   4.418   1.863  0.4739  2.2338  1.9832
   72MPD2     C 1097   3.013   4.325   0.851 -0.4431  0.0226 -0.0649
   72MPD2    C1 1098   2.977   4.456   0.885  0.9869 -0.3456 -0.3260
   72MPD2    C2 1099   2.968   4.503   1.016 -0.2274 -0.9532 -0.9104
   72MPD2    C3 1100   2.976   4.410   1.119  0.4190 -0.0740  0.1058
   72MPD2    C4 1101   3.015   4.281   1.090  1.0080 -0.1349 -0.0584
   72MPD2    C5 1102   3.041   4.242   0.962  0.5340 -0.1610  0.5576
   72MPD2     H 1103   2.938   4.604   1.042 -0.9739 -1.2600 -0.5674
   72MPD2    H1 1104   3.039   4.216   1.173  2.4858  1.0120  0.4071
   72MPD2    H2 1105   3.025   4.280   0.753 -1.9597  2.8290 -1.5681
   72MPD2    H3 1106   3.088   4.148   0.937 -0.7584 -0.7973  0.5058
   72MPD2     N 1107   2.974   4.447   1.260  0.2110  0.1781 -0.0680
   72MPD2    H5 1108   2.997   4.373   1.325  0.3954  1.7999  1.7000
   72MPD2    N1 1109   2.936   4.550   0.788  0.1959  0.2272 -0.3778
   72MPD2    H7 1110   2.908   4.641   0.824  2.1251  0.4815  0.4799
   73TMC2    C1 1111   2.940   1.606  14.146  0.2690  0.7380  0.3689
   73TMC2    C2 1112   2.942   1.553  14.278 -0.1994  0.0039 -0.0567
   73TMC2    C3 1113   3.054   1.493  14.324  0.1240  0.2017  0.0619
   73TMC2    C4 1114   3.045   1.592  14.065 -0.4166  0.5270 -0.2885
   73TMC2    C5 1115   3.162   1.533  14.115 -0.4233  0.0068 -0.4367
   73TMC2    C6 1116   3.164   1.476  14.244 -0.5197  0.2958  0.3212
   73TMC2     C 1117   2.917   1.748  14.149  0.2832  0.6583  0.3527
   73TMC2     O 1118   3.019   1.811  14.135 -0.6034 -0.0327 -0.0894
   73TMC2     H 1119   2.853   1.569  14.338 -0.0514 -0.8168  0.3832
   73TMC2    H1 1120   3.033   1.637  13.968 -0.0526  0.0397 -0.5603
   73TMC2    H2 1121   3.261   1.457  14.287 -0.4976 -1.9726 -0.7507
   73TMC2    C7 1122   3.281   1.584  14.059 -0.1366  0.1344 -0.0509
   73TMC2    C8 1123   3.071   1.437  14.454  0.3051 -0.5582 -0.4096
   73TMC2    O1 1124   3.385   1.520  14.069 -0.4800  0.1078 -0.5116
   73TMC2    O2 1125   3.159   1.363  14.488  0.0978  0.0698  0.2016
   73TMC2    O5 1126   2.988   1.496  14.546  0.1069 -0.3099 -0.1239
   73TMC2    H5 1127   2.940   1.575  14.512 -2.7978 -2.3267 -0.7423
   74MPD2     C 1128   2.655   2.166  14.055  0.4802 -0.1353 -0.0138
   74MPD2    C1 1129   2.785   2.153  14.071  0.4159  0.0881  0.3694
   74MPD2    C2 1130   2.831   2.031  14.106  0.0492 -0.2969  0.1987
   74MPD2    C3 1131   2.745   1.924  14.131 -0.1732 -0.3245 -0.5065
   74MPD2    C4 1132   2.608   1.948  14.130 -0.5665  0.0395  0.3333
   74MPD2    C5 1133   2.567   2.071  14.088  0.1332 -0.0987  0.2390
   74MPD2     H 1134   2.938   2.020  14.118  0.0756  0.8932  1.1281
   74MPD2    H1 1135   2.536   1.868  14.148 -1.7999  1.1229  0.1487
   74MPD2    H2 1136   2.627   2.264  14.019  1.1286  0.5563  1.3923
   74MPD2    H3 1137   2.462   2.095  14.085  0.0893 -0.1619  1.1859
   74MPD2     N 1138   2.784   1.786  14.156  0.1424  0.4953 -0.0624
   74MPD2    H5 1139   2.710   1.716  14.155 -0.2077  0.8832 -1.5595
   74MPD2    N1 1140   2.867   2.268  14.041 -0.0750 -0.8797  0.0375
   74MPD2    H7 1141   2.827   2.358  14.017 -1.3894 -1.3139  0.5789
   75TCq2    C1 1142   3.150   3.340  14.057  0.5021 -0.5834 -0.2575
   75TCq2    O2 1143   3.197   3.442  14.101 -0.1372 -0.2145 -0.7103
   75TCq2    C2 1144   3.025   3.344  13.976 -0.3961  0.3543  0.3524
   75TCq2    C3 1145   2.961   3.222  13.955  0.5204  0.0363 -0.4278
   75TCq2    C4 1146   2.838   3.228  13.898  0.6093  0.2574  0.0174
   75TCq2    C5 1147   2.798   3.344  13.830  0.9377  0.3861 -1.0377
   75TCq2    C6 1148   2.860   3.460  13.869  0.3370  0.5103 -0.3091
   75TCq2    C7 1149   2.975   3.464  13.936  0.0455 -0.3117 -0.7110
   75TCq2    C8 1150   2.847   3.578  13.782 -0.3262 -0.0142  0.5881
   75TCq2    O4 1151   2.891   3.689  13.803 -0.5928  0.1309  0.4039
   75TCq2    C9 1152   2.757   3.107  13.869 -0.3092  0.2364 -0.3020
   75TCq2    O5 1153   2.803   2.992  13.898 -0.3910 -0.1260  0.3470
   75TCq2    O6 1154   2.646   3.123  13.806 -0.1967  0.8165  0.3173
   75TCq2    H2 1155   3.001   3.126  13.986  0.9380  0.3541  0.0246
   75TCq2    H3 1156   2.710   3.335  13.768 -1.6356  0.8275  2.5730
   75TCq2    H4 1157   3.032   3.552  13.963 -1.6610 -0.2376  2.6786
   76MPD2     C 1158   2.055   4.270  12.530 -0.1332  0.5275  0.3185
   76MPD2    C1 1159   2.029   4.273  12.392 -0.0613  0.2492  0.5883
   76MPD2    C2 1160   2.036   4.153  12.315  0.3059 -0.4382 -0.0815
   76MPD2    C3 1161   2.078   4.032  12.370 -0.2835  0.4613  1.0481
   76MPD2    C4 1162   2.105   4.032  12.509 -0.4287 -0.0575 -0.1564
   76MPD2    C5 1163   2.093   4.148  12.583 -0.1651 -0.4702 -0.2634
   76MPD2     H 1164   2.026   4.161  12.208  0.0420 -2.0912 -0.1928
   76MPD2    H1 1165   2.122   3.941  12.565  0.8934  0.1563 -0.2006
   76MPD2    H2 1166   2.032   4.352  12.597 -2.1941  2.4515 -2.7556
   76MPD2    H3 1167   2.110   4.137  12.689  1.8771  1.8844 -0.3573
   76MPD2     N 1168   2.089   3.904  12.308  0.2840  0.1009  0.8777
   76MPD2    H5 1169   2.114   3.824  12.364 -0.1277 -0.3239  0.4478
   76MPD2    N1 1170   1.959   4.378  12.325 -0.6602 -1.0859  0.0379
   76MPD2    H7 1171   1.950   4.366  12.224  1.5707  0.8928 -0.3930
   77TCq2    C1 1172   2.046   3.878  12.182  0.8080 -0.5466  0.5872
   77TCq2    O2 1173   1.975   3.946  12.108  0.4506  0.6704 -0.3158
   77TCq2    C2 1174   2.083   3.747  12.136 -0.6854  0.0257  0.1459
   77TCq2    C3 1175   1.992   3.673  12.065  0.3402 -0.5294  0.3341
   77TCq2    C4 1176   2.004   3.538  12.045 -0.4098 -0.3806  0.2412
   77TCq2    C5 1177   2.114   3.470  12.101 -0.3016 -0.1326  0.4477
   77TCq2    C6 1178   2.215   3.549  12.155  0.4236  0.2231 -0.0685
   77TCq2    C7 1179   2.197   3.684  12.188 -0.2436 -0.5483 -0.2626
   77TCq2    C8 1180   2.348   3.487  12.177  0.0543  0.3175 -0.5890
   77TCq2    O4 1181   2.373   3.382  12.119 -0.2407  0.4488  0.4889
   77TCq2    C9 1182   1.911   3.466  11.953  0.5455 -0.2497 -0.0583
   77TCq2    O5 1183   1.828   3.538  11.889 -0.1651 -0.2717 -0.1144
   77TCq2    O6 1184   1.910   3.337  11.962  0.7622 -0.2526 -0.4502
   77TCq2    H2 1185   1.912   3.731  12.022 -0.4509 -0.9192  1.2960
   77TCq2    H3 1186   2.130   3.364  12.082 -1.8371 -0.6553  1.9641
   77TCq2    H4 1187   2.278   3.740  12.233  0.1560 -1.6883  0.4303
   78MPD1     C 1188   4.165   2.099   1.618  0.0369 -0.0164 -0.6026
   78MPD1    C1 1189   4.252   1.991   1.605 -0.5851 -0.4542  0.3203
   78MPD1    C2 1190   4.384   2.000   1.657  0.4863 -0.0632 -0.0958
   78MPD1    C3 1191   4.428   2.116   1.713 -0.3135 -0.1865  0.6491
   78MPD1    C4 1192   4.341   2.225   1.724  0.4723 -0.5314 -0.0560
   78MPD1    C5 1193   4.211   2.214   1.676  0.1823  0.9311  0.0314
   78MPD1     H 1194   4.439   1.907   1.665  1.7116  0.8613  2.3226
   78MPD1    H1 1195   4.379   2.319   1.763 -3.0136  1.0587 -0.5258
   78MPD1    H2 1196   4.060   2.095   1.592  0.2319 -0.6203 -1.2575
   78MPD1    H3 1197   4.140   2.294   1.693 -0.3826  0.6451 -1.0002
   78MPD1     N 1198   4.560   2.145   1.764  0.7420 -0.2342  0.6898
   78MPD1    H5 1199   4.582   2.235   1.806  1.4869 -0.0687 -0.0686
   78MPD1    N1 1200   4.200   1.861   1.576  0.0055  0.4946  0.4096
   78MPD1    H6 1201   4.114   1.856   1.522  0.0461  0.4581  0.3479
   78MPD1    H7 1202   4.267   1.786   1.560 -3.1174 -1.8391 -1.7118
   79TCq2    C1 1203   4.664   2.055   1.775 -0.4353  0.3725  0.0527
   79TCq2    O2 1204   4.665   1.938   1.736  0.1181  0.4271  0.0164
   79TCq2    C2 1205   0.059   2.120   1.836  0.2490 -0.3160  0.3199
   79TCq2    C3 1206   0.142   2.031   1.905  0.4911  0.0359 -0.6004
   79TCq2    C4 1207   0.237   2.084   1.987  0.4478 -0.7909 -0.3899
   79TCq2    C5 1208   0.251   2.217   2.003 -0.1996  0.4330 -0.1973
   79TCq2    C6 1209   0.155   2.300   1.952  0.5136 -0.6629 -1.0234
   79TCq2    C7 1210   0.059   2.252   1.864 -0.4342  0.3546  0.7936
   79TCq2    C8 1211   0.178   2.445   1.954  0.5782 -0.3676 -0.3000
   79TCq2    O4 1212   0.084   2.518   1.930  0.8549 -0.0181  0.5841
   79TCq2    C9 1213   0.337   2.002   2.050 -0.0326  0.1737 -0.3720
   79TCq2    O5 1214   0.390   2.039   2.160 -0.4183  0.0988 -0.2249
   79TCq2    O6 1215   0.348   1.879   2.018  0.2150 -0.1979  0.7469
   79TCq2    H2 1216   0.121   1.926   1.918  0.6225  0.1134  0.2463
   79TCq2    H3 1217   0.325   2.254   2.073 -1.0003  0.1826  0.7860
   79TCq2    H4 1218   0.005   2.325   1.805  2.5159  1.9142  0.0128
   80MPD2     C 1219   0.638   3.944  12.433  0.2919 -0.7904 -0.4929
   80MPD2    C1 1220   0.603   3.847  12.336  0.5249 -0.8162  0.5392
   80MPD2    C2 1221   0.471   3.800  12.317 -0.5482 -0.2520  0.1021
   80MPD2    C3 1222   0.371   3.833  12.408  0.9015 -0.0748 -0.3834
   80MPD2    C4 1223   0.408   3.922  12.504 -0.1505  0.2273  0.2977
   80MPD2    C5 1224   0.534   3.982  12.510  0.0200 -0.0271  0.4425
   80MPD2     H 1225   0.444   3.725  12.243 -0.7487 -0.0224 -0.0562
   80MPD2    H1 1226   0.330   3.952  12.574  1.5379 -2.1962  3.2465
   80MPD2    H2 1227   0.734   3.993  12.438 -0.8627  1.0019  4.5632
   80MPD2    H3 1228   0.545   4.063  12.582  0.6440 -0.7880  1.2041
   80MPD2     N 1229   0.231   3.793  12.401  0.5349 -0.1213  0.8436
   80MPD2    H5 1230   0.170   3.828  12.474  1.2403  0.9209  0.9453
   80MPD2    N1 1231   0.703   3.803  12.246  0.0354  0.4819  0.2719
   80MPD2    H7 1232   0.671   3.744  12.170  2.2013  0.4843 -0.6195
   81TCq2    C1 1233   0.839   3.841  12.249  0.0396  0.1271  0.4968
   81TCq2    O2 1234   0.907   3.915  12.318  1.1279 -0.1838  0.2166
   81TCq2    C2 1235   0.910   3.750  12.160 -0.1156  0.4000  0.2228
   81TCq2    C3 1236   1.017   3.807  12.096  0.0762  0.0094  0.0998
   81TCq2    C4 1237   1.103   3.727  12.024  0.2385  0.8543  0.5873
   81TCq2    C5 1238   1.080   3.590  12.020  0.4388  0.6612 -0.3503
   81TCq2    C6 1239   0.979   3.534  12.098  0.1040  0.8696  0.4285
   81TCq2    C7 1240   0.892   3.613  12.168 -0.4271 -0.5308 -0.3072
   81TCq2    C8 1241   0.949   3.390  12.075 -0.3920  0.1512 -0.7266
   81TCq2    O4 1242   1.000   3.332  11.982  0.1117  0.0526 -0.6848
   81TCq2    C9 1243   1.225   3.772  11.960  0.0495  0.4037 -0.1000
   81TCq2    O5 1244   1.236   3.899  11.965  0.3949 -0.2083  0.5220
   81TCq2    O6 1245   1.305   3.692  11.913  0.0106 -0.3086 -0.6467
   81TCq2    H2 1246   1.039   3.913  12.099 -1.8368  0.4324 -0.9164
   81TCq2    H3 1247   1.142   3.530  11.955 -0.2973 -1.4385  0.8879
   81TCq2    H4 1248   0.806   3.570  12.219  1.0133 -0.2333  2.3846
   82MPD2     C 1249   3.432   3.711  10.605 -0.8618 -0.2349  0.4436
   82MPD2    C1 1250   3.416   3.612  10.502 -0.9276  0.0074  0.2528
   82MPD2    C2 1251   3.514   3.516  10.485  0.4313 -0.1928  0.2409
   82MPD2    C3 1252   3.625   3.501  10.571  0.2674 -0.1911  0.7859
   82MPD2    C4 1253   3.634   3.598  10.667 -0.3411 -0.0294 -0.3299
   82MPD2    C5 1254   3.545   3.701  10.687  0.0555 -0.4762 -0.6322
   82MPD2     H 1255   3.501   3.448  10.401 -2.4859  1.7456 -0.8686
   82MPD2    H1 1256   3.723   3.600  10.728  0.2968 -1.5235 -1.2294
   82MPD2    H2 1257   3.357   3.788  10.615 -0.7548  0.0651 -0.9923
   82MPD2    H3 1258   3.555   3.775  10.766  1.5246 -0.6095 -0.6833
   82MPD2     N 1259   3.723   3.401  10.559 -0.2866 -0.0782  0.7534
   82MPD2    H5 1260   3.790   3.399  10.635  0.3968  2.4434  0.2258
   82MPD2    N1 1261   3.301   3.632  10.417  0.2340 -0.2854 -0.1298
   82MPD2    H7 1262   3.235   3.701  10.451 -0.4791  0.1313 -2.3835
   83TCq2    C1 1263   3.711   3.289  10.477 -1.1839 -0.1517 -0.5238
   83TCq2    O2 1264   3.608   3.260  10.415  0.3186 -0.3693  0.4125
   83TCq2    C2 1265   3.821   3.201  10.498 -1.2024 -0.4686  0.5165
   83TCq2    C3 1266   3.943   3.250  10.546 -0.0203 -0.0646  0.3088
   83TCq2    C4 1267   4.028   3.161  10.607 -0.3099 -0.2240  0.1116
   83TCq2    C5 1268   3.993   3.034  10.633 -0.2321  0.5421  0.1654
   83TCq2    C6 1269   3.867   2.989  10.587 -0.0907 -0.2990 -0.5830
   83TCq2    C7 1270   3.781   3.074  10.523 -0.0695  0.2765  0.2395
   83TCq2    C8 1271   3.817   2.865  10.643 -0.4848  0.9661 -0.3393
   83TCq2    O4 1272   3.871   2.814  10.737 -0.1603 -0.1096  0.1182
   83TCq2    C9 1273   4.157   3.214  10.654  0.3684 -0.4116  0.3057
   83TCq2    O5 1274   4.185   3.332  10.625 -0.0466  0.3685 -0.5281
   83TCq2    O6 1275   4.219   3.140  10.741 -0.1889 -0.6768  0.3899
   83TCq2    H2 1276   3.973   3.354  10.540 -1.6938  0.4101  0.1776
   83TCq2    H3 1277   4.058   2.961  10.681 -0.2765 -0.4407 -1.2721
   83TCq2    H4 1278   3.678   3.049  10.500 -0.9771  2.3430  2.0798
   84TCq2    C1 1279   4.424   1.453  10.467 -0.1586  0.6212 -0.3508
   84TCq2    O2 1280   4.357   1.391  10.383 -1.0837  0.1408 -0.3822
   84TCq2    C2 1281   4.432   1.402  10.599 -0.6827 -0.1087 -0.0499
   84TCq2    C3 1282   4.373   1.277  10.609 -0.2088  0.2303  0.0371
   84TCq2    C4 1283   4.366   1.215  10.730 -0.2476 -0.1879 -0.6064
   84TCq2    C5 1284   4.412   1.285  10.842 -0.4503 -0.0585  0.1581
   84TCq2    C6 1285   4.470   1.405  10.826 -0.2616  0.7409  0.2692
   84TCq2    C7 1286   4.482   1.468  10.707  0.8958 -0.1336 -0.6968
   84TCq2    C8 1287   4.495   1.494  10.935 -1.0520  0.1385  0.1293
   84TCq2    O4 1288   4.478   1.615  10.912 -0.8859  0.1753  0.6058
   84TCq2    C9 1289   4.299   1.088  10.748  0.5412  0.4975 -0.1835
   84TCq2    O5 1290   4.248   1.043  10.643 -0.3911  0.7963  0.1424
   84TCq2    O6 1291   4.280   1.049  10.865  0.3358  0.2862  0.2464
   84TCq2    H2 1292   4.323   1.224  10.529  4.4561 -1.5154 -1.7032
   84TCq2    H3 1293   4.389   1.251  10.943 -1.1553 -0.2645 -0.0721
   84TCq2    H4 1294   4.553   1.550  10.697  0.5749  0.5772  2.7067
   85MPD2     C 1295   0.904   4.518  16.627  0.5966  0.4421  0.0246
   85MPD2    C1 1296   0.850   4.541  16.496  0.3433  0.1938  0.4658
   85MPD2    C2 1297   0.886   4.661  16.432 -0.2976 -0.1088  0.3501
   85MPD2    C3 1298   0.961   0.036  16.500  1.0615 -0.0787 -0.2483
   85MPD2    C4 1299   1.004   0.012  16.629 -0.8311 -0.3015 -0.2015
   85MPD2    C5 1300   0.981   4.608  16.689 -0.8879 -0.4593 -0.4891
   85MPD2     H 1301   0.864   4.683  16.328 -1.9727 -0.4107  0.6369
   85MPD2    H1 1302   1.064   0.089  16.675  0.9721 -0.8998 -1.5488
   85MPD2    H2 1303   0.901   4.421  16.677 -0.0868 -0.0977 -1.0880
   85MPD2    H3 1304   1.024   4.586  16.786 -1.9708  0.6988  0.2583
   85MPD2     N 1305   0.977   0.163  16.439 -0.0636  0.2957  0.2233
   85MPD2    H5 1306   0.959   0.173  16.340 -2.0413 -1.3508  0.4134
   85MPD2    N1 1307   0.758   4.456  16.435  0.3636  0.0854 -0.3734
   85MPD2    H7 1308   0.730   4.484  16.342  1.2811  2.0186 -0.0696
   86TCq2    C1 1309   1.018   0.278  16.501 -0.1667 -0.3989 -0.7286
   86TCq2    O2 1310   1.003   0.308  16.617 -0.9588  0.0534 -0.4010
   86TCq2    C2 1311   1.031   0.380  16.395  0.2044  0.4386  0.1043
   86TCq2    C3 1312   0.950   0.495  16.415 -0.2480 -0.0922  0.6505
   86TCq2    C4 1313   0.920   0.577  16.310 -0.1458 -0.0244  0.4602
   86TCq2    C5 1314   0.966   0.551  16.188  0.1336 -0.2056  0.2711
   86TCq2    C6 1315   1.035   0.430  16.171  0.0107  0.0806  0.0313
   86TCq2    C7 1316   1.090   0.349  16.276 -0.4256  0.9037  0.8309
   86TCq2    C8 1317   1.088   0.392  16.039 -0.2855 -0.0807  0.5228
   86TCq2    O4 1318   1.159   0.294  16.029  0.6383  0.3841 -0.1253
   86TCq2    C9 1319   0.840   0.694  16.326 -0.0133  0.2245  0.4168
   86TCq2    O5 1320   0.775   0.707  16.429  0.1789  0.1084  0.1609
   86TCq2    O6 1321   0.854   0.787  16.241  0.0705 -0.1509  0.0193
   86TCq2    H2 1322   0.903   0.517  16.510 -1.2401 -0.6632  0.2912
   86TCq2    H3 1323   0.940   0.616  16.106  1.1761  0.2870  0.3379
   86TCq2    H4 1324   1.150   0.260  16.261  0.5672  1.5204  1.2160
   87MPD2     C 1325   3.991   3.369   1.334 -0.0122  0.4779 -0.2325
   87MPD2    C1 1326   3.933   3.312   1.443 -0.0406 -0.6984 -0.2588
   87MPD2    C2 1327   3.824   3.371   1.502 -0.0437  0.5239 -0.4029
   87MPD2    C3 1328   3.780   3.491   1.454 -0.2765  0.2140 -0.2164
   87MPD2    C4 1329   3.852   3.561   1.362  0.2076  0.2402  0.5297
   87MPD2    C5 1330   3.957   3.500   1.300  0.1590  0.1257 -0.8976
   87MPD2     H 1331   3.758   3.324   1.573 -0.5758  1.3113 -0.3773
   87MPD2    H1 1332   3.818   3.660   1.337  1.4953  0.7398  0.7610
   87MPD2    H2 1333   4.075   3.323   1.283  0.6272  0.6956  0.6362
   87MPD2    H3 1334   4.004   3.546   1.214  1.6746  2.4209  1.1464
   87MPD2     N 1335   3.655   3.551   1.486 -0.6316  0.3218 -0.6618
   87MPD2    H5 1336   3.618   3.634   1.441 -2.3706 -0.2797 -0.3613
   87MPD2    N1 1337   3.982   3.186   1.483 -0.7880 -0.5585 -0.1539
   87MPD2    H7 1338   4.032   3.127   1.418  0.8906  2.6296 -1.7304
   88TCq2    C1 1339   3.953   3.133   1.607 -0.1905 -0.4164 -0.3312
   88TCq2    O2 1340   3.910   3.190   1.705  0.5095  0.3838 -0.3036
   88TCq2    C2 1341   4.012   3.002   1.635 -0.2514 -0.5159 -0.5912
   88TCq2    C3 1342   3.996   2.946   1.761  0.3398  0.1412  0.2260
   88TCq2    C4 1343   4.018   2.816   1.778 -0.0793 -0.4380  0.1897
   88TCq2    C5 1344   4.046   2.735   1.669  0.4695 -0.4488 -0.2486
   88TCq2    C6 1345   4.058   2.783   1.547  0.3739 -0.3796 -0.3851
   88TCq2    C7 1346   4.031   2.918   1.526  0.0265  0.3657  0.5260
   88TCq2    C8 1347   4.042   2.691   1.436  0.2277 -0.8123  0.0949
   88TCq2    O4 1348   4.070   2.732   1.325 -0.3926 -0.8482  0.9020
   88TCq2    C9 1349   4.005   2.759   1.912 -0.3491  0.3510 -0.4406
   88TCq2    O5 1350   3.989   2.632   1.926  0.2549 -0.1812 -0.1210
   88TCq2    O6 1351   4.025   2.841   2.009  1.0555 -0.0238  0.5565
   88TCq2    H2 1352   3.960   3.001   1.847  0.6700  0.6532  0.0334
   88TCq2    H3 1353   4.064   2.631   1.694 -1.1490 -0.8354 -0.6559
   88TCq2    H4 1354   4.018   2.953   1.425 -0.1654 -0.1193  0.3832
   89MPD2     C 1355   4.055   4.663   1.370  0.2593 -0.4482  0.0665
   89MPD2    C1 1356   3.947   0.017   1.395  0.1670 -0.1768  0.2184
   89MPD2    C2 1357   3.940   0.144   1.344  0.0909  0.5797 -0.3043
   89MPD2    C3 1358   4.039   0.200   1.271  0.5721  0.1203  0.3457
   89MPD2    C4 1359   4.144   0.122   1.242  0.8207  0.2272 -0.2425
   89MPD2    C5 1360   4.155   4.713   1.291  0.8534 -0.0538 -0.6187
   89MPD2     H 1361   3.846   0.198   1.341 -0.0421  0.3777  0.2475
   89MPD2    H1 1362   4.225   0.146   1.174 -0.3075  0.1317 -1.6298
   89MPD2    H2 1363   4.077   4.568   1.418  0.1724 -0.2917  0.4088
   89MPD2    H3 1364   4.242   4.654   1.262 -0.6859 -2.6341  0.0834
   89MPD2     N 1365   4.024   0.338   1.236  0.8026  0.2170 -0.1716
   89MPD2    H5 1366   3.950   0.392   1.281  1.4730  2.3337 -1.6671
   89MPD2    N1 1367   3.837   4.690   1.465  0.2629  0.1695 -0.0819
   89MPD2    H7 1368   3.750   0.024   1.466  0.3448  0.2238  3.7756
   90TCq2    C1 1369   4.118   0.403   1.159  0.4220 -0.0770 -0.2228
   90TCq2    O2 1370   4.215   0.352   1.109  0.1116  0.5264 -0.0120
   90TCq2    C2 1371   4.099   0.547   1.154 -0.2603  0.5278  0.0110
   90TCq2    C3 1372   3.967   0.598   1.165 -0.7837 -0.6676 -0.6172
   90TCq2    C4 1373   3.960   0.734   1.132  0.1428  0.3675 -0.5684
   90TCq2    C5 1374   4.072   0.812   1.126 -0.6440 -0.0013  0.0175
   90TCq2    C6 1375   4.192   0.748   1.103  0.3884  0.3732  0.1782
   90TCq2    C7 1376   4.202   0.614   1.099  0.2062  0.0141 -0.0484
   90TCq2    C8 1377   4.299   0.817   1.030 -0.6542  0.7373 -0.3186
   90TCq2    O4 1378   4.386   0.743   0.985 -0.7902 -0.3312  0.2911
   90TCq2    C9 1379   3.829   0.799   1.142 -0.2220 -0.3644 -0.0084
   90TCq2    O5 1380   3.734   0.716   1.123  0.7553  0.5865  0.5195
   90TCq2    O6 1381   3.816   0.926   1.165  0.0096  0.8393 -0.5402
   90TCq2    H2 1382   3.881   0.534   1.185 -1.0608 -0.1415 -0.1542
   90TCq2    H3 1383   4.055   0.918   1.111 -3.4706 -0.2713  1.4502
   90TCq2    H4 1384   4.301   0.571   1.088  0.0369 -0.3182 -0.2791
   91TMC2    C1 1385   0.944   1.184  16.627 -0.2609  0.5674  0.2990
   91TMC2    C2 1386   0.966   1.287  16.553  0.8870 -0.4323 -0.1796
   91TMC2    C3 1387   0.866   1.385  16.544 -0.2044 -0.1552 -0.1840
   91TMC2    C4 1388   0.829   1.168  16.704 -0.1585  0.6163 -1.0503
   91TMC2    C5 1389   0.728   1.248  16.681  0.2739 -0.2685  0.0976
   91TMC2    C6 1390   0.745   1.361  16.601  0.5394  0.1821 -0.3230
   91TMC2     C 1391   1.015   1.062  16.587  0.0386 -0.3231 -0.2885
   91TMC2     O 1392   0.944   0.963  16.598 -0.0141 -0.0082 -0.0471
   91TMC2     H 1393   1.063   1.305  16.508  0.5431  2.1376  0.1368
   91TMC2    H1 1394   0.814   1.077  16.760  2.6233  1.0884  0.4728
   91TMC2    H2 1395   0.663   1.429  16.585  1.2611  0.7862 -1.3948
   91TMC2    C7 1396   0.602   1.190  16.667  0.5320 -0.1341 -0.0010
   91TMC2    C8 1397   0.891   1.489  16.451  0.8446 -0.3853  0.3052
   91TMC2    O1 1398   0.568   1.105  16.748  0.4424  0.0118  0.1722
   91TMC2    O2 1399   0.984   1.479  16.377  0.8554 -0.7451  0.4930
   91TMC2    O5 1400   0.801   1.587  16.468  0.3936  0.0952 -0.0789
   91TMC2    H5 1401   0.752   1.577  16.553  1.8287  1.5353  0.9264
   92MPD2     C 1402   1.160   0.828  16.467 -0.6543  0.0658  0.4377
   92MPD2    C1 1403   1.214   0.960  16.476 -0.1080 -0.4395  0.0956
   92MPD2    C2 1404   1.326   0.993  16.419  0.3191  0.1593 -0.4314
   92MPD2    C3 1405   1.413   0.899  16.351 -0.2133 -0.2908 -0.1342
   92MPD2    C4 1406   1.361   0.776  16.339 -0.7701 -0.0024 -0.2867
   92MPD2    C5 1407   1.248   0.742  16.402 -0.6683  0.7503  0.5049
   92MPD2     H 1408   1.363   1.095  16.420  1.0428 -0.1162 -0.0628
   92MPD2    H1 1409   1.399   0.708  16.263 -0.1593  0.2587 -0.2154
   92MPD2    H2 1410   1.066   0.792  16.508  0.9596 -1.3206  2.8973
   92MPD2    H3 1411   1.203   0.646  16.379  1.0608  0.1456 -0.3994
   92MPD2     N 1412   1.529   0.951  16.293 -0.1781  0.2746 -0.1797
   92MPD2    H5 1413   1.556   1.047  16.311 -1.7696  1.4234 -3.8851
   92MPD2    N1 1414   1.146   1.067  16.535 -0.5663 -0.3377 -0.1594
   92MPD2    H7 1415   1.191   1.157  16.531  0.0073 -0.6349 -0.4829
   93MPD2     C 1416   1.856   1.903  13.931  0.3345  0.2949 -0.2881
   93MPD2    C1 1417   1.881   1.771  13.911  0.2875  0.2914 -0.6054
   93MPD2    C2 1418   1.780   1.692  13.855 -0.6622  0.0854  0.2548
   93MPD2    C3 1419   1.662   1.745  13.821 -0.1275 -1.4205  0.1696
   93MPD2    C4 1420   1.643   1.882  13.840  0.1391 -0.3295  0.0673
   93MPD2    C5 1421   1.731   1.962  13.901 -0.2359 -0.2330 -0.1978
   93MPD2     H 1422   1.804   1.591  13.821  1.0043  0.5274  0.0944
   93MPD2    H1 1423   1.544   1.916  13.811 -0.2045 -1.8184 -0.5061
   93MPD2    H2 1424   1.936   1.959  13.979 -0.2796  0.9983 -0.0920
   93MPD2    H3 1425   1.721   2.069  13.913 -1.5231 -0.3139 -0.5982
   93MPD2     N 1426   1.558   1.661  13.767  0.1923 -0.4308  0.1365
   93MPD2    H5 1427   1.476   1.709  13.732  0.2670 -0.2809  0.1689
   93MPD2    N1 1428   2.005   1.708  13.934 -0.3654  0.0075 -0.6916
   93MPD2    H7 1429   2.006   1.608  13.915  1.0443  0.0035 -0.6046
   94TCq2    C1 1430   2.128   1.761  13.951 -0.6015 -1.3018 -0.2204
   94TCq2    O2 1431   2.158   1.878  13.939  0.0810 -0.3493  0.0712
   94TCq2    C2 1432   2.232   1.655  13.955 -0.1985 -0.5156 -0.6787
   94TCq2    C3 1433   2.221   1.546  14.041  0.1876 -0.0614  0.3326
   94TCq2    C4 1434   2.335   1.486  14.073  0.7248 -0.2603  0.1427
   94TCq2    C5 1435   2.455   1.519  14.012 -0.7032 -0.5533 -0.7313
   94TCq2    C6 1436   2.470   1.629  13.940 -0.0406 -0.5875  0.0316
   94TCq2    C7 1437   2.354   1.700  13.917 -0.0315  0.0282  0.4247
   94TCq2    C8 1438   2.591   1.653  13.866  0.5425  0.6827  0.6867
   94TCq2    O4 1439   2.679   1.572  13.887  0.5149  0.4130 -0.0396
   94TCq2    C9 1440   2.330   1.380  14.162  0.6838  0.4938  0.3042
   94TCq2    O5 1441   2.235   1.378  14.244 -0.9228  0.0936 -0.3173
   94TCq2    O6 1442   2.436   1.315  14.176 -0.1152  0.1884 -0.4613
   94TCq2    H2 1443   2.125   1.517  14.085  0.3106 -0.3843  0.3904
   94TCq2    H3 1444   2.545   1.464  14.038  0.4214  1.6933  0.1197
   94TCq2    H4 1445   2.369   1.787  13.855  2.8376 -0.7440  0.0240
   95TMC2    C1 1446   2.271   2.553  16.079 -0.6224 -0.0081 -0.6090
   95TMC2    C2 1447   2.264   2.586  16.213  0.2516  0.5314  0.4791
   95TMC2    C3 1448   2.151   2.564  16.274 -0.4084 -0.0279  0.1269
   95TMC2    C4 1449   2.159   2.511  16.009 -0.2403 -0.3182  0.1565
   95TMC2    C5 1450   2.041   2.503  16.081 -0.0995  0.7501 -0.3692
   95TMC2    C6 1451   2.038   2.515  16.212  0.4667  0.3003  0.3725
   95TMC2     C 1452   2.391   2.605  16.015 -0.6511 -0.3067  0.0343
   95TMC2     O 1453   2.468   2.668  16.086 -0.2468  0.4306 -0.2474
   95TMC2     H 1454   2.349   2.638  16.255  1.0140 -0.4936  0.1831
   95TMC2    H1 1455   2.144   2.525  15.903  1.1264  1.8077  0.2266
   95TMC2    H2 1456   1.947   2.513  16.272  0.4144  2.0428  0.3257
   95TMC2    C7 1457   1.939   2.416  16.026  0.3092 -0.4521 -0.6835
   95TMC2    C8 1458   2.137   2.600  16.411  0.3475  0.0701 -0.3880
   95TMC2    O1 1459   1.985   2.320  15.968 -0.4206 -0.5132 -0.4649
   95TMC2    O2 1460   2.053   2.687  16.432  0.2342  0.2127 -0.1557
   95TMC2    O5 1461   2.258   2.596  16.468  0.0305  0.0324 -0.6213
   95TMC2    H5 1462   2.320   2.533  16.426  1.1600  0.5249  0.3138
   96MPD2     C 1463   2.648   2.749  15.593  0.7776  0.5862 -0.5230
   96MPD2    C1 1464   2.676   2.780  15.722  1.2252 -0.5315  0.5855
   96MPD2    C2 1465   2.592   2.735  15.825 -0.2624 -0.6747  0.1825
   96MPD2    C3 1466   2.477   2.659  15.790 -0.0297 -0.1650 -0.1568
   96MPD2    C4 1467   2.456   2.632  15.654  0.3327  0.0052 -0.1310
   96MPD2    C5 1468   2.540   2.681  15.557 -0.4064  0.1740  0.2430
   96MPD2     H 1469   2.624   2.748  15.928  0.3665 -0.3016 -0.0559
   96MPD2    H1 1470   2.371   2.572  15.623 -1.8837  2.2992  1.4158
   96MPD2    H2 1471   2.723   2.780  15.521  0.4822  0.7635 -0.7533
   96MPD2    H3 1472   2.513   2.654  15.455  0.9367  0.3199 -0.1559
   96MPD2     N 1473   2.381   2.608  15.876  0.0695 -0.0548  0.3708
   96MPD2    H5 1474   2.311   2.550  15.832 -2.1141  1.1569  2.2004
   96MPD2    N1 1475   2.804   2.838  15.747  0.2301 -0.6142 -0.3426
   96MPD2    H7 1476   2.852   2.864  15.662 -0.6183 -0.5200 -0.7876
   97MPD2     C 1477   0.090   0.140   1.100  0.0368  0.5830 -0.4250
   97MPD2    C1 1478   0.059   0.022   1.027 -0.1749  0.0140 -0.1889
   97MPD2    C2 1479   0.080   0.026   0.889  1.0091 -0.0288 -0.3887
   97MPD2    C3 1480   0.139   0.133   0.827  0.1817  0.2405  0.2839
   97MPD2    C4 1481   0.158   0.246   0.901  0.5988 -0.6576 -0.5209
   97MPD2    C5 1482   0.140   0.249   1.034  0.2160  0.4753 -0.5144
   97MPD2     H 1483   0.056   4.656   0.833  1.4504  1.1426 -2.4570
   97MPD2    H1 1484   0.190   0.333   0.845 -0.0932  1.5750  2.5289
   97MPD2    H2 1485   0.071   0.154   1.206  0.0065  3.8776 -0.8787
   97MPD2    H3 1486   0.168   0.338   1.090 -0.4234 -0.0898  0.7066
   97MPD2     N 1487   0.166   0.139   0.691  0.1768  0.3905  0.7367
   97MPD2    H5 1488   0.217   0.216   0.649 -0.7669 -0.0495 -1.2508
   97MPD2    N1 1489   4.713   4.634   1.090 -0.4746  0.6445 -0.0198
   97MPD2    H7 1490   4.699   4.641   1.190  0.9347  1.1038  0.1568
   98TCq2    C1 1491   0.135   0.042   0.598  0.3787 -0.0705  0.1499
   98TCq2    O2 1492   0.050   4.674   0.609  0.3079  0.4679 -0.8830
   98TCq2    C2 1493   0.168   0.079   0.464  0.3779 -0.7373  0.0452
   98TCq2    C3 1494   0.076   0.063   0.366 -0.0119  0.3509  0.8619
   98TCq2    C4 1495   0.089   0.122   0.247  0.0977  0.8931  0.1552
   98TCq2    C5 1496   0.203   0.201   0.223 -0.3193 -0.4115 -0.5507
   98TCq2    C6 1497   0.292   0.222   0.327 -0.1100 -0.7349  0.0985
   98TCq2    C7 1498   0.280   0.159   0.447 -0.2143 -0.1621 -0.9095
   98TCq2    C8 1499   0.360   0.352   0.333  0.5477  0.6867 -0.5706
   98TCq2    O4 1500   0.450   0.367   0.414 -0.2255 -0.3961  0.1769
   98TCq2    C9 1501   4.697   0.113   0.153 -0.1885 -0.2192 -1.0734
   98TCq2    O5 1502   4.694   0.203   0.061 -0.3789 -0.6950 -0.5012
   98TCq2    O6 1503   4.606   0.033   0.184 -0.4018  0.0669  0.2430
   98TCq2    H2 1504   4.713   4.715   0.388  1.9396 -0.5784  5.1558
   98TCq2    H3 1505   0.209   0.259   0.131 -0.3637 -2.5637 -1.9175
   98TCq2    H4 1506   0.348   0.194   0.524  0.0179  0.6753 -1.5042
   99MPD2     C 1507   3.098   0.573   2.080 -0.3189  0.2554 -0.2398
   99MPD2    C1 1508   3.094   0.707   2.132 -0.3611 -0.4193 -0.0678
   99MPD2    C2 1509   3.190   0.796   2.087  0.2152  0.3158  0.1353
   99MPD2    C3 1510   3.264   0.763   1.979 -0.2237  0.2181 -0.6102
   99MPD2    C4 1511   3.264   0.632   1.920  0.7563  0.4024 -0.4173
   99MPD2    C5 1512   3.183   0.533   1.977  0.3832 -0.0807  0.1029
   99MPD2     H 1513   3.197   0.896   2.130 -0.9169 -0.2214  1.5993
   99MPD2    H1 1514   3.320   0.602   1.833  3.9282  0.9222  1.4440
   99MPD2    H2 1515   3.022   0.502   2.111  0.0712 -0.5795 -1.1915
   99MPD2    H3 1516   3.178   0.433   1.935  1.2708  0.1046 -0.4494
   99MPD2     N 1517   3.349   0.868   1.932 -0.0560  0.4407  0.3909
   99MPD2    H5 1518   3.337   0.958   1.979 -1.8141  0.7985 -0.7336
   99MPD2    N1 1519   2.990   0.742   2.223  0.4958  0.3358  0.1264
   99MPD2    H7 1520   2.930   0.666   2.253 -0.6945  0.2949 -2.3482
  100TCq2    C1 1521   2.948   0.871   2.233  0.7123  0.0155 -0.0464
  100TCq2    O2 1522   2.987   0.971   2.173  0.0703  0.5753 -0.6713
  100TCq2    C2 1523   2.834   0.903   2.323 -0.0851  0.1926  0.5596
  100TCq2    C3 1524   2.823   0.842   2.445  0.1924  0.8159 -0.9733
  100TCq2    C4 1525   2.731   0.893   2.532 -0.2091 -0.2582 -0.1736
  100TCq2    C5 1526   2.679   1.021   2.509  0.9729 -0.0156  0.6807
  100TCq2    C6 1527   2.705   1.084   2.390  0.1181  0.0549 -0.2217
  100TCq2    C7 1528   2.769   1.022   2.291  0.0257  0.1378  0.2277
  100TCq2    C8 1529   2.644   1.219   2.377 -0.9135 -0.4325 -0.1517
  100TCq2    O4 1530   2.594   1.277   2.470  0.4743 -0.6564  0.0187
  100TCq2    C9 1531   2.706   0.825   2.663 -0.1009 -0.2215  0.1902
  100TCq2    O5 1532   2.646   0.883   2.756 -0.3833  0.0319 -0.8067
  100TCq2    O6 1533   2.783   0.728   2.687  0.4855  0.3254 -0.0925
  100TCq2    H2 1534   2.878   0.753   2.470 -0.2725 -0.2804 -3.8537
  100TCq2    H3 1535   2.620   1.077   2.580 -1.2101 -0.2749 -0.9460
  100TCq2    H4 1536   2.769   1.061   2.190  1.3097  0.7746  0.4796
  101MPD2     C 1537   4.396   3.879  13.036 -0.4654 -0.1747 -0.9441
  101MPD2    C1 1538   4.296   3.947  13.091  0.4322 -0.0367 -0.6237
  101MPD2    C2 1539   4.189   3.887  13.158  0.1949  0.2405 -0.3029
  101MPD2    C3 1540   4.192   3.749  13.163  0.2355 -0.3549 -0.1815
  101MPD2    C4 1541   4.293   3.680  13.099  0.3051  0.0707  0.4483
  101MPD2    C5 1542   4.397   3.743  13.041  0.9883 -0.2556  0.2613
  101MPD2     H 1543   4.112   3.944  13.209 -1.2947 -2.0040 -0.0847
  101MPD2    H1 1544   4.309   3.573  13.108 -0.2311  0.1937  2.8647
  101MPD2    H2 1545   4.481   3.935  12.997  0.0455 -0.5152 -0.3249
  101MPD2    H3 1546   4.481   3.685  13.004  3.8560  2.4630  2.4674
  101MPD2     N 1547   4.088   3.688  13.238 -0.2803  0.0992 -0.1719
  101MPD2    H5 1548   4.023   3.745  13.291  0.0748 -0.9486  1.3925
  101MPD2    N1 1549   4.305   4.091  13.077  0.2965 -0.4897  0.5765
  101MPD2    H7 1550   4.380   4.111  13.012 -0.4670  0.8534  0.1168
  102TCq2    C1 1551   4.439   4.451  12.821  0.0245  1.4591 -0.5360
  102TCq2    O2 1552   4.536   4.372  12.823  0.5845  0.2239 -0.0649
  102TCq2    C2 1553   4.355   4.453  12.938  0.6527  0.3083 -0.2905
  102TCq2    C3 1554   4.255   4.539  12.940 -0.0373  0.7373  0.8359
  102TCq2    C4 1555   4.149   4.521  13.021  0.8193  0.5333  0.9911
  102TCq2    C5 1556   4.146   4.410  13.099  0.4158 -0.2930 -0.6014
  102TCq2    C6 1557   4.250   4.320  13.091  0.0628 -0.4070  0.0679
  102TCq2    C7 1558   4.355   4.343  13.014 -0.5177 -0.5339 -0.2129
  102TCq2    C8 1559   4.222   4.184  13.136 -0.0337 -0.5800 -0.1755
  102TCq2    O4 1560   4.118   4.165  13.199 -0.4158  0.0671  0.1630
  102TCq2    C9 1561   4.051   4.628  13.039 -0.7059 -0.2942  0.0620
  102TCq2    O5 1562   3.939   4.595  13.085 -0.6053 -0.0690 -0.3629
  102TCq2    O6 1563   4.083   0.018  12.984 -0.1974 -0.2504 -0.5501
  102TCq2    H2 1564   4.258   4.637  12.894  1.1722 -0.7654 -2.2545
  102TCq2    H3 1565   4.066   4.390  13.169 -0.0038 -2.6166 -1.7307
  102TCq2    H4 1566   4.446   4.285  13.017 -0.2933 -0.1340  0.8699
  103TMC2    C1 1567   2.877   3.789  12.721 -0.2255 -0.6341  0.3539
  103TMC2    C2 1568   3.002   3.814  12.665  0.5547 -0.7098  0.4456
  103TMC2    C3 1569   3.067   3.917  12.730 -0.7167  0.4446  0.1879
  103TMC2    C4 1570   2.817   3.853  12.826 -0.2450 -0.2693  1.0460
  103TMC2    C5 1571   2.888   3.951  12.879  0.6119  0.6433 -0.3503
  103TMC2    C6 1572   3.009   3.995  12.827  0.2650  0.1994 -0.1762
  103TMC2     C 1573   2.784   3.718  12.632 -0.1761  0.5147 -0.5921
  103TMC2     O 1574   2.666   3.723  12.660  0.3557  0.0642 -0.1122
  103TMC2     H 1575   3.048   3.752  12.589 -0.7630  0.3375 -1.1839
  103TMC2    H1 1576   2.723   3.815  12.864  0.7780 -2.0775  1.7950
  103TMC2    H2 1577   3.059   4.079  12.875 -0.0956  0.4770 -0.2822
  103TMC2    C7 1578   2.812   4.011  12.983 -0.5387 -0.2503  0.0814
  103TMC2    C8 1579   3.159   3.986  12.643 -0.5372  1.5702  0.3017
  103TMC2    O1 1580   2.735   3.942  13.041  0.2955 -0.6756  0.3374
  103TMC2    O2 1581   3.212   3.932  12.548  0.2038 -0.2988 -0.6916
  103TMC2    O5 1582   3.113   4.114  12.629 -0.3242  0.2083 -0.2663
  103TMC2    H5 1583   3.061   4.148  12.705 -0.7466  0.7251 -0.7896
  104MPD2     C 1584   2.834   3.516  12.333 -0.5228 -0.1284  0.4593
  104MPD2    C1 1585   2.762   3.592  12.414 -0.5770  0.1175 -0.3395
  104MPD2    C2 1586   2.624   3.606  12.392 -0.6480  0.2005  0.1834
  104MPD2    C3 1587   2.566   3.533  12.291 -0.1441 -0.5942 -0.4011
  104MPD2    C4 1588   2.643   3.457  12.212 -0.0942  0.0797 -0.6522
  104MPD2    C5 1589   2.779   3.447  12.231 -0.0385  0.1559 -0.0333
  104MPD2     H 1590   2.567   3.663  12.464  2.2884  1.7443  1.3082
  104MPD2    H1 1591   2.606   3.391  12.134 -1.8473  0.2508  0.0331
  104MPD2    H2 1592   2.941   3.509  12.352 -0.8455 -3.2978  1.0743
  104MPD2    H3 1593   2.842   3.388  12.165  2.1450 -0.0379  2.2263
  104MPD2     N 1594   2.428   3.557  12.266 -0.5551 -0.1786 -0.0702
  104MPD2    H5 1595   2.378   3.625  12.323 -0.6360  0.0617 -0.4329
  104MPD2    N1 1596   2.836   3.662  12.513 -0.5487 -0.7707  0.0142
  104MPD2    H7 1597   2.934   3.668  12.487 -0.4854 -0.5201  0.3248
  105MPD2     C 1598   3.969   2.303  17.602 -0.2081  0.3881 -0.1977
  105MPD2    C1 1599   3.916   2.426  17.643 -0.6475 -0.0244  0.4517
  105MPD2    C2 1600   3.899   2.447   0.098  0.3706  0.0239  0.0845
  105MPD2    C3 1601   3.920   2.358   0.195  0.5794  0.2862  0.3152
  105MPD2    C4 1602   3.964   2.227   0.157 -0.0892  0.4931  0.5354
  105MPD2    C5 1603   3.984   2.205   0.017  0.3274 -0.1482 -0.2601
  105MPD2     H 1604   3.866   2.542   0.136 -1.4552 -0.5346 -0.0982
  105MPD2    H1 1605   3.988   2.148   0.227 -0.4878 -0.6432 -0.6076
  105MPD2    H2 1606   3.975   2.254  17.506 -3.2544 -0.7037  0.1793
  105MPD2    H3 1607   4.007   2.107  17.658 -0.9167  0.2208 -1.8464
  105MPD2     N 1608   3.904   2.397   0.327  0.7640 -0.4993  0.0466
  105MPD2    H5 1609   3.880   2.494   0.346 -2.5849 -1.7307  1.9371
  105MPD2    N1 1610   3.900   2.539  17.560  0.5454 -0.3760 -0.3835
  105MPD2    H7 1611   3.879   2.627  17.606  0.7494 -0.2673 -0.5000
  106TCq2    C1 1612   3.897   2.314   0.436 -0.3453 -0.2614  0.2985
  106TCq2    O2 1613   3.915   2.196   0.449  0.6492  0.0081 -0.2768
  106TCq2    C2 1614   3.890   2.394   0.555 -0.3924 -0.6326  0.4491
  106TCq2    C3 1615   3.853   2.526   0.547 -0.2489  0.4733  0.1079
  106TCq2    C4 1616   3.852   2.596   0.669 -0.9277 -0.3210 -0.7498
  106TCq2    C5 1617   3.867   2.534   0.790  0.4666  0.4481 -0.2795
  106TCq2    C6 1618   3.897   2.402   0.783  0.2935  0.9270  0.1921
  106TCq2    C7 1619   3.907   2.326   0.669 -0.1424 -0.3368 -0.4237
  106TCq2    C8 1620   3.891   2.327   0.913 -0.5552 -0.1317  0.5349
  106TCq2    O4 1621   3.867   2.208   0.907 -0.2627  0.1940  0.6387
  106TCq2    C9 1622   3.824   2.741   0.666 -0.5678 -0.5944  0.4307
  106TCq2    O5 1623   3.803   2.802   0.776 -0.0223  0.2077 -0.0107
  106TCq2    O6 1624   3.803   2.791   0.554 -0.0763 -0.2180 -0.6705
  106TCq2    H2 1625   3.822   2.580   0.458  1.5519  1.5593  0.1227
  106TCq2    H3 1626   3.858   2.586   0.885 -0.6566  0.1072 -0.1995
  106TCq2    H4 1627   3.940   2.223   0.666 -0.9267 -0.5746 -0.8273
  107TMC2    C1 1628   4.412   2.276  11.428 -0.8562 -0.3540 -0.1922
  107TMC2    C2 1629   4.396   2.305  11.297 -0.4801  0.2430  1.0734
  107TMC2    C3 1630   4.423   2.211  11.203 -0.2484 -0.2119 -0.1966
  107TMC2    C4 1631   4.447   2.158  11.466 -0.2684 -0.5491 -0.1897
  107TMC2    C5 1632   4.475   2.065  11.375 -0.1297  0.1097 -0.0912
  107TMC2    C6 1633   4.461   2.087  11.242 -0.5238  0.3006 -0.3819
  107TMC2     C 1634   4.394   2.381  11.523 -0.2794 -0.4556  0.2504
  107TMC2     O 1635   4.350   2.358  11.636 -0.9812 -0.6706  0.0338
  107TMC2     H 1636   4.358   2.400  11.262  1.4066  1.3332  1.9510
  107TMC2    H1 1637   4.463   2.131  11.569  2.6976 -1.0272 -0.7755
  107TMC2    H2 1638   4.510   2.018  11.174 -1.4522 -0.2508 -0.4820
  107TMC2    C7 1639   4.505   1.929  11.410 -0.6570  0.1062  0.1214
  107TMC2    C8 1640   4.433   2.264  11.069 -0.7052 -0.0533 -0.0273
  107TMC2    O1 1641   4.561   1.917  11.516 -0.3135 -0.6332  0.8552
  107TMC2    O2 1642   4.463   2.381  11.049  0.7105  0.0755 -0.1536
  107TMC2    O5 1643   4.465   2.162  10.989  0.0314 -0.0100 -0.2850
  107TMC2    H5 1644   4.443   2.073  11.024 -0.9779 -0.6531 -2.5487
  108MPD2     C 1645   4.489   2.725  11.459  0.1506  0.0266 -0.2717
  108MPD2    C1 1646   4.422   2.623  11.530 -0.3571 -0.1884  0.3431
  108MPD2    C2 1647   4.351   2.649  11.647  0.4253  0.0082 -0.0740
  108MPD2    C3 1648   4.341   2.785  11.682  0.4060  0.1475  0.0854
  108MPD2    C4 1649   4.403   2.878  11.606 -0.2129 -0.1072  0.1556
  108MPD2    C5 1650   4.487   2.852  11.507 -0.2570  0.2438 -0.5740
  108MPD2     H 1651   4.303   2.567  11.699  0.0629 -0.2506 -0.8181
  108MPD2    H1 1652   4.389   2.982  11.633  0.5103 -0.2397  1.0461
  108MPD2    H2 1653   4.539   2.712  11.364 -0.0650  1.2931 -0.5555
  108MPD2    H3 1654   4.527   2.928  11.441  1.6971  0.2523  0.6366
  108MPD2     N 1655   4.259   2.830  11.791  0.7793  0.2728  0.9899
  108MPD2    H5 1656   4.250   2.931  11.802  0.7511  0.2987  0.7172
  108MPD2    N1 1657   4.445   2.500  11.474 -0.5743  1.0373 -0.4418
  108MPD2    H7 1658   4.506   2.496  11.393 -0.8227  0.0658 -0.5735
  109MPD2     C 1659   0.689   3.442   2.051 -0.4960 -0.0060 -0.0997
  109MPD2    C1 1660   0.563   3.490   2.074  0.2006  0.1187  0.3938
  109MPD2    C2 1661   0.536   3.627   2.056 -0.2783  1.0281  0.6534
  109MPD2    C3 1662   0.634   3.710   2.005 -0.7310  0.1415 -0.0674
  109MPD2    C4 1663   0.760   3.659   1.993 -0.2675  0.0954  0.4383
  109MPD2    C5 1664   0.791   3.529   1.999 -0.1591  0.4895  0.3503
  109MPD2     H 1665   0.434   3.661   2.065 -0.7323 -0.7853  2.3140
  109MPD2    H1 1666   0.836   3.726   1.954  0.2550  0.5460  2.2298
  109MPD2    H2 1667   0.711   3.338   2.070  0.1997  0.0692 -0.5341
  109MPD2    H3 1668   0.892   3.490   1.991  0.0715  0.7612  1.8482
  109MPD2     N 1669   0.613   3.852   1.992  0.0624 -0.6542  0.5196
  109MPD2    H5 1670   0.518   3.881   2.015  0.1901  2.1915 -2.4140
  109MPD2    N1 1671   0.460   3.395   2.106 -0.3489  0.6028 -0.0907
  109MPD2    H7 1672   0.485   3.298   2.095  0.1152  0.4554  2.3712
  110TCq2    C1 1673   0.713   3.950   1.974  0.0228  0.0977  0.4598
  110TCq2    O2 1674   0.836   3.942   2.003 -0.3026 -0.5182 -0.3390
  110TCq2    C2 1675   0.664   4.079   1.926 -0.3930  0.1499  0.1908
  110TCq2    C3 1676   0.732   4.194   1.948  0.2122 -0.5344 -0.1123
  110TCq2    C4 1677   0.667   4.313   1.917 -0.5634 -0.1836  0.0267
  110TCq2    C5 1678   0.547   4.321   1.858  0.9202  0.1245 -0.1040
  110TCq2    C6 1679   0.484   4.204   1.835 -0.8404  0.4337 -0.1964
  110TCq2    C7 1680   0.539   4.085   1.864 -0.0784 -0.2598 -0.5558
  110TCq2    C8 1681   0.345   4.212   1.784 -1.0365  0.3123  0.2029
  110TCq2    O4 1682   0.323   4.314   1.721 -0.0427  0.1236 -0.2374
  110TCq2    C9 1683   0.735   4.426   1.961  0.6364  0.1900 -0.1444
  110TCq2    O5 1684   0.686   4.532   1.918  0.5095  0.0084  0.3276
  110TCq2    O6 1685   0.826   4.418   2.049  0.1216 -0.5499 -0.4452
  110TCq2    H2 1686   0.817   4.198   2.015 -0.8684  1.0086  1.1897
  110TCq2    H3 1687   0.491   4.413   1.845 -0.3451 -0.7956 -1.1935
  110TCq2    H4 1688   0.492   3.989   1.846  1.7370 -0.8952 -1.9577
  111TMC2    C1 1689   4.029   4.630  11.845  0.0846  0.2486  0.3750
  111TMC2    C2 1690   3.942   4.633  11.950  0.1132  0.5010  0.0047
  111TMC2    C3 1691   3.975   4.561  12.062 -0.0383 -0.1853 -0.7296
  111TMC2    C4 1692   4.130   4.538  11.836  0.3056 -0.0569 -0.2559
  111TMC2    C5 1693   4.152   4.451  11.939 -0.3600 -0.0524 -0.0400
  111TMC2    C6 1694   4.080   4.467  12.054  0.0137  0.5313  0.2488
  111TMC2     C 1695   4.003   4.709  11.725  0.9334 -0.0918  0.0133
  111TMC2     O 1696   4.104   0.040  11.672  0.8278 -0.1314  0.2635
  111TMC2     H 1697   3.881   0.002  11.959 -0.6845  0.1996 -2.2538
  111TMC2    H1 1698   4.189   4.543  11.746  0.1471 -1.3779 -0.4443
  111TMC2    H2 1699   4.104   4.401  12.136 -0.1841  0.9688  0.6638
  111TMC2    C7 1700   4.284   4.391  11.956 -0.1665 -0.3976  0.2847
  111TMC2    C8 1701   3.960   4.627  12.182 -0.2598 -0.2479  1.3429
  111TMC2    O1 1702   4.296   4.304  12.045 -0.0695 -0.2723 -0.4027
  111TMC2    O2 1703   3.973   0.031  12.170 -0.8171 -0.2263  0.2300
  111TMC2    O5 1704   4.006   4.548  12.284 -0.4472 -0.6981 -0.6114
  111TMC2    H5 1705   3.966   4.460  12.266  0.5306 -1.0697 -1.0225
  112MPD2     C 1706   3.685   0.253  11.425  0.1519 -1.0791  0.4227
  112MPD2    C1 1707   3.821   0.226  11.415  0.5052  0.4535 -0.0622
  112MPD2    C2 1708   3.886   0.157  11.513 -0.0168  0.0992  0.0304
  112MPD2    C3 1709   3.815   0.107  11.625  0.0348  0.1651  0.2363
  112MPD2    C4 1710   3.685   0.149  11.639  0.3154  0.0130  0.1285
  112MPD2    C5 1711   3.619   0.212  11.539  0.7568 -0.3587  0.7544
  112MPD2     H 1712   3.987   0.124  11.488  0.2470 -0.5712  2.0007
  112MPD2    H1 1713   3.626   0.119  11.725 -0.0392 -1.7237 -0.7148
  112MPD2    H2 1714   3.627   0.313  11.355 -1.4393 -1.3742  1.4950
  112MPD2    H3 1715   3.516   0.243  11.551 -0.3766 -2.5137 -3.2839
  112MPD2     N 1716   3.875   0.018  11.720 -0.1717 -0.1132  0.1558
  112MPD2    H5 1717   3.813   4.693  11.787 -0.9009  2.9317  1.5472
  112MPD2    N1 1718   3.892   0.259  11.295  0.3338  0.1535  0.2447
  112MPD2    H7 1719   3.983   0.215  11.284 -1.1739 -2.3538 -2.3350
  113MPD2     C 1720   3.287   1.944   0.815 -0.1807 -0.0163 -0.6545
  113MPD2    C1 1721   3.201   1.918   0.920  0.4652  0.3894  0.5508
  113MPD2    C2 1722   3.070   1.924   0.903  0.0604 -0.0142  0.4345
  113MPD2    C3 1723   3.015   1.977   0.791 -0.3158 -0.8054  0.5446
  113MPD2    C4 1724   3.098   2.003   0.682  0.1950  0.1040 -0.5763
  113MPD2    C5 1725   3.232   1.982   0.695 -0.3400  0.1216 -0.2115
  113MPD2     H 1726   2.997   1.894   0.978 -0.1065  1.9680  1.0495
  113MPD2    H1 1727   3.064   2.030   0.583  3.7455  1.4088 -1.4335
  113MPD2    H2 1728   3.396   1.940   0.816 -0.2506 -1.4591  2.1073
  113MPD2    H3 1729   3.301   2.016   0.619 -1.1899  1.1383 -0.5384
  113MPD2     N 1730   2.878   1.992   0.769  0.2407  0.5125  0.1874
  113MPD2    H5 1731   2.844   2.031   0.681  0.3817 -0.2878 -0.2223
  113MPD2    N1 1732   3.254   1.867   1.040  0.4373 -0.6315 -0.2673
  113MPD2    H7 1733   3.188   1.834   1.110 -0.9218  1.4084 -0.5931
  114TCq2    C1 1734   2.776   1.956   0.862  0.4438 -0.3992 -0.0304
  114TCq2    O2 1735   2.778   1.885   0.962  0.1366  0.2275 -0.7201
  114TCq2    C2 1736   2.636   1.996   0.818  0.2259 -0.3346 -0.6272
  114TCq2    C3 1737   2.636   2.100   0.725 -0.4561 -0.4485  0.0743
  114TCq2    C4 1738   2.555   2.093   0.616 -0.1661  0.5404 -0.3746
  114TCq2    C5 1739   2.471   1.987   0.594  0.0379  0.8743  1.0083
  114TCq2    C6 1740   2.478   1.886   0.685  0.3838 -0.2986 -0.4152
  114TCq2    C7 1741   2.557   1.892   0.800 -0.5502  0.0780  0.4682
  114TCq2    C8 1742   2.419   1.754   0.644 -0.0153 -0.2306  0.3169
  114TCq2    O4 1743   2.395   1.733   0.529 -0.1353  0.4745  0.4767
  114TCq2    C9 1744   2.558   2.203   0.526 -0.7023 -0.6523  0.0063
  114TCq2    O5 1745   2.664   2.267   0.509 -0.0417 -0.1116  0.2365
  114TCq2    O6 1746   2.453   2.212   0.452  0.5810 -0.2919 -0.7259
  114TCq2    H2 1747   2.693   2.189   0.745 -1.2861  0.1673 -0.2922
  114TCq2    H3 1748   2.403   1.982   0.510  2.3449  1.3906 -0.9168
  114TCq2    H4 1749   2.569   1.807   0.867  0.4997  1.0624  1.5316
  115TMC2    C1 1750   3.542   4.538   0.273 -0.0038  0.2239  0.2770
  115TMC2    C2 1751   3.674   4.550   0.308  0.0719  0.0090  0.4802
  115TMC2    C3 1752   3.734   4.673   0.311  1.2481  0.0387 -0.7414
  115TMC2    C4 1753   3.472   4.649   0.241 -0.0209  0.4249 -0.3783
  115TMC2    C5 1754   3.534   0.049   0.253 -0.6457 -0.0719 -1.0315
  115TMC2    C6 1755   3.668   0.069   0.288  0.2294  0.3512  0.4420
  115TMC2     C 1756   3.484   4.420   0.219 -0.5642 -0.2030  0.7697
  115TMC2     O 1757   3.374   4.433   0.168  0.2130  0.2191 -0.0142
  115TMC2     H 1758   3.732   4.459   0.319  0.6254  0.7482  3.5337
  115TMC2    H1 1759   3.373   4.647   0.197  0.3382  0.0001 -1.1680
  115TMC2    H2 1760   3.720   0.161   0.267  0.3682  0.1444 -0.1317
  115TMC2    C7 1761   3.451   0.158   0.219  0.1453 -0.8793 -0.6755
  115TMC2    C8 1762   3.871   4.671   0.351 -0.8486 -0.0937  0.4837
  115TMC2    O1 1763   3.330   0.154   0.247  0.1353 -0.1288  0.0468
  115TMC2    O2 1764   3.926   4.562   0.362  0.0189 -0.0114  0.2029
  115TMC2    O5 1765   3.911   0.064   0.406 -0.1203  0.0293 -0.0147
  115TMC2    H5 1766   3.856   0.146   0.404 -0.0252  0.1319  1.1655
  116MPD2     C 1767   3.406   3.916   0.203 -0.0395  0.1081  0.8854
  116MPD2    C1 1768   3.342   4.016   0.132 -0.4357  0.2354  0.6296
  116MPD2    C2 1769   3.397   4.145   0.137 -0.0130  0.0454 -0.1676
  116MPD2    C3 1770   3.510   4.171   0.213 -0.4121 -0.7797  0.6801
  116MPD2    C4 1771   3.565   4.070   0.294  0.6106 -0.0795  0.0937
  116MPD2    C5 1772   3.516   3.944   0.281 -0.4940 -0.0016  0.1071
  116MPD2     H 1773   3.355   4.229   0.082 -0.4388 -1.0512 -1.5160
  116MPD2    H1 1774   3.643   4.092   0.365 -0.9537  3.8421  0.5747
  116MPD2    H2 1775   3.359   3.819   0.218 -0.3335 -0.0591 -1.1314
  116MPD2    H3 1776   3.561   3.872   0.348  1.6428  1.6578  0.4666
  116MPD2     N 1777   3.555   4.304   0.248 -0.0768 -0.4999 -0.2459
  116MPD2    H5 1778   3.616   4.318   0.327 -0.8405  1.4941 -0.0230
  116MPD2    N1 1779   3.224   3.992   0.065 -0.2848 -0.3191 -0.1710
  116MPD2    H7 1780   3.215   3.900   0.023  0.5058 -0.0417 -0.9334
  117TMC2    C1 1781   1.739   1.500  14.194  0.5381 -0.0995 -0.2350
  117TMC2    C2 1782   1.782   1.368  14.198 -1.0206 -0.1112 -0.2734
  117TMC2    C3 1783   1.883   1.350  14.282 -0.4781 -0.0830  0.0908
  117TMC2    C4 1784   1.804   1.603  14.251 -0.1017 -0.3717 -0.2816
  117TMC2    C5 1785   1.925   1.574  14.314  0.2186 -0.2171  0.4137
  117TMC2    C6 1786   1.965   1.449  14.332 -0.3062 -0.4050  0.4285
  117TMC2     C 1787   1.595   1.510  14.159 -0.4253  0.1516 -0.4260
  117TMC2     O 1788   1.528   1.409  14.160 -0.4006 -0.0297  0.1605
  117TMC2     H 1789   1.723   1.291  14.150 -0.0384  0.3207 -2.1765
  117TMC2    H1 1790   1.771   1.705  14.240  1.1861  0.0206 -0.5490
  117TMC2    H2 1791   2.043   1.430  14.405 -0.7166  2.0125  1.4751
  117TMC2    C7 1792   2.013   1.684  14.334  0.0426  0.0356  0.2292
  117TMC2    C8 1793   1.924   1.213  14.286  1.0210 -0.1136  0.3841
  117TMC2    O1 1794   1.967   1.794  14.358 -0.1785  0.0635 -0.3448
  117TMC2    O2 1795   1.841   1.123  14.288  0.3353 -0.4481  0.2150
  117TMC2    O5 1796   2.055   1.206  14.307  0.0066 -0.0849 -0.2477
  117TMC2    H5 1797   2.110   1.282  14.278  0.4354  0.0064  0.7878
  118MPD2     C 1798   2.374   1.636  14.398  0.7052  0.6898 -0.9768
  118MPD2    C1 1799   2.258   1.710  14.378 -0.1689  0.6230  0.8246
  118MPD2    C2 1800   2.265   1.847  14.383  0.3633 -0.0709  0.6650
  118MPD2    C3 1801   2.385   1.913  14.386 -0.2117  0.6922  0.2425
  118MPD2    C4 1802   2.500   1.842  14.406 -0.2071 -0.6604  0.0510
  118MPD2    C5 1803   2.491   1.706  14.416 -0.0682 -0.1245 -0.1522
  118MPD2     H 1804   2.171   1.900  14.370  1.0712  1.0522  0.1234
  118MPD2    H1 1805   2.598   1.888  14.413 -0.1276 -0.8834  0.4248
  118MPD2    H2 1806   2.371   1.528  14.389  0.1958  0.9005 -3.3213
  118MPD2    H3 1807   2.580   1.646  14.431 -0.8601 -0.8758  1.6990
  118MPD2     N 1808   2.404   2.058  14.368 -0.0616  0.2175  0.0590
  118MPD2    H5 1809   2.499   2.088  14.354  0.2918  0.6378  3.4168
  118MPD2    N1 1810   2.145   1.636  14.343 -0.4283  0.2231 -0.1544
  118MPD2    H7 1811   2.166   1.541  14.315  0.7312  0.4025  0.0936
  119MPD2     C 1812   0.492   3.186  14.000 -0.5444 -0.3094 -0.1889
  119MPD2    C1 1813   0.365   3.224  14.024  0.6694  0.5304  0.2979
  119MPD2    C2 1814   0.290   3.265  13.911  1.0961 -0.0739  0.4405
  119MPD2    C3 1815   0.352   3.263  13.786 -0.5074  0.0419  0.8053
  119MPD2    C4 1816   0.484   3.216  13.768  0.2553  0.1060  0.5740
  119MPD2    C5 1817   0.552   3.176  13.878  0.2185  0.0723  0.6984
  119MPD2     H 1818   0.187   3.299  13.920  1.5011  0.7429  2.1507
  119MPD2    H1 1819   0.523   3.187  13.671 -1.8785  0.8564 -0.5135
  119MPD2    H2 1820   0.549   3.149  14.085 -0.1513 -0.5026 -0.5384
  119MPD2    H3 1821   0.641   3.118  13.856  0.6092  0.5084  1.0938
  119MPD2     N 1822   0.280   3.284  13.670  0.4412 -0.1396 -0.6676
  119MPD2    H5 1823   0.328   3.284  13.580  1.1551 -1.1201 -0.2810
  119MPD2    N1 1824   0.304   3.186  14.140 -0.0448 -0.4714 -0.1575
  119MPD2    H7 1825   0.368   3.167  14.217  1.4007 -0.4192 -1.3385
  120TCq2    C1 1826   0.145   3.277  13.648 -0.3213 -0.6753  0.1834
  120TCq2    O2 1827   0.058   3.259  13.730 -0.1274  0.1351 -0.0606
  120TCq2    C2 1828   0.114   3.247  13.507  0.7162  0.0377 -0.0006
  120TCq2    C3 1829   0.213   3.259  13.409 -0.1185  0.0954  0.1315
  120TCq2    C4 1830   0.195   3.217  13.283  1.0443  0.5843 -0.4362
  120TCq2    C5 1831   0.079   3.151  13.249 -0.4827  0.4617 -0.5472
  120TCq2    C6 1832   4.702   3.144  13.345 -0.1386  0.2574 -0.3226
  120TCq2    C7 1833   4.714   3.195  13.473  0.3523  0.3848 -1.0984
  120TCq2    C8 1834   4.577   3.083  13.303  0.5420  0.8975  0.6391
  120TCq2    O4 1835   4.551   3.055  13.188 -0.2510  0.9675 -0.0898
  120TCq2    C9 1836   0.289   3.246  13.182 -0.1898  0.0264 -0.5402
  120TCq2    O5 1837   0.394   3.319  13.211  0.3530 -0.9053  1.1719
  120TCq2    O6 1838   0.275   3.185  13.075 -0.0079 -0.2646 -0.0192
  120TCq2    H2 1839   0.310   3.303  13.429 -0.2302 -1.2295  3.6695
  120TCq2    H3 1840   0.061   3.117  13.148 -2.0812 -1.5254  0.4028
  120TCq2    H4 1841   4.638   3.196  13.550  1.2883  0.4779 -0.1722
  121TMC2    C1 1842   1.766   4.715  14.088  0.0671 -0.2250 -0.5397
  121TMC2    C2 1843   1.698   4.705  14.202 -0.4001  0.0389 -0.4648
  121TMC2    C3 1844   1.569   4.657  14.186 -0.5483  0.7162 -0.4060
  121TMC2    C4 1845   1.716   4.683  13.962  0.6436 -0.3908 -0.4512
  121TMC2    C5 1846   1.586   4.647  13.959 -0.3346  0.4863  0.0165
  121TMC2    C6 1847   1.508   4.636  14.067  0.0835  0.0180 -0.6602
  121TMC2     C 1848   1.900   0.050  14.087  0.1729 -0.4748  0.0163
  121TMC2     O 1849   1.971   0.033  14.189 -0.2247  0.5497 -0.4115
  121TMC2     H 1850   1.730   0.026  14.297 -0.6417  1.1045 -0.8478
  121TMC2    H1 1851   1.778   4.652  13.878 -0.6963  0.5880 -1.7906
  121TMC2    H2 1852   1.401   4.623  14.058  0.2140 -1.7710  0.3714
  121TMC2    C7 1853   1.535   4.692  13.833  0.3674  0.5262 -0.0745
  121TMC2    C8 1854   1.480   4.689  14.294 -0.2107 -0.2711 -0.1724
  121TMC2    O1 1855   1.616   0.016  13.749 -0.1580 -0.6120  0.0335
  121TMC2    O2 1856   1.355   4.688  14.279 -0.0161  0.2087 -0.2371
  121TMC2    O5 1857   1.532   4.642  14.411 -0.8188  0.4581 -0.4285
  121TMC2    H5 1858   1.628   4.620  14.408 -0.1593  2.7827  2.5335
  122MPD2     C 1859   2.159   0.130  13.958 -0.6086 -0.4744  0.5465
  122MPD2    C1 1860   2.040   0.165  13.913 -0.0758 -0.3870 -0.3995
  122MPD2    C2 1861   2.029   0.229  13.792 -0.1854 -0.2594 -0.7067
  122MPD2    C3 1862   2.137   0.266  13.719 -0.2223 -0.6400 -1.0364
  122MPD2    C4 1863   2.259   0.238  13.767  0.6016  1.3277 -0.5483
  122MPD2    C5 1864   2.271   0.177  13.884  0.3650  0.0596 -0.4545
  122MPD2     H 1865   1.932   0.229  13.743  0.7286 -0.1581 -2.5511
  122MPD2    H1 1866   2.353   0.264  13.721  1.6163 -2.5435 -0.5978
  122MPD2    H2 1867   2.176   0.080  14.052 -0.1771 -0.1187  0.6589
  122MPD2    H3 1868   2.371   0.143  13.907 -0.4002 -0.9451  1.4049
  122MPD2     N 1869   2.135   0.322  13.590  0.5141 -0.8418 -0.4593
  122MPD2    H5 1870   2.226   0.346  13.553  0.4549  0.5986  0.3282
  122MPD2    N1 1871   1.915   0.113  13.969 -0.3657  0.3779  0.1171
  122MPD2    H7 1872   1.832   0.146  13.921  0.2152  0.4701 -0.8295
  123MPD2     C 1873   4.290   3.811   9.266  0.5250  0.0232  0.5765
  123MPD2    C1 1874   4.282   3.673   9.253 -0.2529  0.7379  0.2171
  123MPD2    C2 1875   4.396   3.594   9.288  0.3578 -0.1566 -0.4456
  123MPD2    C3 1876   4.517   3.659   9.303 -0.7775  0.8571 -0.1425
  123MPD2    C4 1877   4.529   3.804   9.307  0.3626  0.1025 -0.1271
  123MPD2    C5 1878   4.415   3.870   9.286  0.1978  1.0300 -0.5165
  123MPD2     H 1879   4.394   3.486   9.294  2.1588 -0.1803 -0.2362
  123MPD2    H1 1880   4.621   3.853   9.334  0.4034 -0.1125  0.1280
  123MPD2    H2 1881   4.210   3.882   9.248 -0.2325 -1.4083 -1.6480
  123MPD2    H3 1882   4.418   3.978   9.297  3.1393  0.7093  1.8950
  123MPD2     N 1883   4.626   3.571   9.325  0.2668 -0.1817 -0.4789
  123MPD2    H5 1884   4.606   3.474   9.345 -2.4758  0.5353  0.2774
  123MPD2    N1 1885   4.156   3.618   9.226  0.1866  0.7796  0.0059
  123MPD2    H7 1886   4.071   3.673   9.218 -0.2035 -0.2371 -2.7782
  124TCq2    C1 1887   0.040   3.603   9.309 -0.0277  0.3228 -0.1320
  124TCq2    O2 1888   0.079   3.711   9.269  0.3618 -0.1116 -0.6069
  124TCq2    C2 1889   0.128   3.491   9.329  0.1393  0.0037 -0.0870
  124TCq2    C3 1890   0.229   3.485   9.242  0.5378  0.4043 -0.0478
  124TCq2    C4 1891   0.286   3.362   9.228  0.6759 -0.2332  0.1257
  124TCq2    C5 1892   0.252   3.255   9.311  0.5358 -0.2512 -0.5308
  124TCq2    C6 1893   0.164   3.266   9.407 -0.1556 -0.2044  0.0555
  124TCq2    C7 1894   0.096   3.384   9.419 -0.5834 -0.4082 -0.1245
  124TCq2    C8 1895   0.113   3.139   9.463  0.4992 -0.4506 -0.0864
  124TCq2    O4 1896   0.189   3.040   9.461  0.4618  0.2791  1.0788
  124TCq2    C9 1897   0.372   3.342   9.113  0.2122  0.0261 -0.0911
  124TCq2    O5 1898   0.425   3.443   9.065 -0.1451  0.2683  0.4098
  124TCq2    O6 1899   0.363   3.228   9.061 -0.0685  0.3754 -0.3001
  124TCq2    H2 1900   0.251   3.570   9.178 -1.1534  0.7616 -0.1358
  124TCq2    H3 1901   0.308   3.163   9.297 -0.6458 -0.7710 -1.9136
  124TCq2    H4 1902   0.009   3.393   9.483  0.1626 -1.4205  1.0166
  125TMC2    C1 1903   0.293   0.161   9.451  0.0523  0.0296  0.1138
  125TMC2    C2 1904   0.237   0.071   9.371 -0.1754  0.1276 -1.2298
  125TMC2    C3 1905   0.273   4.660   9.391  0.2596  0.3307 -0.3585
  125TMC2    C4 1906   0.373   0.133   9.558 -0.4524  0.2618  0.1239
  125TMC2    C5 1907   0.400   0.001   9.581  0.3371  0.1661  0.0042
  125TMC2    C6 1908   0.347   4.627   9.499  0.2567 -0.8015  0.9924
  125TMC2     C 1909   0.286   0.307   9.401  0.2307  0.2135 -0.6211
  125TMC2     O 1910   0.222   0.336   9.302 -0.3363  0.1338  0.3747
  125TMC2     H 1911   0.181   0.099   9.282 -2.5994  1.6779  0.7880
  125TMC2    H1 1912   0.410   0.208   9.627  1.6398 -1.3699  0.7414
  125TMC2    H2 1913   0.370   4.523   9.520 -1.9790 -1.6198 -0.7514
  125TMC2    C7 1914   0.506   4.683   9.666  0.6004 -0.2558 -0.1400
  125TMC2    C8 1915   0.202   4.549   9.328  0.6208 -0.1343  0.6191
  125TMC2    O1 1916   0.499   4.564   9.697 -0.1444 -0.1977 -0.0426
  125TMC2    O2 1917   0.185   4.437   9.379  0.3029 -0.3030  0.1103
  125TMC2    O5 1918   0.130   4.602   9.230  0.0099  0.4934 -0.2248
  125TMC2    H5 1919   0.189   4.666   9.185  1.7074 -1.3026 -0.5603
  126MPD1     C 1920   0.362   0.807   9.489 -0.4387  0.3315  0.6139
  126MPD1    C1 1921   0.436   0.737   9.582  0.4575 -0.2557 -0.4797
  126MPD1    C2 1922   0.445   0.596   9.574 -0.3657  0.2616  0.7062
  126MPD1    C3 1923   0.375   0.531   9.480 -0.0898  0.2287  0.4169
  126MPD1    C4 1924   0.304   0.602   9.385  0.0553 -0.4392 -0.1874
  126MPD1    C5 1925   0.301   0.735   9.387 -0.4298 -0.0922  0.1532
  126MPD1     H 1926   0.493   0.540   9.654  0.1492  3.2589  2.4880
  126MPD1    H1 1927   0.249   0.556   9.304  1.4432  0.2174 -1.5077
  126MPD1    H2 1928   0.344   0.914   9.496  2.9304  0.8988  0.3991
  126MPD1    H3 1929   0.245   0.796   9.317 -1.5163  1.0367  1.9902
  126MPD1     N 1930   0.368   0.386   9.480  1.1066 -0.1476 -0.1645
  126MPD1    H5 1931   0.432   0.332   9.537  2.5522  1.0740 -0.6192
  126MPD1    N1 1932   0.481   0.796   9.698  0.5105 -0.0871 -0.4226
  126MPD1    H6 1933   0.502   0.896   9.691 -1.1567  0.2783 -0.1135
  126MPD1    H7 1934   0.564   0.754   9.738  1.5715  0.7245 -1.7364
  127MPD2     C 1935   1.707   3.689   9.478 -0.4256  0.1350  0.9386
  127MPD2    C1 1936   1.751   3.651   9.600  0.3167  0.4881 -0.5236
  127MPD2    C2 1937   1.841   3.734   9.670  0.3460  0.2100  0.1398
  127MPD2    C3 1938   1.859   3.862   9.636 -0.1280  0.0188  0.3453
  127MPD2    C4 1939   1.791   3.908   9.524  0.1166  0.5433 -0.5001
  127MPD2    C5 1940   1.726   3.819   9.444 -0.2494 -0.4447  0.0515
  127MPD2     H 1941   1.897   3.704   9.758 -1.9456 -0.3670  1.4077
  127MPD2    H1 1942   1.789   4.014   9.499 -2.4218  1.2842  2.7649
  127MPD2    H2 1943   1.640   3.631   9.416  3.5927 -1.2139 -2.1753
  127MPD2    H3 1944   1.677   3.857   9.355  0.0630 -0.4543 -0.1248
  127MPD2     N 1945   1.940   3.946   9.721  0.6756  0.2314  0.1640
  127MPD2    H5 1946   1.975   3.895   9.802 -1.2472 -0.8688  0.2951
  127MPD2    N1 1947   1.727   3.520   9.642  0.3275  0.1988 -0.4720
  127MPD2    H7 1948   1.671   3.473   9.572 -0.9115 -0.2145  0.7911
  128TCq2    C1 1949   1.773   3.462   9.760  1.2586  1.0863 -0.3493
  128TCq2    O2 1950   1.868   3.502   9.829 -0.6341  0.0682 -0.1782
  128TCq2    C2 1951   1.721   3.324   9.770  0.1460 -0.2626  0.1310
  128TCq2    C3 1952   1.627   3.278   9.689 -0.2212 -0.6597  0.2196
  128TCq2    C4 1953   1.602   3.148   9.679  0.3126  0.0801  0.4479
  128TCq2    C5 1954   1.680   3.057   9.744 -0.8246  0.3229 -0.4346
  128TCq2    C6 1955   1.776   3.098   9.838 -0.0078  0.1176 -0.6205
  128TCq2    C7 1956   1.786   3.235   9.855 -0.3858  0.6455 -0.7183
  128TCq2    C8 1957   1.845   3.011   9.930  0.1174 -0.6260  0.2729
  128TCq2    O4 1958   1.859   3.047  10.046 -0.0925 -0.5250  0.1207
  128TCq2    C9 1959   1.509   3.103   9.583  0.0078  0.0293  0.2769
  128TCq2    O5 1960   1.466   3.194   9.503  0.0294 -0.3848  0.1392
  128TCq2    O6 1961   1.510   2.981   9.560  0.2534  0.0077 -0.3477
  128TCq2    H2 1962   1.567   3.351   9.636  2.4673  1.2443 -0.1937
  128TCq2    H3 1963   1.656   2.952   9.735  0.6766 -0.0021 -0.5484
  128TCq2    H4 1964   1.869   3.267   9.918  0.0755 -1.9537 -0.0125
  129MPD2     C 1965   0.267   4.034   1.390  0.5595 -0.3845  0.3034
  129MPD2    C1 1966   0.407   4.031   1.355  0.0842  0.7090  0.3271
  129MPD2    C2 1967   0.446   4.108   1.247  0.7622 -0.0665 -0.8054
  129MPD2    C3 1968   0.360   4.189   1.175 -0.7348  0.4636  0.0547
  129MPD2    C4 1969   0.229   4.194   1.224 -0.1071  0.4788  0.0901
  129MPD2    C5 1970   0.188   4.121   1.332  0.0477 -0.9429 -0.2834
  129MPD2     H 1971   0.551   4.099   1.219  1.1619  1.6358  0.0961
  129MPD2    H1 1972   0.160   4.255   1.167  0.2293  1.0937  0.3373
  129MPD2    H2 1973   0.223   3.984   1.475  0.9517 -0.3223  0.5438
  129MPD2    H3 1974   0.086   4.125   1.367  0.8498  4.3524  1.4744
  129MPD2     N 1975   0.399   4.260   1.063  0.0051  0.0396 -1.0082
  129MPD2    H5 1976   0.494   4.240   1.032 -0.4950 -0.4459 -2.2150
  129MPD2    N1 1977   0.498   3.942   1.417 -0.1318  0.0577  0.2814
  129MPD2    H7 1978   0.597   3.958   1.400 -0.2937 -1.1113 -1.8215
  130TCq2    C1 1979   0.459   3.855   1.519  1.2690 -0.5611 -0.0727
  130TCq2    O2 1980   0.348   3.819   1.560  0.4291  0.3365 -0.4597
  130TCq2    C2 1981   0.575   3.776   1.566 -0.0409  0.8174  0.5220
  130TCq2    C3 1982   0.701   3.823   1.553 -0.1448  0.1977 -0.1821
  130TCq2    C4 1983   0.808   3.748   1.584  0.1073 -0.2516 -0.9911
  130TCq2    C5 1984   0.789   3.626   1.639  0.2963  0.1016  0.1373
  130TCq2    C6 1985   0.667   3.577   1.655 -0.1561 -0.5097  0.2860
  130TCq2    C7 1986   0.563   3.650   1.615 -0.3575 -0.2313  0.3377
  130TCq2    C8 1987   0.648   3.437   1.671  0.8995  0.4960 -0.0906
  130TCq2    O4 1988   0.531   3.392   1.659 -0.5479  0.1833 -0.5051
  130TCq2    C9 1989   0.941   3.797   1.567  0.2222  0.1762 -0.2370
  130TCq2    O5 1990   1.041   3.727   1.596  0.1912 -0.1329 -0.5339
  130TCq2    O6 1991   0.965   3.898   1.490  0.1821  0.1719 -0.0891
  130TCq2    H2 1992   0.715   3.922   1.512  0.3059  0.1300 -0.1894
  130TCq2    H3 1993   0.878   3.583   1.682  0.7278 -1.6922 -2.5860
  130TCq2    H4 1994   0.462   3.610   1.617  0.0148 -1.1079  1.4457
  131MPD2     C 1995   3.980   2.984   9.827 -0.2039 -0.2653 -0.1687
  131MPD2    C1 1996   4.067   3.081   9.794 -0.1383  0.1723 -0.1632
  131MPD2    C2 1997   4.039   3.164   9.689 -0.4083 -0.1134  0.7058
  131MPD2    C3 1998   3.926   3.151   9.614 -0.0956  0.0871 -0.5499
  131MPD2    C4 1999   3.842   3.047   9.640  0.6226  1.3269  0.6182
  131MPD2    C5 2000   3.864   2.983   9.762  0.1493 -0.1516 -0.1046
  131MPD2     H 2001   4.113   3.233   9.651 -0.2761  0.1484  1.4543
  131MPD2    H1 2002   3.744   3.031   9.598  1.6363 -0.9886 -0.8656
  131MPD2    H2 2003   3.996   2.910   9.904 -1.7461 -0.6035 -0.1752
  131MPD2    H3 2004   3.790   2.909   9.792  0.3656 -0.6178 -0.7279
  131MPD2     N 2005   3.909   3.227   9.503 -0.4314 -0.1348 -0.1244
  131MPD2    H5 2006   3.977   3.300   9.485  1.6051 -2.1261 -0.4988
  131MPD2    N1 2007   4.184   3.090   9.871  0.0906  0.9010 -0.2524
  131MPD2    H7 2008   4.184   3.028   9.951  0.9076 -0.8052 -1.5707
  132TCq2    C1 2009   0.039   3.214   9.926  0.9773  0.7770 -0.5809
  132TCq2    O2 2010   0.134   3.155   9.975  0.9935  0.0275 -0.0938
  132TCq2    C2 2011   4.629   3.156   9.955  0.0866  0.4324 -0.1242
  132TCq2    C3 2012   4.629   3.056  10.048 -0.3949 -0.3386  0.1261
  132TCq2    C4 2013   4.511   2.995  10.070  0.6478  0.4019  0.0567
  132TCq2    C5 2014   4.396   3.050  10.020  0.1675 -0.8517 -0.2979
  132TCq2    C6 2015   4.398   3.155   9.937  0.6081 -0.2890 -0.1207
  132TCq2    C7 2016   4.515   3.208   9.896 -0.1000 -0.3611 -0.6158
  132TCq2    C8 2017   4.282   3.182   9.857 -0.8097  0.3198 -0.5579
  132TCq2    O4 2018   4.291   3.274   9.777 -0.1689  0.0174 -0.1772
  132TCq2    C9 2019   4.509   2.882  10.157 -0.3421 -0.1495  0.4085
  132TCq2    O5 2020   4.414   2.808  10.131 -0.1374  0.3658 -0.1303
  132TCq2    O6 2021   4.600   2.865  10.241 -0.2113 -0.1148  0.5814
  132TCq2    H2 2022   4.718   3.016  10.097 -1.4784 -1.2259  1.3550
  132TCq2    H3 2023   4.304   3.014  10.065  1.3121 -3.7529 -0.2779
  132TCq2    H4 2024   4.515   3.289   9.825 -2.0232  1.4717  1.4714
  133MPD2     C 2025   2.574   3.735   8.964  0.4835 -0.8106  0.1127
  133MPD2    C1 2026   2.586   3.872   8.964 -0.2140  0.5749  0.6934
  133MPD2    C2 2027   2.712   3.919   8.989  0.0678 -0.0020 -0.2278
  133MPD2    C3 2028   2.822   3.846   9.031  0.3823  0.1033 -0.5363
  133MPD2    C4 2029   2.800   3.711   9.039 -0.8310 -0.8730  0.2904
  133MPD2    C5 2030   2.681   3.655   9.003 -0.4481 -0.5842 -0.4812
  133MPD2     H 2031   2.732   4.023   8.965  1.9450 -0.6071 -1.2826
  133MPD2    H1 2032   2.870   3.637   9.075 -0.2554 -0.1743  0.6213
  133MPD2    H2 2033   2.480   3.688   8.940 -0.3110  0.3301  1.0013
  133MPD2    H3 2034   2.670   3.548   9.018 -0.0951 -0.7863 -1.6573
  133MPD2     N 2035   2.947   3.895   9.070 -0.2236 -0.1343  0.2507
  133MPD2    H5 2036   3.025   3.835   9.094  0.8632  1.2779  0.2087
  133MPD2    N1 2037   2.476   3.946   8.913  0.1842  0.6242  0.3367
  133MPD2    H7 2038   2.402   3.891   8.871  0.5233 -0.8021  1.6184
  134TCq2    C1 2039   2.467   4.084   8.915  0.6460  0.8210 -0.2727
  134TCq2    O2 2040   2.535   4.161   8.978 -0.4726 -0.2985 -0.3023
  134TCq2    C2 2041   2.345   4.125   8.850  0.4513 -0.4957 -0.0759
  134TCq2    C3 2042   2.293   4.044   8.759  0.1012 -0.5959 -0.6839
  134TCq2    C4 2043   2.168   4.064   8.708  0.2234 -0.0872 -0.6357
  134TCq2    C5 2044   2.101   4.178   8.751  0.0552  0.0945  0.5630
  134TCq2    C6 2045   2.152   4.253   8.855  0.0271  0.3533 -0.3673
  134TCq2    C7 2046   2.275   4.229   8.911 -0.3114  0.1598  0.4711
  134TCq2    C8 2047   2.049   4.332   8.921 -0.3994  0.6563  0.2129
  134TCq2    O4 2048   1.945   4.354   8.857  0.0680  0.4283 -0.0720
  134TCq2    C9 2049   2.101   3.966   8.627  0.0120  0.2861 -0.4260
  134TCq2    O5 2050   2.146   3.849   8.632  0.3338 -0.2360  0.0090
  134TCq2    O6 2051   1.990   4.005   8.580  0.1109 -0.0316 -0.2196
  134TCq2    H2 2052   2.344   3.966   8.703 -0.5957 -0.2271 -1.8300
  134TCq2    H3 2053   2.017   4.213   8.692  0.9912  2.6824  0.7814
  134TCq2    H4 2054   2.308   4.290   8.994  0.4029  0.1152  0.2165
  135MPD2     C 2055   1.714   0.516   9.695  0.6047 -0.5252  0.8846
  135MPD2    C1 2056   1.679   0.447   9.581  0.9470 -0.2580  0.4019
  135MPD2    C2 2057   1.762   0.347   9.539 -0.2371 -0.0062 -0.2020
  135MPD2    C3 2058   1.889   0.319   9.590 -0.0675 -0.5557  0.0791
  135MPD2    C4 2059   1.923   0.405   9.700  0.3238 -0.6354  0.1986
  135MPD2    C5 2060   1.843   0.506   9.749  0.1667 -0.0532 -0.4761
  135MPD2     H 2061   1.724   0.277   9.465 -0.0058 -0.2464 -0.0938
  135MPD2    H1 2062   2.013   0.382   9.755  0.4492 -4.8788 -1.8158
  135MPD2    H2 2063   1.651   0.595   9.733  1.3351  0.1344  0.7161
  135MPD2    H3 2064   1.880   0.574   9.825 -1.8761 -1.5242  1.8457
  135MPD2     N 2065   1.984   0.228   9.543 -0.4865 -0.4505  0.3232
  135MPD2    H5 2066   2.068   0.223   9.599  0.5163 -3.2148 -1.4293
  135MPD2    N1 2067   1.552   0.449   9.517  0.3522  1.0345  0.4440
  135MPD2    H7 2068   1.542   0.379   9.444  0.6074  0.2721  1.1394
  136TCq2    C1 2069   1.437   0.512   9.564 -0.7038 -0.6444  0.7431
  136TCq2    O2 2070   1.428   0.590   9.657  0.2368  0.8826 -0.0413
  136TCq2    C2 2071   1.317   0.457   9.500  0.0390  0.1724 -0.3978
  136TCq2    C3 2072   1.320   0.448   9.364 -0.7115 -0.6128 -0.5808
  136TCq2    C4 2073   1.201   0.450   9.299 -0.3526  0.3612 -0.4183
  136TCq2    C5 2074   1.083   0.451   9.364  0.0442 -0.5276 -0.5730
  136TCq2    C6 2075   1.086   0.469   9.501 -0.2885 -0.6616  0.2678
  136TCq2    C7 2076   1.204   0.470   9.573  1.0645  0.6071  0.9678
  136TCq2    C8 2077   0.960   0.449   9.575  0.4150  1.0819 -0.1012
  136TCq2    O4 2078   0.878   0.387   9.511  0.9657  0.3541 -0.1546
  136TCq2    C9 2079   1.203   0.448   9.153 -0.6264  0.0220 -0.3491
  136TCq2    O5 2080   1.317   0.427   9.097  0.0745 -0.2204  0.1207
  136TCq2    O6 2081   1.091   0.440   9.096 -0.2633 -0.1151 -0.6005
  136TCq2    H2 2082   1.406   0.450   9.298  1.5006 -0.8459  2.2846
  136TCq2    H3 2083   0.990   0.440   9.310 -1.3603  2.4127  1.2613
  136TCq2    H4 2084   1.213   0.485   9.680  1.4867 -2.4852  1.3505
  137MPD2     C 2085   1.050   4.065   9.545 -0.6621 -0.3267 -0.0268
  137MPD2    C1 2086   1.065   4.200   9.561 -0.4101 -1.0153  0.7662
  137MPD2    C2 2087   1.118   4.246   9.677 -0.0394 -0.5293 -0.8292
  137MPD2    C3 2088   1.151   4.162   9.782 -0.0453  0.2031  0.8043
  137MPD2    C4 2089   1.124   4.025   9.764  0.1384  0.2342 -0.4039
  137MPD2    C5 2090   1.075   3.979   9.647 -0.2711  0.1487 -1.1663
  137MPD2     H 2091   1.132   4.352   9.694 -0.3223 -0.3723 -1.5759
  137MPD2    H1 2092   1.148   3.952   9.840 -1.1480 -0.9454 -1.1356
  137MPD2    H2 2093   1.010   4.026   9.452 -1.7345  0.9402 -0.1055
  137MPD2    H3 2094   1.058   3.872   9.642 -1.9079  0.2750  1.5489
  137MPD2     N 2095   1.196   4.220   9.900 -0.4306  0.4114  0.0488
  137MPD2    H5 2096   1.205   4.321   9.909 -1.0245  0.3603  1.2815
  137MPD2    N1 2097   1.035   4.288   9.457 -0.2649 -0.0428 -0.3488
  137MPD2    H7 2098   0.998   4.247   9.371 -0.1384  0.2707 -0.5502
  138TCq2    C1 2099   1.094   4.414   9.443  0.4728 -0.2563 -0.7969
  138TCq2    O2 2100   1.178   4.476   9.505 -0.2676 -0.1518 -0.0912
  138TCq2    C2 2101   1.055   4.471   9.312  0.6093  0.1900 -0.0443
  138TCq2    C3 2102   1.157   4.513   9.242 -0.4210  0.0116 -0.0620
  138TCq2    C4 2103   1.137   4.532   9.111 -1.0831 -0.1783  0.0224
  138TCq2    C5 2104   1.017   4.502   9.054  0.4396  0.1567  0.1911
  138TCq2    C6 2105   0.913   4.454   9.131  0.3158  0.1739 -0.1260
  138TCq2    C7 2106   0.930   4.447   9.264  0.0800 -0.0820  0.3540
  138TCq2    C8 2107   0.780   4.441   9.070  0.5348  0.7124  0.2458
  138TCq2    O4 2108   0.778   4.454   8.945  0.3385 -0.7070 -0.2315
  138TCq2    C9 2109   1.254   4.577   9.038  0.6145  0.4440 -0.3201
  138TCq2    O5 2110   1.359   4.591   9.111  0.1306 -0.4746 -0.2226
  138TCq2    O6 2111   1.242   4.601   8.915  0.0799  0.2953  0.3282
  138TCq2    H2 2112   1.254   4.526   9.289 -1.6358  1.5621  2.0115
  138TCq2    H3 2113   1.002   4.539   8.953 -0.6662  0.7645  0.5860
  138TCq2    H4 2114   0.851   4.417   9.333 -2.1556  0.0733 -2.1687
  139TMC2    C1 2115   1.772   2.676  13.196  0.0478  0.0113 -0.3449
  139TMC2    C2 2116   1.808   2.761  13.092  0.1468  0.6791  0.4235
  139TMC2    C3 2117   1.775   2.899  13.102  0.1251  0.1146  0.0089
  139TMC2    C4 2118   1.712   2.718  13.312 -0.1935 -0.4618  0.0142
  139TMC2    C5 2119   1.691   2.858  13.322 -1.1338  0.1523  0.6474
  139TMC2    C6 2120   1.723   2.941  13.221 -0.2954 -0.2918 -0.0187
  139TMC2     C 2121   1.819   2.539  13.192 -0.4417 -0.0670 -0.1356
  139TMC2     O 2122   1.825   2.478  13.085 -0.9211  0.2378  0.1573
  139TMC2     H 2123   1.851   2.714  13.004 -1.4768 -2.4780  1.3255
  139TMC2    H1 2124   1.668   2.643  13.375 -2.4187  1.6453  0.9633
  139TMC2    H2 2125   1.731   3.047  13.238  2.7381 -0.6191  0.7171
  139TMC2    C7 2126   1.646   2.925  13.442 -0.5406  0.1970 -0.5707
  139TMC2    C8 2127   1.779   2.996  13.000 -0.2864  0.2724  0.7920
  139TMC2    O1 2128   1.593   3.032  13.429 -0.2704 -0.2342  0.0440
  139TMC2    O2 2129   1.680   3.065  12.971  0.1714 -0.4981 -0.1233
  139TMC2    O5 2130   1.885   2.978  12.919 -0.3831  0.0892 -0.0918
  139TMC2    H5 2131   1.950   2.915  12.958 -1.0834 -1.9414 -2.2288
  140MPD2     C 2132   2.017   2.404  13.464  0.0263 -0.3492 -0.3046
  140MPD2    C1 2133   1.968   2.403  13.338  0.0595  0.3048  0.1779
  140MPD2    C2 2134   1.993   2.303  13.251 -0.3290 -0.3645 -0.2715
  140MPD2    C3 2135   2.072   2.193  13.288  0.2149  0.1582 -0.1015
  140MPD2    C4 2136   2.134   2.200  13.413  0.3055  0.0472 -0.0540
  140MPD2    C5 2137   2.107   2.305  13.498 -0.2758  0.2592 -0.2345
  140MPD2     H 2138   1.942   2.306  13.155  0.8004  0.4869 -0.8452
  140MPD2    H1 2139   2.204   2.126  13.450  0.7463  1.2636  1.5432
  140MPD2    H2 2140   1.992   2.475  13.542  2.1678  1.2037 -1.0461
  140MPD2    H3 2141   2.139   2.311  13.601 -0.1460 -0.4735 -0.2364
  140MPD2     N 2142   2.079   2.082  13.193 -0.3198  0.6908 -0.4213
  140MPD2    H5 2143   2.031   2.102  13.106  0.6892  1.0925 -0.8996
  140MPD2    N1 2144   1.881   2.511  13.317 -0.1425 -0.5065  0.1829
  140MPD2    H7 2145   1.877   2.584  13.387 -1.2513 -1.7706  1.4422
  141TCq2    C1 2146   2.409   3.850  14.428 -0.1456  0.1485 -0.8060
  141TCq2    O2 2147   2.329   3.925  14.374  0.0697  0.8523 -0.1385
  141TCq2    C2 2148   2.408   3.849  14.571  0.7286  0.1291 -0.3071
  141TCq2    C3 2149   2.491   3.756  14.632 -0.4005  0.1714  0.1023
  141TCq2    C4 2150   2.487   3.747  14.770  0.4142  0.0894  0.1226
  141TCq2    C5 2151   2.399   3.823  14.843 -0.1061 -0.0802  0.4191
  141TCq2    C6 2152   2.327   3.921  14.774  0.4770  0.1607  0.4775
  141TCq2    C7 2153   2.332   3.941  14.636 -1.1682  0.0188 -0.2862
  141TCq2    C8 2154   2.248   4.008  14.859  0.2332 -0.5172  0.2252
  141TCq2    O4 2155   2.239   3.988  14.980  0.0932  0.2295 -0.0270
  141TCq2    C9 2156   2.576   3.653  14.840  0.1336  0.1543  0.5006
  141TCq2    O5 2157   2.664   3.601  14.764 -0.0379 -0.6399 -0.3195
  141TCq2    O6 2158   2.551   3.623  14.955  0.0204 -0.0928 -0.1425
  141TCq2    H2 2159   2.545   3.684  14.573  0.2186 -1.9854  3.3265
  141TCq2    H3 2160   2.407   3.827  14.951  2.2606  0.7841  0.2159
  141TCq2    H4 2161   2.267   4.015  14.590 -0.0059  0.2429 -1.5817
  142MPD2     C 2162   4.403   2.009  10.349  0.2154 -0.3349 -0.2738
  142MPD2    C1 2163   4.377   2.062  10.219 -0.8890  0.3855 -0.1267
  142MPD2    C2 2164   4.478   2.144  10.159 -0.1353 -0.4031 -0.1950
  142MPD2    C3 2165   4.589   2.181  10.226  0.4353  0.0737  0.2738
  142MPD2    C4 2166   4.611   2.129  10.351 -0.7636 -0.3767 -0.5175
  142MPD2    C5 2167   4.516   2.053  10.410 -0.6448  0.5093 -0.2033
  142MPD2     H 2168   4.473   2.180  10.056  1.2887 -2.0242 -0.8358
  142MPD2    H1 2169   4.705   2.154  10.398 -0.2840 -1.4146 -0.9216
  142MPD2    H2 2170   4.334   1.948  10.406  1.2319 -0.1338  1.1708
  142MPD2    H3 2171   4.540   2.001  10.503 -3.2061  1.0452  0.7500
  142MPD2     N 2172   4.690   2.278  10.187 -0.0413  0.6317 -0.8357
  142MPD2    H5 2173   0.052   2.295  10.245 -0.6483 -0.8047  0.4118
  142MPD2    N1 2174   4.250   2.025  10.164  0.0448  0.3171 -0.6697
  142MPD2    H7 2175   4.181   1.990  10.229 -1.4283  1.6971 -1.4922
  143TCq2    C1 2176   4.680   2.354  10.074 -0.6197 -0.8980  0.4032
  143TCq2    O2 2177   4.607   2.336   9.980 -0.5104  0.7652  0.4834
  143TCq2    C2 2178   0.044   2.472  10.073 -0.1123  1.0683 -0.5058
  143TCq2    C3 2179   0.144   2.497  10.164  0.7003 -0.0693  0.1321
  143TCq2    C4 2180   0.229   2.601  10.146 -0.0424  0.6634 -0.4485
  143TCq2    C5 2181   0.199   2.701  10.048 -0.4401 -0.4971 -1.1158
  143TCq2    C6 2182   0.092   2.681   9.962 -0.6266  0.1833  0.0631
  143TCq2    C7 2183   0.014   2.568   9.976  0.5029  0.5923  0.6855
  143TCq2    C8 2184   0.071   2.772   9.852  0.7404  0.3657 -0.6043
  143TCq2    O4 2185   0.174   2.831   9.815  0.2358  0.0644 -0.2819
  143TCq2    C9 2186   0.330   2.644  10.241  0.0807  0.5034 -0.9437
  143TCq2    O5 2187   0.384   2.759  10.225 -0.1481  0.3047  0.3857
  143TCq2    O6 2188   0.328   2.576  10.349 -0.3870 -0.1462 -0.4783
  143TCq2    H2 2189   0.156   2.443  10.257 -1.4142 -1.0584 -0.1588
  143TCq2    H3 2190   0.262   2.788  10.037 -1.9369  0.9726  1.7373
  143TCq2    H4 2191   4.650   2.548   9.909  0.9702 -2.3103  0.9678
  144MPD2     C 2192   2.717   1.253   0.582 -0.5664 -0.3762  0.5433
  144MPD2    C1 2193   2.762   1.138   0.526 -0.2429  0.5255 -0.0546
  144MPD2    C2 2194   2.871   1.079   0.583  0.0840 -0.8862 -0.2990
  144MPD2    C3 2195   2.943   1.137   0.684 -0.1906  1.0871 -0.4245
  144MPD2    C4 2196   2.896   1.255   0.734  0.2018  0.3809 -0.1259
  144MPD2    C5 2197   2.783   1.314   0.685 -0.4201 -0.5228 -0.5521
  144MPD2     H 2198   2.918   0.999   0.528 -1.0454 -1.0114 -1.0835
  144MPD2    H1 2199   2.945   1.308   0.814 -2.6480  1.8147  0.6641
  144MPD2    H2 2200   2.628   1.308   0.552  0.2296  0.9596  0.6227
  144MPD2    H3 2201   2.747   1.405   0.732  0.4480  0.5711 -1.9779
  144MPD2     N 2202   3.055   1.084   0.738  0.3318  0.2774 -0.7072
  144MPD2    H5 2203   3.103   1.130   0.814  0.8710 -1.3981 -0.0408
  144MPD2    N1 2204   2.689   1.078   0.423 -0.4936 -0.2181 -0.1750
  144MPD2    H7 2205   2.732   0.992   0.391  0.3500  0.6067 -1.2751
  145TCq2    C1 2206   3.119   0.974   0.687 -0.5567 -0.2357  0.1376
  145TCq2    O2 2207   3.100   0.908   0.587  0.8277  0.5438  0.0555
  145TCq2    C2 2208   3.230   0.932   0.756  0.4444 -0.3018 -0.1412
  145TCq2    C3 2209   3.326   0.877   0.684  0.4371 -0.5111  0.0301
  145TCq2    C4 2210   3.437   0.847   0.756  0.3978 -0.5771  0.0454
  145TCq2    C5 2211   3.456   0.877   0.894 -0.5110 -0.5748  0.0501
  145TCq2    C6 2212   3.355   0.940   0.952  0.3418 -0.1131 -0.1136
  145TCq2    C7 2213   3.235   0.964   0.885 -0.7732 -0.1976  0.3356
  145TCq2    C8 2214   3.368   0.966   1.094 -0.0437  0.1157  0.4823
  145TCq2    O4 2215   3.456   0.898   1.148  0.3783 -0.4108 -0.5169
  145TCq2    C9 2216   3.532   0.754   0.691  0.1713  0.1024  0.1335
  145TCq2    O5 2217   3.556   0.771   0.567 -0.3853  0.1328  0.6705
  145TCq2    O6 2218   3.581   0.674   0.773 -0.3041  0.0130 -0.3914
  145TCq2    H2 2219   3.321   0.842   0.582  3.2949 -1.3257  0.1768
  145TCq2    H3 2220   3.547   0.838   0.940 -0.2980  1.8073  1.6491
  145TCq2    H4 2221   3.148   0.996   0.941  0.3240 -0.1955  2.0241
  146TMC2    C1 2222   3.883   0.483  12.306  0.1771  0.7156  0.2858
  146TMC2    C2 2223   3.775   0.437  12.236 -0.1212  1.4309  0.3539
  146TMC2    C3 2224   3.810   0.342  12.142 -0.0918  0.2851  0.1253
  146TMC2    C4 2225   4.014   0.441  12.291  0.3597  0.0208  0.0404
  146TMC2    C5 2226   4.036   0.363  12.179  0.1571 -0.0270  0.1571
  146TMC2    C6 2227   3.934   0.311  12.108  0.5737  0.2061 -0.8762
  146TMC2     C 2228   3.834   0.551  12.421 -0.4930 -0.0453 -0.0215
  146TMC2     O 2229   3.740   0.623  12.407  0.0216 -0.4372  0.4993
  146TMC2     H 2230   3.671   0.465  12.243 -0.0280  2.0735 -0.7826
  146TMC2    H1 2231   4.098   0.484  12.345  1.2582 -1.0145 -0.5277
  146TMC2    H2 2232   3.960   0.246  12.025  0.3380 -0.7877 -0.1809
  146TMC2    C7 2233   4.167   0.303  12.165  0.0014 -0.3507  0.8732
  146TMC2    C8 2234   3.699   0.271  12.077  0.1429 -0.4041  0.0766
  146TMC2    O1 2235   4.207   0.286  12.049 -0.5132 -0.2240  0.2698
  146TMC2    O2 2236   3.609   0.221  12.144 -0.8500  0.0375 -0.3208
  146TMC2    O5 2237   3.683   0.307  11.954  0.0179  0.6296 -0.1229
  146TMC2    H5 2238   3.745   0.372  11.914  1.2366  0.5274  1.6054
  147MPD2     C 2239   4.630   0.161  12.321 -0.6223  0.7765  0.0733
  147MPD2    C1 2240   4.551   0.170  12.432 -0.0472 -0.6689  0.1264
  147MPD2    C2 2241   4.425   0.225  12.414 -0.7856 -0.0600  0.3918
  147MPD2    C3 2242   4.373   0.252  12.289 -0.5451  0.5546  0.5890
  147MPD2    C4 2243   4.454   0.234  12.179 -0.1529 -0.0221 -0.9212
  147MPD2    C5 2244   4.585   0.198  12.193  0.5977 -0.1741 -0.6156
  147MPD2     H 2245   4.367   0.245  12.504 -0.5623  1.2361  0.2469
  147MPD2    H1 2246   4.419   0.246  12.077  1.3268 -2.7298 -1.7229
  147MPD2    H2 2247   0.016   0.139  12.332 -0.6112 -0.8617 -3.4030
  147MPD2    H3 2248   4.647   0.191  12.105 -0.1727  0.1949 -1.1871
  147MPD2     N 2249   4.238   0.294  12.278  0.4109  0.0195  0.5098
  147MPD2    H5 2250   4.186   0.298  12.366 -1.6743 -1.3029 -0.6555
  147MPD2    N1 2251   4.609   0.137  12.554  0.1368  0.3374 -0.2626
  147MPD2    H7 2252   4.705   0.102  12.556 -0.2891 -0.8161  0.4363
  148MPD2     C 2253   3.801   4.193  10.438 -0.2517 -0.7350  0.1502
  148MPD2    C1 2254   3.848   4.062  10.428 -0.4063 -1.1564  0.5635
  148MPD2    C2 2255   3.779   3.967  10.353  0.5223  0.3371 -0.0382
  148MPD2    C3 2256   3.662   3.999  10.287  0.4689 -0.8303 -0.5044
  148MPD2    C4 2257   3.619   4.126  10.305 -0.1866  0.0725  0.1172
  148MPD2    C5 2258   3.683   4.221  10.372 -0.1704  0.5277  0.0725
  148MPD2     H 2259   3.816   3.865  10.353  1.4072  0.6637 -0.5189
  148MPD2    H1 2260   3.539   4.164  10.243 -0.6699 -2.5786 -0.9155
  148MPD2    H2 2261   3.851   4.280  10.478 -1.1370 -0.5418  0.8328
  148MPD2    H3 2262   3.636   4.317  10.389 -0.8872  0.4288 -1.2865
  148MPD2     N 2263   3.589   3.925  10.196  0.5664  1.0792 -0.2138
  148MPD2    H5 2264   3.503   3.965  10.160  0.7579 -0.4542 -2.3642
  148MPD2    N1 2265   3.969   4.022  10.495 -0.8352  0.1503 -0.2224
  148MPD2    H7 2266   4.001   3.928  10.473 -1.9570  0.7612 -4.5701
  149TCq2    C1 2267   4.034   4.106  10.586 -0.5226 -0.0301  0.0928
  149TCq2    O2 2268   3.984   4.198  10.648  0.2123 -0.4421  0.3330
  149TCq2    C2 2269   4.167   4.062  10.611 -0.1633 -0.3654 -0.3681
  149TCq2    C3 2270   4.238   4.141  10.703 -0.0263 -0.1410 -0.0447
  149TCq2    C4 2271   4.368   4.119  10.725  0.6159  0.6328 -0.7690
  149TCq2    C5 2272   4.421   4.004  10.667 -0.2201  0.1852  0.1392
  149TCq2    C6 2273   4.347   3.923  10.586 -0.5943 -0.1441 -0.1238
  149TCq2    C7 2274   4.222   3.953  10.547  0.2228  0.2652  0.9576
  149TCq2    C8 2275   4.383   3.778  10.572  0.3153  0.2773 -0.1835
  149TCq2    O4 2276   4.311   3.707  10.502 -0.0381  0.0291 -0.1587
  149TCq2    C9 2277   4.426   4.163  10.850 -0.4288  0.1083 -0.0460
  149TCq2    O5 2278   4.342   4.209  10.925  0.4936  0.2322 -0.1920
  149TCq2    O6 2279   4.546   4.134  10.874  0.3229  0.1538  0.1416
  149TCq2    H2 2280   4.191   4.226  10.751  0.0228 -0.5089  0.6600
  149TCq2    H3 2281   4.510   3.963  10.714  2.4396  3.5970 -1.9934
  149TCq2    H4 2282   4.163   3.886  10.485  0.2275 -0.1228  1.3787
  150MPD2     C 2283   1.473   2.754  12.164 -0.5762 -0.8629  0.0113
  150MPD2    C1 2284   1.360   2.846  12.161 -0.2999 -0.1002 -0.8833
  150MPD2    C2 2285   1.383   2.975  12.208 -0.3438 -0.2638 -0.9935
  150MPD2    C3 2286   1.507   3.024  12.256 -0.2746  0.7877 -0.1327
  150MPD2    C4 2287   1.617   2.933  12.266 -0.3017  0.4346  0.0039
  150MPD2    C5 2288   1.591   2.802  12.225 -0.2755  0.5233 -0.3487
  150MPD2     H 2289   1.296   3.039  12.216 -0.7431 -1.1819  1.8911
  150MPD2    H1 2290   1.714   2.958  12.307  0.0001  0.3754 -0.6702
  150MPD2    H2 2291   1.472   2.649  12.137  0.5562 -0.7616 -0.4225
  150MPD2    H3 2292   1.657   2.720  12.250 -1.0275 -0.2878 -1.0171
  150MPD2     N 2293   1.522   3.158  12.297  0.3049 -0.1573  0.1710
  150MPD2    H5 2294   1.449   3.219  12.260  0.5765 -0.7397 -1.3496
  150MPD2    N1 2295   1.234   2.788  12.125  0.4642 -0.1262 -0.2657
  150MPD2    H7 2296   1.233   2.689  12.103  0.9851  0.2493 -1.9797
  151TCq2    C1 2297   1.637   3.205  12.358  0.0810  0.5628 -0.0844
  151TCq2    O2 2298   1.716   3.145  12.429  0.0733 -0.4389 -0.6988
  151TCq2    C2 2299   1.653   3.346  12.340  0.7197  0.0739 -0.2275
  151TCq2    C3 2300   1.597   3.408  12.227 -0.2363  0.1186  0.5410
  151TCq2    C4 2301   1.644   3.533  12.200 -0.1473 -0.0418 -0.2496
  151TCq2    C5 2302   1.740   3.602  12.274 -0.1424  0.2079 -0.9474
  151TCq2    C6 2303   1.802   3.526  12.375  0.8325  0.0625  0.2825
  151TCq2    C7 2304   1.755   3.403  12.409  0.3980 -0.0800 -0.2784
  151TCq2    C8 2305   1.926   3.573  12.437  0.5049 -0.3207  0.1998
  151TCq2    O4 2306   1.955   3.694  12.433  0.3367 -0.1673  0.1163
  151TCq2    C9 2307   1.588   3.601  12.085 -0.4614 -0.1913 -1.0266
  151TCq2    O5 2308   1.549   3.522  11.986  0.0240  0.0339 -0.7662
  151TCq2    O6 2309   1.574   3.723  12.092  0.2153  0.2324 -0.5489
  151TCq2    H2 2310   1.521   3.355  12.171  0.8779  0.1002 -0.9502
  151TCq2    H3 2311   1.777   3.700  12.246  0.4587  0.5545  1.0240
  151TCq2    H4 2312   1.784   3.358  12.504  0.2423 -0.6160 -0.4809
  152MPD2     C 2313   1.071   2.701  12.940  0.0036  0.5320  0.3676
  152MPD2    C1 2314   1.069   2.782  12.829 -0.2005  0.4640 -0.3022
  152MPD2    C2 2315   0.943   2.798  12.772 -0.6730 -0.1872 -0.3385
  152MPD2    C3 2316   0.834   2.743  12.833 -0.5233 -0.2042  0.1602
  152MPD2    C4 2317   0.844   2.651  12.931 -0.3099 -0.4871  0.2324
  152MPD2    C5 2318   0.965   2.631  12.984 -0.0865 -0.7664  0.3884
  152MPD2     H 2319   0.940   2.879  12.699 -0.8994  1.3694  1.3835
  152MPD2    H1 2320   0.764   2.591  12.975 -0.4490  0.5919  1.4486
  152MPD2    H2 2321   1.164   2.682  12.992 -0.8579 -2.4487  0.8475
  152MPD2    H3 2322   0.960   2.560  13.066 -0.9873  0.8841  1.7630
  152MPD2     N 2323   0.718   2.782  12.778  0.1341  0.2909 -0.1067
  152MPD2    H5 2324   0.707   2.842  12.697  1.6607 -2.0762 -2.0883
  152MPD2    N1 2325   1.185   2.833  12.766 -0.0607  0.1083 -0.2554
  152MPD2    H7 2326   1.275   2.817  12.812  0.3883 -1.7094 -1.7760
  153TCq2    C1 2327   1.190   2.920  12.656  0.2468  0.3167  0.5612
  153TCq2    O2 2328   1.107   2.981  12.592 -0.4336  0.4489 -0.8370
  153TCq2    C2 2329   1.323   2.950  12.636 -0.3914  0.3855 -0.1334
  153TCq2    C3 2330   1.414   2.855  12.631 -0.0157 -0.7528 -0.3797
  153TCq2    C4 2331   1.542   2.898  12.650  0.2066  0.0480  0.3927
  153TCq2    C5 2332   1.572   3.027  12.686  0.0247  0.6516  0.2585
  153TCq2    C6 2333   1.474   3.121  12.685  0.4103 -0.1998 -0.1437
  153TCq2    C7 2334   1.349   3.082  12.650  0.0152 -0.6186  0.4847
  153TCq2    C8 2335   1.500   3.267  12.716 -0.1014 -0.1261 -0.0635
  153TCq2    O4 2336   1.433   3.357  12.671  0.4974 -0.2863 -0.1179
  153TCq2    C9 2337   1.646   2.803  12.641  0.3911 -0.0210  0.2165
  153TCq2    O5 2338   1.605   2.683  12.628 -0.2919 -0.3893 -0.1774
  153TCq2    O6 2339   1.762   2.845  12.638  0.9210  0.6341  0.1312
  153TCq2    H2 2340   1.393   2.749  12.629 -0.2031 -0.7380  0.8275
  153TCq2    H3 2341   1.676   3.050  12.703  0.4212 -0.0053 -1.2375
  153TCq2    H4 2342   1.270   3.155  12.648 -2.2479 -3.1830 -2.4535
  154MPD2     C 2343   3.439   2.766   0.726 -0.0883  0.1851 -0.8182
  154MPD2    C1 2344   3.409   2.644   0.767  0.5439  0.0955 -0.2605
  154MPD2    C2 2345   3.322   2.628   0.875 -0.4298  0.6202 -0.4935
  154MPD2    C3 2346   3.273   2.734   0.944 -0.3765  0.0320 -0.1624
  154MPD2    C4 2347   3.319   2.858   0.905  0.5904 -0.4349 -0.2225
  154MPD2    C5 2348   3.390   2.874   0.790 -0.3383  0.2540 -0.3185
  154MPD2     H 2349   3.281   2.529   0.892 -0.1858  0.6281  0.1527
  154MPD2    H1 2350   3.282   2.943   0.961  0.0204  0.3646 -1.8181
  154MPD2    H2 2351   3.513   2.775   0.647 -0.8108 -0.8468 -1.6152
  154MPD2    H3 2352   3.418   2.975   0.760  0.8720 -0.1551 -0.5508
  154MPD2     N 2353   3.178   2.701   1.044  0.4548 -0.6468  0.0178
  154MPD2    H5 2354   3.167   2.604   1.069 -2.3845  0.3970  2.8108
  154MPD2    N1 2355   3.453   2.533   0.696  0.7110 -0.2387 -0.1452
  154MPD2    H7 2356   3.510   2.550   0.614 -1.1882  1.0217 -1.1921
  155TCq2    C1 2357   3.447   2.399   0.735  0.6010  0.7478 -0.0486
  155TCq2    O2 2358   3.437   2.355   0.847  0.2866 -1.0603 -0.6403
  155TCq2    C2 2359   3.508   2.303   0.643 -0.2320 -0.5617  0.4767
  155TCq2    C3 2360   3.548   2.181   0.685  0.1401  0.3706 -0.1185
  155TCq2    C4 2361   3.580   2.089   0.589 -0.2292  0.2417  0.8427
  155TCq2    C5 2362   3.580   2.119   0.457 -0.1942 -0.0661  0.7391
  155TCq2    C6 2363   3.532   2.238   0.418 -0.4700 -0.4354 -0.1050
  155TCq2    C7 2364   3.496   2.331   0.507  0.4737  0.3826 -0.0117
  155TCq2    C8 2365   3.538   2.262   0.275 -0.5514  0.7873  0.3251
  155TCq2    O4 2366   3.555   2.167   0.197  0.2172 -0.0745  0.1451
  155TCq2    C9 2367   3.624   1.956   0.633 -0.5101 -0.4449  0.3264
  155TCq2    O5 2368   3.635   1.942   0.754 -0.0018 -0.7085 -0.0575
  155TCq2    O6 2369   3.639   1.863   0.550 -0.0940 -0.0594 -0.2182
  155TCq2    H2 2370   3.557   2.158   0.791  0.0858  2.3431  0.3168
  155TCq2    H3 2371   3.620   2.049   0.385  2.0824  1.8150  0.2004
  155TCq2    H4 2372   3.446   2.420   0.472  1.8847  0.1914 -2.5078
  156MPD2     C 2373   1.808   0.316  11.659  0.1603 -0.4620  0.1602
  156MPD2    C1 2374   1.700   0.395  11.634  0.3980 -0.3509 -0.7441
  156MPD2    C2 2375   1.671   0.505  11.711 -0.6464  0.2945 -0.2873
  156MPD2    C3 2376   1.756   0.544  11.815  0.2568 -0.0242  0.1609
  156MPD2    C4 2377   1.878   0.477  11.825 -0.3261  0.3353 -0.7659
  156MPD2    C5 2378   1.904   0.364  11.749  0.7055 -0.1215 -0.1430
  156MPD2     H 2379   1.588   0.570  11.689 -1.9165 -1.6671 -1.3287
  156MPD2    H1 2380   1.955   0.509  11.894 -1.0667  2.0135 -0.7205
  156MPD2    H2 2381   1.828   0.226  11.602 -2.5641  0.0357 -1.6049
  156MPD2    H3 2382   1.999   0.313  11.762  1.1077  0.2297 -1.7618
  156MPD2     N 2383   1.727   0.661  11.888 -0.4243  0.0007 -0.0142
  156MPD2    H5 2384   1.655   0.724  11.854 -1.0985 -0.1652  1.1011
  156MPD2    N1 2385   1.598   0.373  11.535  0.1885 -0.1623  0.5810
  156MPD2    H7 2386   1.523   0.441  11.533 -1.0602 -1.6006 -0.8532
  157TCq2    C1 2387   1.597   0.265  11.446  0.1776 -0.0696  0.0601
  157TCq2    O2 2388   1.673   0.171  11.423 -0.2579 -0.6954 -0.2116
  157TCq2    C2 2389   1.485   0.281  11.354 -0.3493  0.6196 -0.2811
  157TCq2    C3 2390   1.453   0.174  11.284  0.0451  0.7651  0.0443
  157TCq2    C4 2391   1.343   0.189  11.206 -0.4615 -0.5203 -0.3815
  157TCq2    C5 2392   1.274   0.307  11.193  0.7269  0.4444  0.3465
  157TCq2    C6 2393   1.319   0.416  11.264  0.3962 -0.3550 -0.8315
  157TCq2    C7 2394   1.414   0.402  11.352 -0.1084  0.4488  0.1274
  157TCq2    C8 2395   1.241   0.539  11.275 -0.2655 -0.1566 -0.9585
  157TCq2    O4 2396   1.292   0.638  11.327  0.0433  0.1804  0.9467
  157TCq2    C9 2397   1.301   0.079  11.124  0.2977  0.1660  0.5016
  157TCq2    O5 2398   1.220   0.107  11.037 -0.3682  0.4206  0.0389
  157TCq2    O6 2399   1.382   4.705  11.124 -0.7122  0.8659 -0.1969
  157TCq2    H2 2400   1.525   0.094  11.293 -1.4294 -0.3757  1.7757
  157TCq2    H3 2401   1.185   0.316  11.130  1.3910 -2.0793 -0.9407
  157TCq2    H4 2402   1.437   0.491  11.410  1.2041  1.3816 -1.8210
  158TMC2    C1 2403   0.704   4.136  13.369 -0.1681  0.2453  0.0030
  158TMC2    C2 2404   0.629   4.180  13.264  0.1056 -0.9079  0.2778
  158TMC2    C3 2405   0.498   4.148  13.262 -0.5434 -0.4864  0.4055
  158TMC2    C4 2406   0.646   4.074  13.477  0.3404  0.4900 -0.4182
  158TMC2    C5 2407   0.516   4.027  13.465 -0.4304  0.3865 -0.8018
  158TMC2    C6 2408   0.435   4.078  13.363  0.1822  0.8109 -0.2508
  158TMC2     C 2409   0.817   4.220  13.401  0.1107 -0.3074  0.4143
  158TMC2     O 2410   0.838   4.309  13.320  0.3433  0.0446  0.1141
  158TMC2     H 2411   0.664   4.249  13.188 -0.3234 -2.0835 -0.9930
  158TMC2    H1 2412   0.691   4.053  13.573  0.4677  1.2586 -0.3120
  158TMC2    H2 2413   0.330   4.052  13.352  0.4592 -0.3243 -0.1956
  158TMC2    C7 2414   0.489   3.891  13.506  0.0024 -0.4175 -0.3603
  158TMC2    C8 2415   0.422   4.229  13.170  0.1440 -0.5708 -0.0337
  158TMC2    O1 2416   0.378   3.845  13.478 -0.4144  0.2448 -0.3280
  158TMC2    O2 2417   0.472   4.293  13.082 -0.0472  0.2022 -0.3391
  158TMC2    O5 2418   0.296   4.239  13.212 -0.0553  0.1135 -0.1707
  158TMC2    H5 2419   0.265   4.177  13.282  0.8713 -0.2883 -0.1237
  159MPD2     C 2420   1.156   4.442  13.700 -0.1897 -0.5076 -0.6304
  159MPD2    C1 2421   1.112   4.329  13.762  0.8807  0.0344 -0.3724
  159MPD2    C2 2422   1.019   4.249  13.701  0.1712 -0.0970  0.8383
  159MPD2    C3 2423   0.961   4.291  13.583 -0.2713  0.4293 -0.0570
  159MPD2    C4 2424   1.002   4.411  13.522  0.4150  0.6015 -0.1278
  159MPD2    C5 2425   1.100   4.478  13.579 -0.0181 -0.3162 -0.4531
  159MPD2     H 2426   0.971   4.164  13.747 -0.9633  1.0603  1.7933
  159MPD2    H1 2427   0.964   4.458  13.432  1.4496  0.3706 -0.6881
  159MPD2    H2 2428   1.225   4.516  13.740 -2.1585 -0.1324  1.9939
  159MPD2    H3 2429   1.126   4.573  13.533  0.6507 -0.2513  0.0595
  159MPD2     N 2430   0.863   4.201  13.529 -0.4453  0.1430  0.3463
  159MPD2    H5 2431   0.839   4.110  13.567  0.4727 -0.6246 -0.9435
  159MPD2    N1 2432   1.155   4.294  13.892  0.1562 -0.7543  0.4966
  159MPD2    H7 2433   1.107   4.217  13.937  0.6500  0.0449  2.3745
  160TMC2    C1 2434   2.000   1.649   1.463 -0.4154  0.3763  0.0971
  160TMC2    C2 2435   2.107   1.661   1.552 -0.0628 -0.2300 -0.3477
  160TMC2    C3 2436   2.223   1.697   1.490  0.9771  0.6303 -0.0402
  160TMC2    C4 2437   2.002   1.664   1.332  0.0070  0.4732 -0.0754
  160TMC2    C5 2438   2.123   1.695   1.274  0.9695 -0.3738  0.3917
  160TMC2    C6 2439   2.230   1.718   1.353  0.0831 -0.2475 -0.2315
  160TMC2     C 2440   1.866   1.640   1.537  0.4633 -0.3780 -0.3379
  160TMC2     O 2441   1.869   1.613   1.657 -0.2112 -0.0535 -0.6331
  160TMC2     H 2442   2.097   1.644   1.659  3.0531  2.2282  0.3449
  160TMC2    H1 2443   1.920   1.655   1.262  0.4950 -3.2178 -0.1947
  160TMC2    H2 2444   2.330   1.729   1.312  1.8748  0.6684  4.4456
  160TMC2    C7 2445   2.122   1.746   1.136  0.0546 -0.8720  0.5924
  160TMC2    C8 2446   2.343   1.656   1.558 -0.5236 -0.2539 -0.0272
  160TMC2    O1 2447   2.030   1.712   1.061  0.5075  0.0484 -0.1410
  160TMC2    O2 2448   2.451   1.706   1.540 -0.0571  0.2185  0.3137
  160TMC2    O5 2449   2.317   1.540   1.624  0.6374 -0.3820  0.2213
  160TMC2    H5 2450   2.227   1.500   1.617 -0.3142  1.2530  3.1659
  161MPD2     C 2451   1.580   1.590   1.632 -0.7350  0.0354  0.0907
  161MPD2    C1 2452   1.621   1.669   1.523  0.2781 -0.8911  0.1349
  161MPD2    C2 2453   1.525   1.737   1.455 -0.3277 -0.2269 -0.1851
  161MPD2    C3 2454   1.384   1.737   1.487  0.4032 -0.2543 -0.1139
  161MPD2    C4 2455   1.353   1.666   1.601 -0.7181 -0.1723 -0.1418
  161MPD2    C5 2456   1.445   1.594   1.671  0.2143 -0.1582  0.1081
  161MPD2     H 2457   1.557   1.781   1.362  0.3608  1.6601  0.9317
  161MPD2    H1 2458   1.248   1.678   1.628 -0.3109 -0.6937  1.6555
  161MPD2    H2 2459   1.643   1.532   1.699 -0.1949  0.1567 -0.3167
  161MPD2    H3 2460   1.410   1.542   1.759 -0.4762  1.8767  1.0387
  161MPD2     N 2461   1.286   1.805   1.415 -0.2473  0.1213  0.2623
  161MPD2    H5 2462   1.193   1.813   1.456 -0.9303 -1.4514 -1.0229
  161MPD2    N1 2463   1.756   1.678   1.472 -0.4333  0.1839  0.4723
  161MPD2    H7 2464   1.778   1.727   1.386 -0.7170  0.0354  0.3150
  162TMC2    C1 2465   4.269   3.433   1.519 -0.1415 -0.5084  0.1708
  162TMC2    C2 2466   4.173   3.518   1.572  0.2531 -0.6766  0.5708
  162TMC2    C3 2467   4.123   3.485   1.692  0.2772  1.0981  0.2985
  162TMC2    C4 2468   4.304   3.318   1.583  0.0846  0.8505  0.3159
  162TMC2    C5 2469   4.261   3.291   1.708 -0.1022 -0.0566  0.6453
  162TMC2    C6 2470   4.164   3.373   1.766 -0.7966 -0.6151 -0.1495
  162TMC2     C 2471   4.314   3.451   1.380 -0.1226 -0.4456 -0.1155
  162TMC2     O 2472   4.350   3.355   1.318 -0.1568 -0.1690  0.6663
  162TMC2     H 2473   4.134   3.605   1.521  0.4822 -1.4631 -0.9558
  162TMC2    H1 2474   4.346   3.232   1.532  2.0418  1.4749  0.8949
  162TMC2    H2 2475   4.130   3.365   1.869 -1.8555  1.2768 -0.3639
  162TMC2    C7 2476   4.305   3.171   1.778 -0.3646  0.7912  0.5676
  162TMC2    C8 2477   3.994   3.541   1.718 -0.3216  0.4578  0.1471
  162TMC2    O1 2478   4.251   3.146   1.884  0.3174  0.0096  0.7345
  162TMC2    O2 2479   3.970   3.659   1.709 -0.3194 -0.1351  0.2433
  162TMC2    O5 2480   3.922   3.454   1.787 -0.0418 -0.1621 -0.0797
  162TMC2    H5 2481   3.934   3.366   1.744  0.4259 -0.1498  0.0245
  163MPD2     C 2482   4.370   3.739   0.967  0.8120  0.1691  0.3824
  163MPD2    C1 2483   4.404   3.608   0.989 -0.3513 -0.2596  0.4694
  163MPD2    C2 2484   4.359   3.557   1.108 -0.1224 -0.2435  0.3202
  163MPD2    C3 2485   4.304   3.632   1.207  0.1316 -0.0921  0.6450
  163MPD2    C4 2486   4.269   3.762   1.182 -0.2757  0.4223  0.4001
  163MPD2    C5 2487   4.300   3.819   1.060 -0.2489  0.2033  0.6927
  163MPD2     H 2488   4.409   3.466   1.139 -0.0544  0.7731  3.1805
  163MPD2    H1 2489   4.225   3.830   1.255 -0.2934  1.4977 -0.6219
  163MPD2    H2 2490   4.393   3.775   0.868 -2.1233 -2.7640 -1.3528
  163MPD2    H3 2491   4.273   3.922   1.041 -2.3899 -0.3829  0.5871
  163MPD2     N 2492   4.284   3.577   1.340 -0.1174 -0.3743  0.0278
  163MPD2    H5 2493   4.245   3.636   1.413 -1.4277 -0.5180 -0.5515
  163MPD2    N1 2494   4.477   3.535   0.890 -0.7591 -0.0033  0.1239
  163MPD2    H7 2495   4.518   3.593   0.818  2.1811  0.8965  2.5464
  164TCq2    C1 2496   4.646   3.961  11.587  0.6066  0.1480  0.5424
  164TCq2    O2 2497   0.032   3.939  11.644 -0.2352  0.0979 -0.5323
  164TCq2    C2 2498   4.627   4.098  11.551 -0.6360  0.7741  0.2770
  164TCq2    C3 2499   0.017   4.178  11.535  0.7793 -0.0503 -0.1133
  164TCq2    C4 2500   4.715   4.316  11.504 -0.4953  0.3169  0.5901
  164TCq2    C5 2501   4.592   4.371  11.494 -0.0980  0.1434 -0.4754
  164TCq2    C6 2502   4.487   4.289  11.516  1.4729  0.1500  0.1050
  164TCq2    C7 2503   4.505   4.154  11.535  0.5598  0.2305  0.3687
  164TCq2    C8 2504   4.356   4.350  11.528 -0.0242 -0.0896 -0.2767
  164TCq2    O4 2505   4.342   4.458  11.471 -0.1281  0.2011 -0.5096
  164TCq2    C9 2506   0.102   4.398  11.461 -0.7058  0.1416 -0.5989
  164TCq2    O5 2507   0.080   4.496  11.380 -0.2938  0.3429 -0.0532
  164TCq2    O6 2508   0.218   4.371  11.501  0.3054  0.1954 -0.3930
  164TCq2    H2 2509   0.119   4.147  11.549  0.5005 -0.6247  0.6797
  164TCq2    H3 2510   4.575   4.476  11.474  0.5997  0.2805 -0.3261
  164TCq2    H4 2511   4.417   4.094  11.556  0.5911  0.7316  1.8892
  165MPD2     C 2512   0.720   0.326   1.826  0.3461 -0.5851  0.6714
  165MPD2    C1 2513   0.739   0.456   1.782 -0.7201 -0.5514  0.7432
  165MPD2    C2 2514   0.859   0.515   1.814 -1.0203  0.8465 -0.3158
  165MPD2    C3 2515   0.958   0.449   1.890 -0.0291  0.2766  0.6967
  165MPD2    C4 2516   0.925   0.328   1.936  0.9442  0.0838 -0.6947
  165MPD2    C5 2517   0.808   0.263   1.908  0.0039  0.4733 -0.4457
  165MPD2     H 2518   0.871   0.617   1.777  2.1475  1.0392  1.2603
  165MPD2    H1 2519   1.001   0.275   1.992  0.3690  0.5469  0.5099
  165MPD2    H2 2520   0.627   0.281   1.792  0.2511 -1.1412  1.6870
  165MPD2    H3 2521   0.779   0.165   1.944 -0.3452  0.7676  0.0726
  165MPD2     N 2522   1.092   0.496   1.906 -0.6746 -0.2994 -0.9989
  165MPD2    H5 2523   1.161   0.429   1.938 -0.0652  2.5486  3.5266
  165MPD2    N1 2524   0.629   0.515   1.711  0.3037  0.2296  0.3306
  165MPD2    H7 2525   0.553   0.453   1.686 -1.2600  2.4014 -0.3400
  166TCq2    C1 2526   1.135   0.622   1.872 -0.1451  0.1217 -0.0640
  166TCq2    O2 2527   1.066   0.714   1.833 -0.6478  0.6849  0.0834
  166TCq2    C2 2528   1.280   0.639   1.872 -0.2868  0.3784 -0.1093
  166TCq2    C3 2529   1.356   0.521   1.900  0.7198 -0.3159  0.0730
  166TCq2    C4 2530   1.483   0.498   1.839  0.3262  0.5043 -0.6043
  166TCq2    C5 2531   1.532   0.589   1.747 -0.0806 -0.0798  0.5081
  166TCq2    C6 2532   1.446   0.696   1.717 -0.9283 -0.3096 -0.4396
  166TCq2    C7 2533   1.325   0.721   1.772  0.5203 -0.7130 -0.2815
  166TCq2    C8 2534   1.504   0.789   1.628  0.0498 -0.2916  0.2058
  166TCq2    O4 2535   1.602   0.750   1.560  0.1781  0.6044  0.2105
  166TCq2    C9 2536   1.570   0.380   1.875 -0.0553 -0.2410  0.0701
  166TCq2    O5 2537   1.689   0.387   1.846  0.1882  0.1347  0.4128
  166TCq2    O6 2538   1.515   0.293   1.948  0.0448  0.3261  0.1062
  166TCq2    H2 2539   1.333   0.455   1.983 -0.6904 -1.9479 -1.6135
  166TCq2    H3 2540   1.619   0.568   1.686 -0.3042  2.4044 -0.6782
  166TCq2    H4 2541   1.265   0.806   1.742  0.1584 -1.3096 -1.2621
  167TMC2    C1 2542   3.945   3.985  12.931 -0.3108 -0.9964 -0.1504
  167TMC2    C2 2543   3.877   4.020  13.046  0.6605 -0.7460  0.2672
  167TMC2    C3 2544   3.806   3.916  13.113  0.2295  0.4716  0.0017
  167TMC2    C4 2545   3.913   3.871  12.865  0.3213 -0.5709  0.5562
  167TMC2    C5 2546   3.844   3.773  12.938 -0.1370 -0.1419  0.2586
  167TMC2    C6 2547   3.802   3.790  13.064 -0.1266 -0.4006  0.5498
  167TMC2     C 2548   3.981   4.099  12.854  0.8217  0.4500  0.5876
  167TMC2     O 2549   3.925   4.209  12.868  0.1429  0.6731  0.1318
  167TMC2     H 2550   3.886   4.120  13.086  0.1287 -0.9897  1.0033
  167TMC2    H1 2551   3.936   3.856  12.760 -1.1340  1.5859 -0.0682
  167TMC2    H2 2552   3.757   3.708  13.117  1.6147 -1.5902  0.1981
  167TMC2    C7 2553   3.809   3.652  12.869 -0.2684 -0.3474 -0.1937
  167TMC2    C8 2554   3.793   3.936  13.254  0.5180  0.8715 -0.1274
  167TMC2    O1 2555   3.731   3.581  12.927  0.1658  0.3073 -0.1284
  167TMC2    O2 2556   3.856   3.874  13.338 -0.0345 -0.1797 -0.3917
  167TMC2    O5 2557   3.748   4.064  13.261 -0.5936  0.7845  0.0527
  167TMC2    H5 2558   3.705   4.093  13.178 -1.9118 -1.8004 -0.1590
  168MPD2     C 2559   4.105   4.278  12.654  0.7600  0.0979 -0.3513
  168MPD2    C1 2560   4.117   4.140  12.652 -0.5313  0.0006 -0.2910
  168MPD2    C2 2561   4.189   4.079  12.547  0.2268  0.0755 -1.0387
  168MPD2    C3 2562   4.229   4.152  12.431  0.2418  0.1326  0.0179
  168MPD2    C4 2563   4.205   4.289  12.437 -0.5539  0.1199  0.7095
  168MPD2    C5 2564   4.141   4.352  12.544  0.3965  0.4254  0.5429
  168MPD2     H 2565   4.205   3.973  12.559 -0.2743 -0.1739 -2.6686
  168MPD2    H1 2566   4.241   4.345  12.352 -0.2526  0.1928  0.8849
  168MPD2    H2 2567   4.051   4.335  12.729  2.6172 -0.1155  1.1493
  168MPD2    H3 2568   4.120   4.458  12.552  1.5412  0.6431  0.7171
  168MPD2     N 2569   4.286   4.093  12.321 -0.6195  0.0514  0.3882
  168MPD2    H5 2570   4.271   4.138  12.231  1.0117 -0.1211  0.0426
  168MPD2    N1 2571   4.079   4.058  12.762 -0.1419  0.3273  0.2252
  168MPD2    H7 2572   4.116   3.964  12.765  0.6206  0.6144 -0.1409
  169MPD1     C 2573   1.376   2.674  10.082  0.1972  0.3640  0.2272
  169MPD1    C1 2574   1.493   2.716  10.019  0.1689 -0.2618 -0.1448
  169MPD1    C2 2575   1.520   2.671   9.896  0.8283 -0.7425  1.2068
  169MPD1    C3 2576   1.446   2.566   9.843  0.0988  0.2290 -0.4432
  169MPD1    C4 2577   1.352   2.501   9.920 -0.0062 -0.0052  0.0905
  169MPD1    C5 2578   1.317   2.557  10.041 -0.0323 -0.5356 -0.4175
  169MPD1     H 2579   1.596   2.720   9.836 -0.3296 -0.8034 -0.3279
  169MPD1    H1 2580   1.307   2.406   9.894  0.7758 -0.3171 -0.1241
  169MPD1    H2 2581   1.347   2.711  10.180 -0.6764 -0.1906  0.1814
  169MPD1    H3 2582   1.244   2.504  10.101 -0.1935  1.4337  1.1272
  169MPD1     N 2583   1.471   2.518   9.705 -0.6999 -0.0174 -0.2215
  169MPD1    H5 2584   1.529   2.577   9.647  0.6768 -1.5000 -0.3359
  169MPD1    N1 2585   1.564   2.829  10.064  0.5361  0.6572 -0.1096
  169MPD1    H6 2586   1.662   2.805  10.046  0.2730 -1.7806  1.7198
  169MPD1    H7 2587   1.555   2.844  10.164  1.4381  0.3824  0.0187
  170MPD1     C 2588   4.332   1.223  12.879 -0.8323 -0.0922  0.0313
  170MPD1    C1 2589   4.461   1.243  12.844 -0.1940  0.1920 -0.5133
  170MPD1    C2 2590   4.557   1.280  12.944 -0.4621  0.2786 -0.0080
  170MPD1    C3 2591   4.506   1.324  13.071 -0.0154 -0.0244  0.2296
  170MPD1    C4 2592   4.369   1.321  13.091 -0.7497  0.1989  0.4812
  170MPD1    C5 2593   4.281   1.269  12.999  0.3849  0.2575 -0.1403
  170MPD1     H 2594   4.664   1.283  12.924 -0.4735 -0.1272 -0.1374
  170MPD1    H1 2595   4.328   1.358  13.184  0.4728  0.3712  0.9595
  170MPD1    H2 2596   4.256   1.183  12.813 -2.0002 -0.4438  1.5803
  170MPD1    H3 2597   4.177   1.260  13.027  0.5402 -1.9182 -0.2032
  170MPD1     N 2598   4.600   1.365  13.174 -0.1018 -0.0272  0.0835
  170MPD1    H5 2599   4.696   1.381  13.145  0.3129 -1.9905  0.3740
  170MPD1    N1 2600   4.515   1.185  12.725 -0.4932 -0.0013 -0.5343
  170MPD1    H6 2601   4.458   1.182  12.641  0.3710  1.6744 -1.1916
  170MPD1    H7 2602   4.600   1.235  12.698 -0.0309 -0.0707  0.8002
  171MPD1     C 2603   3.340   2.396  15.464  0.4015  1.2992 -0.1952
  171MPD1    C1 2604   3.336   2.268  15.419  0.3606 -0.5266  0.0176
  171MPD1    C2 2605   3.427   2.178  15.476 -0.4454  0.0848 -0.1028
  171MPD1    C3 2606   3.514   2.226  15.571  0.1757  0.5589 -0.0537
  171MPD1    C4 2607   3.518   2.357  15.603 -0.6218  0.2595 -0.5384
  171MPD1    C5 2608   3.439   2.447  15.544 -0.6820 -0.2967 -0.1068
  171MPD1     H 2609   3.424   2.073  15.448 -1.0665  0.1551 -0.3043
  171MPD1    H1 2610   3.576   2.394  15.687 -0.0514 -1.1723 -0.3002
  171MPD1    H2 2611   3.260   2.466  15.443 -1.4247 -0.7603 -0.1373
  171MPD1    H3 2612   3.444   2.553  15.564 -0.0277 -0.5302  0.9687
  171MPD1     N 2613   3.600   2.133  15.639 -0.2661  0.0146  0.3865
  171MPD1    H5 2614   3.657   2.171  15.713  0.2497  0.0376 -0.0215
  171MPD1    N1 2615   3.225   2.231  15.341  0.2458  0.1086  0.2598
  171MPD1    H6 2616   3.192   2.309  15.285 -0.2039 -0.7812 -0.6990
  171MPD1    H7 2617   3.257   2.165  15.270  1.5251 -0.2633  1.1736
  172MPD1     C 2618   2.806   0.554  17.571 -0.9028 -0.7661  0.0151
  172MPD1    C1 2619   2.743   0.613  17.678  0.3863  0.6286 -0.4751
  172MPD1    C2 2620   2.817   0.694   0.084  0.5390 -0.4790  0.5234
  172MPD1    C3 2621   2.953   0.707   0.061  0.2234 -0.5486 -0.2364
  172MPD1    C4 2622   3.023   0.644  17.644 -0.0074 -0.6235  0.4236
  172MPD1    C5 2623   2.945   0.564  17.563  0.1373  0.1323  0.4461
  172MPD1     H 2624   2.769   0.744   0.168  0.7033 -1.9053  1.4746
  172MPD1    H1 2625   3.131   0.658  17.635 -0.1343  1.1201  1.4530
  172MPD1    H2 2626   2.758   0.492  17.496 -2.0587 -0.0330  0.1427
  172MPD1    H3 2627   2.994   0.521  17.476 -1.0083  0.4052 -0.3338
  172MPD1     N 2628   3.033   0.799   0.129  0.5876 -0.1046  0.3320
  172MPD1    H5 2629   3.124   0.816   0.088  1.3375 -5.5492 -0.2579
  172MPD1    N1 2630   2.608   0.581   0.027  0.4878 -0.2599  0.0824
  172MPD1    H6 2631   2.558   0.640   0.094 -1.8330 -2.7739  0.5590
  172MPD1    H7 2632   2.550   0.578  17.625  0.1616  0.7029  0.2673
  173MPD1     C 2633   4.288   1.627  14.507  0.3964  0.1235 -0.6871
  173MPD1    C1 2634   4.232   1.549  14.412  0.7988 -0.8670 -0.0587
  173MPD1    C2 2635   4.129   1.469  14.456 -0.5082  0.3425  0.4143
  173MPD1    C3 2636   4.091   1.458  14.590  0.5431 -0.9979  0.0378
  173MPD1    C4 2637   4.153   1.540  14.683 -0.0286  0.4964  0.5427
  173MPD1    C5 2638   4.259   1.617  14.641  0.5796 -0.3088  0.2579
  173MPD1     H 2639   4.085   1.408  14.377  1.9858 -3.0139  1.5969
  173MPD1    H1 2640   4.120   1.546  14.786  1.1840 -0.9427  1.0123
  173MPD1    H2 2641   4.355   1.706  14.476  1.4503 -0.4992  0.0122
  173MPD1    H3 2642   4.303   1.674  14.723  0.4765 -0.3916  0.3705
  173MPD1     N 2643   3.979   1.375  14.618 -0.3218  0.1024  0.1930
  173MPD1    H5 2644   3.939   1.337  14.533 -0.5050  0.2247  0.2235
  173MPD1    N1 2645   4.257   1.575  14.273  0.4226  0.1137 -0.8755
  173MPD1    H6 2646   4.241   1.483  14.233 -0.1330 -0.2645  0.1954
  173MPD1    H7 2647   4.355   1.602  14.268  0.0133  1.9681  1.0713
  174MPD1     C 2648   3.728   0.830  14.041 -0.4550 -0.2557 -0.1393
  174MPD1    C1 2649   3.734   0.742  14.145  0.1282 -0.6919  0.3154
  174MPD1    C2 2650   3.742   0.793  14.275  0.2576  0.5447 -0.1992
  174MPD1    C3 2651   3.757   0.928  14.295  0.1992  0.4657  0.7208
  174MPD1    C4 2652   3.761   1.015  14.188  0.0020 -0.2594  0.3932
  174MPD1    C5 2653   3.740   0.963  14.063 -0.4960 -0.3267 -0.0418
  174MPD1     H 2654   3.744   0.718  14.353  2.2506  1.0625  0.2593
  174MPD1    H1 2655   3.774   1.121  14.203 -2.4644  0.3112 -1.6235
  174MPD1    H2 2656   3.707   0.800  13.939  1.4398 -2.8830  0.2410
  174MPD1    H3 2657   3.731   1.027  13.975  0.7597  0.1981  0.2191
  174MPD1     N 2658   3.781   0.985  14.423 -0.3616 -0.0372 -0.6377
  174MPD1    H5 2659   3.799   1.085  14.425 -1.3733  0.1351 -0.5227
  174MPD1    N1 2660   3.725   0.604  14.127 -0.2879 -0.5405  0.2008
  174MPD1    H6 2661   3.683   0.557  14.206 -0.8815 -0.9509 -0.3639
  174MPD1    H7 2662   3.695   0.569  14.036 -0.5140 -1.9876  0.8359
  175MPD1     C 2663   2.205   2.435  15.445 -0.0466 -0.7983 -0.2236
  175MPD1    C1 2664   2.319   2.361  15.473  0.1440 -0.1834 -0.1470
  175MPD1    C2 2665   2.331   2.293  15.594 -0.4372 -0.1375 -0.7787
  175MPD1    C3 2666   2.230   2.283  15.685 -0.0979  0.2824 -0.1122
  175MPD1    C4 2667   2.109   2.346  15.647 -0.2124  0.4648 -0.3447
  175MPD1    C5 2668   2.100   2.426  15.536 -0.4836 -0.1070 -0.2924
  175MPD1     H 2669   2.428   2.245  15.606  2.2353  4.9321 -2.1761
  175MPD1    H1 2670   2.024   2.341  15.714  1.1104 -0.2609  1.2889
  175MPD1    H2 2671   2.188   2.504  15.363  2.0336 -0.2908 -0.2202
  175MPD1    H3 2672   2.011   2.485  15.519 -0.2348 -0.2867 -2.1340
  175MPD1     N 2673   2.245   2.208  15.801 -0.0728  0.3999  0.4033
  175MPD1    H5 2674   2.159   2.189  15.853 -0.9976 -0.4987 -1.4423
  175MPD1    N1 2675   2.433   2.375  15.390  1.0309  0.7944 -0.0097
  175MPD1    H6 2676   2.409   2.394  15.293 -2.1646  1.4484  0.9191
  175MPD1    H7 2677   2.510   2.309  15.396  0.0739 -0.4579 -1.4050
  176MPD1     C 2678   3.470   3.733  17.296 -0.6341 -0.5490  0.2533
  176MPD1    C1 2679   3.549   3.689  17.393  0.0829  0.5005 -0.1946
  176MPD1    C2 2680   3.629   3.779  17.458  0.8971 -1.5300 -0.3666
  176MPD1    C3 2681   3.638   3.913  17.417  0.0732 -0.6103 -0.5571
  176MPD1    C4 2682   3.547   3.959  17.321 -0.1782  0.1671  0.2884
  176MPD1    C5 2683   3.463   3.869  17.261 -0.2113 -0.0600  0.5260
  176MPD1     H 2684   3.688   3.757  17.546  1.0601  2.6914  0.5840
  176MPD1    H1 2685   3.560   4.059  17.281  0.5001 -0.1609 -0.3196
  176MPD1    H2 2686   3.401   3.667  17.244 -1.4493  1.0815 -0.7468
  176MPD1    H3 2687   3.407   3.897  17.173  0.6854  2.9275  0.9361
  176MPD1     N 2688   3.718   4.002  17.502  0.4487 -0.1150 -0.9330
  176MPD1    H5 2689   3.774   3.965  17.579  0.5034  1.6296 -0.1321
  176MPD1    N1 2690   3.520   3.576  17.463  0.1785  0.0214 -0.0574
  176MPD1    H6 2691   3.604   3.539  17.508  0.9553  0.6891 -0.9706
  176MPD1    H7 2692   3.474   3.498  17.416 -1.6778  0.8444  0.3966
  177MPD1     C 2693   2.455   3.616  10.338 -0.4584 -0.1582 -0.0014
  177MPD1    C1 2694   2.385   3.575  10.221  0.1320  0.0535 -0.7275
  177MPD1    C2 2695   2.339   3.674  10.133  0.4209 -0.2827 -0.1107
  177MPD1    C3 2696   2.342   3.811  10.162 -0.0818 -0.5571  0.8678
  177MPD1    C4 2697   2.405   3.847  10.276  0.2144  0.4441  0.0958
  177MPD1    C5 2698   2.479   3.755  10.356  0.7778 -0.4373 -0.9511
  177MPD1     H 2699   2.300   3.638  10.038  1.2747 -1.0928 -0.1552
  177MPD1    H1 2700   2.416   3.948  10.315  0.6196  0.0992  0.8802
  177MPD1    H2 2701   2.487   3.546  10.414  1.3483 -0.6679 -1.2361
  177MPD1    H3 2702   2.541   3.793  10.436  0.7191 -2.8269  0.2216
  177MPD1     N 2703   2.287   3.902  10.074 -1.0783  0.2518  0.7347
  177MPD1    H5 2704   2.240   3.860   9.995 -0.7141 -0.9764  1.1750
  177MPD1    N1 2705   2.385   3.441  10.175  0.0870 -0.2548 -0.2785
  177MPD1    H6 2706   2.308   3.419  10.111  0.4089 -1.4375 -0.2465
  177MPD1    H7 2707   2.398   3.372  10.248  0.4492  0.4242  0.2898
  178MPD1     C 2708   4.649   0.842  16.927  0.5463 -0.5435 -0.0205
  178MPD1    C1 2709   0.064   0.867  16.934 -0.5714 -0.9115  0.5225
  178MPD1    C2 2710   0.148   0.768  16.987 -0.7019 -0.3462  0.4049
  178MPD1    C3 2711   0.100   0.658  17.049  0.3188 -0.0531  0.5169
  178MPD1    C4 2712   4.684   0.643  17.039  0.5736 -0.0092 -0.1312
  178MPD1    C5 2713   4.598   0.726  16.980  0.1775  0.3594  0.7591
  178MPD1     H 2714   0.256   0.781  16.990 -0.8652  1.5351 -1.9773
  178MPD1    H1 2715   4.645   0.548  17.076  0.1499 -0.5971 -2.0640
  178MPD1    H2 2716   4.586   0.914  16.875 -0.9206 -1.8147 -0.0129
  178MPD1    H3 2717   4.498   0.691  16.955  0.2218 -0.7997  2.2072
  178MPD1     N 2718   0.175   0.551  17.109  0.4373 -0.1198 -0.1019
  178MPD1    H5 2719   0.120   0.478  17.153  1.1164 -0.9099 -0.5650
  178MPD1    N1 2720   0.111   0.953  16.832  0.4105 -0.2268 -0.2110
  178MPD1    H6 2721   0.040   1.024  16.819 -0.8335 -1.6438 -1.1173
  178MPD1    H7 2722   0.199   0.989  16.869  0.6078 -1.7429  0.8065
  179MPD1     C 2723   4.599   3.477  15.124  0.3272  0.2380  0.1241
  179MPD1    C1 2724   4.641   3.344  15.134  0.5485  1.0196 -0.6532
  179MPD1    C2 2725   4.613   3.274  15.249 -0.3788 -0.3582  0.1094
  179MPD1    C3 2726   4.519   3.326  15.343  0.3363  0.5813 -0.3263
  179MPD1    C4 2727   4.469   3.452  15.326 -0.1218 -0.3408  0.2814
  179MPD1    C5 2728   4.509   3.529  15.214 -0.1117 -0.3146  0.6238
  179MPD1     H 2729   4.667   3.180  15.262 -0.2239 -0.4489 -1.1326
  179MPD1    H1 2730   4.400   3.489  15.402 -2.2158  2.5268 -3.0193
  179MPD1    H2 2731   4.636   3.537  15.042 -0.7579  0.4471 -0.2094
  179MPD1    H3 2732   4.488   3.635  15.205 -0.9587 -0.6328 -1.0690
  179MPD1     N 2733   4.469   3.256  15.452 -0.3196  0.6656 -0.0791
  179MPD1    H5 2734   4.401   3.297  15.516  0.1511  0.1452  0.7473
  179MPD1    N1 2735   0.014   3.294  15.047  0.6951 -0.1795 -0.5101
  179MPD1    H6 2736   0.002   3.339  14.957 -0.7186  1.0359  0.2915
  179MPD1    H7 2737   0.001   3.197  15.020 -2.7623  0.4051 -0.9749
  180MPD1     C 2738   4.166   0.122  15.530  0.6021 -0.1248 -0.4739
  180MPD1    C1 2739   4.282   0.140  15.461  0.3391 -0.4896 -1.1343
  180MPD1    C2 2740   4.296   0.079  15.342  0.3404 -0.3707 -0.7263
  180MPD1    C3 2741   4.185   0.019  15.280 -0.3289 -0.9342  0.1678
  180MPD1    C4 2742   4.065   0.010  15.347  0.1673  0.8393  1.0396
  180MPD1    C5 2743   4.060   0.057  15.478  0.1256 -0.0924  0.2332
  180MPD1     H 2744   4.391   0.082  15.290  0.1388 -0.0396 -1.0709
  180MPD1    H1 2745   3.979   4.692  15.294  1.7768  0.8267 -1.5886
  180MPD1    H2 2746   4.149   0.159  15.630 -0.0292 -4.4250  1.0208
  180MPD1    H3 2747   3.965   0.052  15.529 -0.9855 -0.4875 -1.8684
  180MPD1     N 2748   4.215   4.676  15.156  0.4381 -0.0297  0.9575
  180MPD1    H5 2749   4.309   4.688  15.121 -0.2391 -1.8317 -1.4434
  180MPD1    N1 2750   4.387   0.195  15.530 -1.1949 -0.1381 -0.5078
  180MPD1    H6 2751   4.362   0.268  15.596 -1.9266 -1.4407  0.6647
  180MPD1    H7 2752   4.467   0.228  15.476 -2.0686  0.8097 -1.2231
  181MPD1     C 2753   1.451   0.783   9.303 -0.1018 -0.4884  0.2882
  181MPD1    C1 2754   1.572   0.731   9.335 -1.3984  0.1540  0.5634
  181MPD1    C2 2755   1.626   0.783   9.449  0.2897 -0.1271  0.5967
  181MPD1    C3 2756   1.566   0.885   9.521  0.2248  0.1771  0.4228
  181MPD1    C4 2757   1.436   0.919   9.484  0.0368  0.3403  0.6663
  181MPD1    C5 2758   1.379   0.876   9.371 -0.1855 -0.1526  0.1245
  181MPD1     H 2759   1.721   0.744   9.486  0.5639 -0.5287 -0.5433
  181MPD1    H1 2760   1.388   1.002   9.535  0.6609  0.9550  0.2415
  181MPD1    H2 2761   1.399   0.746   9.216  3.1132 -1.0673 -1.3914
  181MPD1    H3 2762   1.280   0.913   9.347 -1.4656 -3.9632 -0.5656
  181MPD1     N 2763   1.619   0.943   9.640 -0.3143 -0.6248 -0.2978
  181MPD1    H5 2764   1.552   0.995   9.696  2.6296  2.6953  0.1482
  181MPD1    N1 2765   1.646   0.663   9.244  0.4805  0.0360 -0.2647
  181MPD1    H6 2766   1.729   0.626   9.290  2.3518  2.1466 -1.9867
  181MPD1    H7 2767   1.590   0.587   9.204 -1.6484  0.3748  2.0896
  182MPD1     C 2768   2.296   0.413   1.585  0.5410  0.1845  0.5757
  182MPD1    C1 2769   2.350   0.340   1.482 -0.1865  0.2107 -0.6192
  182MPD1    C2 2770   2.324   0.396   1.360 -0.4943  0.3142  0.7479
  182MPD1    C3 2771   2.246   0.512   1.339 -0.3318  0.2260 -0.3532
  182MPD1    C4 2772   2.193   0.573   1.444 -0.3484  0.1260 -0.6398
  182MPD1    C5 2773   2.217   0.519   1.569  0.0386 -0.6092  0.7803
  182MPD1     H 2774   2.378   0.349   1.279 -0.4414  1.9116 -0.1525
  182MPD1    H1 2775   2.123   0.654   1.430 -0.1754  0.6877  1.7927
  182MPD1    H2 2776   2.303   0.397   1.692  0.4069  1.6502  0.7969
  182MPD1    H3 2777   2.179   0.570   1.657 -0.2703  0.1167  0.2269
  182MPD1     N 2778   2.208   0.557   1.207  0.5929  0.1052  0.5141
  182MPD1    H5 2779   2.154   0.643   1.201  1.1296  0.5140  1.4337
  182MPD1    N1 2780   2.456   0.245   1.499  0.1536 -0.4486  0.3279
  182MPD1    H6 2781   2.444   0.197   1.588 -1.0046 -0.2717  0.2720
  182MPD1    H7 2782   2.461   0.178   1.423 -1.7278  1.5384 -1.5809
  183MPD1     C 2783   2.367   2.560   9.919  0.4389  0.1606  0.1771
  183MPD1    C1 2784   2.244   2.514   9.869 -0.1002 -0.1627 -0.7053
  183MPD1    C2 2785   2.230   2.383   9.848 -0.5844  0.4536  0.4948
  183MPD1    C3 2786   2.322   2.289   9.866 -0.3752 -0.5044  0.3789
  183MPD1    C4 2787   2.445   2.336   9.907 -0.3409 -0.2107 -0.2329
  183MPD1    C5 2788   2.462   2.467   9.942  0.1590  0.9940  0.3602
  183MPD1     H 2789   2.131   2.348   9.823 -0.4360  0.8761 -0.6460
  183MPD1    H1 2790   2.533   2.278   9.932  0.7568  0.8753 -1.6125
  183MPD1    H2 2791   2.377   2.667   9.931 -2.1687  0.6224 -1.7444
  183MPD1    H3 2792   2.562   2.500   9.965  0.8678 -1.5064  0.9102
  183MPD1     N 2793   2.292   2.155   9.845 -0.6029  0.2397 -0.8618
  183MPD1    H5 2794   2.194   2.135   9.830 -0.5132 -0.3087 -0.7139
  183MPD1    N1 2795   2.145   2.599   9.833 -0.2553 -0.2001  0.1623
  183MPD1    H6 2796   2.060   2.553   9.803  1.3255 -1.1189 -2.9732
  183MPD1    H7 2797   2.129   2.677   9.896  2.2037  0.7199 -0.3291
  184MPD1     C 2798   1.491   3.220  10.055 -0.7091  0.0922  0.9746
  184MPD1    C1 2799   1.589   3.306  10.086  0.0541 -0.2712 -0.3634
  184MPD1    C2 2800   1.593   3.432  10.029  0.7954 -0.5516 -0.5663
  184MPD1    C3 2801   1.496   3.478   9.935 -0.3291 -0.4536 -0.2040
  184MPD1    C4 2802   1.400   3.387   9.904  0.2586  0.0154  0.3346
  184MPD1    C5 2803   1.402   3.258   9.959 -0.3483  0.3704 -0.2709
  184MPD1     H 2804   1.662   3.499  10.077 -0.3754  0.4919 -0.3454
  184MPD1    H1 2805   1.316   3.414   9.841  0.5277  0.0427 -0.0107
  184MPD1    H2 2806   1.488   3.116  10.089 -0.1597 -0.1450  0.2839
  184MPD1    H3 2807   1.331   3.182   9.932 -1.7617  1.2579  0.9465
  184MPD1     N 2808   1.480   3.616   9.896  0.8198  0.1293 -0.2005
  184MPD1    H5 2809   1.402   3.636   9.835  1.5512  1.1551 -0.8130
  184MPD1    N1 2810   1.667   3.265  10.190  0.1069  0.4977  0.2375
  184MPD1    H6 2811   1.686   3.165  10.196 -4.2740 -0.5038 -2.3164
  184MPD1    H7 2812   1.751   3.317  10.212  0.2038  0.9550 -1.2414
  185MPD1     C 2813   1.188   4.127   9.105  0.0262 -0.3572  0.0198
  185MPD1    C1 2814   1.153   4.012   9.179 -0.0500 -0.4073  0.5064
  185MPD1    C2 2815   1.230   3.988   9.292  0.0794 -0.1870  0.9456
  185MPD1    C3 2816   1.330   4.072   9.336  0.1698 -0.2854  0.2459
  185MPD1    C4 2817   1.369   4.176   9.251 -0.9430  0.1788 -0.1914
  185MPD1    C5 2818   1.293   4.199   9.141 -0.8571 -0.4436  0.3674
  185MPD1     H 2819   1.185   3.926   9.369 -0.7191 -1.6298 -0.6821
  185MPD1    H1 2820   1.456   4.240   9.267 -0.0497 -1.1588  0.3305
  185MPD1    H2 2821   1.130   4.144   9.015  1.4921 -1.3077 -1.1029
  185MPD1    H3 2822   1.321   4.280   9.074  0.8824 -0.6050  0.8992
  185MPD1     N 2823   1.399   4.054   9.458  0.6983 -0.3700 -1.2146
  185MPD1    H5 2824   1.475   4.117   9.481  1.1711 -1.3258 -0.1455
  185MPD1    N1 2825   1.031   3.947   9.151 -0.6047  0.0729  0.4329
  185MPD1    H6 2826   1.003   3.948   9.053  0.3902  0.0217  0.1492
  185MPD1    H7 2827   1.027   3.850   9.180  3.2233 -0.5431 -1.0545
  186MPD1     C 2828   4.713   3.255  15.769  0.5089  0.6359 -0.9703
  186MPD1    C1 2829   4.659   3.335  15.867  0.0946  0.3096  0.0284
  186MPD1    C2 2830   0.005   3.357  15.978 -0.3479  0.2532  0.0931
  186MPD1    C3 2831   0.129   3.293  16.002 -0.2129 -0.2076  0.0188
  186MPD1    C4 2832   0.175   3.206  15.908  0.3823 -0.4342 -0.2110
  186MPD1    C5 2833   0.114   3.197  15.790 -0.5804 -1.0808 -0.2756
  186MPD1     H 2834   4.675   3.424  16.047  0.2397  0.0534  0.7184
  186MPD1    H1 2835   0.268   3.153  15.922  0.2079 -0.5976  0.3403
  186MPD1    H2 2836   4.669   3.229  15.673 -0.5424  0.6926 -0.4986
  186MPD1    H3 2837   0.143   3.130  15.710  2.6245  1.7029 -1.4885
  186MPD1     N 2838   0.207   3.316  16.121  0.3747 -0.4247  0.2305
  186MPD1    H5 2839   0.305   3.290  16.122  1.1646  2.5356 -1.5563
  186MPD1    N1 2840   4.533   3.392  15.844  0.0578 -0.2118  0.1933
  186MPD1    H6 2841   4.529   3.483  15.889  0.3797  0.1563 -0.5260
  186MPD1    H7 2842   4.516   3.410  15.746  1.2645  2.0338  0.3912
  187MPD1     C 2843   4.303   4.571   0.621 -0.6047 -0.9489 -1.0258
  187MPD1    C1 2844   4.213   4.529   0.525  0.4413  0.5643  0.1775
  187MPD1    C2 2845   4.236   4.571   0.399 -0.5008 -0.2229 -0.2600
  187MPD1    C3 2846   4.325   4.674   0.368 -0.5321 -0.1731 -0.7366
  187MPD1    C4 2847   4.412   4.718   0.461 -0.6070  0.5046 -0.3491
  187MPD1    C5 2848   4.393   4.671   0.588  0.1651 -0.0803 -0.2154
  187MPD1     H 2849   4.180   4.528   0.317 -0.6766  0.2627 -0.3920
  187MPD1    H1 2850   4.486   0.072   0.432 -0.1983  0.6295  1.0557
  187MPD1    H2 2851   4.303   4.548   0.727 -1.5011  0.5654 -0.6954
  187MPD1    H3 2852   4.460   4.713   0.663 -1.6991 -0.1930  1.5334
  187MPD1     N 2853   4.346   0.006   0.240  0.0468 -0.2589 -0.3173
  187MPD1    H5 2854   4.440   0.044   0.225  0.3296 -1.6647 -2.0398
  187MPD1    N1 2855   4.126   4.421   0.549 -0.2470 -0.5644  0.0820
  187MPD1    H6 2856   4.051   4.421   0.481  0.6686  0.1018 -0.9193
  187MPD1    H7 2857   4.090   4.426   0.644  1.4080  0.5925  0.6510
  188MPD1     C 2858   3.614   0.806   9.988  0.2799 -0.2694 -0.0279
  188MPD1    C1 2859   3.682   0.763  10.105  0.2634 -0.0638  0.1658
  188MPD1    C2 2860   3.733   0.634  10.111  0.6825 -0.4414 -0.0228
  188MPD1    C3 2861   3.713   0.545  10.000  0.7728  0.6451  0.8708
  188MPD1    C4 2862   3.640   0.594   9.889 -0.9526 -0.0368  0.2937
  188MPD1    C5 2863   3.588   0.721   9.887 -0.4159  0.2667  0.0623
  188MPD1     H 2864   3.788   0.603  10.200 -1.1400 -1.2987  0.8045
  188MPD1    H1 2865   3.608   0.520   9.816  1.6243 -0.7434 -0.1082
  188MPD1    H2 2866   3.566   0.902   9.974 -0.5282 -0.9591 -1.9240
  188MPD1    H3 2867   3.520   0.753   9.809 -1.0124 -1.1022  0.0183
  188MPD1     N 2868   3.765   0.419   9.988 -0.2218 -0.1846  0.3685
  188MPD1    H5 2869   3.731   0.362   9.911  1.1110  1.8375 -1.6922
  188MPD1    N1 2870   3.723   0.854  10.196  0.4854  0.0594  0.2717
  188MPD1    H6 2871   3.742   0.806  10.284 -0.6075 -2.2474 -0.7591
  188MPD1    H7 2872   3.654   0.927  10.216  0.3944 -0.2615  1.1404
  189MPD1     C 2873   1.532   0.581   0.110 -0.0737 -0.1272 -0.5021
  189MPD1    C1 2874   1.404   0.531   0.113  0.2439 -0.8538  0.2181
  189MPD1    C2 2875   1.306   0.600   0.179 -0.3094 -0.2862  0.1196
  189MPD1    C3 2876   1.316   0.726   0.228 -0.1354 -0.4903  0.5644
  189MPD1    C4 2877   1.436   0.776   0.220  0.3746 -0.1460 -0.5874
  189MPD1    C5 2878   1.538   0.706   0.161 -0.0160 -0.3297  0.4912
  189MPD1     H 2879   1.212   0.546   0.190  0.6431 -1.3999  2.7258
  189MPD1    H1 2880   1.466   0.874   0.254  1.0369  0.0323 -1.6929
  189MPD1    H2 2881   1.621   0.534   0.070  0.3390  0.7075 -0.5625
  189MPD1    H3 2882   1.641   0.741   0.154  0.5807 -2.1449  0.2096
  189MPD1     N 2883   1.192   0.778   0.289  0.0281  0.5676 -0.7930
  189MPD1    H5 2884   1.110   0.725   0.262  1.5576 -2.5970  0.6881
  189MPD1    N1 2885   1.385   0.399   0.077  0.4464  0.0370 -0.2576
  189MPD1    H6 2886   1.290   0.367   0.055  0.5255  0.3404 -1.0247
  189MPD1    H7 2887   1.444   0.378  17.679 -0.1661  2.0596 -1.2512
  190MPD1     C 2888   0.117   0.447  15.523  0.1687  0.3833 -0.9422
  190MPD1    C1 2889   0.249   0.410  15.533 -0.3909 -0.2790 -0.2456
  190MPD1    C2 2890   0.258   0.279  15.571 -0.0281  0.0577 -0.3025
  190MPD1    C3 2891   0.158   0.203  15.615 -0.2963  0.0679 -0.2395
  190MPD1    C4 2892   0.028   0.246  15.616 -0.6307 -0.1919 -0.0417
  190MPD1    C5 2893   0.012   0.372  15.568  0.2346  0.1630 -0.6347
  190MPD1     H 2894   0.355   0.231  15.566 -0.2929 -0.5413  0.3131
  190MPD1    H1 2895   4.666   0.179  15.638 -0.0469 -0.1981  2.0768
  190MPD1    H2 2896   0.100   0.547  15.486  2.7788  0.7671 -1.1084
  190MPD1    H3 2897   4.630   0.408  15.571 -0.1392 -0.9081 -0.4813
  190MPD1     N 2898   0.201   0.079  15.659  0.4812  0.1981 -0.4456
  190MPD1    H5 2899   0.299   0.057  15.641  0.1423 -1.3152 -0.5002
  190MPD1    N1 2900   0.353   0.487  15.476 -0.2249 -0.0893 -0.2257
  190MPD1    H6 2901   0.446   0.461  15.509  0.7585  3.1247 -0.3994
  190MPD1    H7 2902   0.339   0.588  15.484  0.0276  0.0026 -0.9353
  191MPD1     C 2903   4.546   1.799  11.963 -1.0601  0.0786 -0.1429
  191MPD1    C1 2904   4.494   1.687  11.905 -0.1748 -0.7061 -0.6577
  191MPD1    C2 2905   4.393   1.622  11.977 -0.5086  0.0883 -0.4107
  191MPD1    C3 2906   4.354   1.678  12.095 -0.0930 -0.1604  0.8107
  191MPD1    C4 2907   4.419   1.773  12.161 -0.3557 -0.1482 -0.4319
  191MPD1    C5 2908   4.516   1.837  12.089  0.6048  0.3822  0.0165
  191MPD1     H 2909   4.338   1.539  11.933 -2.7950  1.7847 -0.8176
  191MPD1    H1 2910   4.386   1.815  12.255 -1.1622 -0.3702 -0.6174
  191MPD1    H2 2911   4.620   1.866  11.919 -1.4685  0.4535 -0.2579
  191MPD1    H3 2912   4.557   1.930  12.126  0.6328  0.6069 -0.5872
  191MPD1     N 2913   4.229   1.627  12.139 -0.1216  0.2090 -0.4940
  191MPD1    H5 2914   4.176   1.563  12.081  0.2245 -0.5864  0.0767
  191MPD1    N1 2915   4.532   1.648  11.779  0.1892  0.2918 -0.3426
  191MPD1    H6 2916   4.519   1.548  11.772  1.2609  0.2017 -1.1630
  191MPD1    H7 2917   4.628   1.670  11.753  0.8280  0.3206  2.0295
  192MPD1     C 2918   3.826   1.468  13.023 -0.8804 -0.2733  0.3598
  192MPD1    C1 2919   3.715   1.492  12.952  0.4526  0.3378  0.0890
  192MPD1    C2 2920   3.737   1.539  12.824 -0.6055 -0.1667 -0.5815
  192MPD1    C3 2921   3.859   1.561  12.770  0.2794 -0.4164  0.4581
  192MPD1    C4 2922   3.969   1.546  12.850 -0.1820  0.2055 -0.3548
  192MPD1    C5 2923   3.954   1.500  12.979  0.0420  0.5075 -0.6556
  192MPD1     H 2924   3.647   1.553  12.764  0.6686  0.6919 -2.2757
  192MPD1    H1 2925   4.069   1.557  12.808  0.7156 -0.2020  1.6653
  192MPD1    H2 2926   3.820   1.425  13.122  3.6470  2.0624  1.6099
  192MPD1    H3 2927   4.040   1.477  13.041 -0.9846 -2.5413 -0.3769
  192MPD1     N 2928   3.887   1.609  12.631 -0.5901  0.1747 -0.3326
  192MPD1    H5 2929   3.983   1.627  12.606 -0.1364  0.4168  1.6051
  192MPD1    N1 2930   3.588   1.457  13.000 -0.2212  0.0305 -0.1572
  192MPD1    H6 2931   3.581   1.484  13.098 -0.6300  0.8268 -0.4061
  192MPD1    H7 2932   3.518   1.520  12.960  0.0597  0.6224  0.2798
  193MPD1     C 2933   3.609   1.508  16.926 -0.9280 -0.0210  0.3752
  193MPD1    C1 2934   3.545   1.597  16.850  0.0319 -0.2758 -0.2406
  193MPD1    C2 2935   3.613   1.716  16.818 -0.0217  0.0576  0.0384
  193MPD1    C3 2936   3.741   1.734  16.864 -0.1329 -0.0238  0.1254
  193MPD1    C4 2937   3.805   1.644  16.941  0.3817 -0.1004 -0.1752
  193MPD1    C5 2938   3.732   1.536  16.980  0.8793  0.0494  0.3091
  193MPD1     H 2939   3.562   1.785  16.753 -0.7247 -1.9723 -1.5615
  193MPD1    H1 2940   3.903   1.646  16.987 -0.1965 -0.5670  1.0669
  193MPD1    H2 2941   3.569   1.414  16.961  0.5709 -1.2820 -1.2460
  193MPD1    H3 2942   3.783   1.463  17.041  4.6258 -0.6020 -3.5149
  193MPD1     N 2943   3.806   1.858  16.840  0.1962 -0.2050  0.2163
  193MPD1    H5 2944   3.904   1.863  16.865 -0.5409  3.1538  2.4210
  193MPD1    N1 2945   3.415   1.567  16.799  0.0140  0.2920 -0.1415
  193MPD1    H6 2946   3.359   1.509  16.860  0.4692 -1.9810 -1.8757
  193MPD1    H7 2947   3.367   1.656  16.785  1.1674  0.7992 -0.9281
  194MPD1     C 2948   2.166   3.992  16.237 -0.2775 -0.4221 -0.0319
  194MPD1    C1 2949   2.283   3.996  16.316 -0.5890  0.5836  0.0325
  194MPD1    C2 2950   2.276   3.926  16.433 -0.0248  0.0114 -0.2460
  194MPD1    C3 2951   2.164   3.854  16.469  0.1184 -0.1137  0.6336
  194MPD1    C4 2952   2.062   3.839  16.380 -0.0328 -0.1056  0.0046
  194MPD1    C5 2953   2.058   3.918  16.268  0.2849 -0.4400  0.2438
  194MPD1     H 2954   2.357   3.924  16.506 -0.1928  0.5239 -0.0455
  194MPD1    H1 2955   1.978   3.774  16.406 -0.5599 -0.1602 -1.8457
  194MPD1    H2 2956   2.158   4.048  16.145  0.8478  1.1483  0.8240
  194MPD1    H3 2957   1.969   3.897  16.209 -1.1977  0.5236  2.1152
  194MPD1     N 2958   2.154   3.773  16.592 -0.6697  0.0443 -0.8032
  194MPD1    H5 2959   2.072   3.716  16.612 -0.1551  0.2014  1.6332
  194MPD1    N1 2960   2.404   4.046  16.263  0.2656  0.1567 -0.2918
  194MPD1    H6 2961   2.390   4.137  16.220  0.9786  0.0181 -0.8195
  194MPD1    H7 2962   2.471   4.055  16.338 -0.6189  2.8954  0.1741
  195MPD1     C 2963   3.657   1.319   0.553  0.1265 -0.0159  0.2510
  195MPD1    C1 2964   3.778   1.298   0.495 -0.2172  0.0844 -0.0988
  195MPD1    C2 2965   3.814   1.167   0.467 -0.7224  0.4209  0.1776
  195MPD1    C3 2966   3.739   1.059   0.509  0.1713  0.6878  0.6259
  195MPD1    C4 2967   3.613   1.086   0.559  0.2646  0.5372  0.4052
  195MPD1    C5 2968   3.572   1.216   0.577 -0.6233 -0.3330  0.1645
  195MPD1     H 2969   3.907   1.138   0.421 -1.1165 -2.8601  1.4380
  195MPD1    H1 2970   3.537   1.009   0.568  1.3106 -0.6839 -1.2562
  195MPD1    H2 2971   3.615   1.416   0.576  1.5240  0.6482 -0.0361
  195MPD1    H3 2972   3.474   1.238   0.618 -0.3031  0.8914  0.2916
  195MPD1     N 2973   3.774   0.925   0.483 -0.3381  0.0020  0.2246
  195MPD1    H5 2974   3.703   0.859   0.513 -2.4967  1.9810 -0.5040
  195MPD1    N1 2975   3.858   1.404   0.458 -0.0998 -0.4484 -0.3984
  195MPD1    H6 2976   3.839   1.494   0.501 -2.8798 -0.8754 -0.7592
  195MPD1    H7 2977   3.952   1.382   0.490 -0.5630 -2.4901 -0.4248
  196MPD1     C 2978   2.609   4.346  17.585 -0.6023  0.5890 -0.2996
  196MPD1    C1 2979   2.676   4.464  17.568  0.0653 -0.2646  0.0983
  196MPD1    C2 2980   2.669   4.547  17.680 -0.1844 -0.2828 -0.4960
  196MPD1    C3 2981   2.627   4.500   0.124  1.3709  0.0138 -0.4425
  196MPD1    C4 2982   2.571   4.378   0.135  0.1190  0.0837 -0.0899
  196MPD1    C5 2983   2.559   4.299   0.023 -0.0147  0.2144 -0.4487
  196MPD1     H 2984   2.721   4.642  17.669  1.2852 -0.9314  0.7361
  196MPD1    H1 2985   2.534   4.327   0.223  0.7880 -1.0295 -0.4557
  196MPD1    H2 2986   2.596   4.281  17.499 -0.4866  0.6204 -0.3407
  196MPD1    H3 2987   2.530   4.197   0.044  0.6658  0.2741  0.7828
  196MPD1     N 2988   2.658   4.560   0.249  0.4982  0.4720  0.0305
  196MPD1    H5 2989   2.636   4.513   0.336  0.7277 -1.6208 -1.0559
  196MPD1    N1 2990   2.701   4.521  17.439  0.1495  0.2765 -0.0958
  196MPD1    H6 2991   2.782   4.583  17.437  0.7414 -0.5408 -1.6749
  196MPD1    H7 2992   2.720   4.449  17.370 -0.5010  2.5370 -2.6299
  197MPD1     C 2993   2.519   1.594  17.530  0.1454 -0.1593  0.5414
  197MPD1    C1 2994   2.635   1.664  17.564  0.6919 -1.1483 -0.4907
  197MPD1    C2 2995   2.648   1.788  17.494 -0.2530 -0.0249 -0.3373
  197MPD1    C3 2996   2.550   1.843  17.414  0.0628  0.6523  0.1911
  197MPD1    C4 2997   2.437   1.771  17.390  0.1689 -0.2719  0.0640
  197MPD1    C5 2998   2.423   1.646  17.452  0.6657  0.5232 -0.0331
  197MPD1     H 2999   2.737   1.848  17.512  1.6216 -2.9895  0.2514
  197MPD1    H1 3000   2.357   1.819  17.335 -1.2867 -2.0130  0.6567
  197MPD1    H2 3001   2.486   1.498  17.568 -0.2290 -0.4260 -0.4438
  197MPD1    H3 3002   2.326   1.598  17.461  0.8042  0.1430 -0.5593
  197MPD1     N 3003   2.563   1.970  17.353  0.4299  0.2810  0.2308
  197MPD1    H5 3004   2.493   2.001  17.286 -2.9813 -3.0041  2.2843
  197MPD1    N1 3005   2.735   1.603  17.643 -0.0948 -0.6930 -0.0815
  197MPD1    H6 3006   2.795   1.673   0.006 -0.1038 -0.2284 -0.7948
  197MPD1    H7 3007   2.705   1.529   0.024 -1.0388 -0.6786 -0.5143
  198MPD1     C 3008   4.283   1.164  15.543  0.1168 -0.0636 -0.1491
  198MPD1    C1 3009   4.336   1.096  15.648  0.0367 -0.5198  0.0924
  198MPD1    C2 3010   4.443   1.157  15.716  0.3070  0.0282  0.0161
  198MPD1    C3 3011   4.475   1.288  15.696  0.2894  0.2004  0.5549
  198MPD1    C4 3012   4.412   1.368  15.597  0.1282 -0.1189  0.0455
  198MPD1    C5 3013   4.312   1.300  15.525  0.2385 -0.7643 -0.6656
  198MPD1     H 3014   4.509   1.103  15.782  0.3967  1.1692  0.8654
  198MPD1    H1 3015   4.422   1.473  15.572  2.5080 -0.0859  1.1640
  198MPD1    H2 3016   4.198   1.119  15.492  0.1112 -1.2546  0.8978
  198MPD1    H3 3017   4.259   1.360  15.453  0.9943 -1.4845 -1.8379
  198MPD1     N 3018   4.565   1.342  15.789  0.4974 -0.2587  0.7500
  198MPD1    H5 3019   4.609   1.275  15.852 -1.6950 -0.8742  1.6291
  198MPD1    N1 3020   4.311   0.954  15.663 -0.6518  0.2924 -0.5019
  198MPD1    H6 3021   4.216   0.930  15.636 -0.4240  0.2684 -1.2928
  198MPD1    H7 3022   4.343   0.922  15.754 -0.6276  2.0927  0.1187
  199MPD1     C 3023   2.274   1.230   9.707  0.7941 -0.4211 -0.3909
  199MPD1    C1 3024   2.264   1.144   9.602 -0.0513  0.3453 -0.3192
  199MPD1    C2 3025   2.144   1.149   9.529 -0.0404 -0.7193 -0.0820
  199MPD1    C3 3026   2.031   1.230   9.571 -0.1875 -0.4052 -0.3416
  199MPD1    C4 3027   2.044   1.314   9.679 -0.4326 -0.1214  0.5927
  199MPD1    C5 3028   2.163   1.308   9.747  0.2822 -0.2289  0.4313
  199MPD1     H 3029   2.126   1.087   9.442 -1.5931 -0.5174  0.0828
  199MPD1    H1 3030   1.970   1.382   9.719 -0.2208 -0.1651  1.0520
  199MPD1    H2 3031   2.353   1.230   9.781 -0.9409  0.0534  1.4781
  199MPD1    H3 3032   2.173   1.361   9.840 -2.0746 -0.8814  1.0326
  199MPD1     N 3033   1.902   1.218   9.504 -0.1584 -0.1797  0.4094
  199MPD1    H5 3034   1.825   1.270   9.546 -1.0827 -0.7540 -0.5604
  199MPD1    N1 3035   2.378   1.066   9.563  0.2226  0.1318 -0.3199
  199MPD1    H6 3036   2.367   0.984   9.504  0.7486  0.6948 -1.2038
  199MPD1    H7 3037   2.432   1.038   9.645  0.0548  0.2173 -0.1799
  200MPD1     C 3038   0.566   2.015  15.362  0.4338 -0.3760  0.1702
  200MPD1    C1 3039   0.537   2.023  15.226  0.4610  0.8865  0.1874
  200MPD1    C2 3040   0.634   2.054  15.130 -0.0551 -0.4357 -0.1302
  200MPD1    C3 3041   0.754   2.106  15.170 -0.4819 -0.3436 -0.0072
  200MPD1    C4 3042   0.773   2.126  15.305  0.6384  0.4113  0.3252
  200MPD1    C5 3043   0.685   2.075  15.398  0.1259  0.2317  0.3019
  200MPD1     H 3044   0.610   2.044  15.025 -1.3725 -1.4950  0.2652
  200MPD1    H1 3045   0.860   2.169  15.354  0.0976  0.4286  1.2573
  200MPD1    H2 3046   0.499   1.985  15.441 -0.3133  0.8567 -0.0110
  200MPD1    H3 3047   0.705   2.084  15.504 -0.2867  1.0049  0.3110
  200MPD1     N 3048   0.862   2.133  15.085 -0.2216 -0.5334 -0.2865
  200MPD1    H5 3049   0.857   2.102  14.988  1.9603 -0.6176 -0.3715
  200MPD1    N1 3050   0.413   1.965  15.177  0.1070 -0.4133 -1.0309
  200MPD1    H6 3051   0.385   1.979  15.080  1.4008 -0.2988 -1.3892
  200MPD1    H7 3052   0.333   1.991  15.234  0.4613 -1.3161 -0.1151
  201MPD1     C 3053   3.078   1.069  12.395  0.1105 -2.0804 -0.2507
  201MPD1    C1 3054   3.140   0.947  12.358  0.5041  0.3295 -0.3889
  201MPD1    C2 3055   3.229   0.898  12.451  0.4636  0.4665  0.2807
  201MPD1    C3 3056   3.235   0.939  12.586 -0.1185 -0.0060 -0.0714
  201MPD1    C4 3057   3.161   1.052  12.624  0.4883  0.3053 -0.0216
  201MPD1    C5 3058   3.098   1.117  12.523 -0.0507 -0.3291  0.2976
  201MPD1     H 3059   3.277   0.806  12.419 -1.5027 -0.9150  1.2935
  201MPD1    H1 3060   3.162   1.100  12.721  3.5012 -0.8660  0.5585
  201MPD1    H2 3061   3.031   1.143  12.331 -1.8132 -1.5211  1.8245
  201MPD1    H3 3062   3.058   1.215  12.547 -1.7169 -0.2489 -2.8470
  201MPD1     N 3063   3.315   0.862  12.675 -0.0692 -0.7491  0.4127
  201MPD1    H5 3064   3.371   0.795  12.623  1.0475  1.1716 -0.8589
  201MPD1    N1 3065   3.129   0.889  12.235  0.5672  0.0794  0.1243
  201MPD1    H6 3066   3.140   0.788  12.238  1.1627  0.0895 -1.2054
  201MPD1    H7 3067   3.040   0.924  12.199 -0.2101 -1.0121  1.0318
  202MPD1     C 3068   3.560   1.508   9.530 -0.1787  0.3345 -0.2464
  202MPD1    C1 3069   3.442   1.561   9.579 -0.4029  0.0032  0.0663
  202MPD1    C2 3070   3.374   1.484   9.674  0.2694  0.1639 -0.3998
  202MPD1    C3 3071   3.395   1.347   9.686  0.0685  0.2618  0.3535
  202MPD1    C4 3072   3.509   1.302   9.625  0.1368 -0.1192 -0.1191
  202MPD1    C5 3073   3.582   1.378   9.552  0.3101 -0.4516 -0.1685
  202MPD1     H 3074   3.286   1.524   9.723 -0.2128 -0.6006 -0.6402
  202MPD1    H1 3075   3.532   1.198   9.646 -0.3190 -0.4658 -1.3453
  202MPD1    H2 3076   3.638   1.574   9.493 -0.7386  2.5857  2.5715
  202MPD1    H3 3077   3.680   1.338   9.531 -0.2588 -1.3916 -1.0563
  202MPD1     N 3078   3.314   1.257   9.759 -0.2268 -0.2711 -0.6527
  202MPD1    H5 3079   3.346   1.160   9.752  0.5922 -0.0301 -0.1954
  202MPD1    N1 3080   3.437   1.701   9.594  0.3100  0.1913  0.0543
  202MPD1    H6 3081   3.482   1.749   9.516  0.7892  0.6683  0.6223
  202MPD1    H7 3082   3.347   1.744   9.613  1.9065  3.8063 -0.6039
  203MPD1     C 3083   1.890   2.030  12.571 -0.3185  0.1209  0.1133
  203MPD1    C1 3084   2.011   1.979  12.517  0.2052  0.0834 -0.2505
  203MPD1    C2 3085   2.041   1.848  12.531 -0.5306  0.0914 -0.0763
  203MPD1    C3 3086   1.961   1.758  12.599 -0.5443 -0.9861 -1.0381
  203MPD1    C4 3087   1.842   1.815  12.645 -0.0295 -0.1759  0.5156
  203MPD1    C5 3088   1.801   1.942  12.632 -0.9829 -0.7112 -0.3969
  203MPD1     H 3089   2.133   1.810  12.488 -1.5165  0.4352 -2.4702
  203MPD1    H1 3090   1.766   1.757  12.697  1.1236 -2.8424 -0.8013
  203MPD1    H2 3091   1.868   2.135  12.555  0.0940  0.5802  2.6039
  203MPD1    H3 3092   1.710   1.987  12.669 -1.5726 -1.0890 -1.4004
  203MPD1     N 3093   1.995   1.621  12.607  0.0574 -0.0530 -0.9289
  203MPD1    H5 3094   2.088   1.606  12.568  1.5319 -0.5047  2.7830
  203MPD1    N1 3095   2.080   2.065  12.430 -0.0622 -0.3336  0.1362
  203MPD1    H6 3096   2.181   2.055  12.430  0.0420  0.5837  2.3778
  203MPD1    H7 3097   2.063   2.164  12.448  1.5348  0.4281 -2.6462
  204MPD1     C 3098   0.523   1.991  17.559 -0.9740  0.2550 -0.1197
  204MPD1    C1 3099   0.549   2.044  17.429  0.1109 -0.1585  0.3912
  204MPD1    C2 3100   0.647   1.975  17.362 -0.1791  0.4332  0.4932
  204MPD1    C3 3101   0.707   1.858  17.410  0.1986  0.0259 -0.4017
  204MPD1    C4 3102   0.661   1.806  17.530  0.6475 -0.5878  0.1073
  204MPD1    C5 3103   0.574   1.876  17.603 -0.7936 -0.0470  0.8439
  204MPD1     H 3104   0.686   2.000  17.264 -2.9216 -0.0106 -0.7350
  204MPD1    H1 3105   0.693   1.711  17.572  0.8257 -1.7150 -2.5937
  204MPD1    H2 3106   0.449   2.033  17.627  1.2161  2.0921  1.1305
  204MPD1    H3 3107   0.535   1.837   0.014  5.5305 -0.2854  3.4067
  204MPD1     N 3108   0.814   1.798  17.331  0.1493  0.5367  0.6280
  204MPD1    H5 3109   0.856   1.847  17.253 -0.2504 -1.4160 -0.8196
  204MPD1    N1 3110   0.479   2.151  17.374  0.1856 -0.6512 -0.0753
  204MPD1    H6 3111   0.384   2.159  17.412  0.0904  2.0872 -0.8524
  204MPD1    H7 3112   0.476   2.161  17.273 -2.1863  1.0259  0.1416
  205MPD1     C 3113   2.204   0.858  16.331  0.0729  0.1194 -0.5551
  205MPD1    C1 3114   2.127   0.965  16.361  0.1456 -0.6870 -0.0642
  205MPD1    C2 3115   2.008   0.949  16.427 -0.5913 -0.9548 -0.1812
  205MPD1    C3 3116   1.947   0.824  16.433 -0.4199 -0.5583  0.6988
  205MPD1    C4 3117   2.023   0.713  16.397 -0.5282 -0.0719  0.0074
  205MPD1    C5 3118   2.153   0.736  16.356  0.5709 -0.6562 -0.4248
  205MPD1     H 3119   1.961   1.039  16.466  0.1129 -1.2747  1.4390
  205MPD1    H1 3120   1.982   0.613  16.400 -0.8869  0.0736 -0.1265
  205MPD1    H2 3121   2.299   0.862  16.278 -0.3301  0.8157 -1.2390
  205MPD1    H3 3122   2.203   0.643  16.328  0.9985 -0.7371  0.6158
  205MPD1     N 3123   1.823   0.798  16.492 -0.5125  0.1475  0.3198
  205MPD1    H5 3124   1.793   0.703  16.472 -2.2094  1.3118 -2.7306
  205MPD1    N1 3125   2.185   1.093  16.339 -0.5750 -0.5361 -0.7471
  205MPD1    H6 3126   2.110   1.161  16.340 -0.9514 -0.9810  1.0939
  205MPD1    H7 3127   2.224   1.117  16.248 -0.7912  0.6666 -0.5140
  206MPD1     C 3128   1.847   3.654  16.810 -0.6123  0.4836  0.3092
  206MPD1    C1 3129   1.846   3.786  16.793  0.4497  0.1228 -0.7477
  206MPD1    C2 3130   1.809   3.831  16.668  0.4736  0.0227  0.3025
  206MPD1    C3 3131   1.766   3.749  16.562 -0.3129  0.4290 -0.3639
  206MPD1    C4 3132   1.771   3.613  16.588 -0.3791 -0.0263  0.6354
  206MPD1    C5 3133   1.802   3.569  16.712  0.4040 -0.0192 -0.6609
  206MPD1     H 3134   1.820   3.936  16.644 -1.1242  0.2225  0.4380
  206MPD1    H1 3135   1.762   3.538  16.510  0.4433 -0.4160  0.9212
  206MPD1    H2 3136   1.905   3.613  16.892 -0.6439  2.5885  1.3890
  206MPD1    H3 3137   1.794   3.464  16.738 -2.6700  0.3013 -0.2510
  206MPD1     N 3138   1.704   3.786  16.441 -0.8373  0.3663 -0.0420
  206MPD1    H5 3139   1.678   3.710  16.379  0.4492 -1.0583  1.1591
  206MPD1    N1 3140   1.924   3.869  16.879  0.0434 -0.2266  0.2642
  206MPD1    H6 3141   1.906   3.968  16.860  2.3234  0.2630  0.6108
  206MPD1    H7 3142   1.922   3.837  16.975  0.6451 -0.5165  0.1821
  207MPD1     C 3143   3.600   2.330   9.427 -0.0601 -0.6333  0.1937
  207MPD1    C1 3144   3.636   2.204   9.383 -0.0496 -0.1687  0.3733
  207MPD1    C2 3145   3.715   2.125   9.474 -0.6051 -0.6610 -0.1717
  207MPD1    C3 3146   3.760   2.183   9.592  0.3890 -0.1557 -0.4604
  207MPD1    C4 3147   3.730   2.315   9.622 -0.8059 -0.0247  0.3193
  207MPD1    C5 3148   3.652   2.385   9.539  0.2232 -0.4590  0.2984
  207MPD1     H 3149   3.743   2.022   9.452 -0.1541 -0.6936  0.5441
  207MPD1    H1 3150   3.768   2.358   9.714  0.4496 -0.7496  0.1273
  207MPD1    H2 3151   3.539   2.395   9.366  0.3736  0.3852  0.8564
  207MPD1    H3 3152   3.623   2.486   9.564  0.4602 -0.5408  0.8950
  207MPD1     N 3153   3.829   2.115   9.692  0.0602  0.0157  0.5811
  207MPD1    H5 3154   3.854   2.179   9.767 -0.8899  0.5815  0.4186
  207MPD1    N1 3155   3.627   2.170   9.246  0.8311  0.5002  0.4481
  207MPD1    H6 3156   3.544   2.219   9.213  0.0391 -0.4576  1.0286
  207MPD1    H7 3157   3.624   2.070   9.228  1.3584  0.5987 -0.1902
  208MPD1     C 3158   2.541   0.915  17.017  1.1750  0.1916 -0.1453
  208MPD1    C1 3159   2.428   0.851  16.967 -0.0622 -0.5224  0.5084
  208MPD1    C2 3160   2.348   0.785  17.063 -0.5518  0.3321 -0.0197
  208MPD1    C3 3161   2.391   0.752  17.190 -0.7281  0.0742 -0.3064
  208MPD1    C4 3162   2.519   0.800  17.222  0.1657 -0.0912  0.4731
  208MPD1    C5 3163   2.583   0.885  17.143  0.2984 -0.0428  0.0297
  208MPD1     H 3164   2.255   0.741  17.027  0.6355 -3.1899  1.2351
  208MPD1    H1 3165   2.563   0.787  17.320 -2.3634  1.7808  1.8432
  208MPD1    H2 3166   2.602   0.975  16.951  0.8204  0.9944  0.2478
  208MPD1    H3 3167   2.681   0.920  17.175  0.7672 -1.2444 -0.0988
  208MPD1     N 3168   2.332   0.654  17.265 -0.4593 -0.6011  0.3018
  208MPD1    H5 3169   2.242   0.630  17.225 -0.9838  1.8999 -0.0252
  208MPD1    N1 3170   2.383   0.893  16.841  0.6221  0.3925  0.1883
  208MPD1    H6 3171   2.310   0.824  16.823  0.2099  1.0684 -0.7090
  208MPD1    H7 3172   2.461   0.881  16.778  1.6930 -0.2123  1.6207
  209MPD1     C 3173   4.054   0.410   9.702 -0.9573  0.1108 -0.1663
  209MPD1    C1 3174   3.974   0.520   9.693 -0.4505  0.0923  0.0925
  209MPD1    C2 3175   4.001   0.616   9.785 -0.3733 -0.1021 -0.6981
  209MPD1    C3 3176   4.093   0.607   9.887  0.9975 -0.1321  0.2321
  209MPD1    C4 3177   4.162   0.485   9.902 -0.1696 -0.1362  0.5435
  209MPD1    C5 3178   4.147   0.389   9.806  0.1655 -1.3379 -0.3036
  209MPD1     H 3179   3.943   0.708   9.778  0.4790  0.2564 -2.8072
  209MPD1    H1 3180   4.224   0.469   9.989 -1.2381 -0.5802  1.2273
  209MPD1    H2 3181   4.043   0.328   9.631 -0.8254  0.9668 -1.1829
  209MPD1    H3 3182   4.200   0.295   9.816  3.5590  0.3247 -2.7239
  209MPD1     N 3183   4.108   0.713   9.983 -0.7817  0.0868 -0.0572
  209MPD1    H5 3184   4.064   0.802   9.963 -0.6401  0.8333  2.9658
  209MPD1    N1 3185   3.888   0.540   9.580 -0.2352 -0.0515 -0.2455
  209MPD1    H6 3186   3.862   0.452   9.536 -1.2566  0.1927 -0.1333
  209MPD1    H7 3187   3.806   0.598   9.599 -1.0030 -0.6721 -1.6109
  210MPD1     C 3188   0.177   1.275  10.294 -0.1971  0.4531 -0.0225
  210MPD1    C1 3189   0.164   1.143  10.336 -0.4033 -0.1190  0.3358
  210MPD1    C2 3190   0.037   1.098  10.347  0.5295  0.2400 -0.9629
  210MPD1    C3 3191   4.648   1.171  10.317  0.5338  0.3223  0.1701
  210MPD1    C4 3192   4.660   1.297  10.287 -0.5788 -0.4484 -0.1291
  210MPD1    C5 3193   0.068   1.356  10.284  0.2158  0.3387 -0.7075
  210MPD1     H 3194   0.022   0.996  10.381 -0.7726  1.3013  1.7233
  210MPD1    H1 3195   4.576   1.354  10.249 -0.8149 -0.6627  0.0683
  210MPD1    H2 3196   0.273   1.322  10.278 -0.7996  0.9467 -2.2039
  210MPD1    H3 3197   0.071   1.460  10.254 -1.0900  0.3336 -0.8652
  210MPD1     N 3198   4.517   1.113  10.302 -0.0936  0.7312  0.1067
  210MPD1    H5 3199   4.436   1.166  10.271  0.5800  1.3918 -0.5397
  210MPD1    N1 3200   0.263   1.045  10.339 -0.0099  0.0167  0.2086
  210MPD1    H6 3201   0.349   1.078  10.380  0.5064 -2.1226  0.8519
  210MPD1    H7 3202   0.240   0.962  10.393  0.3977  0.6305  1.3230
  211MPD1     C 3203   2.483   0.770  15.826  0.1522 -0.5023  0.1423
  211MPD1    C1 3204   2.485   0.894  15.881 -0.4520  0.5347  0.2960
  211MPD1    C2 3205   2.364   0.951  15.907  0.4689  1.0895 -0.5092
  211MPD1    C3 3206   2.243   0.890  15.881  1.0741  0.5736 -0.4322
  211MPD1    C4 3207   2.238   0.770  15.817 -0.0021 -0.4286  0.7116
  211MPD1    C5 3208   2.361   0.709  15.797  0.0686 -0.6364  0.4018
  211MPD1     H 3209   2.369   1.047  15.955 -2.3143  0.2165  1.4955
  211MPD1    H1 3210   2.155   0.705  15.793  1.1956 -2.5858  2.4386
  211MPD1    H2 3211   2.569   0.715  15.787 -1.5558 -2.9073 -0.2350
  211MPD1    H3 3212   2.364   0.608  15.757 -1.0826  0.0632 -1.4762
  211MPD1     N 3213   2.131   0.944  15.942  0.5069  0.2248 -0.2865
  211MPD1    H5 3214   2.145   1.037  15.981  1.8527  0.7402 -1.9974
  211MPD1    N1 3215   2.607   0.950  15.916 -0.2293 -0.0594 -0.1230
  211MPD1    H6 3216   2.610   1.051  15.922  2.8027 -0.2979  2.5165
  211MPD1    H7 3217   2.683   0.915  15.857 -0.5533 -1.8008  0.4845
  212MPD1     C 3218   1.309   4.296  16.561 -0.3370  0.3270 -0.1545
  212MPD1    C1 3219   1.388   4.204  16.625  0.4789 -0.0789  0.4595
  212MPD1    C2 3220   1.323   4.092  16.669  0.0565  0.3146  0.2442
  212MPD1    C3 3221   1.186   4.084  16.689 -0.4052 -1.0350 -0.0943
  212MPD1    C4 3222   1.110   4.184  16.638 -0.5838  0.3127 -0.0499
  212MPD1    C5 3223   1.172   4.277  16.558  0.3263  0.2829  0.6422
  212MPD1     H 3224   1.389   4.011  16.696 -1.6628 -0.8926  0.8385
  212MPD1    H1 3225   1.002   4.170  16.642 -0.5913  0.4702  0.2219
  212MPD1    H2 3226   1.351   4.376  16.500 -0.6864  0.2786 -0.4562
  212MPD1    H3 3227   1.120   4.351  16.498 -0.5830  1.4057  2.7987
  212MPD1     N 3228   1.120   3.973  16.756 -0.3258 -0.2951  0.0922
  212MPD1    H5 3229   1.022   3.982  16.780 -0.5565  0.7818 -1.2082
  212MPD1    N1 3230   1.527   4.202  16.608  0.4729 -0.0913 -0.2365
  212MPD1    H6 3231   1.580   4.155  16.682 -0.3741 -2.1357 -0.9231
  212MPD1    H7 3232   1.566   4.296  16.602  0.3853 -0.1676 -1.7769
  213MPD1     C 3233   4.157   0.643  15.791 -0.4404  0.6563  0.8153
  213MPD1    C1 3234   4.239   0.630  15.688 -0.3115  0.3162  0.4347
  213MPD1    C2 3235   4.182   0.567  15.577 -0.0827 -0.4588 -0.3296
  213MPD1    C3 3236   4.048   0.559  15.555  0.6748 -0.2630  0.6163
  213MPD1    C4 3237   3.967   0.595  15.658  0.1680  0.3238 -0.2296
  213MPD1    C5 3238   4.022   0.634  15.782  0.1745 -0.5293 -0.5483
  213MPD1     H 3239   4.248   0.515  15.508 -1.1224 -3.1242  0.7186
  213MPD1    H1 3240   3.859   0.601  15.650  0.0817  1.1226  1.4470
  213MPD1    H2 3241   4.187   0.673  15.891 -1.1514  0.9889  0.9299
  213MPD1    H3 3242   3.961   0.651  15.870  0.7647 -2.5807  0.2427
  213MPD1     N 3243   4.011   0.499  15.433  0.3653  1.4725  0.3569
  213MPD1    H5 3244   4.084   0.481  15.365 -0.7514  1.3442 -0.8098
  213MPD1    N1 3245   4.370   0.589  15.716  0.7755  0.4605 -0.1194
  213MPD1    H6 3246   4.429   0.594  15.633  1.7765 -0.6276  0.5223
  213MPD1    H7 3247   4.408   0.644  15.793  0.5365 -1.9327  1.7294
  214MPD1     C 3248   3.209   4.642  15.391  0.3461  0.5634  0.3664
  214MPD1    C1 3249   3.223   4.689  15.259 -0.0317  0.5547  0.3627
  214MPD1    C2 3250   3.333   0.044  15.223 -0.2254  0.1129 -0.3216
  214MPD1    C3 3251   3.421   0.081  15.325 -0.3014 -0.0946 -1.2214
  214MPD1    C4 3252   3.398   0.041  15.452  0.0197 -0.3661 -0.0597
  214MPD1    C5 3253   3.299   4.682  15.481  0.1417 -0.3386  0.3093
  214MPD1     H 3254   3.333   0.059  15.115 -0.4270  0.7013 -0.2407
  214MPD1    H1 3255   3.467   0.062  15.533 -0.7468  2.3674 -0.1159
  214MPD1    H2 3256   3.126   4.585  15.430  1.0971 -0.2709  0.7398
  214MPD1    H3 3257   3.281   4.656  15.585 -3.5430  1.2061  0.0448
  214MPD1     N 3258   3.535   0.157  15.300 -0.4319  0.5904 -0.1368
  214MPD1    H5 3259   3.576   0.199  15.383 -1.8007 -0.9872  1.3265
  214MPD1    N1 3260   3.137   4.647  15.160  0.9491  0.6307  0.4570
  214MPD1    H6 3261   3.134   4.706  15.077 -0.5638  0.2665  0.2500
  214MPD1    H7 3262   3.039   4.645  15.186  0.5202  0.8199 -1.1715
  215MPD1     C 3263   3.777   0.773  10.523 -0.2737 -0.0851 -0.7863
  215MPD1    C1 3264   3.912   0.764  10.535 -0.0185  0.1562  0.2305
  215MPD1    C2 3265   3.984   0.879  10.548  0.3859  0.0641 -0.4368
  215MPD1    C3 3266   3.924   1.005  10.514 -0.3858 -0.3193 -0.5001
  215MPD1    C4 3267   3.787   1.008  10.495 -0.7889  0.0621  0.1764
  215MPD1    C5 3268   3.711   0.893  10.500  0.7546 -0.0804  0.7870
  215MPD1     H 3269   4.084   0.875  10.587  1.2432  1.2900 -2.4744
  215MPD1    H1 3270   3.733   1.102  10.492 -2.3664 -0.8155  1.0009
  215MPD1    H2 3271   3.710   0.688  10.532  0.9041 -1.0863 -1.4592
  215MPD1    H3 3272   3.604   0.889  10.487  0.5726 -0.5676  2.3706
  215MPD1     N 3273   4.001   1.119  10.548 -0.0830 -0.3427  0.2167
  215MPD1    H5 3274   4.091   1.096  10.590  0.1184  1.9297  1.0026
  215MPD1    N1 3275   3.973   0.644  10.578 -0.6242  0.1419 -0.3782
  215MPD1    H6 3276   3.928   0.572  10.522 -0.6444 -0.6968  0.7337
  215MPD1    H7 3277   4.072   0.652  10.558 -0.9841  1.7706 -1.5520
  216MPD1     C 3278   1.882   3.955  17.222  0.5592 -0.2408  0.0986
  216MPD1    C1 3279   2.007   3.893  17.244 -0.3767  0.0124 -0.4000
  216MPD1    C2 3280   2.012   3.752  17.222 -0.4673 -0.0677  0.0935
  216MPD1    C3 3281   1.899   3.684  17.178  0.0877  0.5696 -0.1087
  216MPD1    C4 3282   1.786   3.756  17.151  0.4121 -0.0460 -0.5874
  216MPD1    C5 3283   1.773   3.889  17.164  0.4777  0.5506  0.3576
  216MPD1     H 3284   2.091   3.685  17.252 -2.1832 -1.9874  0.2687
  216MPD1    H1 3285   1.699   3.701  17.114  1.1038 -1.9706  0.6444
  216MPD1    H2 3286   1.868   4.062  17.236  2.0923 -0.1673  1.1463
  216MPD1    H3 3287   1.686   3.951  17.143 -0.7273 -1.1432  0.2902
  216MPD1     N 3288   1.897   3.546  17.161 -0.3760  0.1787 -0.6706
  216MPD1    H5 3289   1.976   3.502  17.207 -0.1988  0.5331 -0.6349
  216MPD1    N1 3290   2.115   3.957  17.312  0.4124 -0.2569  0.2516
  216MPD1    H6 3291   2.114   4.057  17.292  1.8654 -0.4821 -0.9474
  216MPD1    H7 3292   2.199   3.919  17.270 -0.1915  1.1050 -2.1968
  217MPD1     C 3293   2.472   4.486   8.657 -0.3848 -0.0827 -0.4006
  217MPD1    C1 3294   2.342   4.530   8.671 -0.2733  0.5254  0.2417
  217MPD1    C2 3295   2.299   4.580   8.792  0.0817  0.2015  0.2525
  217MPD1    C3 3296   2.366   4.559   8.908 -0.0626  0.3327  0.1689
  217MPD1    C4 3297   2.490   4.503   8.895  0.2498  0.6371 -0.1743
  217MPD1    C5 3298   2.540   4.472   8.772 -0.3117  0.3316 -0.3581
  217MPD1     H 3299   2.198   4.618   8.807 -0.7158 -1.8136  0.0030
  217MPD1    H1 3300   2.553   4.482   8.980 -0.8437  0.6087  0.6263
  217MPD1    H2 3301   2.523   4.457   8.565 -2.3065  0.6707 -1.7110
  217MPD1    H3 3302   2.642   4.435   8.768 -0.5087 -0.2213 -0.2285
  217MPD1     N 3303   2.323   4.585   9.043 -0.1905  0.4466  0.5715
  217MPD1    H5 3304   2.373   4.536   9.116 -0.8688  0.4327  1.0289
  217MPD1    N1 3305   2.275   4.567   8.555 -0.1018  0.0028  0.8078
  217MPD1    H6 3306   2.295   4.496   8.485 -1.5909  1.2786 -0.9106
  217MPD1    H7 3307   2.175   4.587   8.556 -0.8964 -3.8639  0.9604
  218MPD1     C 3308   3.029   1.454  12.918 -0.0932 -0.2210 -0.1639
  218MPD1    C1 3309   3.094   1.351  12.982  0.1288  0.3547  0.2715
  218MPD1    C2 3310   3.209   1.297  12.927  0.4928 -0.5616  0.4039
  218MPD1    C3 3311   3.256   1.336  12.803  0.7084 -0.5371 -0.5088
  218MPD1    C4 3312   3.180   1.431  12.734  0.3124  0.3693 -0.2576
  218MPD1    C5 3313   3.073   1.488  12.792  0.0343  1.0091  0.7170
  218MPD1     H 3314   3.263   1.218  12.978  0.8497 -0.5419  0.0566
  218MPD1    H1 3315   3.210   1.477  12.640  0.8078 -1.1586 -0.8477
  218MPD1    H2 3316   2.942   1.506  12.956 -0.2999  0.3579 -1.4009
  218MPD1    H3 3317   3.033   1.577  12.745  0.8275 -0.4234 -2.6577
  218MPD1     N 3318   3.374   1.270  12.764  0.2515  0.6425  0.6698
  218MPD1    H5 3319   3.403   1.194  12.824 -0.7416 -1.0381 -0.9973
  218MPD1    N1 3320   3.062   1.335  13.118  0.1550  0.0393  0.0003
  218MPD1    H6 3321   3.080   1.241  13.152 -1.6153 -0.7527 -1.2318
  218MPD1    H7 3322   2.960   1.341  13.117  0.2268  0.9090 -3.1816
  219MPD1     C 3323   3.890   1.505  11.980 -0.2106 -0.4441  0.1696
  219MPD1    C1 3324   3.983   1.418  12.030 -0.4894 -0.3139 -0.1714
  219MPD1    C2 3325   3.949   1.358  12.148  0.2760 -0.1399  0.0513
  219MPD1    C3 3326   3.822   1.377  12.200 -0.6358 -0.1628 -0.5439
  219MPD1    C4 3327   3.735   1.459  12.142  0.2636  0.1985 -0.4751
  219MPD1    C5 3328   3.764   1.527  12.027  0.2828 -0.3820 -0.1725
  219MPD1     H 3329   4.024   1.302  12.203  0.2221 -0.5835 -0.3298
  219MPD1    H1 3330   3.633   1.468  12.177 -0.3290 -1.7470 -1.6911
  219MPD1    H2 3331   3.927   1.571  11.902  1.4995 -1.5151  0.0603
  219MPD1    H3 3332   3.698   1.602  11.984 -0.2548 -0.3598  0.6781
  219MPD1     N 3333   3.770   1.320  12.319  0.0321  0.5970 -0.1431
  219MPD1    H5 3334   3.671   1.330  12.341 -0.3732 -1.2639 -1.0876
  219MPD1    N1 3335   4.113   1.421  11.981 -0.0380  0.0990 -0.4919
  219MPD1    H6 3336   4.165   1.342  12.020 -0.3183 -0.9790 -2.3217
  219MPD1    H7 3337   4.117   1.416  11.880 -0.5153  0.2142 -0.5158
  220MPD1     C 3338   3.322   2.547   9.440 -0.0494  0.0875 -0.7776
  220MPD1    C1 3339   3.368   2.579   9.567  0.4902  0.2601  0.6154
  220MPD1    C2 3340   3.366   2.472   9.660  0.3628 -0.2383 -0.3956
  220MPD1    C3 3341   3.322   2.346   9.624  0.3009 -0.0979 -0.0207
  220MPD1    C4 3342   3.267   2.319   9.501 -0.1864  0.1121 -0.1582
  220MPD1    C5 3343   3.270   2.424   9.410 -0.0905 -0.1825  0.8067
  220MPD1     H 3344   3.404   2.484   9.761  0.1618  2.5381 -0.6561
  220MPD1    H1 3345   3.225   2.223   9.471  0.0443 -0.4433  1.2610
  220MPD1    H2 3346   3.322   2.632   9.371 -0.7184  1.0348  0.3903
  220MPD1    H3 3347   3.228   2.418   9.311  0.0075 -0.3414  0.7730
  220MPD1     N 3348   3.347   2.247   9.723  0.1133 -0.3499 -0.0771
  220MPD1    H5 3349   3.373   2.280   9.815  0.4384  2.6591 -1.2414
  220MPD1    N1 3350   3.395   2.713   9.599 -0.0240 -0.3332  0.0927
  220MPD1    H6 3351   3.448   2.735   9.683 -1.5170 -1.5286  1.3364
  220MPD1    H7 3352   3.426   2.776   9.524  1.0182 -0.6159  0.2873
  221MPD1     C 3353   2.167   4.537  17.087  0.4566  0.0704  0.0898
  221MPD1    C1 3354   2.251   4.507  16.978  0.0153 -0.4797  0.8114
  221MPD1    C2 3355   2.207   4.538  16.852  1.1875  0.1677  0.2022
  221MPD1    C3 3356   2.088   4.607  16.828 -0.1691 -0.1824  0.1382
  221MPD1    C4 3357   2.014   4.650  16.934  0.3950  0.4742 -0.1918
  221MPD1    C5 3358   2.056   4.605  17.059  0.6291  0.2384  0.9818
  221MPD1     H 3359   2.267   4.501  16.769  0.1086 -1.4567  0.1400
  221MPD1    H1 3360   1.919   4.695  16.908  0.2253  1.0670  1.4606
  221MPD1    H2 3361   2.193   4.512  17.190 -2.6183 -0.0090  0.8377
  221MPD1    H3 3362   1.992   4.637  17.140 -0.9262  0.0357 -0.1863
  221MPD1     N 3363   2.031   4.626  16.696  0.1635  0.2017  0.0472
  221MPD1    H5 3364   1.944   4.678  16.696 -0.4190 -0.7988  2.1851
  221MPD1    N1 3365   2.366   4.428  17.003  0.1508 -0.3564  0.1970
  221MPD1    H6 3366   2.445   4.459  16.947 -1.6930  0.0967 -2.1812
  221MPD1    H7 3367   2.384   4.442  17.102  2.5368  1.3506 -0.4767
  222MPD1     C 3368   1.091   2.825  16.488  0.0268 -0.0964  0.9575
  222MPD1    C1 3369   1.146   2.952  16.480  0.5561 -0.4990  0.1546
  222MPD1    C2 3370   1.184   3.012  16.604  0.0225  0.5090 -0.1199
  222MPD1    C3 3371   1.157   2.950  16.723  0.3868  0.1252 -1.0606
  222MPD1    C4 3372   1.088   2.830  16.730  0.2876 -0.2878 -0.2785
  222MPD1    C5 3373   1.068   2.771  16.614 -0.7723  0.2605 -0.1045
  222MPD1     H 3374   1.229   3.111  16.604 -0.8986  0.9306 -1.4774
  222MPD1    H1 3375   1.049   2.791  16.823 -0.7637  1.1186 -0.1288
  222MPD1    H2 3376   1.062   2.762  16.406 -0.0471 -1.2646  1.8790
  222MPD1    H3 3377   1.032   2.669  16.613 -1.3959  0.4825 -0.8901
  222MPD1     N 3378   1.217   3.010  16.839 -0.2381 -0.0056 -0.0294
  222MPD1    H5 3379   1.183   2.967  16.925 -0.9974  1.7520  0.5553
  222MPD1    N1 3380   1.170   3.006  16.352 -0.1872 -0.1794  0.1111
  222MPD1    H6 3381   1.088   2.994  16.293 -0.2550 -0.4400  0.2539
  222MPD1    H7 3382   1.189   3.105  16.362  1.4616 -0.3814 -1.0330
  223MPD1     C 3383   1.360   2.902   0.145 -0.0018  0.8288  0.3149
  223MPD1    C1 3384   1.460   2.986   0.131 -0.1745  0.2248 -0.3325
  223MPD1    C2 3385   1.480   3.041   0.004 -0.2671 -0.3134 -0.6398
  223MPD1    C3 3386   1.407   3.000  17.569 -0.7225 -0.0188  0.1319
  223MPD1    C4 3387   1.315   2.899  17.593 -0.6510  0.4019  0.6433
  223MPD1    C5 3388   1.298   2.854   0.039  0.7806 -0.3054  0.4231
  223MPD1     H 3389   1.560   3.114  17.681  0.9107 -1.4720  1.4538
  223MPD1    H1 3390   1.254   2.842  17.523 -0.1410 -1.3458  1.6293
  223MPD1    H2 3391   1.322   2.871   0.241 -0.8053  0.1854 -0.2097
  223MPD1    H3 3392   1.211   2.790   0.056  0.8531  0.0076  1.9656
  223MPD1     N 3393   1.427   3.060  17.439  0.5899  0.3907 -0.3845
  223MPD1    H5 3394   1.497   3.131  17.417 -0.3155  1.0958 -0.9735
  223MPD1    N1 3395   1.531   3.039   0.237 -0.2953 -0.6194 -0.7052
  223MPD1    H6 3396   1.533   2.981   0.320  0.9584  2.0037  1.1048
  223MPD1    H7 3397   1.620   3.087   0.226  0.9588 -2.2822  2.3809
  224MPD1     C 3398   3.307   1.036   9.509  0.4944 -0.2194  0.0526
  224MPD1    C1 3399   3.361   0.923   9.567  0.3562 -0.2225  1.0435
  224MPD1    C2 3400   3.270   0.835   9.632 -0.0867 -0.8842  0.3704
  224MPD1    C3 3401   3.135   0.860   9.620 -0.1806 -0.7075  0.4119
  224MPD1    C4 3402   3.089   0.968   9.554 -0.0665  0.1367  0.2126
  224MPD1    C5 3403   3.171   1.054   9.497  0.8285  0.3886  0.2391
  224MPD1     H 3404   3.309   0.758   9.697 -0.8587 -2.0047 -0.5018
  224MPD1    H1 3405   2.984   0.993   9.557 -0.3262 -0.9802  0.0929
  224MPD1    H2 3406   3.366   1.116   9.464  0.7327 -0.9979 -1.0141
  224MPD1    H3 3407   3.145   1.146   9.444 -0.4810  0.6615  1.3762
  224MPD1     N 3408   3.035   0.778   9.686 -0.0477 -0.0870 -0.2865
  224MPD1    H5 3409   2.938   0.799   9.665 -0.4492 -0.9546  0.7247
  224MPD1    N1 3410   3.495   0.923   9.593 -0.2546 -0.1916 -0.1404
  224MPD1    H6 3411   3.551   0.976   9.526  2.1212  0.7725  2.6052
  224MPD1    H7 3412   3.537   0.833   9.610  0.9659  0.2358 -0.8994
  225MPD1     C 3413   3.917   2.454  11.952 -0.3604  0.5822 -0.9479
  225MPD1    C1 3414   3.851   2.396  11.842  0.2579 -0.4561  0.6304
  225MPD1    C2 3415   3.726   2.448  11.817  0.6919  0.3248  0.2204
  225MPD1    C3 3416   3.667   2.550  11.892 -0.1651 -0.2000 -0.3228
  225MPD1    C4 3417   3.733   2.593  12.008  0.1191  0.3847 -0.2058
  225MPD1    C5 3418   3.855   2.541  12.039 -0.3087  0.1853  0.1469
  225MPD1     H 3419   3.670   2.409  11.734  0.1029 -0.6163  1.0537
  225MPD1    H1 3420   3.688   2.665  12.076  1.1273  0.8979 -0.0782
  225MPD1    H2 3421   4.018   2.429  11.981 -0.0610 -0.4522 -2.8914
  225MPD1    H3 3422   3.908   2.577  12.126  1.0026 -0.0421 -0.5609
  225MPD1     N 3423   3.533   2.597  11.865 -0.0620  0.0767 -1.2067
  225MPD1    H5 3424   3.498   2.662  11.934  1.0048 -2.0436  1.3308
  225MPD1    N1 3425   3.912   2.309  11.744 -0.2729 -0.7528  0.0615
  225MPD1    H6 3426   3.990   2.265  11.790  1.2328  3.2104  1.2775
  225MPD1    H7 3427   3.841   2.243  11.714 -1.5219 -0.2208  1.8402
  226MPD1     C 3428   0.799   1.567   8.718 -0.1715 -0.4507 -0.3523
  226MPD1    C1 3429   0.859   1.685   8.670 -0.1277  0.1106 -0.1009
  226MPD1    C2 3430   0.991   1.706   8.697 -0.6474 -0.3203  0.0029
  226MPD1    C3 3431   1.056   1.628   8.792  0.4102 -0.1406 -0.1016
  226MPD1    C4 3432   0.998   1.518   8.841 -0.0875  0.4668  0.3633
  226MPD1    C5 3433   0.871   1.489   8.799  0.6414  0.6490  0.4318
  226MPD1     H 3434   1.041   1.790   8.652 -1.8563  0.1101 -0.5290
  226MPD1    H1 3435   1.037   1.448   8.914  1.9284  0.9622 -0.2423
  226MPD1    H2 3436   0.699   1.529   8.701  0.3617 -1.9982 -0.0082
  226MPD1    H3 3437   0.821   1.401   8.840  2.3509  0.0894  1.2991
  226MPD1     N 3438   1.182   1.667   8.826  0.1558 -0.0059  0.9831
  226MPD1    H5 3439   1.204   1.765   8.809  0.9766 -0.5971 -1.2680
  226MPD1    N1 3440   0.790   1.752   8.568  0.0848 -0.0102  0.4007
  226MPD1    H6 3441   0.689   1.746   8.565  0.0164  0.6386  1.2940
  226MPD1    H7 3442   0.833   1.840   8.540  1.1825 -1.2591 -1.8668
  227MPD1     C 3443   1.311   2.447   8.861 -0.2959 -0.1216 -0.0010
  227MPD1    C1 3444   1.238   2.347   8.802 -0.1739 -0.2759  0.0750
  227MPD1    C2 3445   1.272   2.216   8.829  0.5758 -0.8271  0.0454
  227MPD1    C3 3446   1.377   2.182   8.917 -1.3188  0.3383  0.4603
  227MPD1    C4 3447   1.450   2.285   8.978  0.1785  0.3196 -0.5303
  227MPD1    C5 3448   1.409   2.411   8.949  0.1327 -0.3186  0.3188
  227MPD1     H 3449   1.226   2.138   8.769 -1.0006  0.8853 -0.9863
  227MPD1    H1 3450   1.528   2.276   9.052 -0.5788 -1.4945  0.0755
  227MPD1    H2 3451   1.291   2.552   8.842  1.3355  0.4832  1.5256
  227MPD1    H3 3452   1.460   2.492   9.001  1.4217 -0.4142 -0.7777
  227MPD1     N 3453   1.421   2.047   8.914 -0.5741 -0.0010  0.0251
  227MPD1    H5 3454   1.369   1.990   8.848  1.0108 -1.1531 -0.2149
  227MPD1    N1 3455   1.123   2.386   8.728  0.4115  0.4188  1.0304
  227MPD1    H6 3456   1.139   2.468   8.670 -0.4401 -1.3566 -1.6999
  227MPD1    H7 3457   1.090   2.311   8.668  1.2985 -0.2697  1.4057
  228MPD1     C 3458   0.749   4.623  12.876 -0.4513  0.3695 -0.2415
  228MPD1    C1 3459   0.661   4.524  12.901 -0.2725  0.3638  0.0855
  228MPD1    C2 3460   0.529   4.552  12.913  0.1659  0.2456  0.0814
  228MPD1    C3 3461   0.485   4.681  12.898 -0.4691  0.7610 -0.0910
  228MPD1    C4 3462   0.571   0.066  12.889 -0.2797 -0.0527  0.5392
  228MPD1    C5 3463   0.704   0.032  12.879  0.3407 -0.7362  0.0893
  228MPD1     H 3464   0.467   4.464  12.927 -0.0132 -0.0875 -2.7997
  228MPD1    H1 3465   0.542   0.170  12.895  0.4211  0.0259  2.5923
  228MPD1    H2 3466   0.852   4.599  12.852 -0.2128  1.1034  0.0533
  228MPD1    H3 3467   0.770   0.116  12.861 -1.2826  0.5781  0.2473
  228MPD1     N 3468   0.346   4.692  12.883  0.0678 -0.2678  0.1423
  228MPD1    H5 3469   0.289   4.611  12.906  1.1282 -1.7215 -2.3897
  228MPD1    N1 3470   0.713   4.394  12.896 -0.2422  0.0193 -0.1826
  228MPD1    H6 3471   0.667   4.354  12.978 -0.8165 -0.5615 -0.7982
  228MPD1    H7 3472   0.814   4.385  12.906 -0.1676 -0.2855 -1.2584
  229MPD1     C 3473   4.465   3.709  15.757 -0.0929  0.3946  0.1922
  229MPD1    C1 3474   4.487   3.687  15.623 -0.2332 -0.0949  0.4322
  229MPD1    C2 3475   4.616   3.642  15.577  0.2985 -0.0543 -0.3156
  229MPD1    C3 3476   4.718   3.637  15.666 -0.0378  0.2713  0.0228
  229MPD1    C4 3477   4.698   3.671  15.798 -0.3564 -0.1865  0.8228
  229MPD1    C5 3478   4.578   3.711  15.837  0.2857 -0.0701 -0.0186
  229MPD1     H 3479   4.628   3.604  15.476  2.4539 -0.5149  0.1299
  229MPD1    H1 3480   0.056   3.649  15.871 -0.3439 -0.0738  0.8430
  229MPD1    H2 3481   4.374   3.740  15.807 -2.0695 -1.4821 -2.2372
  229MPD1    H3 3482   4.572   3.734  15.943 -3.0798  1.4916 -0.5390
  229MPD1     N 3483   0.127   3.581  15.633 -0.2966 -0.1556  0.0731
  229MPD1    H5 3484   0.193   3.561  15.708 -0.9810 -0.5545  0.5699
  229MPD1    N1 3485   4.373   3.671  15.537  0.4208 -0.0527  0.1648
  229MPD1    H6 3486   4.385   3.675  15.436 -0.6870  0.5553  0.0681
  229MPD1    H7 3487   4.291   3.725  15.562  0.4333  1.1548 -2.3684
  230MPD1     C 3488   0.543   3.051  16.227 -0.0942  0.5071  0.5292
  230MPD1    C1 3489   0.543   2.963  16.120 -0.2919  0.3141  0.0250
  230MPD1    C2 3490   0.529   3.017  15.997  0.1176 -0.0001 -0.0340
  230MPD1    C3 3491   0.516   3.155  15.977  0.1366 -0.1404  0.3258
  230MPD1    C4 3492   0.532   3.240  16.083 -0.5042 -0.1844  0.1334
  230MPD1    C5 3493   0.535   3.185  16.212 -0.2211 -0.3073 -0.6122
  230MPD1     H 3494   0.544   2.953  15.911  2.8192  2.7252 -1.6441
  230MPD1    H1 3495   0.535   3.348  16.073 -2.1681 -0.2377 -0.8199
  230MPD1    H2 3496   0.545   3.009  16.327 -0.2647  0.5864  0.5652
  230MPD1    H3 3497   0.551   3.248  16.298 -0.5256 -0.4918 -0.4232
  230MPD1     N 3498   0.498   3.196  15.849  0.1266 -0.2096 -0.6247
  230MPD1    H5 3499   0.517   3.131  15.774  0.8785 -0.2760 -0.3802
  230MPD1    N1 3500   0.585   2.825  16.139  0.0567 -0.5705  0.0852
  230MPD1    H6 3501   0.535   2.803  16.225 -2.0481  0.4832 -0.8631
  230MPD1    H7 3502   0.556   2.767  16.061 -1.5255  0.0851  0.1861
  231MPD1     C 3503   2.675   4.563  15.711 -0.5339  0.2887  0.2419
  231MPD1    C1 3504   2.706   4.519  15.582  0.4446 -0.1002  0.7274
  231MPD1    C2 3505   2.783   4.603  15.506  0.2722  0.1828 -0.3381
  231MPD1    C3 3506   2.837   4.717  15.555 -0.0834  0.2096 -0.0935
  231MPD1    C4 3507   2.805   0.035  15.680  0.0000  0.0130  0.1605
  231MPD1    C5 3508   2.713   4.686  15.759  0.1843  0.0892  0.0376
  231MPD1     H 3509   2.793   4.581  15.400  3.2533 -0.2581  0.0391
  231MPD1    H1 3510   2.847   0.126  15.720 -1.5225  0.7845 -0.0048
  231MPD1    H2 3511   2.607   4.505  15.772  0.4620  0.2664  1.3325
  231MPD1    H3 3512   2.694   0.004  15.859 -3.1253  0.4308 -0.7218
  231MPD1     N 3513   2.920   0.078  15.465 -0.5937  0.1122  0.5194
  231MPD1    H5 3514   2.902   0.058  15.367 -0.1234 -2.1202  0.8930
  231MPD1    N1 3515   2.643   4.406  15.520  0.1740 -0.4194 -0.2706
  231MPD1    H6 3516   2.593   4.355  15.592  0.7387  2.1984  2.0038
  231MPD1    H7 3517   2.572   4.452  15.463 -1.2560  0.2614  2.0749
  232MPD1     C 3518   0.267   2.789   0.856  0.8690 -0.7255 -0.0810
  232MPD1    C1 3519   0.177   2.843   0.770  0.1115 -0.2399  0.2544
  232MPD1    C2 3520   0.163   2.790   0.644 -0.5359 -0.1559 -1.0227
  232MPD1    C3 3521   0.236   2.674   0.613 -0.2299  0.2324  0.0860
  232MPD1    C4 3522   0.315   2.613   0.708  0.2138 -0.3350  0.9379
  232MPD1    C5 3523   0.327   2.673   0.829  0.1556 -0.0980 -0.0572
  232MPD1     H 3524   0.107   2.847   0.570 -1.1681  1.0762  0.3916
  232MPD1    H1 3525   0.378   2.528   0.687 -0.7083 -0.7705 -0.1197
  232MPD1    H2 3526   0.301   2.852   0.938  0.8470 -1.4397  0.4878
  232MPD1    H3 3527   0.387   2.639   0.912  0.5181  1.6416  0.4089
  232MPD1     N 3528   0.194   2.624   0.487 -0.2812  0.1063  0.4189
  232MPD1    H5 3529   0.125   2.677   0.435  2.3180  2.2620 -0.8289
  232MPD1    N1 3530   0.139   2.980   0.792 -0.0936  0.0077 -0.8897
  232MPD1    H6 3531   0.124   3.009   0.888 -2.4916  0.2285 -1.3195
  232MPD1    H7 3532   0.055   3.003   0.740 -1.4918 -0.8481  0.9822
  233MPD1     C 3533   0.961   1.646   1.081 -0.1661  0.3097 -0.0373
  233MPD1    C1 3534   0.902   1.583   1.183 -0.9393 -0.3151 -0.2914
  233MPD1    C2 3535   0.966   1.467   1.231  0.6841  0.1263 -0.3296
  233MPD1    C3 3536   1.072   1.413   1.155 -0.3539 -0.6279 -0.7338
  233MPD1    C4 3537   1.108   1.480   1.037  0.1986  0.3863 -0.5335
  233MPD1    C5 3538   1.052   1.598   1.006 -0.0264 -0.0380  0.2515
  233MPD1     H 3539   0.938   1.427   1.327  0.2450 -1.4112 -1.1057
  233MPD1    H1 3540   1.179   1.445   0.964 -0.2136  0.4442 -0.9632
  233MPD1    H2 3541   0.924   1.739   1.040 -0.1727 -0.9919 -3.0002
  233MPD1    H3 3542   1.076   1.654   0.916  1.9085  0.9478  1.3776
  233MPD1     N 3543   1.140   1.288   1.180  0.6407 -0.1846 -0.1270
  233MPD1    H5 3544   1.211   1.265   1.110 -0.2064 -3.4990  0.1070
  233MPD1    N1 3545   0.813   1.653   1.258  0.2502 -0.3637  0.0019
  233MPD1    H6 3546   0.753   1.595   1.317  0.1901  1.8401  2.0777
  233MPD1    H7 3547   0.761   1.719   1.201 -0.6763  1.1465  2.6159
  234MPD1     C 3548   2.805   3.629  10.560  0.1717 -0.0183  1.1388
  234MPD1    C1 3549   2.804   3.749  10.622 -0.1985 -0.8002  0.1025
  234MPD1    C2 3550   2.794   3.865  10.551  0.1130  0.9241 -0.6504
  234MPD1    C3 3551   2.785   3.861  10.414 -0.7904  0.9032 -0.4261
  234MPD1    C4 3552   2.786   3.739  10.346  0.4439 -0.1347  0.2152
  234MPD1    C5 3553   2.799   3.620  10.418  0.5601  0.5191 -0.2955
  234MPD1     H 3554   2.797   3.961  10.602 -0.8766 -0.2492  1.5837
  234MPD1    H1 3555   2.773   3.722  10.240  0.3299 -1.6485  0.4735
  234MPD1    H2 3556   2.792   3.537  10.616 -0.6044  0.4684  1.7584
  234MPD1    H3 3557   2.781   3.525  10.369 -1.3206 -0.2478  1.8393
  234MPD1     N 3558   2.779   3.983  10.348 -0.0569  0.1109  0.2251
  234MPD1    H5 3559   2.775   4.066  10.406 -2.6733  1.1253 -1.4801
  234MPD1    N1 3560   2.829   3.763  10.760 -0.0451  0.0003 -0.7695
  234MPD1    H6 3561   2.791   3.843  10.810  0.5510  0.3376 -0.8530
  234MPD1    H7 3562   2.797   3.685  10.818  0.2842 -1.1520 -2.1380
  235MPD1     C 3563   3.263   3.805   8.900  0.7249 -0.8506  0.0532
  235MPD1    C1 3564   3.231   3.675   8.926 -0.1008  0.1487  0.3062
  235MPD1    C2 3565   3.335   3.603   8.991 -0.5554  0.2533 -0.4588
  235MPD1    C3 3566   3.452   3.651   9.045  0.1299  0.6700 -1.0923
  235MPD1    C4 3567   3.476   3.783   9.016  0.2927 -0.8676  0.2143
  235MPD1    C5 3568   3.381   3.862   8.947  0.6886 -0.0868 -0.4585
  235MPD1     H 3569   3.316   3.497   8.993 -0.7892  0.2637 -1.7906
  235MPD1    H1 3570   3.566   3.839   9.038 -0.6410  0.7865 -0.1198
  235MPD1    H2 3571   3.192   3.872   8.852 -0.2345 -2.3764 -0.6674
  235MPD1    H3 3572   3.412   3.961   8.916 -1.7498  1.1715  1.1393
  235MPD1     N 3573   3.544   3.567   9.107  0.0937 -0.4069  0.6352
  235MPD1    H5 3574   3.519   3.469   9.116 -1.8844  0.0494  0.3405
  235MPD1    N1 3575   3.125   3.603   8.870 -1.0736  0.1567  0.3063
  235MPD1    H6 3576   3.095   3.518   8.917  0.8200 -1.5256 -1.5452
  235MPD1    H7 3577   3.041   3.657   8.847 -0.7539  0.0081 -1.2147
  236MPD1     C 3578   3.024   4.156   9.473  0.4474 -0.1236 -0.5106
  236MPD1    C1 3579   3.129   4.208   9.542 -0.6353 -0.0736  0.1900
  236MPD1    C2 3580   3.196   4.126   9.631  0.1804  0.1584  0.1040
  236MPD1    C3 3581   3.167   3.991   9.627  0.3925 -0.2620  0.8524
  236MPD1    C4 3582   3.067   3.943   9.547 -0.3370 -0.1439 -0.8834
  236MPD1    C5 3583   2.983   4.028   9.476 -0.7337 -0.1461  0.2209
  236MPD1     H 3584   3.261   4.168   9.707 -1.7411 -1.6219  2.6717
  236MPD1    H1 3585   3.046   3.837   9.541  1.1127 -0.4770 -0.0407
  236MPD1    H2 3586   2.968   4.231   9.418  1.3897 -0.7391 -2.2996
  236MPD1    H3 3587   2.897   3.996   9.418 -0.2226 -0.3604 -0.4177
  236MPD1     N 3588   3.232   3.898   9.710  0.5934 -0.1618  0.1314
  236MPD1    H5 3589   3.185   3.808   9.720 -0.4914  0.3300 -0.6094
  236MPD1    N1 3590   3.138   4.352   9.548 -0.3418  0.2910 -0.0116
  236MPD1    H6 3591   3.229   4.381   9.584 -0.4774 -0.6841  1.1367
  236MPD1    H7 3592   3.095   4.413   9.479 -0.1331 -1.9158 -2.0670
  237MPD1     C 3593   3.383   2.037  16.006 -0.2429  0.6543  0.6483
  237MPD1    C1 3594   3.364   2.077  15.876  0.1726 -0.1641 -0.0997
  237MPD1    C2 3595   3.321   1.987  15.783  1.0785  0.1039  0.1192
  237MPD1    C3 3596   3.316   1.853  15.814 -0.2496  1.0128 -0.1009
  237MPD1    C4 3597   3.354   1.813  15.943 -0.0722  0.1263 -0.3687
  237MPD1    C5 3598   3.391   1.903  16.034  0.5125 -0.2615  0.3358
  237MPD1     H 3599   3.283   2.020  15.687  1.3381  0.1739  0.0408
  237MPD1    H1 3600   3.357   1.708  15.967  1.7710  0.1173 -0.6419
  237MPD1    H2 3601   3.410   2.111  16.081 -0.1558  0.4472  0.8209
  237MPD1    H3 3602   3.428   1.863  16.127  1.2203 -0.6148 -0.0998
  237MPD1     N 3603   3.281   1.744  15.737  1.0107  0.5116 -0.3107
  237MPD1    H5 3604   3.303   1.650  15.769  0.3200  0.3326 -0.3387
  237MPD1    N1 3605   3.373   2.217  15.844 -0.1635 -0.3009  0.1865
  237MPD1    H6 3606   3.391   2.209  15.744 -1.8641 -1.1298 -0.0424
  237MPD1    H7 3607   3.454   2.265  15.883  1.3353  0.0382 -3.3794
  238MPD1     C 3608   0.954   0.334  15.276  0.2655  0.4461  0.2512
  238MPD1    C1 3609   0.903   0.448  15.223  0.2911 -0.7078 -0.2311
  238MPD1    C2 3610   0.763   0.451  15.205 -0.2173  0.4508  0.3108
  238MPD1    C3 3611   0.679   0.342  15.232 -0.3397 -0.2809 -0.6806
  238MPD1    C4 3612   0.739   0.231  15.289 -0.1316  0.2206 -0.3573
  238MPD1    C5 3613   0.873   0.228  15.308 -0.5449 -1.4153  0.1276
  238MPD1     H 3614   0.720   0.535  15.151  1.1483 -0.1404 -1.7343
  238MPD1    H1 3615   0.670   0.150  15.313  1.8972 -0.3630  3.4778
  238MPD1    H2 3616   1.061   0.338  15.293 -0.0136  0.2893  2.0446
  238MPD1    H3 3617   0.913   0.134  15.347  0.4686 -2.0311 -2.3804
  238MPD1     N 3618   0.533   0.337  15.218  0.1203  0.0504 -0.3240
  238MPD1    H5 3619   0.486   0.249  15.241 -0.1539 -0.2518 -2.0372
  238MPD1    N1 3620   0.979   0.561  15.188 -0.0303  0.2787 -0.7559
  238MPD1    H6 3621   0.952   0.640  15.246  1.8111  0.4140 -0.0877
  238MPD1    H7 3622   1.077   0.548  15.210 -0.2768  1.6801  1.1317
  239MPD1     C 3623   0.892   1.405  14.927  0.0343  0.0084  0.3845
  239MPD1    C1 3624   0.943   1.341  14.818  0.0158  0.4224 -0.0500
  239MPD1    C2 3625   0.879   1.356  14.696  0.3246  0.0468  0.1985
  239MPD1    C3 3626   0.750   1.409  14.687 -0.5558  0.5856 -0.2382
  239MPD1    C4 3627   0.699   1.468  14.800  0.2716  0.6326 -0.2615
  239MPD1    C5 3628   0.763   1.460  14.921  0.2949  0.2253 -0.2092
  239MPD1     H 3629   0.921   1.325  14.601  1.9732 -0.5921  1.1336
  239MPD1    H1 3630   0.606   1.523  14.799  0.0116  0.1664 -1.5835
  239MPD1    H2 3631   0.957   1.422  15.013  1.2140  2.6196 -1.0347
  239MPD1    H3 3632   0.727   1.520  15.004  1.7860 -0.8774  1.2399
  239MPD1     N 3633   0.668   1.425  14.573  0.1820  0.1241 -0.5122
  239MPD1    H5 3634   0.581   1.470  14.597  0.0029 -0.2119 -0.5364
  239MPD1    N1 3635   1.069   1.280  14.824 -0.1064 -0.5034  0.1783
  239MPD1    H6 3636   1.085   1.242  14.917 -0.6646  4.2362  2.2607
  239MPD1    H7 3637   1.080   1.205  14.757 -1.0254 -0.1329 -0.3918
  240MPD1     C 3638   4.282   0.908  14.038  0.0046  0.5719  0.0123
  240MPD1    C1 3639   4.192   0.833  14.116 -0.4188 -0.3351 -0.6291
  240MPD1    C2 3640   4.232   0.790  14.240  0.3259  0.2616  0.2150
  240MPD1    C3 3641   4.355   0.825  14.298 -0.4031  0.1170  0.5618
  240MPD1    C4 3642   4.440   0.900  14.221 -0.5040 -0.0359 -0.2892
  240MPD1    C5 3643   4.405   0.933  14.092 -0.7773 -0.1757 -0.6296
  240MPD1     H 3644   4.182   0.722  14.308 -0.0972  1.0619  0.6951
  240MPD1    H1 3645   4.531   0.942  14.262 -0.9299 -0.6811  1.2893
  240MPD1    H2 3646   4.258   0.947  13.940 -2.2179 -0.7019  0.0704
  240MPD1    H3 3647   4.471   1.005  14.045  1.4707 -1.0808  1.1679
  240MPD1     N 3648   4.383   0.793  14.438 -1.1474  0.0035 -0.7054
  240MPD1    H5 3649   4.332   0.719  14.486 -1.1207 -0.1638 -0.9362
  240MPD1    N1 3650   4.073   0.791  14.056 -0.3965 -0.2375  0.0547
  240MPD1    H6 3651   4.030   0.845  13.981 -2.2300  1.5180  2.3865
  240MPD1    H7 3652   3.995   0.781  14.120  0.0755  0.3984  0.7279
  241MPD1     C 3653   0.035   1.374  15.204  0.1001  0.0223 -0.0291
  241MPD1    C1 3654   4.663   1.283  15.259  0.2610  0.2721 -0.2739
  241MPD1    C2 3655   4.620   1.178  15.172  0.6273  0.6341  0.5339
  241MPD1    C3 3656   4.645   1.176  15.035  0.1734  0.6117  0.0785
  241MPD1    C4 3657   0.001   1.279  14.985 -0.0724  0.2953 -0.0902
  241MPD1    C5 3658   0.053   1.370  15.071  0.4077 -0.3730 -1.2474
  241MPD1     H 3659   4.556   1.106  15.220 -0.4216  0.7709 -0.6458
  241MPD1    H1 3660   0.029   1.287  14.880 -2.0169 -0.8934 -0.7199
  241MPD1    H2 3661   0.089   1.450  15.258 -0.1766  0.4222 -0.3171
  241MPD1    H3 3662   0.124   1.439  15.027  0.4161  1.4940  1.6738
  241MPD1     N 3663   4.599   1.074  14.947  0.7009 -0.7508  0.0778
  241MPD1    H5 3664   4.628   1.085  14.850  0.6724  0.5551  0.2308
  241MPD1    N1 3665   4.637   1.278  15.394 -0.2765 -0.5195 -0.5200
  241MPD1    H6 3666   4.545   1.243  15.420  0.3954 -1.3102  0.7653
  241MPD1    H7 3667   4.640   1.370  15.438 -0.0856 -1.0837  0.6276
  242MPD1     C 3668   4.410   3.987  16.119 -0.3356  0.2653  0.1424
  242MPD1    C1 3669   4.296   3.944  16.057 -0.5056 -0.0774  0.3137
  242MPD1    C2 3670   4.294   3.974  15.920  0.1192  0.8310 -0.0419
  242MPD1    C3 3671   4.394   4.041  15.858 -0.0724 -0.4689  0.3785
  242MPD1    C4 3672   4.499   4.084  15.932  0.1246  0.0711  0.4543
  242MPD1    C5 3673   4.509   4.053  16.063  0.4517 -0.1328 -0.0843
  242MPD1     H 3674   4.219   3.930  15.855  0.4165 -0.0378  0.2030
  242MPD1    H1 3675   4.575   4.149  15.889 -0.4338  0.5129  0.1247
  242MPD1    H2 3676   4.427   3.947  16.218  0.4340 -2.7011 -1.1621
  242MPD1    H3 3677   4.600   4.073  16.119  1.1945 -0.2995 -1.2082
  242MPD1     N 3678   4.391   4.067  15.725  0.0129  0.0333 -0.3777
  242MPD1    H5 3679   4.476   4.098  15.679 -0.1658 -0.0407 -0.7574
  242MPD1    N1 3680   4.201   3.863  16.126  0.3461 -0.9924 -0.1561
  242MPD1    H6 3681   4.106   3.865  16.088  1.1022 -0.8624 -2.0276
  242MPD1    H7 3682   4.191   3.880  16.226  0.4838 -1.5178 -0.0582
  243MPD1     C 3683   2.096   2.362  17.613 -0.1947  0.1174 -0.3645
  243MPD1    C1 3684   2.013   2.253  17.604  0.2239 -0.2215 -0.0486
  243MPD1    C2 3685   1.922   2.251  17.497  0.5046  0.3871  0.3322
  243MPD1    C3 3686   1.901   2.364  17.422 -0.1962  0.2067 -0.4126
  243MPD1    C4 3687   1.975   2.477  17.435  0.3103  0.0154 -0.6540
  243MPD1    C5 3688   2.074   2.473  17.528 -0.1295  0.1530 -0.1962
  243MPD1     H 3689   1.853   2.168  17.486  0.7718  0.2371 -0.2039
  243MPD1    H1 3690   1.965   2.559  17.365  1.6517  0.4778 -0.3105
  243MPD1    H2 3691   2.180   2.368  17.681  0.0722 -4.6717 -0.2483
  243MPD1    H3 3692   2.130   2.565  17.542  0.8283 -0.5195  0.3847
  243MPD1     N 3693   1.795   2.361  17.327 -0.4757 -0.2056 -0.0883
  243MPD1    H5 3694   1.749   2.271  17.319  0.1514 -0.6826  1.7117
  243MPD1    N1 3695   2.036   2.140   0.001 -0.1366 -0.1347 -0.3685
  243MPD1    H6 3696   1.951   2.091   0.028  0.2143 -0.5994 -0.1050
  243MPD1    H7 3697   2.079   2.154   0.092 -1.0405 -0.3737  0.0985
  244MPD1     C 3698   1.031   2.102  17.603  0.3027  0.0043 -0.6567
  244MPD1    C1 3699   1.104   2.213  17.633 -0.0055 -0.5495 -0.0702
  244MPD1    C2 3700   1.196   2.266  17.539 -1.1459  0.5796  0.6346
  244MPD1    C3 3701   1.211   2.210  17.412 -0.0730 -0.5599  0.2754
  244MPD1    C4 3702   1.133   2.101  17.386 -0.1442  0.1354 -0.7751
  244MPD1    C5 3703   1.050   2.044  17.480 -0.6667 -0.2450  0.3182
  244MPD1     H 3704   1.258   2.345  17.579 -0.1570  0.0982  0.0507
  244MPD1    H1 3705   1.147   2.048  17.292 -1.0974 -2.5215  0.6103
  244MPD1    H2 3706   0.966   2.068   0.002 -0.0148  2.5509  0.1864
  244MPD1    H3 3707   1.002   1.951  17.452  1.9334 -1.5566  0.3175
  244MPD1     N 3708   1.318   2.257  17.331  0.4881  0.4535 -0.0100
  244MPD1    H5 3709   1.380   2.325  17.374 -0.0617 -0.5259  2.2903
  244MPD1    N1 3710   1.099   2.249   0.086 -0.3177 -0.0949  0.3983
  244MPD1    H6 3711   1.010   2.229   0.129 -0.4303  0.6700  0.5134
  244MPD1    H7 3712   1.110   2.350   0.089 -0.0302 -0.1712  1.6760
  245MPD1     C 3713   2.857   3.125  13.232  0.2696  0.3729  0.1683
  245MPD1    C1 3714   2.881   3.090  13.360  0.2893  0.0903 -0.3353
  245MPD1    C2 3715   2.917   3.203  13.441  0.1654 -0.1922 -0.1072
  245MPD1    C3 3716   2.960   3.324  13.385 -0.1954  0.9586 -0.1539
  245MPD1    C4 3717   2.935   3.355  13.253  0.1174 -0.6888  1.4811
  245MPD1    C5 3718   2.886   3.250  13.180 -0.7738 -0.4744 -0.1375
  245MPD1     H 3719   2.933   3.191  13.547 -1.2442  0.8427  0.2138
  245MPD1    H1 3720   2.972   3.448  13.211  1.7975 -1.0572  2.1253
  245MPD1    H2 3721   2.813   3.057  13.160  3.2872 -1.4293  0.0216
  245MPD1    H3 3722   2.892   3.264  13.072  1.3913  0.9664  0.1655
  245MPD1     N 3723   3.031   3.420  13.460 -0.3476 -0.0036 -0.1483
  245MPD1    H5 3724   3.056   3.506  13.412  1.1473 -0.5753 -0.3995
  245MPD1    N1 3725   2.830   2.972  13.421  0.6224 -0.0519 -0.0620
  245MPD1    H6 3726   2.821   2.892  13.358 -1.7762 -0.8824  1.3148
  245MPD1    H7 3727   2.880   2.951  13.507 -0.6027  0.5857  0.8078
  246MPD1     C 3728   1.847   4.528   9.327  0.5320 -0.4109  0.4602
  246MPD1    C1 3729   1.930   4.425   9.370 -0.6925  0.2705 -1.1398
  246MPD1    C2 3730   2.011   4.372   9.268  0.3160  0.7334  0.1588
  246MPD1    C3 3731   1.986   4.401   9.135  0.4769  0.0634 -0.6026
  246MPD1    C4 3732   1.896   4.492   9.093  0.1604 -0.1275  0.3884
  246MPD1    C5 3733   1.830   4.562   9.185  0.7748 -0.6197  0.2003
  246MPD1     H 3734   2.089   4.305   9.302 -0.9496 -1.1293 -0.5881
  246MPD1    H1 3735   1.891   4.521   8.988 -1.2532  0.8660  0.7365
  246MPD1    H2 3736   1.795   4.590   9.398 -0.7130 -0.9225 -0.0051
  246MPD1    H3 3737   1.770   4.649   9.162  0.2128 -0.3601  2.6348
  246MPD1     N 3738   2.073   4.333   9.052 -0.8063  0.3815  0.2180
  246MPD1    H5 3739   2.143   4.269   9.089  0.1306  1.4509  0.2718
  246MPD1    N1 3740   1.951   4.416   9.509 -0.6538 -0.4181  0.6406
  246MPD1    H6 3741   1.957   4.319   9.539  1.9904 -1.0331 -1.8907
  246MPD1    H7 3742   1.863   4.443   9.553  0.2895  1.1853  1.5683
  247MPD1     C 3743   1.459   2.247  16.063  0.3459 -0.3064  0.0474
  247MPD1    C1 3744   1.569   2.192  15.998  0.5942 -0.0388  0.0681
  247MPD1    C2 3745   1.678   2.269  15.986 -0.7607 -0.2300 -0.4638
  247MPD1    C3 3746   1.684   2.392  16.047  0.2628  0.4586 -0.3651
  247MPD1    C4 3747   1.579   2.448  16.094  0.4835  0.0011 -0.8260
  247MPD1    C5 3748   1.463   2.376  16.098 -0.2989 -0.2098  0.1469
  247MPD1     H 3749   1.776   2.233  15.957 -0.5039  0.1306 -0.0521
  247MPD1    H1 3750   1.581   2.549  16.133  0.5647 -1.4511  2.8819
  247MPD1    H2 3751   1.360   2.203  16.073 -0.0115  0.3023 -0.8331
  247MPD1    H3 3752   1.376   2.417  16.147  0.4910  1.0504  0.5118
  247MPD1     N 3753   1.808   2.461  16.060 -0.0214  0.2612 -0.0819
  247MPD1    H5 3754   1.803   2.552  16.104  0.4139 -0.5358  1.6141
  247MPD1    N1 3755   1.570   2.060  15.958 -0.0358 -0.1228  0.8111
  247MPD1    H6 3756   1.636   2.052  15.881 -1.9748  1.6643 -1.0480
  247MPD1    H7 3757   1.480   2.024  15.927  0.2973 -2.2026  2.2934
  248MPD1     C 3758   3.529   2.573  17.549  0.0294  0.1922 -0.3882
  248MPD1    C1 3759   3.501   2.643  17.665  0.3484 -0.1628  0.5592
  248MPD1    C2 3760   3.507   2.577   0.106  0.1703  1.0460 -0.2651
  248MPD1    C3 3761   3.539   2.449   0.118  0.5554  0.4349  0.8559
  248MPD1    C4 3762   3.584   2.384   0.009 -0.7709 -0.4376  0.3016
  248MPD1    C5 3763   3.569   2.444  17.570 -0.5399  0.0828  0.0381
  248MPD1     H 3764   3.471   2.618   0.199 -2.9871  3.1728 -2.4195
  248MPD1    H1 3765   3.620   2.281   0.006 -0.6807 -0.4650  1.9022
  248MPD1    H2 3766   3.547   2.619  17.453 -1.5532  1.4935 -0.0647
  248MPD1    H3 3767   3.596   2.387  17.482 -0.8774  0.1373 -0.1006
  248MPD1     N 3768   3.539   2.394   0.243 -0.1542  0.6325 -0.0416
  248MPD1    H5 3769   3.523   2.460   0.318 -1.7781  0.1804  0.0254
  248MPD1    N1 3770   3.443   2.770  17.650  0.3183  0.5724  0.3226
  248MPD1    H6 3771   3.438   2.831   0.050  0.0957  0.4846  0.3738
  248MPD1    H7 3772   3.477   2.828  17.574 -0.9053  1.3605  0.3670
  249MPD1     C 3773   3.847   0.920   9.552 -0.8221 -0.3821 -0.7443
  249MPD1    C1 3774   3.866   0.993   9.435  0.1534 -0.4455 -0.2218
  249MPD1    C2 3775   3.897   1.125   9.456  0.0624  0.3372  0.4171
  249MPD1    C3 3776   3.919   1.173   9.583  0.5786 -0.2071 -0.0424
  249MPD1    C4 3777   3.884   1.099   9.697  0.1710 -0.9466  0.0301
  249MPD1    C5 3778   3.847   0.970   9.680  0.1372 -0.3632 -0.2570
  249MPD1     H 3779   3.913   1.182   9.365  0.0298  0.4758  0.4990
  249MPD1    H1 3780   3.888   1.137   9.799 -0.2547  0.4760 -0.4901
  249MPD1    H2 3781   3.820   0.815   9.546 -1.3024 -0.2592 -0.6926
  249MPD1    H3 3782   3.841   0.905   9.767  0.7736  1.6366  1.2906
  249MPD1     N 3783   3.979   1.301   9.591  0.0839  0.4788  0.7802
  249MPD1    H5 3784   3.994   1.361   9.510 -0.3014  1.9421  1.7960
  249MPD1    N1 3785   3.825   0.933   9.312 -0.1908 -0.6987  0.1158
  249MPD1    H6 3786   3.857   0.978   9.227 -0.3169  0.3197  0.6108
  249MPD1    H7 3787   3.844   0.833   9.317  2.2094 -0.4451 -3.7236
  250MPD2     C 3788   1.113   1.869  13.417  0.3745  0.5667  0.2305
  250MPD2    C1 3789   1.200   1.846  13.314  0.8580 -0.7862 -0.2716
  250MPD2    C2 3790   1.217   1.719  13.265  0.4976 -1.0019  0.1595
  250MPD2    C3 3791   1.147   1.611  13.314  0.5759 -0.0419 -0.4974
  250MPD2    C4 3792   1.061   1.631  13.423 -0.3579  0.8816 -0.4684
  250MPD2    C5 3793   1.047   1.761  13.472 -0.7333 -0.3162  0.7686
  250MPD2     H 3794   1.269   1.709  13.171 -0.9245 -2.5069 -0.4820
  250MPD2    H1 3795   1.005   1.551  13.469  1.0220  0.2839  0.1550
  250MPD2    H2 3796   1.107   1.967  13.464  1.5304 -0.5282  2.6539
  250MPD2    H3 3797   0.981   1.779  13.557 -2.0539 -0.2490 -0.2829
  250MPD2     N 3798   1.143   1.490  13.242 -0.0365  0.2431  0.0736
  250MPD2    H5 3799   1.074   1.421  13.269  1.2972 -0.4206  1.8177
  250MPD2    N1 3800   1.289   1.945  13.268  0.5466  0.3619 -0.1242
  250MPD2    H7 3801   1.261   2.041  13.284  0.4495  0.7361 -2.5681
  251TMC3    C1 3802   1.456   2.037  13.139  0.2420 -0.9499  0.1267
  251TMC3    C2 3803   1.385   2.153  13.146 -0.2079  0.0373  0.1685
  251TMC3    C3 3804   1.451   2.263  13.102 -0.2582 -0.4503  0.2289
  251TMC3    C4 3805   1.589   2.022  13.106  0.5345 -0.5237 -0.0014
  251TMC3    C5 3806   1.648   2.138  13.064 -0.6883  0.3192 -0.2948
  251TMC3    C6 3807   1.580   2.262  13.054  0.7993  0.3854  0.4937
  251TMC3     C 3808   1.403   1.921  13.196  0.7061  0.0573  0.0316
  251TMC3     O 3809   1.468   1.816  13.178  0.2533  0.4059  0.3762
  251TMC3     H 3810   1.280   2.167  13.170  0.1515 -0.1276  1.9020
  251TMC3    H1 3811   1.634   1.923  13.108 -1.4519 -1.4533 -0.4581
  251TMC3    H2 3812   1.639   2.348  13.024 -2.4022  3.0075  1.6862
  251TMC3    C7 3813   1.776   2.120  13.005 -0.3516  0.5439  0.8885
  251TMC3    C8 3814   1.382   2.389  13.132  0.0363  0.0521  0.8627
  251TMC3    O1 3815   1.829   2.017  13.022 -0.0038  0.5899  0.0047
  251TMC3    O2 3816   1.281   2.383  13.195  0.0125 -0.2491 -0.0787
  252TMC3    C1 3817   1.439   2.395   9.513  0.0513  0.5431  0.0139
  252TMC3    C2 3818   1.575   2.393   9.504 -0.3267  0.5704 -0.3615
  252TMC3    C3 3819   1.633   2.305   9.415 -0.7461  0.1115 -0.0128
  252TMC3    C4 3820   1.359   2.311   9.434  0.5493  0.6341 -0.1391
  252TMC3    C5 3821   1.425   2.220   9.365 -0.0929 -0.1254 -0.7806
  252TMC3    C6 3822   1.554   2.213   9.351  0.2475 -0.1169 -0.2804
  252TMC3     C 3823   1.386   2.431   9.636 -0.0728  0.5166  0.6817
  252TMC3     O 3824   1.275   2.393   9.670  0.1865  0.4901 -0.2524
  252TMC3     H 3825   1.631   2.475   9.547 -0.9121  0.6093  0.3398
  252TMC3    H1 3826   1.251   2.308   9.443  0.6270 -0.6556  0.3817
  252TMC3    H2 3827   1.612   2.136   9.301  1.7772  0.7269  0.2096
  252TMC3    C7 3828   1.338   2.113   9.312 -0.3081 -0.0127 -0.9504
  252TMC3    C8 3829   1.754   2.335   9.346 -0.8888  0.0233  0.1369
  252TMC3    O1 3830   1.231   2.144   9.261 -0.1061 -0.1875  0.0233
  252TMC3    O2 3831   1.766   2.291   9.227  0.3165 -0.2568  0.4148
  253MPD2     C 3832   2.890   1.860  15.271 -0.0210 -0.2606 -0.4837
  253MPD2    C1 3833   2.779   1.769  15.278  0.2444  0.4924  0.4656
  253MPD2    C2 3834   2.754   1.703  15.400 -0.1087  0.4669  0.6688
  253MPD2    C3 3835   2.824   1.732  15.513  0.1857  0.8247  0.2692
  253MPD2    C4 3836   2.928   1.824  15.509 -0.6834  0.4783  0.4375
  253MPD2    C5 3837   2.958   1.888  15.388  0.9375  0.5764  0.6328
  253MPD2     H 3838   2.673   1.631  15.397 -0.4419  0.9564 -1.7701
  253MPD2    H1 3839   2.968   1.854  15.605  0.3847 -2.2738  0.8378
  253MPD2    H2 3840   2.910   1.926  15.188  0.8357  0.5582  0.3793
  253MPD2    H3 3841   3.027   1.971  15.382  1.4387  0.0874 -0.2918
  253MPD2     N 3842   2.788   1.687  15.639  0.2628  0.0782 -0.2288
  253MPD2    H5 3843   2.843   1.711  15.721 -1.5705  3.3621  0.0354
  253MPD2    N1 3844   2.685   1.747  15.180 -0.4611  0.4698 -0.3229
  253MPD2    H7 3845   2.603   1.693  15.204  0.8641 -0.2549  2.5654
  254TMC3    C1 3846   2.635   1.632  15.806  0.4006  0.6067 -0.6803
  254TMC3    C2 3847   2.502   1.657  15.832 -0.3145  0.7115  0.3963
  254TMC3    C3 3848   2.467   1.662  15.964  0.1149  0.1921 -0.4306
  254TMC3    C4 3849   2.729   1.648  15.899  0.1737 -0.0624 -0.0129
  254TMC3    C5 3850   2.697   1.664  16.032  0.5643  0.1295  0.5669
  254TMC3    C6 3851   2.563   1.673  16.064 -0.0867  0.1226 -0.2322
  254TMC3     C 3852   2.664   1.627  15.662  0.0846 -0.0868 -0.2147
  254TMC3     O 3853   2.564   1.611  15.589  0.3221  0.2302  0.4328
  254TMC3     H 3854   2.420   1.651  15.762 -2.1937  0.2331  2.6449
  254TMC3    H1 3855   2.832   1.620  15.876  0.5888  1.1355  0.4278
  254TMC3    H2 3856   2.526   1.653  16.164  0.2648 -0.6360 -0.2545
  254TMC3    C7 3857   2.791   1.607  16.125 -0.0478  0.2851 -0.1813
  254TMC3    C8 3858   2.327   1.684  15.999 -0.1334  0.4738 -0.3731
  254TMC3    O1 3859   2.735   1.532  16.200  0.3264 -0.0453 -0.2659
  254TMC3    O2 3860   2.301   1.650  16.117  0.1089  0.1609 -0.2082
  255MPD2     C 3861   0.503   4.339  10.361 -0.5718 -0.0663  0.2750
  255MPD2    C1 3862   0.567   4.449  10.306  1.0018 -0.6752 -0.1174
  255MPD2    C2 3863   0.710   4.451  10.307  0.2641  0.2454  0.3742
  255MPD2    C3 3864   0.770   4.342  10.365  0.1342 -0.2756  0.4521
  255MPD2    C4 3865   0.700   4.231  10.416  0.0519 -0.1480 -0.0026
  255MPD2    C5 3866   0.564   4.230  10.419  0.1445  0.1729 -0.4406
  255MPD2     H 3867   0.773   4.528  10.264  0.5758 -0.8602 -1.1481
  255MPD2    H1 3868   0.752   4.146  10.460  1.3628  0.1824 -0.9183
  255MPD2    H2 3869   0.395   4.330  10.367 -0.5255 -1.7128 -1.4967
  255MPD2    H3 3870   0.505   4.150  10.462 -0.4216  1.3011  0.8653
  255MPD2     N 3871   0.912   4.347  10.362 -0.0933  0.4970  0.4787
  255MPD2    H5 3872   0.953   4.432  10.324 -0.3247 -0.8162 -2.6696
  255MPD2    N1 3873   0.478   4.538  10.237  0.0193 -0.2898  0.0859
  255MPD2    H7 3874   0.379   4.517  10.235  0.5409 -2.8742  1.8153
  256TMC3    C1 3875   0.435   4.712  10.089  0.2478 -0.9149 -0.0514
  256TMC3    C2 3876   0.478   0.114  10.041 -1.0641  0.4061 -0.1726
  256TMC3    C3 3877   0.384   0.187   9.965 -0.2976 -0.0466 -0.2126
  256TMC3    C4 3878   0.326   4.650  10.028  0.0502  0.3235  0.8520
  256TMC3    C5 3879   0.252   0.002   9.936  0.3955 -0.2325  0.0196
  256TMC3    C6 3880   0.269   0.135   9.910  0.0748 -0.3607 -0.0909
  256TMC3     C 3881   0.533   4.640  10.165 -0.6313  0.4845  0.4826
  256TMC3     O 3882   0.651   4.683  10.166  0.1278  0.2087 -0.3053
  256TMC3     H 3883   0.570   0.165  10.066 -1.4189  0.6007  0.7108
  256TMC3    H1 3884   0.321   4.541  10.028  1.6009  0.2634  1.0474
  256TMC3    H2 3885   0.210   0.198   9.843  0.5033 -0.1612 -0.2786
  256TMC3    C7 3886   0.139   4.653   9.877 -0.0033 -0.0192  0.3322
  256TMC3    C8 3887   0.420   0.312   9.908 -0.2390 -0.2519  0.0364
  256TMC3    O1 3888   0.142   4.534   9.910 -0.3652  0.3944  0.1861
  256TMC3    O2 3889   0.338   0.402   9.896  0.5099 -0.3003  0.2148
  257MPD2     C 3890   0.294   2.094  13.035  0.4515  0.1578  0.4618
  257MPD2    C1 3891   0.216   1.998  12.969 -0.0826  0.7149 -0.2413
  257MPD2    C2 3892   0.168   1.888  13.039 -0.0201 -0.5333  0.2834
  257MPD2    C3 3893   0.201   1.876  13.172 -0.3088 -0.0501 -0.2916
  257MPD2    C4 3894   0.267   1.979  13.236  0.4946 -0.1038 -0.0457
  257MPD2    C5 3895   0.309   2.092  13.166 -0.5796  0.1746  0.3644
  257MPD2     H 3896   0.117   1.808  12.986 -0.9459 -0.2382  0.7379
  257MPD2    H1 3897   0.297   1.973  13.340 -1.9955 -1.2463  0.6096
  257MPD2    H2 3898   0.337   2.174  12.975 -0.7476 -1.8759 -3.1040
  257MPD2    H3 3899   0.359   2.168  13.226  0.3186  0.1386 -0.3567
  257MPD2     N 3900   0.167   1.757  13.233 -0.2682  0.0807  1.4395
  257MPD2    H5 3901   0.112   1.698  13.171  0.2732  0.1219  0.9239
  257MPD2    N1 3902   0.201   2.018  12.830 -0.7020  0.0985 -0.0616
  257MPD2    H7 3903   0.236   2.104  12.788  1.1967  0.3252  2.0163
  258TMC3    C1 3904   0.128   1.596  13.405 -0.7822 -0.1119  0.9043
  258TMC3    C2 3905   0.030   1.535  13.328  0.1527 -0.1334  0.3923
  258TMC3    C3 3906   4.687   1.428  13.385  0.1818  0.3572  0.0720
  258TMC3    C4 3907   0.162   1.558  13.527 -0.4609  0.1185  0.1604
  258TMC3    C5 3908   0.088   1.459  13.582 -0.0445  0.0884 -0.5019
  258TMC3    C6 3909   4.711   1.387  13.512 -0.0455  0.9866 -0.5768
  258TMC3     C 3910   0.182   1.727  13.365 -0.9291  0.0159  0.3046
  258TMC3     O 3911   0.217   1.805  13.449 -0.5146 -0.3381  0.0422
  258TMC3     H 3912   4.709   1.572  13.234  0.7848 -2.1040 -0.6593
  258TMC3    H1 3913   0.235   1.621  13.576 -1.3562  1.3574 -0.0964
  258TMC3    H2 3914   4.660   1.302  13.558  1.5992  0.2343 -0.1413
  258TMC3    C7 3915   0.124   1.425  13.718  0.0853 -1.2987  0.2301
  258TMC3    C8 3916   4.575   1.373  13.310 -0.6726  0.2144  0.0119
  258TMC3    O1 3917   0.225   1.473  13.758 -0.3940  0.5160  0.8624
  258TMC3    O2 3918   4.476   1.341  13.375  0.6837 -0.0535  0.7593
  259MPD2     C 3919   4.283   2.677   1.088 -0.3311  0.2995  0.3657
  259MPD2    C1 3920   4.255   2.568   1.015  0.1159  0.3281 -1.2526
  259MPD2    C2 3921   4.227   2.583   0.880  0.1722 -0.1246  0.0128
  259MPD2    C3 3922   4.211   2.709   0.827 -0.4495  0.1219 -0.4110
  259MPD2    C4 3923   4.248   2.818   0.904 -0.3291 -0.4438 -0.6510
  259MPD2    C5 3924   4.290   2.798   1.032 -0.6012  0.3375  0.1377
  259MPD2     H 3925   4.215   2.498   0.813 -0.8666 -1.2806  1.6843
  259MPD2    H1 3926   4.246   2.919   0.865  0.2172 -0.5210 -0.8882
  259MPD2    H2 3927   4.322   2.670   1.189  0.8892  1.1845 -0.0350
  259MPD2    H3 3928   4.323   2.887   1.086 -1.3513  0.2461  0.7351
  259MPD2     N 3929   4.165   2.726   0.690  0.2672  0.0788 -0.6210
  259MPD2    H5 3930   4.148   2.638   0.642 -0.6906  0.3672 -0.8150
  259MPD2    N1 3931   4.271   2.441   1.069 -0.3196  0.4637  0.5493
  259MPD2    H7 3932   4.293   2.447   1.168 -0.3114 -0.4882  0.6091
  260TMC3    C1 3933   4.131   2.837   0.475  0.5247  0.0431  0.4430
  260TMC3    C2 3934   4.143   2.953   0.401 -0.3559 -0.5801 -0.1950
  260TMC3    C3 3935   4.156   2.949   0.261 -0.5333 -0.2470 -0.0457
  260TMC3    C4 3936   4.132   2.715   0.409  0.4271 -0.6042  0.2521
  260TMC3    C5 3937   4.147   2.717   0.267  0.6406 -0.2448  0.1526
  260TMC3    C6 3938   4.144   2.835   0.192 -0.2924  0.5700  0.3880
  260TMC3     C 3939   4.151   2.846   0.617 -0.2440 -0.0795  0.4934
  260TMC3     O 3940   4.145   2.958   0.668  0.4280  0.4510 -0.3570
  260TMC3     H 3941   4.156   3.043   0.460  0.8654 -0.0831 -1.2059
  260TMC3    H1 3942   4.099   2.620   0.451  1.3036 -1.0096  0.0152
  260TMC3    H2 3943   4.138   2.837   0.084 -3.4452 -0.3742  0.5510
  260TMC3    C7 3944   4.215   2.614   0.197 -0.0902  0.0900 -0.3348
  260TMC3    C8 3945   4.265   3.030   0.206 -0.4691 -0.6076 -0.5357
  260TMC3    O1 3946   4.270   2.642   0.091  0.5148 -0.1014 -0.1573
  260TMC3    O2 3947   4.306   3.123   0.273 -0.0707 -0.3395  0.0217
  261MPD2     C 3948   0.575   1.361  12.764 -0.5270  0.0553  0.0700
  261MPD2    C1 3949   0.696   1.350  12.693  0.2446  0.7662 -0.5041
  261MPD2    C2 3950   0.699   1.376  12.559  0.5455 -0.5484  0.4831
  261MPD2    C3 3951   0.581   1.420  12.497 -0.1923 -0.6873 -0.2185
  261MPD2    C4 3952   0.464   1.428  12.562 -0.2658  0.1867  0.5694
  261MPD2    C5 3953   0.458   1.399  12.699  0.1021  0.2416 -0.3388
  261MPD2     H 3954   0.795   1.364  12.511  0.2296  2.3326 -0.8750
  261MPD2    H1 3955   0.369   1.464  12.524 -0.4968 -0.9164  0.1060
  261MPD2    H2 3956   0.575   1.347  12.872  2.2209  1.9531  0.3269
  261MPD2    H3 3957   0.366   1.417  12.754 -0.8860 -1.1085 -1.5466
  261MPD2     N 3958   0.593   1.457  12.364 -0.0295 -0.5694  0.0421
  261MPD2    H5 3959   0.685   1.478  12.326  0.3242 -1.0661  0.6229
  261MPD2    N1 3960   0.824   1.308  12.750  0.0649 -0.6004  0.3565
  261MPD2    H7 3961   0.900   1.322  12.684  0.2871  0.9121  0.9253
  262TMC3    C1 3962   0.511   1.544  12.162  0.0833  0.0018  0.0005
  262TMC3    C2 3963   0.598   1.643  12.169 -0.8018 -0.0729 -1.2291
  262TMC3    C3 3964   0.662   1.681  12.057 -0.2735  0.4344 -0.7960
  262TMC3    C4 3965   0.460   1.494  12.047 -0.2265  0.4045 -0.1521
  262TMC3    C5 3966   0.516   1.547  11.931 -0.1373 -0.1566  0.2438
  262TMC3    C6 3967   0.617   1.636  11.934  0.2918  0.4993  0.3640
  262TMC3     C 3968   0.480   1.479  12.289 -0.1425 -0.6817 -0.3291
  262TMC3     O 3969   0.374   1.423  12.292 -0.3133 -0.4281 -0.2218
  262TMC3     H 3970   0.619   1.680  12.269  0.3448  0.9535 -1.8442
  262TMC3    H1 3971   0.384   1.417  12.039  1.2989 -0.9013 -1.8020
  262TMC3    H2 3972   0.636   1.683  11.838 -3.7244  2.3997  0.5131
  262TMC3    C7 3973   0.489   1.464  11.813  0.2287 -0.5485  0.2163
  262TMC3    C8 3974   0.729   1.808  12.055  0.1558 -0.0073  0.4512
  262TMC3    O1 3975   0.443   1.355  11.833  0.4111  0.2488  0.0112
  262TMC3    O2 3976   0.720   1.886  11.963  0.4048  0.3305  0.8096
  263MPD2     C 3977   1.743   1.368  11.582 -0.1590 -0.0408 -0.2726
  263MPD2    C1 3978   1.842   1.345  11.492 -0.2468  0.3344 -0.3741
  263MPD2    C2 3979   1.823   1.365  11.357  0.2200  1.1542 -0.4251
  263MPD2    C3 3980   1.697   1.405  11.312 -0.0470 -0.8817 -0.6965
  263MPD2    C4 3981   1.595   1.438  11.407 -0.5305 -0.3848  0.1813
  263MPD2    C5 3982   1.623   1.416  11.537  0.3992  1.1036  0.0689
  263MPD2     H 3983   1.900   1.352  11.282 -0.3567 -1.0800 -0.6223
  263MPD2    H1 3984   1.491   1.461  11.387  0.0780  2.4535  0.2726
  263MPD2    H2 3985   1.753   1.341  11.686 -0.7198  1.9088  0.2900
  263MPD2    H3 3986   1.541   1.433  11.606  1.0473  2.2952  0.5377
  263MPD2     N 3987   1.660   1.431  11.178  0.2317  0.0919  0.2555
  263MPD2    H5 3988   1.574   1.481  11.157 -0.1319 -0.9387 -0.6812
  263MPD2    N1 3989   1.963   1.295  11.539  0.1111 -0.2916  0.0027
  263MPD2    H7 3990   1.973   1.291  11.640  2.2851 -0.4404 -0.2224
  264TMC3    C1 3991   1.677   1.428  10.943 -0.0370  0.4267  0.6325
  264TMC3    C2 3992   1.591   1.534  10.944  0.0966 -0.4341 -0.2040
  264TMC3    C3 3993   1.581   1.614  10.831  0.0465 -0.2971 -0.5367
  264TMC3    C4 3994   1.753   1.397  10.831  0.1306 -0.4185 -0.1514
  264TMC3    C5 3995   1.731   1.472  10.720 -0.4910 -0.7759 -0.3068
  264TMC3    C6 3996   1.642   1.573  10.721  0.0385  0.6729  0.9328
  264TMC3     C 3997   1.732   1.378  11.070 -0.1028  0.5491  0.8985
  264TMC3     O 3998   1.825   1.298  11.066  0.1777  0.3870  0.4686
  264TMC3     H 3999   1.560   1.582  11.036 -1.5527 -0.9026 -0.5184
  264TMC3    H1 4000   1.841   1.334  10.839  1.3225  1.1719 -0.8198
  264TMC3    H2 4001   1.635   1.618  10.622  2.6225  0.7749  0.7925
  264TMC3    C7 4002   1.856   1.494  10.643 -0.3335  0.0206  0.2131
  264TMC3    C8 4003   1.627   1.754  10.862  0.1397  0.0785 -0.0867
  264TMC3    O1 4004   1.926   1.400  10.614  0.2319  0.5261  0.6405
  264TMC3    O2 4005   1.703   1.791  10.775 -0.8377  0.1624  0.2109
  265MPD2     C 4006   3.820   1.320  15.590  0.0073  0.1302  0.0149
  265MPD2    C1 4007   3.888   1.435  15.555  0.9428 -0.1992 -0.4326
  265MPD2    C2 4008   3.973   1.434  15.443  0.0778  1.0420 -0.0363
  265MPD2    C3 4009   3.991   1.315  15.369 -0.3476 -0.1289  0.6616
  265MPD2    C4 4010   3.911   1.205  15.406  0.8857  0.2733 -0.0511
  265MPD2    C5 4011   3.822   1.216  15.512  0.0169  0.1467 -0.3461
  265MPD2     H 4012   4.024   1.526  15.420 -1.5240  2.2074  1.0674
  265MPD2    H1 4013   3.910   1.112  15.350  1.3126  0.9607 -1.1950
  265MPD2    H2 4014   3.759   1.325  15.679  0.2100 -0.7841  0.2039
  265MPD2    H3 4015   3.752   1.136  15.532 -0.2927  0.1638 -1.3829
  265MPD2     N 4016   4.073   1.297  15.252  0.6055  0.3685  0.5736
  265MPD2    H5 4017   4.079   1.201  15.221  0.8112  0.3747  0.5936
  265MPD2    N1 4018   3.884   1.560  15.629  0.0058 -0.0464  0.7345
  265MPD2    H7 4019   3.935   1.640  15.594 -3.1182  1.2495 -0.8723
  266TMC3    C1 4020   3.782   1.716  15.778  0.3903 -0.8380  0.2844
  266TMC3    C2 4021   3.771   1.746  15.908  0.3226  0.0482 -0.1653
  266TMC3    C3 4022   3.738   1.874  15.931  0.0273  0.3432  0.3070
  266TMC3    C4 4023   3.746   1.792  15.673 -0.6460  0.5764  0.1527
  266TMC3    C5 4024   3.699   1.919  15.704 -0.5434  0.1270 -0.1281
  266TMC3    C6 4025   3.705   1.968  15.837 -1.0063  0.0856 -0.6507
  266TMC3     C 4026   3.821   1.582  15.754 -0.3413  0.0304  0.8641
  266TMC3     O 4027   3.779   1.500  15.837 -0.2998 -0.2571 -0.0484
  266TMC3     H 4028   3.798   1.676  15.986  2.9012  0.2851 -0.8730
  266TMC3    H1 4029   3.742   1.746  15.575  0.0179  0.7258  0.0587
  266TMC3    H2 4030   3.648   2.057  15.861 -0.8497  0.6830 -2.4179
  266TMC3    C7 4031   3.623   1.999  15.602 -0.5228 -0.1299  0.2674
  266TMC3    C8 4032   3.727   1.901  16.071  0.3372  0.1504 -0.5108
  266TMC3    O1 4033   3.595   1.937  15.502  0.7525  0.7674 -0.1670
  266TMC3    O2 4034   3.727   1.808  16.148  0.2330  0.1029 -0.2212
  267MPD2     C 4035   2.145   2.818  17.678 -0.6078 -0.3248  0.0256
  267MPD2    C1 4036   2.233   2.881  17.589  0.2022 -0.0897  0.0084
  267MPD2    C2 4037   2.192   2.934  17.470 -0.6327 -0.0898 -0.0238
  267MPD2    C3 4038   2.060   2.916  17.433 -0.0873 -0.3438  0.6715
  267MPD2    C4 4039   1.975   2.841  17.512 -0.0796 -1.0613 -0.2093
  267MPD2    C5 4040   2.018   2.802  17.638 -0.1872  0.2705  0.0636
  267MPD2     H 4041   2.275   2.975  17.413 -1.1182 -0.5826 -1.0891
  267MPD2    H1 4042   1.871   2.834  17.481 -0.5057  2.4395  0.3677
  267MPD2    H2 4043   2.170   2.790   0.098 -0.1945  0.5503  0.1639
  267MPD2    H3 4044   1.944   2.753   0.018 -1.4321  0.8921 -0.9468
  267MPD2     N 4045   2.004   2.971  17.313 -0.5138 -0.7904 -0.0068
  267MPD2    H5 4046   1.913   2.939  17.281 -1.0246  0.1172  0.5487
  267MPD2    N1 4047   2.365   2.897  17.643  0.1399 -0.6352  0.2590
  267MPD2    H7 4048   2.375   2.858   0.055  0.0811 -3.1057 -0.7481
  268TMC3    C1 4049   2.558   3.023  17.676  0.7105 -0.8061  0.1600
  268TMC3    C2 4050   2.591   3.145  17.641  0.0704  0.0441 -0.1121
  268TMC3    C3 4051   2.636   3.220   0.063 -0.3989 -0.2989  1.0003
  268TMC3    C4 4052   2.587   2.967   0.121 -0.1319  0.2270  0.0429
  268TMC3    C5 4053   2.631   3.053   0.223  0.2456  0.5218  0.3770
  268TMC3    C6 4054   2.657   3.178   0.190  0.1006 -0.2384  0.8975
  268TMC3     C 4055   2.472   2.958  17.584 -0.2715  0.0904 -0.4656
  268TMC3     O 4056   2.479   3.006  17.469  0.4499 -0.2224  0.2367
  268TMC3     H 4057   2.557   3.189  17.547 -1.7146 -1.2776 -0.0976
  268TMC3    H1 4058   2.572   2.862   0.142  1.2870  0.1754  0.7613
  268TMC3    H2 4059   2.685   3.252   0.265 -0.1392  0.4931  0.2587
  268TMC3    C7 4060   2.660   2.991   0.349 -0.3276  0.8015  0.0658
  268TMC3    C8 4061   2.625   3.361   0.045  0.6176 -0.3969 -0.1974
  268TMC3    O1 4062   2.618   2.878   0.363  0.0631 -0.0826 -0.2829
  268TMC3    O2 4063   2.618   3.434   0.147  0.3018  0.0872  0.0635
  269MPD2     C 4064   1.641   1.650  15.701  0.8497 -0.0782  0.4004
  269MPD2    C1 4065   1.528   1.710  15.729  0.0067  0.4114 -0.3297
  269MPD2    C2 4066   1.502   1.843  15.695 -0.2976 -0.2753  0.0011
  269MPD2    C3 4067   1.603   1.929  15.643 -0.3609 -0.4506  0.3124
  269MPD2    C4 4068   1.720   1.870  15.612 -0.3083 -0.2312 -0.2247
  269MPD2    C5 4069   1.735   1.732  15.635 -0.1268  0.1490 -0.4119
  269MPD2     H 4070   1.403   1.885  15.712 -1.4715 -2.7662 -0.6523
  269MPD2    H1 4071   1.805   1.916  15.564 -0.5224  0.7802  0.3568
  269MPD2    H2 4072   1.651   1.546  15.727 -0.0418 -0.7457 -1.9444
  269MPD2    H3 4073   1.831   1.686  15.615 -0.7021 -0.6523 -1.3537
  269MPD2     N 4074   1.577   2.070  15.644  0.0435 -0.9353 -0.1137
  269MPD2    H5 4075   1.478   2.088  15.655  0.1294  0.1521 -1.1034
  269MPD2    N1 4076   1.426   1.624  15.779 -0.2258 -0.4278  0.1823
  269MPD2    H7 4077   1.452   1.529  15.803 -2.5739 -1.1178 -0.0399
  270TMC3    C1 4078   1.214   1.547  15.846  0.1465 -0.0892 -0.1489
  270TMC3    C2 4079   1.113   1.499  15.773 -0.4280 -0.0516 -0.5703
  270TMC3    C3 4080   1.099   1.373  15.741  0.8941  0.6719 -0.7926
  270TMC3    C4 4081   1.293   1.457  15.904 -0.5787 -0.2828 -0.7812
  270TMC3    C5 4082   1.281   1.324  15.882  0.1457  0.4291 -0.2351
  270TMC3    C6 4083   1.177   1.285  15.806  0.6592 -0.0352 -0.3074
  270TMC3     C 4084   1.291   1.660  15.791 -0.2861 -0.1004 -0.8527
  270TMC3     O 4085   1.232   1.756  15.743  0.3641  0.6346  0.1756
  270TMC3     H 4086   1.051   1.577  15.729 -0.6158  1.1223  1.7859
  270TMC3    H1 4087   1.375   1.483  15.970 -0.3853  0.3765 -1.2794
  270TMC3    H2 4088   1.175   1.180  15.779 -1.2202 -0.0702  0.0261
  270TMC3    C7 4089   1.408   1.267  15.868  0.1663  0.3779 -0.4022
  270TMC3    C8 4090   1.064   1.346  15.605  0.8221  0.0488 -0.0937
  270TMC3    O1 4091   1.492   1.346  15.821  0.3072 -0.4127  0.1741
  270TMC3    O2 4092   1.062   1.444  15.532  0.2897  0.3608  0.2747
  271MPD2     C 4093   0.802   1.742  13.922 -0.0860  0.8076  0.2346
  271MPD2    C1 4094   0.743   1.790  14.034 -0.2300  0.8400 -0.0211
  271MPD2    C2 4095   0.635   1.867  14.024  0.6211  0.5697 -0.2888
  271MPD2    C3 4096   0.596   1.910  13.896 -1.0087  0.3645  0.0658
  271MPD2    C4 4097   0.674   1.881  13.786 -0.2128 -0.1448 -0.0264
  271MPD2    C5 4098   0.769   1.784  13.794  0.4169 -0.6038 -0.1653
  271MPD2     H 4099   0.587   1.907  14.112 -0.4944 -1.6153  0.0903
  271MPD2    H1 4100   0.636   1.900  13.686 -1.2329  1.3151  0.6537
  271MPD2    H2 4101   0.879   1.665  13.925 -0.0092  0.8433 -1.0836
  271MPD2    H3 4102   0.819   1.742  13.708  0.5024  0.5980 -0.7054
  271MPD2     N 4103   0.471   1.969  13.869 -0.1782  0.7449 -0.0413
  271MPD2    H5 4104   0.442   1.986  13.773  1.0718  1.0053 -0.3670
  271MPD2    N1 4105   0.786   1.743  14.164 -0.2110 -0.4105  0.2492
  271MPD2    H7 4106   0.730   1.773  14.243 -0.2394  0.9175 -0.2769
  272TMC3    C1 4107   0.928   1.631  14.324  0.3005  0.3349  0.5180
  272TMC3    C2 4108   1.037   1.542  14.337  0.1341  0.3916 -0.0464
  272TMC3    C3 4109   1.092   1.532  14.465 -0.1612 -0.7067 -0.4738
  272TMC3    C4 4110   0.869   1.703  14.433  0.3141 -0.4193  0.0370
  272TMC3    C5 4111   0.927   1.681  14.558 -0.2779 -0.1042 -0.0381
  272TMC3    C6 4112   1.037   1.597  14.571  0.0431 -0.3962  0.1000
  272TMC3     C 4113   0.877   1.643  14.189 -0.0895  1.0973  0.1260
  272TMC3     O 4114   0.895   1.549  14.110 -0.1493 -1.0981 -0.5140
  272TMC3     H 4115   1.074   1.481  14.256  0.8132 -0.0541  0.5903
  272TMC3    H1 4116   0.790   1.778  14.428 -2.0267 -2.7310  2.3499
  272TMC3    H2 4117   1.064   1.561  14.669  1.3361 -1.5866 -0.6794
  272TMC3    C7 4118   0.869   1.745  14.676 -0.2699 -0.1497 -1.0536
  272TMC3    C8 4119   1.212   1.453  14.469  0.4814 -0.5210 -0.2190
  272TMC3    O1 4120   0.753   1.790  14.663  0.3266 -0.3786 -0.0518
  272TMC3    O2 4121   1.268   1.429  14.369  0.1538 -0.0999  0.2391
  273MPD2     C 4122   1.929   4.685  11.642  0.0442  0.7372 -0.0988
  273MPD2    C1 4123   2.041   0.040  11.653 -0.2010  0.8438  1.1819
  273MPD2    C2 4124   2.099   0.092  11.537  0.3499  0.1324 -0.5370
  273MPD2    C3 4125   2.052   0.047  11.415  0.0075  0.1349 -0.0946
  273MPD2    C4 4126   1.946   4.685  11.408  0.5498 -0.3928 -0.4157
  273MPD2    C5 4127   1.880   4.645  11.515 -0.2437  0.4194 -0.0636
  273MPD2     H 4128   2.176   0.166  11.553 -0.1588  0.3819  0.7373
  273MPD2    H1 4129   1.905   4.653  11.313 -0.3926  0.9303 -0.4479
  273MPD2    H2 4130   1.877   4.645  11.729  0.0107  1.8337  0.3850
  273MPD2    H3 4131   1.794   4.580  11.522  1.8334 -2.5857 -2.3397
  273MPD2     N 4132   2.110   0.097  11.292  0.1135  0.3823 -0.1762
  273MPD2    H5 4133   2.063   0.066  11.207  1.5693  0.9997 -1.1993
  273MPD2    N1 4134   2.100   0.072  11.778 -0.1747  0.2118  0.4936
  273MPD2    H7 4135   2.178   0.137  11.780  1.6028 -1.8923 -1.8448
  274TMC3    C1 4136   2.259   0.204  11.145  0.1076 -0.1961  0.3985
  274TMC3    C2 4137   2.170   0.230  11.045 -0.2601  0.5078  0.4141
  274TMC3    C3 4138   2.213   0.307  10.933 -0.1377 -0.0280  0.6652
  274TMC3    C4 4139   2.395   0.236  11.138  0.4157  0.5008 -0.1309
  274TMC3    C5 4140   2.441   0.302  11.026  0.2368 -0.0289 -0.4013
  274TMC3    C6 4141   2.350   0.331  10.924 -1.3721  0.1848 -0.2352
  274TMC3     C 4142   2.227   0.162  11.283  0.4377 -0.0653 -0.0821
  274TMC3     O 4143   2.310   0.189  11.370  0.0754  0.0355 -0.4902
  274TMC3     H 4144   2.065   0.208  11.055 -0.6104  0.9683 -2.2499
  274TMC3    H1 4145   2.471   0.196  11.205  1.3078  1.0425 -0.8177
  274TMC3    H2 4146   2.381   0.413  10.859 -0.8844  0.9412  0.9488
  274TMC3    C7 4147   2.534   0.413  11.057 -0.3381 -0.4809  0.5524
  274TMC3    C8 4148   2.103   0.363  10.847  0.2611  0.4107 -0.6867
  274TMC3    O1 4149   2.632   0.428  10.987 -0.2029 -0.2682  0.5020
  274TMC3    O2 4150   1.991   0.321  10.859 -0.0444  0.0841 -0.0041
  275MPD2     C 4151   2.504   2.483  14.651 -0.2109 -0.2129  0.0587
  275MPD2    C1 4152   2.430   2.584  14.696 -0.2071  0.5760 -0.5303
  275MPD2    C2 4153   2.297   2.568  14.715  0.2411  0.0545 -0.7312
  275MPD2    C3 4154   2.243   2.450  14.677  0.7640  0.6095  0.4939
  275MPD2    C4 4155   2.317   2.341  14.642 -0.1426 -0.0376 -0.6277
  275MPD2    C5 4156   2.454   2.356  14.630  0.0535 -0.1987 -0.1544
  275MPD2     H 4157   2.244   2.649  14.763  0.3697 -1.2094  1.5472
  275MPD2    H1 4158   2.268   2.245  14.632 -2.1861  0.9467  0.0949
  275MPD2    H2 4159   2.611   2.497  14.643  0.2967 -4.1829 -0.4069
  275MPD2    H3 4160   2.521   2.276  14.599 -0.9638 -1.3275  0.5746
  275MPD2     N 4161   2.099   2.427  14.687  0.7700 -0.2831  0.0560
  275MPD2    H5 4162   2.067   2.334  14.665 -2.0342  0.9351 -1.0449
  275MPD2    N1 4163   2.483   2.709  14.745  0.0115 -0.2813  0.7654
  275MPD2    H7 4164   2.414   2.774  14.781 -0.4083  1.0071 -2.3790
  276TMC3    C1 4165   2.616   2.835  14.891 -0.7809  0.4591  0.1752
  276TMC3    C2 4166   2.510   2.818  14.973 -0.2219 -0.1677 -0.3618
  276TMC3    C3 4167   2.526   2.753  15.095  0.3549 -0.0728  0.2674
  276TMC3    C4 4168   2.744   2.818  14.939  0.1308 -0.3706  0.1119
  276TMC3    C5 4169   2.766   2.742  15.055 -0.6619  0.0725 -0.1663
  276TMC3    C6 4170   2.651   2.708  15.126 -1.0811 -0.6689  0.3325
  276TMC3     C 4171   2.614   2.739  14.779 -0.0665 -0.0114  0.2886
  276TMC3     O 4172   2.715   2.681  14.740  1.0037 -0.0073 -0.1016
  276TMC3     H 4173   2.412   2.846  14.934 -0.5346 -0.4999  0.1779
  276TMC3    H1 4174   2.823   2.815  14.865  0.0825  0.6421  0.0078
  276TMC3    H2 4175   2.656   2.660  15.223  0.4063 -0.0618  0.5532
  276TMC3    C7 4176   2.890   2.718  15.121 -0.2599 -0.1205  0.4701
  276TMC3    C8 4177   2.415   2.667  15.116 -0.1356  0.1335 -0.5806
  276TMC3    O1 4178   2.900   2.628  15.202 -0.1338 -0.2583 -0.0492
  276TMC3    O2 4179   2.316   2.735  15.141 -0.2408  0.1137  0.0502
  277MPD2     C 4180   3.783   1.982  13.007 -0.3059  0.3450 -0.0053
  277MPD2    C1 4181   3.715   2.067  13.096 -1.2085 -0.6509 -0.5874
  277MPD2    C2 4182   3.633   2.009  13.196  0.5223 -0.0456 -0.3372
  277MPD2    C3 4183   3.644   1.869  13.218 -0.1815  0.5613  0.5129
  277MPD2    C4 4184   3.738   1.794  13.155 -0.0143  0.2772  0.0185
  277MPD2    C5 4185   3.806   1.848  13.050  0.3124 -0.7496  0.0100
  277MPD2     H 4186   3.556   2.063  13.250 -0.6284  0.2921 -2.3445
  277MPD2    H1 4187   3.751   1.688  13.176  1.1702  0.3343 -0.4169
  277MPD2    H2 4188   3.841   2.023  12.925  0.4129 -0.0999  0.2718
  277MPD2    H3 4189   3.872   1.779  12.999  1.4195  0.2107  0.1497
  277MPD2     N 4190   3.562   1.817  13.323 -0.3034 -0.0007 -0.4486
  277MPD2    H5 4191   3.481   1.872  13.351  1.4950  2.0439  0.7817
  277MPD2    N1 4192   3.710   2.202  13.057  0.0096  0.1687 -0.1983
  277MPD2    H7 4193   3.756   2.223  12.969  0.9840 -1.2949 -0.0472
  278TMC3    C1 4194   3.463   1.661  13.468 -0.1369 -0.4362  0.8479
  278TMC3    C2 4195   3.434   1.527  13.482  0.1209  0.6652  0.0423
  278TMC3    C3 4196   3.334   1.486  13.571 -0.2257 -0.5070  0.4770
  278TMC3    C4 4197   3.402   1.768  13.535  0.2100  0.4373  0.2124
  278TMC3    C5 4198   3.296   1.724  13.619  0.1283  0.0153 -0.4437
  278TMC3    C6 4199   3.277   1.585  13.647 -0.7390 -0.1957  0.0445
  278TMC3     C 4200   3.570   1.686  13.371 -0.3676  0.4333  0.0255
  278TMC3     O 4201   3.632   1.589  13.331 -0.1874  0.0010 -0.6959
  278TMC3     H 4202   3.496   1.447  13.441  1.0288  0.8872  0.9751
  278TMC3    H1 4203   3.428   1.873  13.529 -0.4292  0.6274  0.8118
  278TMC3    H2 4204   3.208   1.545  13.720 -2.7872  1.3140 -1.0528
  278TMC3    C7 4205   3.203   1.823  13.655  0.9334  0.4912  0.5875
  278TMC3    C8 4206   3.325   1.347  13.606  0.8480 -0.0149  0.0093
  278TMC3    O1 4207   3.232   1.939  13.636  0.1618  0.3832  0.2309
  278TMC3    O2 4208   3.318   1.319  13.724  0.6942 -0.3754 -0.7322
  279MPD2     C 4209   3.768   1.096   0.140  0.2474  0.3857 -0.3186
  279MPD2    C1 4210   3.637   1.120   0.102 -0.3866  0.4633 -0.2243
  279MPD2    C2 4211   3.616   1.198  17.677  0.3289 -0.1744  0.2400
  279MPD2    C3 4212   3.715   1.269  17.612 -0.0854  0.0056  0.0696
  279MPD2    C4 4213   3.848   1.230  17.644  0.3701 -0.2431 -0.1559
  279MPD2    C5 4214   3.868   1.146   0.060  0.9395 -0.3214  0.4756
  279MPD2     H 4215   3.512   1.208  17.646  0.4358 -1.4199 -0.5538
  279MPD2    H1 4216   3.933   1.266  17.587  0.6176 -1.0960 -0.3374
  279MPD2    H2 4217   3.804   1.032   0.220 -1.7334  2.3211  2.1145
  279MPD2    H3 4218   3.971   1.126   0.086  0.8334 -0.1225  1.0521
  279MPD2     N 4219   3.679   1.373  17.517 -0.0685  0.3031 -0.7243
  279MPD2    H5 4220   3.753   1.405  17.456 -1.0384  3.6639 -0.1306
  279MPD2    N1 4221   3.535   1.048   0.175  0.2164  0.4660  0.0109
  279MPD2    H7 4222   3.564   0.997   0.257  0.7378 -1.8600 -1.6289
  280TMC3    C1 4223   3.330   1.018   0.282 -0.3695 -0.2014 -0.4503
  280TMC3    C2 4224   3.236   0.924   0.260  0.1434 -0.5492 -0.4204
  280TMC3    C3 4225   3.104   0.967   0.273  0.6675 -0.2628  0.5096
  280TMC3    C4 4226   3.297   1.137   0.345 -0.1776 -0.1388  0.3862
  280TMC3    C5 4227   3.167   1.168   0.352  0.4542  0.2392 -0.2780
  280TMC3    C6 4228   3.063   1.091   0.312  0.4439  0.1972  0.0899
  280TMC3     C 4229   3.398   1.061   0.163 -0.1275 -0.0429  0.9132
  280TMC3     O 4230   3.329   1.125   0.085 -0.1028  0.1501  0.1391
  280TMC3     H 4231   3.263   0.821   0.241  1.0398 -0.1994 -1.0767
  280TMC3    H1 4232   3.365   1.221   0.334 -0.3904  0.0229  0.3247
  280TMC3    H2 4233   2.957   1.117   0.318 -0.4487 -3.2913 -0.7632
  280TMC3    C7 4234   3.144   1.291   0.428  0.3825  0.2883 -0.9015
  280TMC3    C8 4235   2.999   0.871   0.237 -0.3617  0.5442  0.1241
  280TMC3    O1 4236   3.243   1.337   0.484 -0.2110 -0.7940 -0.2256
  280TMC3    O2 4237   2.886   0.888   0.286  0.2514 -0.6264 -0.0215
  281TMC3    C1 4238   2.146   1.871  13.118 -0.3263  0.1695 -0.5333
  281TMC3    C2 4239   2.184   1.936  13.008 -0.2234 -0.5528 -0.4093
  281TMC3    C3 4240   2.188   1.862  12.894 -0.5202 -0.4170  0.1816
  281TMC3    C4 4241   2.138   1.736  13.131  0.1873 -0.4924 -0.0884
  281TMC3    C5 4242   2.137   1.676  13.001 -0.1777 -0.3224  0.0362
  281TMC3    C6 4243   2.180   1.726  12.890  0.0857  0.2348  0.1990
  281TMC3     C 4244   2.145   1.965  13.224 -0.4213 -0.2812 -0.1365
  281TMC3     O 4245   2.168   1.914  13.332  0.3317  0.5633  0.1820
  281TMC3     H 4246   2.217   2.040  13.005 -2.9823  0.3039 -1.1138
  281TMC3    H1 4247   2.099   1.699  13.225 -1.0361  1.4182  0.1451
  281TMC3    H2 4248   2.161   1.672  12.797  0.3962  0.8860 -0.2451
  281TMC3    C7 4249   2.089   1.540  12.992  0.3038  0.7936 -0.1007
  281TMC3    C8 4250   2.266   1.910  12.784  0.0245  0.7193 -0.1755
  281TMC3    O1 4251   2.153   1.460  12.922  0.0589  0.4185 -0.6837
  281TMC3    O2 4252   2.336   1.825  12.739 -0.2776  0.2379  1.0265
  282MPD2     C 4253   4.031   3.389  15.333 -0.1644 -0.0094  0.0517
  282MPD2    C1 4254   3.892   3.406  15.360  0.2193  0.1742  0.4657
  282MPD2    C2 4255   3.807   3.428  15.256 -0.1675 -0.0590 -0.0314
  282MPD2    C3 4256   3.862   3.462  15.128 -0.1860 -0.7856  0.4757
  282MPD2    C4 4257   3.996   3.469  15.108  0.3802  0.3852 -0.9214
  282MPD2    C5 4258   4.073   3.435  15.217  0.5788 -0.6196 -0.6161
  282MPD2     H 4259   3.700   3.428  15.272  0.0580 -1.8475  1.5578
  282MPD2    H1 4260   4.034   3.507  15.014  1.1287 -0.9309 -1.1523
  282MPD2    H2 4261   4.099   3.348  15.406  0.6718  1.8239  0.3103
  282MPD2    H3 4262   4.180   3.434  15.198  0.2009  1.6416 -2.8386
  282MPD2     N 4263   3.781   3.490  15.020 -0.9259  0.0412 -0.0638
  282MPD2    H5 4264   3.685   3.511  15.043  0.1281  1.7073  2.8412
  282MPD2    N1 4265   3.835   3.382  15.491 -0.1639  0.1522  0.9491
  282MPD2    H7 4266   3.735   3.369  15.498  0.2587 -4.1556 -0.9232
  283TMC3    C1 4267   3.842   3.405  15.723 -0.1465  0.1904 -0.0101
  283TMC3    C2 4268   3.880   3.506  15.807  0.4711 -0.3808  0.0665
  283TMC3    C3 4269   3.813   3.520  15.922 -0.8313  0.4568  0.5725
  283TMC3    C4 4270   3.744   3.315  15.754 -0.7840 -0.6595  0.2158
  283TMC3    C5 4271   3.682   3.336  15.875  0.1982 -0.4010 -0.3083
  283TMC3    C6 4272   3.715   3.436  15.963  0.1186 -0.1330 -0.2196
  283TMC3     C 4273   3.912   3.402  15.603 -0.0211 -0.4811 -0.1023
  283TMC3     O 4274   4.028   3.445  15.609  0.3701 -0.1728 -0.2191
  283TMC3     H 4275   3.978   3.550  15.793  1.5177 -2.0878  1.9487
  283TMC3    H1 4276   3.719   3.235  15.685 -0.4247 -1.9286  1.5777
  283TMC3    H2 4277   3.661   3.457  16.055  2.7839  0.6990  1.1577
  283TMC3    C7 4278   3.604   3.231  15.936  0.2339 -0.6409  0.1723
  283TMC3    C8 4279   3.840   3.638  16.000 -0.2918 -0.3724 -0.2599
  283TMC3    O1 4280   3.573   3.234  16.051 -0.3477  0.1706  0.2589
  283TMC3    O2 4281   3.799   3.640  16.115 -0.3562  0.6039  0.0512
  284MPD2     C 4282   1.754   2.935  11.772  0.4283 -0.8952 -0.0720
  284MPD2    C1 4283   1.880   2.986  11.778 -0.7380 -0.7787 -0.0476
  284MPD2    C2 4284   1.971   2.948  11.880 -0.1615 -0.1597  0.6918
  284MPD2    C3 4285   1.934   2.849  11.977  0.0320 -0.2739 -0.7285
  284MPD2    C4 4286   1.803   2.800  11.974 -0.2690 -0.0485 -0.3099
  284MPD2    C5 4287   1.719   2.850  11.877 -0.3661  0.2328  0.0687
  284MPD2     H 4288   2.075   2.979  11.878  0.9087 -3.6017  1.6320
  284MPD2    H1 4289   1.765   2.722  12.039  1.5039 -0.4636  0.2472
  284MPD2    H2 4290   1.681   2.952  11.694  1.6833  1.9280 -0.6280
  284MPD2    H3 4291   1.616   2.819  11.864 -0.5306  0.2559  1.3600
  284MPD2     N 4292   2.037   2.805  12.069 -0.4865  0.1190 -0.3401
  284MPD2    H5 4293   2.129   2.847  12.064  0.3877 -1.7041  0.4039
  284MPD2    N1 4294   1.939   3.059  11.672 -0.4777 -0.0134 -0.1322
  284MPD2    H7 4295   2.030   3.101  11.690 -0.5238 -0.7395  1.7563
  285TMC3    C1 4296   1.957   3.168  11.459  0.0562  0.7562 -0.1990
  285TMC3    C2 4297   1.982   3.103  11.341 -1.0469 -0.2202  0.2613
  285TMC3    C3 4298   2.092   3.136  11.266 -0.1999 -0.6935  0.4116
  285TMC3    C4 4299   2.030   3.274  11.508  0.4516 -0.8119  0.4130
  285TMC3    C5 4300   2.142   3.298  11.436  0.5809  0.5038  0.3961
  285TMC3    C6 4301   2.168   3.242  11.318 -0.1756 -0.1786 -0.5478
  285TMC3     C 4302   1.880   3.087  11.546  0.0620 -0.3152  0.0721
  285TMC3     O 4303   1.774   3.038  11.499  0.3393  0.6629 -0.0281
  285TMC3     H 4304   1.921   3.018  11.316 -1.6444 -0.2455  1.7784
  285TMC3    H1 4305   2.007   3.328  11.599 -2.0222  0.4355 -0.9408
  285TMC3    H2 4306   2.260   3.258  11.262  1.1891 -2.5361  1.0023
  285TMC3    C7 4307   2.214   3.424  11.470  0.7058  0.1468 -0.4505
  285TMC3    C8 4308   2.160   3.033  11.185  0.3954 -0.6231 -0.0627
  285TMC3    O1 4309   2.285   3.469  11.378 -0.0053  0.6979  0.4136
  285TMC3    O2 4310   2.085   2.958  11.126  0.2694 -0.1137 -0.0420
  286MPD2     C 4311   2.413   0.932   1.712  0.4155 -0.2102  0.1533
  286MPD2    C1 4312   2.432   0.959   1.572  0.5200 -0.2172  0.7359
  286MPD2    C2 4313   2.500   0.868   1.499 -0.9196 -0.7061 -0.3049
  286MPD2    C3 4314   2.547   0.749   1.555 -0.1858 -0.5914  1.1626
  286MPD2    C4 4315   2.543   0.732   1.688 -0.1392 -0.3058 -0.0839
  286MPD2    C5 4316   2.480   0.826   1.765  0.1980  0.2376  0.0327
  286MPD2     H 4317   2.504   0.884   1.392  0.0252  1.2124  0.0189
  286MPD2    H1 4318   2.580   0.643   1.737 -1.0031 -0.9327 -0.5732
  286MPD2    H2 4319   2.344   0.988   1.774 -0.8629 -0.8071 -0.7339
  286MPD2    H3 4320   2.477   0.808   1.872 -0.4187 -0.0024 -0.0241
  286MPD2     N 4321   2.602   0.644   1.482 -0.0535 -0.5617 -0.3429
  286MPD2    H5 4322   2.632   0.565   1.537 -0.9826 -0.5141  0.2323
  286MPD2    N1 4323   2.369   1.066   1.511  0.2869 -0.5259 -0.0872
  286MPD2    H7 4324   2.391   1.075   1.413  0.3567  2.1016  0.1633
  287TMC3    C1 4325   2.697   0.525   1.301  0.0395  0.1241 -0.2978
  287TMC3    C2 4326   2.641   0.472   1.185 -0.4711  0.3406 -0.4780
  287TMC3    C3 4327   2.683   0.350   1.155  0.7395 -0.2054  0.4276
  287TMC3    C4 4328   2.785   0.458   1.387 -0.1089  0.2642 -0.4617
  287TMC3    C5 4329   2.818   0.327   1.351  0.1384 -0.2693  0.2206
  287TMC3    C6 4330   2.772   0.279   1.233  0.3937  0.1299 -0.1459
  287TMC3     C 4331   2.629   0.641   1.347  0.0044 -0.7365 -0.8325
  287TMC3     O 4332   2.592   0.715   1.261  0.3951  0.1545  0.4246
  287TMC3     H 4333   2.571   0.527   1.122 -1.6927 -1.2694 -0.5183
  287TMC3    H1 4334   2.834   0.507   1.471 -1.4237  1.7064 -0.5473
  287TMC3    H2 4335   2.808   0.179   1.208  1.1703  0.0124  1.4714
  287TMC3    C7 4336   2.918   0.243   1.422 -0.1793 -0.6165 -0.0834
  287TMC3    C8 4337   2.628   0.284   1.039 -0.5337 -0.6255 -0.1813
  287TMC3    O1 4338   3.005   0.187   1.355  0.5618 -0.1572 -0.4514
  287TMC3    O2 4339   2.612   0.164   1.050  0.1620  0.2135  0.1229
  288TMC3    C1 4340   3.781   1.012  14.660  0.1328 -0.5491 -0.3409
  288TMC3    C2 4341   3.743   0.963  14.785  0.8711 -0.7609  0.0258
  288TMC3    C3 4342   3.746   1.050  14.888  0.1130 -0.2117 -0.1212
  288TMC3    C4 4343   3.838   1.140  14.642 -0.8891  0.2110  0.6839
  288TMC3    C5 4344   3.844   1.228  14.751 -0.0980 -0.1977  0.0111
  288TMC3    C6 4345   3.803   1.182  14.877  0.6135 -0.2766  0.4538
  288TMC3     C 4346   3.754   0.923  14.547 -0.1386  0.1671  0.0087
  288TMC3     O 4347   3.705   0.811  14.563  0.4081  0.1302 -0.1346
  288TMC3     H 4348   3.722   0.857  14.798  0.3804 -0.9340 -2.0717
  288TMC3    H1 4349   3.882   1.167  14.547 -0.7146 -2.0257  0.1219
  288TMC3    H2 4350   3.833   1.238  14.965  2.7222 -1.1110  0.2594
  288TMC3    C7 4351   3.934   1.339  14.740  0.2438  0.7406  0.0555
  288TMC3    C8 4352   3.749   1.001  15.024  0.0400 -0.0835 -0.3196
  288TMC3    O1 4353   3.968   1.382  14.839 -0.3906 -0.0243  0.3359
  288TMC3    O2 4354   3.816   1.067  15.101  0.6344  0.4165  0.4673
  289MPD2     C 4355   4.168   0.297  14.904 -0.0104  0.5219  0.3664
  289MPD2    C1 4356   4.172   0.381  14.792 -0.0137 -0.0210  0.7262
  289MPD2    C2 4357   4.064   0.366  14.706 -0.3485 -0.1319  0.6275
  289MPD2    C3 4358   3.960   0.280  14.732  0.0186  0.7416 -0.7751
  289MPD2    C4 4359   3.974   0.190  14.834  0.2827 -0.0803  0.3527
  289MPD2    C5 4360   4.076   0.199  14.923 -0.7170  0.0716 -0.7048
  289MPD2     H 4361   4.062   0.429  14.618 -0.4637 -1.2071 -0.1422
  289MPD2    H1 4362   3.901   0.111  14.846  0.4050 -0.1420  0.6858
  289MPD2    H2 4363   4.236   0.317  14.986  1.1860 -1.6270 -0.1048
  289MPD2    H3 4364   4.085   0.142  15.015 -0.4264  0.2870 -0.6006
  289MPD2     N 4365   3.832   0.282  14.662 -0.0967 -0.1648 -0.7369
  289MPD2    H5 4366   3.750   0.234  14.696  1.6524 -0.7967  2.5754
  289MPD2    N1 4367   4.258   0.492  14.779 -0.0545  0.0706 -0.1415
  289MPD2    H7 4368   4.243   0.544  14.694  2.9479  1.3237  0.1118
  290TMC3    C1 4369   3.663   0.371  14.540  0.2852 -0.5176 -0.2487
  290TMC3    C2 4370   3.604   0.489  14.490 -0.3853 -0.6899  0.2374
  290TMC3    C3 4371   3.477   0.488  14.441  0.0430  0.5228 -0.3859
  290TMC3    C4 4372   3.602   0.250  14.523 -0.5351  0.0250  0.8487
  290TMC3    C5 4373   3.465   0.251  14.475 -0.6901  0.2039 -0.3896
  290TMC3    C6 4374   3.408   0.371  14.432 -0.7624 -0.3006  0.2689
  290TMC3     C 4375   3.799   0.383  14.574 -0.3356 -0.0312 -0.2367
  290TMC3     O 4376   3.865   0.462  14.504 -0.0693  0.7526  0.0691
  290TMC3     H 4377   3.648   0.584  14.519 -0.2607 -1.3904  2.3167
  290TMC3    H1 4378   3.653   0.158  14.548  0.8955  0.8894  1.0829
  290TMC3    H2 4379   3.309   0.361  14.391 -0.3331 -2.1535 -0.2967
  290TMC3    C7 4380   3.374   0.150  14.513  0.0008 -0.3426  0.8032
  290TMC3    C8 4381   3.392   0.604  14.416 -0.0620 -0.6730  0.0707
  290TMC3    O1 4382   3.259   0.176  14.545 -0.7170  0.0086 -0.0533
  290TMC3    O2 4383   3.284   0.580  14.361  0.4569  0.0547 -0.2453
  291MPD2     C 4384   3.290   0.224   0.567 -0.5110  0.3448  0.3091
  291MPD2    C1 4385   3.412   0.164   0.576  0.1608 -0.1055 -0.4310
  291MPD2    C2 4386   3.534   0.233   0.574  0.1520  0.9133 -0.6999
  291MPD2    C3 4387   3.524   0.371   0.548  0.5314 -0.1802 -0.2497
  291MPD2    C4 4388   3.403   0.429   0.539  0.2147  0.8413 -0.0728
  291MPD2    C5 4389   3.289   0.360   0.552  0.4289 -0.3112  0.2567
  291MPD2     H 4390   3.632   0.191   0.587 -0.2690  0.0399 -0.3941
  291MPD2    H1 4391   3.397   0.536   0.524  0.2941  0.4269 -3.0219
  291MPD2    H2 4392   3.193   0.177   0.572  0.1458 -1.1875 -1.2080
  291MPD2    H3 4393   3.193   0.410   0.543  0.9553  0.1935 -2.3206
  291MPD2     N 4394   3.638   0.452   0.537 -0.0732  0.2692 -0.5346
  291MPD2    H5 4395   3.614   0.551   0.537 -2.0124 -0.1951 -1.9658
  291MPD2    N1 4396   3.421   0.024   0.587  0.5155 -0.1495  0.1755
  291MPD2    H7 4397   3.509   4.708   0.625  0.0963  0.5810  1.8254
  292TMC3    C1 4398   3.359   4.523   0.624 -0.2176  0.0889 -0.2380
  292TMC3    C2 4399   3.408   4.523   0.748  0.5280  1.0347 -0.1530
  292TMC3    C3 4400   3.419   4.405   0.816  0.1634  0.2574  0.4281
  292TMC3    C4 4401   3.316   4.413   0.559 -0.2122 -0.2673 -0.0611
  292TMC3    C5 4402   3.317   4.298   0.636  0.7974  0.0948 -0.2121
  292TMC3    C6 4403   3.375   4.285   0.759  0.1163 -0.8645 -0.2782
  292TMC3     C 4404   3.319   4.654   0.569  0.0961 -0.3868  0.5010
  292TMC3     O 4405   3.220   4.657   0.500 -0.3000 -0.5847 -0.1292
  292TMC3     H 4406   3.417   4.615   0.805 -1.7611 -0.4173  2.5504
  292TMC3    H1 4407   3.270   4.414   0.461 -0.6975  0.8608  0.1762
  292TMC3    H2 4408   3.366   4.189   0.807  1.8981 -0.4656  0.8421
  292TMC3    C7 4409   3.253   4.178   0.580  0.4138 -0.3463 -0.0713
  292TMC3    C8 4410   3.445   4.408   0.961 -0.2735  0.5178 -0.2778
  292TMC3    O1 4411   3.278   4.075   0.642  0.9706 -0.2371  0.3456
  292TMC3    O2 4412   3.458   4.515   1.016 -0.0765 -0.1867  0.0387
  293MPD2     C 4413   0.573   2.044  12.473  0.8005  0.0622  0.6984
  293MPD2    C1 4414   0.492   1.949  12.533 -0.0304  0.0231 -0.4270
  293MPD2    C2 4415   0.510   1.924  12.671  0.0889  0.3440  0.6216
  293MPD2    C3 4416   0.611   1.985  12.746 -0.1708  0.6930  0.6886
  293MPD2    C4 4417   0.689   2.074  12.679  0.3273  0.3052  0.7504
  293MPD2    C5 4418   0.675   2.101  12.543  0.7710 -0.6230  0.1097
  293MPD2     H 4419   0.450   1.845  12.715 -1.2040  0.5193 -0.8391
  293MPD2    H1 4420   0.777   2.123  12.720  0.1152  0.7353  0.6881
  293MPD2    H2 4421   0.571   2.066  12.367  2.6699  0.3744  0.7339
  293MPD2    H3 4422   0.730   2.181  12.496  0.3430 -0.9084 -0.8696
  293MPD2     N 4423   0.618   1.960  12.884  0.0207 -0.7253 -0.2137
  293MPD2    H5 4424   0.575   1.874  12.917  1.5622 -1.0937  0.8441
  293MPD2    N1 4425   0.397   1.881  12.449  0.2007 -0.2636  0.0705
  293MPD2    H7 4426   0.376   1.928  12.362 -3.3467  0.6158  1.4110
  294TMC3    C1 4427   0.213   1.737  12.393  0.0257 -0.7129 -0.2303
  294TMC3    C2 4428   0.095   1.694  12.446  0.4811  0.4899  0.2472
  294TMC3    C3 4429   0.003   1.642  12.359 -0.2860 -0.2152 -0.0852
  294TMC3    C4 4430   0.243   1.727  12.264 -0.1089 -0.4864  0.1513
  294TMC3    C5 4431   0.139   1.685  12.183 -0.1713 -0.7559 -0.0733
  294TMC3    C6 4432   0.024   1.632  12.227  0.1347  0.7263  0.5629
  294TMC3     C 4433   0.314   1.776  12.489  0.9498 -0.6072  0.3573
  294TMC3     O 4434   0.306   1.732  12.602  0.0856  0.0106 -0.4157
  294TMC3     H 4435   0.082   1.724  12.550  0.2350 -0.2722  0.4368
  294TMC3    H1 4436   0.333   1.770  12.221  0.8706 -1.8161  0.8980
  294TMC3    H2 4437   4.671   1.601  12.153  2.3902  1.0786 -1.8040
  294TMC3    C7 4438   0.161   1.673  12.038 -0.0040 -0.3814  0.7298
  294TMC3    C8 4439   4.614   1.581  12.430  0.7004  0.1394 -0.0671
  294TMC3    O1 4440   0.229   1.761  11.990  0.5456 -0.4227 -0.0827
  294TMC3    O2 4441   4.622   1.586  12.552 -0.2527  0.0034 -0.4772
  295MPD2     C 4442   0.703   3.859   0.359  0.4217  0.3919  0.5708
  295MPD2    C1 4443   0.725   3.993   0.322  0.0192  0.4594 -0.1011
  295MPD2    C2 4444   0.700   4.099   0.411 -0.0065  0.1556 -0.4433
  295MPD2    C3 4445   0.627   4.073   0.526  0.2029  0.5839 -0.3650
  295MPD2    C4 4446   0.593   3.942   0.556 -0.0804  0.0999 -0.0548
  295MPD2    C5 4447   0.638   3.836   0.478  0.0551 -0.1685 -0.0481
  295MPD2     H 4448   0.724   4.201   0.381 -1.0636  0.6599  0.4577
  295MPD2    H1 4449   0.537   3.926   0.648 -0.5817 -0.5622 -0.4863
  295MPD2    H2 4450   0.750   3.782   0.299  1.0929  1.6918 -0.5554
  295MPD2    H3 4451   0.635   3.742   0.533  2.5547 -0.2974 -0.1151
  295MPD2     N 4452   0.585   4.173   0.615  0.3620  0.0512 -0.4393
  295MPD2    H5 4453   0.532   4.138   0.694 -0.7783 -0.1499 -1.2934
  295MPD2    N1 4454   0.795   4.029   0.204  0.4480 -0.4122 -0.0206
  295MPD2    H7 4455   0.802   4.129   0.194 -2.0416 -0.2130  0.2408
  296TMC3    C1 4456   0.539   4.396   0.698 -0.0965  0.4605  0.5034
  296TMC3    C2 4457   0.526   4.529   0.673  0.0552 -0.8951  0.4697
  296TMC3    C3 4458   0.471   4.609   0.768  0.0723  0.3343 -0.0482
  296TMC3    C4 4459   0.479   4.336   0.807 -0.0917  0.2153  0.2635
  296TMC3    C5 4460   0.408   4.418   0.896 -0.1632 -0.0877 -0.0109
  296TMC3    C6 4461   0.405   4.554   0.875 -0.2526 -0.3747 -0.5494
  296TMC3     C 4462   0.593   4.306   0.589 -0.6519 -0.4983  0.7462
  296TMC3     O 4463   0.630   4.366   0.490  0.4487 -0.4582  0.4913
  296TMC3     H 4464   0.591   4.569   0.596 -1.7395  2.2448  0.5783
  296TMC3    H1 4465   0.475   4.229   0.826  0.8970 -0.0028 -0.7606
  296TMC3    H2 4466   0.349   4.612   0.947 -1.1576  0.7020 -2.1358
  296TMC3    C7 4467   0.332   4.362   1.008  0.4434  0.0487  0.1418
  296TMC3    C8 4468   0.482   0.035   0.754  0.9623  0.0859 -0.1456
  296TMC3    O1 4469   0.237   4.427   1.055 -0.1824 -0.4717 -0.1138
  296TMC3    O2 4470   0.523   0.075   0.647  0.7945 -0.0606 -0.2203
  297MPD2     C 4471   2.886   1.901  16.300  0.0275  0.5485  0.5083
  297MPD2    C1 4472   2.846   2.002  16.211 -0.2803 -0.4789 -0.4097
  297MPD2    C2 4473   2.935   2.097  16.178 -0.5768  0.1813 -0.1010
  297MPD2    C3 4474   3.062   2.100  16.242  1.1308 -0.1103 -0.2287
  297MPD2    C4 4475   3.099   2.003  16.337  0.6170  0.3787  0.2733
  297MPD2    C5 4476   3.019   1.894  16.354  0.4040  0.3258 -0.1589
  297MPD2     H 4477   2.911   2.175  16.106  0.5709  0.7000  0.0874
  297MPD2    H1 4478   3.204   2.008  16.364  1.0659 -2.1489 -1.0217
  297MPD2    H2 4479   2.830   1.817  16.341  0.3316 -0.8291 -1.8817
  297MPD2    H3 4480   3.055   1.816  16.419  1.8866  0.3535 -0.9453
  297MPD2     N 4481   3.141   2.212  16.215 -0.1380 -0.3592  0.2198
  297MPD2    H5 4482   3.131   2.257  16.125 -0.9251  1.6248  1.3121
  297MPD2    N1 4483   2.718   2.007  16.153 -0.0201 -0.1952  0.4670
  297MPD2    H7 4484   2.704   2.083  16.087 -2.3183 -1.6472 -0.7187
  298TMC3    C1 4485   2.485   1.995  16.150 -0.6221 -0.4646  0.1711
  298TMC3    C2 4486   2.478   2.055  16.029 -0.4695  0.6935 -0.6124
  298TMC3    C3 4487   2.357   2.108  15.983 -0.1798  0.6767  0.5755
  298TMC3    C4 4488   2.379   1.991  16.231 -1.0317  0.6320 -0.3213
  298TMC3    C5 4489   2.274   2.062  16.195 -0.0079  0.2382  0.4053
  298TMC3    C6 4490   2.255   2.121  16.075  0.6490  0.3999 -0.0391
  298TMC3     C 4491   2.606   1.948  16.212  0.0404 -0.6568  0.5399
  298TMC3     O 4492   2.603   1.876  16.310 -0.2086  0.7904 -0.0906
  298TMC3     H 4493   2.564   2.049  15.964 -0.8999 -3.9469 -0.7137
  298TMC3    H1 4494   2.381   1.946  16.329 -0.1700  1.5574  0.0916
  298TMC3    H2 4495   2.171   2.186  16.054  1.1436  0.7297 -0.9966
  298TMC3    C7 4496   2.179   2.091  16.308  0.2466  0.2495 -0.5210
  298TMC3    C8 4497   2.365   2.187  15.862 -0.2469  0.2600 -0.4547
  298TMC3    O1 4498   2.223   2.078  16.422 -0.5902 -0.4671  0.5922
  298TMC3    O2 4499   2.479   2.205  15.825 -0.4228  0.2749  0.8283
  299MPD2     C 4500   3.688   1.622  10.602  0.2871  0.2066 -0.4972
  299MPD2    C1 4501   3.648   1.750  10.576  0.3797 -0.0125 -0.2043
  299MPD2    C2 4502   3.532   1.772  10.506  0.0804  0.9909 -0.6849
  299MPD2    C3 4503   3.446   1.667  10.481 -0.6102  0.1988 -0.4033
  299MPD2    C4 4504   3.477   1.542  10.523  0.9450  0.3038 -0.6189
  299MPD2    C5 4505   3.597   1.520  10.587  0.6315  0.6884  0.0556
  299MPD2     H 4506   3.486   1.869  10.496  1.8229  2.0389  1.5377
  299MPD2    H1 4507   3.417   1.453  10.507 -1.8971  2.0842  0.3634
  299MPD2    H2 4508   3.785   1.601  10.645  0.7022 -1.9157 -2.4913
  299MPD2    H3 4509   3.631   1.420  10.608 -0.3539  0.7848  2.1038
  299MPD2     N 4510   3.320   1.680  10.419 -0.4117 -1.1252  0.7630
  299MPD2    H5 4511   3.257   1.600  10.423 -1.6753 -0.1522  0.4962
  299MPD2    N1 4512   3.717   1.855  10.638 -0.5249 -0.0727  0.1536
  299MPD2    H7 4513   3.798   1.835  10.696 -1.1915  0.7682  1.3590
  300TMC3    C1 4514   3.147   1.788  10.319  0.2023  0.5994 -0.0440
  300TMC3    C2 4515   3.105   1.896  10.242  0.5776  0.1720  0.5915
  300TMC3    C3 4516   2.967   1.923  10.244 -0.1991 -0.1201  0.4878
  300TMC3    C4 4517   3.059   1.709  10.390  0.5394  0.3464 -0.1158
  300TMC3    C5 4518   2.931   1.755  10.393  0.9268 -0.0084  0.2256
  300TMC3    C6 4519   2.878   1.848  10.312  0.4307  0.5674 -0.4828
  300TMC3     C 4520   3.280   1.794  10.352  0.3419 -0.1222  0.6183
  300TMC3     O 4521   3.332   1.903  10.318 -0.7287  0.1543 -0.2385
  300TMC3     H 4522   3.170   1.961  10.185  1.9646  0.5134  2.5510
  300TMC3    H1 4523   3.099   1.643  10.466 -3.0591 -0.3680  1.1706
  300TMC3    H2 4524   2.771   1.865  10.303 -0.0571 -1.7233  0.8950
  300TMC3    C7 4525   2.844   1.695  10.491 -0.0163  0.3584  1.1168
  300TMC3    C8 4526   2.941   2.066  10.250 -0.1324 -0.3537  1.3300
  300TMC3    O1 4527   2.855   1.573  10.512  0.3374 -0.2092  0.1474
  300TMC3    O2 4528   3.035   2.142  10.254  0.0996 -0.7587  0.7565
  301MPD2     C 4529   1.212   2.720   1.429 -1.2856 -0.2821  0.8929
  301MPD2    C1 4530   1.085   2.669   1.422  0.0659  0.4003  0.2757
  301MPD2    C2 4531   1.061   2.533   1.420  0.5811  0.0130  0.5172
  301MPD2    C3 4532   1.161   2.445   1.418 -1.0327  0.0300 -0.0913
  301MPD2    C4 4533   1.287   2.496   1.424  0.5190  0.4435 -0.0121
  301MPD2    C5 4534   1.316   2.629   1.425  0.1117  0.2486  0.2765
  301MPD2     H 4535   0.960   2.496   1.408  1.0883 -1.4088  0.6618
  301MPD2    H1 4536   1.371   2.428   1.416 -0.6484 -1.4109  3.4130
  301MPD2    H2 4537   1.237   2.826   1.437 -1.2563 -0.2249  0.1000
  301MPD2    H3 4538   1.422   2.650   1.432  0.5429 -2.2693  1.7021
  301MPD2     N 4539   1.148   2.306   1.384  0.1674 -0.3237 -0.5384
  301MPD2    H5 4540   1.231   2.254   1.361 -1.1906 -2.5066 -0.4761
  301MPD2    N1 4541   0.968   2.744   1.408  0.5616 -0.5209 -0.0670
  301MPD2    H7 4542   0.880   2.698   1.388  0.3110  0.7227 -1.9297
  302TMC3    C1 4543   1.044   2.118   1.305 -0.0967 -1.0478  0.6402
  302TMC3    C2 4544   1.147   2.037   1.347  0.5547 -0.2608 -0.5437
  302TMC3    C3 4545   1.191   1.939   1.255 -0.0565  0.7767  0.2628
  302TMC3    C4 4546   0.991   2.108   1.180 -0.4960  0.6319  0.0792
  302TMC3    C5 4547   1.043   2.026   1.088  0.4218  0.4607  0.0498
  302TMC3    C6 4548   1.139   1.935   1.128  0.4462  0.7300 -0.9316
  302TMC3     C 4549   1.023   2.243   1.376  0.7827 -0.4060  0.4059
  302TMC3     O 4550   0.910   2.281   1.412  0.6477 -0.6238 -0.0840
  302TMC3     H 4551   1.197   2.062   1.439  1.5427  0.3598 -1.2513
  302TMC3    H1 4552   0.923   2.189   1.157  0.1410  0.8154 -1.1550
  302TMC3    H2 4553   1.184   1.863   1.060 -2.5122 -2.5416  0.5668
  302TMC3    C7 4554   1.000   2.015   0.949 -0.1883 -0.3308 -0.2020
  302TMC3    C8 4555   1.304   1.855   1.285  0.0377  0.1561  0.4136
  302TMC3    O1 4556   1.059   1.935   0.876  0.5025 -0.4606 -0.1170
  302TMC3    O2 4557   1.380   1.831   1.195 -0.5324 -0.2794 -0.1159
  303MPD2     C 4558   0.607   1.075   9.816 -0.2162 -0.8029  0.7604
  303MPD2    C1 4559   0.501   1.141   9.758 -1.0979 -0.7329 -0.0738
  303MPD2    C2 4560   0.495   1.147   9.621 -0.7086  0.6384 -0.4120
  303MPD2    C3 4561   0.592   1.080   9.540 -0.5540 -0.0577 -0.1370
  303MPD2    C4 4562   0.690   1.012   9.605 -0.1502  0.2006 -0.0652
  303MPD2    C5 4563   0.699   1.007   9.741 -0.5415 -0.4910  0.3427
  303MPD2     H 4564   0.411   1.192   9.569 -1.3504 -0.1757 -0.0780
  303MPD2    H1 4565   0.772   0.977   9.544  0.6047  0.0600  1.0243
  303MPD2    H2 4566   0.614   1.073   9.925 -0.1354 -1.7093  0.7397
  303MPD2    H3 4567   0.782   0.965   9.797 -0.8767 -0.3857  0.9162
  303MPD2     N 4568   0.592   1.066   9.400 -0.4789 -0.3252  0.2044
  303MPD2    H5 4569   0.660   1.012   9.348 -2.1230 -1.1122 -1.1435
  303MPD2    N1 4570   0.404   1.210   9.843 -0.1905 -0.5915 -0.5452
  303MPD2    H7 4571   0.406   1.189   9.943  1.7084 -1.7324 -0.8179
  304TMC3    C1 4572   0.195   1.314   9.882 -0.1613  0.2725 -0.1961
  304TMC3    C2 4573   0.137   1.436   9.870  0.2734 -0.5607 -0.1519
  304TMC3    C3 4574   0.004   1.454   9.906 -0.6296 -0.2284  0.2546
  304TMC3    C4 4575   0.137   1.207   9.926  0.4038 -0.2043  0.6764
  304TMC3    C5 4576   0.010   1.234   9.975  0.1126  0.9942  0.0606
  304TMC3    C6 4577   4.667   1.358   9.970  0.4583 -0.0180  0.3489
  304TMC3     C 4578   0.310   1.298   9.791 -0.1513 -0.4019 -0.0624
  304TMC3     O 4579   0.326   1.369   9.692  0.0519  0.5763 -0.7219
  304TMC3     H 4580   0.190   1.524   9.834 -0.9408  0.2005 -0.0917
  304TMC3    H1 4581   0.177   1.110   9.899 -0.6306 -1.2208  2.7739
  304TMC3    H2 4582   4.567   1.376  10.009  0.7080 -0.3674  1.1592
  304TMC3    C7 4583   4.625   1.130   9.944  0.2740  0.1531 -0.7406
  304TMC3    C8 4584   4.643   1.517   9.804  0.1554 -0.0798 -0.4016
  304TMC3    O1 4585   4.525   1.168   9.885  0.3426 -0.9470  0.4109
  304TMC3    O2 4586   4.690   1.618   9.752 -0.2456 -0.3362 -0.7812
  305MPD2     C 4587   3.747   3.863  14.035  0.3725  0.2073 -0.6514
  305MPD2    C1 4588   3.832   3.758  14.029 -0.3540  0.2366  0.3713
  305MPD2    C2 4589   3.862   3.691  13.913  0.1391  0.4445 -0.2134
  305MPD2    C3 4590   3.787   3.723  13.801  0.0381  1.0566 -0.0955
  305MPD2    C4 4591   3.689   3.822  13.810 -0.1128 -0.3579  0.3726
  305MPD2    C5 4592   3.675   3.903  13.923 -0.2881  0.3010  0.0758
  305MPD2     H 4593   3.934   3.611  13.901 -0.4529 -0.3201  1.4121
  305MPD2    H1 4594   3.619   3.840  13.729  2.0444 -1.1927 -1.6657
  305MPD2    H2 4595   3.732   3.910  14.131 -0.1611  1.9228 -1.5842
  305MPD2    H3 4596   3.602   3.982  13.935 -2.1856 -1.1939 -1.6530
  305MPD2     N 4597   3.814   3.650  13.681  0.0159  0.0473 -0.1633
  305MPD2    H5 4598   3.906   3.607  13.672  0.9916  2.3418 -1.2286
  305MPD2    N1 4599   3.889   3.723  14.150  0.0626  0.0101 -0.1257
  305MPD2    H7 4600   3.872   3.788  14.227 -2.1885  2.0648 -2.3511
  306TMC3    C1 4601   4.008   3.616  14.322 -0.8412  0.3916  0.4179
  306TMC3    C2 4602   4.073   3.496  14.364 -0.0743 -0.0860 -0.0679
  306TMC3    C3 4603   4.099   3.491  14.495  0.0401  0.3555  0.5131
  306TMC3    C4 4604   3.953   3.701  14.410  0.0294 -0.1283 -0.4505
  306TMC3    C5 4605   4.000   3.702  14.539  0.5055  0.1986 -0.3578
  306TMC3    C6 4606   4.084   3.596  14.574  0.2928 -0.2750 -0.1941
  306TMC3     C 4607   3.975   3.612  14.177  0.3313 -0.1128 -0.0292
  306TMC3     O 4608   4.022   3.529  14.103 -0.5932 -0.7196  0.2019
  306TMC3     H 4609   4.106   3.420  14.293  0.9136 -0.6217  0.9725
  306TMC3    H1 4610   3.899   3.791  14.381 -1.4633 -2.0532 -3.6872
  306TMC3    H2 4611   4.119   3.597  14.677 -1.8504 -0.0872  0.5416
  306TMC3    C7 4612   3.907   3.732  14.647 -0.3523  0.6244  0.0489
  306TMC3    C8 4613   4.166   3.378  14.547  0.0763 -0.4478  0.0388
  306TMC3    O1 4614   3.790   3.733  14.621 -0.9894 -0.7784  0.0459
  306TMC3    O2 4615   4.220   3.309  14.467 -0.0262 -0.7231  0.1355
  307MPD2     C 4616   1.866   0.607   0.190  0.2807  0.0062 -0.1317
  307MPD2    C1 4617   1.878   0.743   0.160 -0.3087  0.7472 -0.2531
  307MPD2    C2 4618   1.849   0.833   0.263  0.4844 -0.1934 -0.3812
  307MPD2    C3 4619   1.815   0.790   0.393  0.1391  0.7122 -0.7759
  307MPD2    C4 4620   1.802   0.660   0.417 -0.8792 -1.0751 -0.4128
  307MPD2    C5 4621   1.833   0.573   0.319 -0.2947 -0.7617 -0.0640
  307MPD2     H 4622   1.873   0.937   0.242  0.4593 -0.4810 -1.8090
  307MPD2    H1 4623   1.763   0.609   0.504 -1.2699  0.9534  0.6179
  307MPD2    H2 4624   1.882   0.526   0.120 -0.9738 -0.1561 -0.2276
  307MPD2    H3 4625   1.831   0.469   0.350 -0.2168 -0.8987 -0.5215
  307MPD2     N 4626   1.775   0.887   0.487 -0.2206  0.1485 -0.4502
  307MPD2    H5 4627   1.782   0.983   0.457  0.4289  0.2804  0.1128
  307MPD2    N1 4628   1.919   0.799   0.041 -0.0755 -0.0017 -0.1198
  307MPD2    H7 4629   1.950   0.895   0.035  1.5705 -0.5334  0.0370
  308TMC3    C1 4630   1.498   1.091   0.789  0.1585 -0.5134  0.5409
  308TMC3    C2 4631   1.534   1.209   0.742  0.1535  0.3356 -0.2592
  308TMC3    C3 4632   1.658   1.218   0.678 -0.3956  0.7083 -0.0304
  308TMC3    C4 4633   1.568   0.973   0.767  0.3711  0.7100 -0.2968
  308TMC3    C5 4634   1.669   0.985   0.680 -0.3486  0.0469  0.6257
  308TMC3    C6 4635   1.719   1.102   0.635  0.5140  0.5254  0.3706
  308TMC3     C 4636   1.359   1.068   0.834 -0.5041  0.4335  0.3308
  308TMC3     O 4637   1.344   0.969   0.899  0.4367  0.0361 -0.1337
  308TMC3     H 4638   1.480   1.296   0.777 -2.6395 -1.5360  0.1028
  308TMC3    H1 4639   1.520   0.881   0.799 -0.5032  1.7539  1.3993
  308TMC3    H2 4640   1.816   1.116   0.587 -0.1120 -0.1871 -1.0846
  308TMC3    C7 4641   1.712   0.868   0.611  0.0081 -0.0628 -0.1167
  308TMC3    C8 4642   1.685   1.343   0.615 -0.3179  0.0951 -0.1529
  308TMC3    O1 4643   1.658   0.766   0.655 -0.1211 -0.3181 -0.4373
  308TMC3    O2 4644   1.586   1.413   0.618 -0.1645  0.4016 -0.3350
  309MPD2     C 4645   0.832   1.448  16.924  0.0364  0.6115 -0.0982
  309MPD2    C1 4646   0.838   1.581  16.912  0.6554  1.2054  0.2045
  309MPD2    C2 4647   0.741   1.657  16.971 -0.4548 -0.6794 -0.7010
  309MPD2    C3 4648   0.642   1.604  17.055 -0.2103  0.4891 -0.3185
  309MPD2    C4 4649   0.650   1.471  17.086 -0.5482 -0.3522  0.3267
  309MPD2    C5 4650   0.738   1.394  17.010  0.0488 -0.7626  0.0457
  309MPD2     H 4651   0.742   1.764  16.952 -1.8553 -0.8430 -1.6781
  309MPD2    H1 4652   0.581   1.425  17.156 -1.4477  1.8527  0.8919
  309MPD2    H2 4653   0.897   1.372  16.882  0.5266 -0.4984  2.6654
  309MPD2    H3 4654   0.740   1.287  17.026 -0.9144 -1.0064 -1.4022
  309MPD2     N 4655   0.537   1.666  17.113 -0.0076 -0.1351  0.5796
  309MPD2    H5 4656   0.475   1.609  17.171  0.0821  1.0640  1.8660
  309MPD2    N1 4657   0.931   1.644  16.829 -0.0459  0.0045 -0.3378
  309MPD2    H7 4658   0.915   1.742  16.808  1.7825  0.5359  0.8332
  310TMC3    C1 4659   1.096   1.666  16.656 -0.0188 -0.2541 -0.0895
  310TMC3    C2 4660   1.028   1.782  16.612  0.0760  0.3325 -0.1849
  310TMC3    C3 4661   1.083   1.842  16.505  0.0852 -0.1105  0.1231
  310TMC3    C4 4662   1.207   1.619  16.595  0.4625  0.0810  0.0752
  310TMC3    C5 4663   1.254   1.689  16.489  0.3490  0.8031 -0.3008
  310TMC3    C6 4664   1.194   1.799  16.438  0.7069  0.4836  0.5452
  310TMC3     C 4665   1.029   1.584  16.755 -0.4708 -0.1817  0.0110
  310TMC3     O 4666   1.068   1.467  16.771  0.1943 -0.2218  0.0238
  310TMC3     H 4667   0.937   1.821  16.655 -0.5408 -0.4520 -0.7769
  310TMC3    H1 4668   1.250   1.525  16.627 -2.2768 -0.5138  2.0318
  310TMC3    H2 4669   1.230   1.844  16.347  0.3129  1.3268  0.8071
  310TMC3    C7 4670   1.372   1.633  16.417 -0.1584  0.2583 -0.5433
  310TMC3    C8 4671   0.999   1.948  16.444  0.0279  0.2991  0.7242
  310TMC3    O1 4672   1.420   1.532  16.468  0.4580 -0.4029 -0.0634
  310TMC3    O2 4673   0.879   1.949  16.462  0.6470  0.1878  0.4926
  311MPD2     C 4674   3.026   3.262  12.659 -0.0548  0.7521 -1.3500
  311MPD2    C1 4675   2.996   3.388  12.711  0.6609  0.0345  0.4418
  311MPD2    C2 4676   2.890   3.405  12.790  0.0689 -0.0129 -0.3615
  311MPD2    C3 4677   2.795   3.302  12.811  0.1949  0.2207 -0.1227
  311MPD2    C4 4678   2.818   3.186  12.750  0.1209 -0.0683  0.1692
  311MPD2    C5 4679   2.940   3.161  12.691 -0.2288 -0.4704 -0.0356
  311MPD2     H 4680   2.875   3.503  12.834 -0.1688 -0.3331  0.2701
  311MPD2    H1 4681   2.754   3.099  12.762  0.4766 -0.2708  0.5858
  311MPD2    H2 4682   3.120   3.230  12.614  0.9215  2.1257 -0.2984
  311MPD2    H3 4683   2.966   3.062  12.656 -0.6606 -1.3703  2.1572
  311MPD2     N 4684   2.684   3.337  12.895  0.3352 -0.4175 -0.9592
  311MPD2    H5 4685   2.688   3.433  12.927  0.7385  0.2073 -2.8728
  311MPD2    N1 4686   3.096   3.489  12.709 -0.5070  0.6682 -0.4442
  311MPD2    H7 4687   3.068   3.565  12.770  1.6734  0.3317  0.9798
  312TMC3    C1 4688   2.478   3.331  13.002  0.1943 -0.3161  0.4070
  312TMC3    C2 4689   2.349   3.318  12.952 -0.8059  0.0460 -0.3308
  312TMC3    C3 4690   2.260   3.418  12.966 -0.3992  0.7532  0.5771
  312TMC3    C4 4691   2.506   3.444  13.070 -0.5299 -0.2667 -0.6812
  312TMC3    C5 4692   2.415   3.543  13.077 -0.2941 -0.1941  0.4842
  312TMC3    C6 4693   2.290   3.540  13.024  0.5633  0.2537 -0.3372
  312TMC3     C 4694   2.587   3.252  12.933 -0.0827 -0.2399  0.1328
  312TMC3     O 4695   2.556   3.141  12.895  0.2915  0.1929 -0.4663
  312TMC3     H 4696   2.317   3.227  12.902  1.7513 -1.1874  0.2957
  312TMC3    H1 4697   2.606   3.468  13.104  0.4207 -3.3933 -1.2640
  312TMC3    H2 4698   2.223   3.617  13.061 -1.8116 -1.9327 -0.0790
  312TMC3    C7 4699   2.427   3.639  13.182  0.2687 -0.7292  0.5230
  312TMC3    C8 4700   2.124   3.393  12.928 -0.6320  0.3598  0.9181
  312TMC3    O1 4701   2.387   3.752  13.167 -0.4270  0.1843  0.8350
  312TMC3    O2 4702   2.086   3.275  12.933 -0.0036 -0.4107 -0.3144
  313MPD2     C 4703   2.512   2.511  10.620 -0.9565 -0.3573  0.8098
  313MPD2    C1 4704   2.396   2.588  10.630 -0.1775  0.5495 -0.0586
  313MPD2    C2 4705   2.269   2.536  10.596  0.1758 -0.0255  0.1075
  313MPD2    C3 4706   2.262   2.406  10.556 -0.5160 -0.2204 -0.5581
  313MPD2    C4 4707   2.382   2.332  10.542  0.1863  0.4233  0.3378
  313MPD2    C5 4708   2.507   2.387  10.574 -0.7833  0.2574  0.1771
  313MPD2     H 4709   2.185   2.604  10.590  1.1565  1.3031  1.3419
  313MPD2    H1 4710   2.389   2.225  10.524  0.5075  0.6921 -1.2271
  313MPD2    H2 4711   2.607   2.558  10.644 -0.2188 -1.8437  0.7618
  313MPD2    H3 4712   2.594   2.323  10.566  0.0810  1.7344 -2.0675
  313MPD2     N 4713   2.140   2.361  10.492  0.4557 -0.4127  0.5960
  313MPD2    H5 4714   2.057   2.417  10.510  0.9857  1.0987 -1.6769
  313MPD2    N1 4715   2.401   2.720  10.687 -0.4827 -0.2421 -0.3777
  313MPD2    H7 4716   2.318   2.777  10.676  0.7651  1.3115 -1.9081
  314TMC3    C1 4717   2.483   2.913  10.770 -0.5393  0.8871 -0.3724
  314TMC3    C2 4718   2.504   2.962  10.892  0.5666 -0.6306  0.5107
  314TMC3    C3 4719   2.481   3.096  10.913  0.1385 -0.2682  0.1436
  314TMC3    C4 4720   2.408   2.979  10.676 -0.1160  0.5178  0.6165
  314TMC3    C5 4721   2.380   3.109  10.701  0.8195 -0.2629 -0.2452
  314TMC3    C6 4722   2.421   3.176  10.817  0.4392  0.4964  0.0380
  314TMC3     C 4723   2.509   2.772  10.757  0.4383  0.0049 -0.2267
  314TMC3     O 4724   2.610   2.719  10.799  0.4017  0.6806  0.3919
  314TMC3     H 4725   2.563   2.899  10.958 -0.7103 -0.0666  2.2165
  314TMC3    H1 4726   2.391   2.929  10.581  0.2259 -0.0339  0.8483
  314TMC3    H2 4727   2.396   3.280  10.830  1.1361  0.5817  0.6908
  314TMC3    C7 4728   2.326   3.188  10.600  0.3885 -0.0055 -0.1799
  314TMC3    C8 4729   2.534   3.176  11.024 -0.2501  0.3139 -0.4489
  314TMC3    O1 4730   2.254   3.287  10.621  0.0082 -0.1630 -0.0008
  314TMC3    O2 4731   2.460   3.256  11.083 -0.6004 -0.2218 -0.4232
  315MPD2     C 4732   2.099   1.284  17.656  0.8015  0.2612  0.5970
  315MPD2    C1 4733   2.195   1.279   0.074  0.7541  0.1974 -0.4753
  315MPD2    C2 4734   2.258   1.390   0.121 -0.1858 -0.3250  0.0188
  315MPD2    C3 4735   2.245   1.509   0.056 -0.6309 -0.1339 -0.2580
  315MPD2    C4 4736   2.146   1.518  17.637  0.1357  1.3718 -0.1422
  315MPD2    C5 4737   2.076   1.409  17.595 -0.6900 -0.9644  0.4120
  315MPD2     H 4738   2.335   1.382   0.196 -0.0169 -1.0447 -0.2277
  315MPD2    H1 4739   2.129   1.610  17.581  0.5393  0.8285 -1.1532
  315MPD2    H2 4740   2.036   1.199  17.630 -0.2507  0.5673  2.1736
  315MPD2    H3 4741   2.009   1.415  17.510  1.5058 -1.6983 -1.3898
  315MPD2     N 4742   2.320   1.616   0.101  0.4386  0.2503 -0.0580
  315MPD2    H5 4743   2.394   1.589   0.165  0.6580  0.4809 -0.2109
  315MPD2    N1 4744   2.233   1.160   0.138  1.2361  0.1626 -0.1480
  315MPD2    H7 4745   2.308   1.176   0.204  0.9306 -2.7388  0.9016
  316TMC3    C1 4746   2.399   1.842   0.119  0.7882 -0.4147  0.2759
  316TMC3    C2 4747   2.491   1.802   0.215 -0.5734 -0.1160 -0.1185
  316TMC3    C3 4748   2.586   1.898   0.252  0.2356 -0.0604  0.5666
  316TMC3    C4 4749   2.398   1.968   0.062  0.8317  0.4498  0.0209
  316TMC3    C5 4750   2.501   2.050   0.101  0.7801  0.4309 -0.3122
  316TMC3    C6 4751   2.597   2.021   0.196  0.0807 -0.3789 -0.0969
  316TMC3     C 4752   2.303   1.750   0.063 -0.0555 -0.5630 -0.3995
  316TMC3     O 4753   2.218   1.801  17.670  0.5771  0.0137  0.5663
  316TMC3     H 4754   2.467   1.716   0.277  0.4804  1.1473  2.0516
  316TMC3    H1 4755   2.315   2.003   0.001  0.7465 -0.9019 -0.6233
  316TMC3    H2 4756   2.680   2.090   0.208 -0.8381  0.5493  0.8470
  316TMC3    C7 4757   2.512   2.185   0.054 -0.0003  0.1047  0.0674
  316TMC3    C8 4758   2.695   1.862   0.343  0.0618  0.0218 -0.6634
  316TMC3    O1 4759   2.559   2.262   0.140 -0.6704 -0.1771 -0.5693
  316TMC3    O2 4760   2.758   1.954   0.385  0.1301  0.5613 -0.0625
  317MPD2     C 4761   3.806   0.674  12.684  0.3930  0.2466  0.5334
  317MPD2    C1 4762   3.905   0.578  12.653  0.2873  0.4591 -0.4499
  317MPD2    C2 4763   3.996   0.543  12.746  0.1394 -0.1930 -0.1580
  317MPD2    C3 4764   3.987   0.593  12.873  0.2557  0.4107  0.5570
  317MPD2    C4 4765   3.903   0.696  12.906 -0.1755  0.5368  0.2298
  317MPD2    C5 4766   3.816   0.739  12.808  0.4818  0.1387  0.4310
  317MPD2     H 4767   4.082   0.484  12.716  1.2271  1.1260  0.3148
  317MPD2    H1 4768   3.907   0.744  13.003  1.0077 -1.1338  0.9991
  317MPD2    H2 4769   3.743   0.714  12.606 -0.9661 -2.4675  0.2392
  317MPD2    H3 4770   3.758   0.825  12.842 -1.6512 -1.2011  0.1812
  317MPD2     N 4771   4.096   0.562  12.964  0.3215 -0.0714 -0.5390
  317MPD2    H5 4772   4.183   0.527  12.923  0.2580  0.3101 -1.0005
  317MPD2    N1 4773   3.917   0.524  12.524  0.3624 -0.7938 -0.8975
  317MPD2    H7 4774   3.986   0.452  12.506 -0.4369 -1.7975  0.1119
  318TMC3    C1 4775   4.206   0.517  13.166 -0.2103  0.1730  0.4706
  318TMC3    C2 4776   4.184   0.418  13.259  1.5333  0.4966 -0.0297
  318TMC3    C3 4777   4.294   0.350  13.300 -0.3051  0.1082  0.3522
  318TMC3    C4 4778   4.327   0.546  13.117 -0.0447 -0.5380 -0.1922
  318TMC3    C5 4779   4.430   0.478  13.162  0.1071 -0.7801 -0.2232
  318TMC3    C6 4780   4.418   0.376  13.254  0.4957 -0.1407 -0.2434
  318TMC3     C 4781   4.086   0.558  13.103 -0.1560 -0.6900  0.1866
  318TMC3     O 4782   3.981   0.567  13.170  0.4916  0.1110  0.1389
  318TMC3     H 4783   4.081   0.389  13.274  1.3463  1.1699 -0.0194
  318TMC3    H1 4784   4.334   0.619  13.037 -1.7776  0.2493  0.3812
  318TMC3    H2 4785   4.503   0.334  13.306  0.9575 -0.2817 -1.1169
  318TMC3    C7 4786   4.560   0.490  13.092  0.6234 -0.3504 -0.5579
  318TMC3    C8 4787   4.288   0.213  13.353  0.3763  0.3859 -0.6415
  318TMC3    O1 4788   4.572   0.553  12.987  0.3892 -0.1401  0.0958
  318TMC3    O2 4789   4.389   0.174  13.408 -0.2459 -0.1228  0.0312
  319MPD2     C 4790   0.214   1.531  16.952  0.0760  0.1977 -0.9735
  319MPD2    C1 4791   0.171   1.400  16.972  0.1260  0.4142 -0.1427
  319MPD2    C2 4792   0.096   1.338  16.877  0.0026  0.7925  0.2949
  319MPD2    C3 4793   0.069   1.400  16.757  0.3016 -0.1854 -0.2968
  319MPD2    C4 4794   0.114   1.523  16.731  0.3194 -0.4023 -0.3362
  319MPD2    C5 4795   0.187   1.588  16.830  0.3162 -0.3626 -0.1056
  319MPD2     H 4796   0.054   1.242  16.901  1.5373 -0.2920 -1.3731
  319MPD2    H1 4797   0.092   1.581  16.642 -2.4952 -2.0115 -0.6785
  319MPD2    H2 4798   0.271   1.586  17.027 -1.5499 -2.9903  2.5541
  319MPD2    H3 4799   0.218   1.690  16.812 -0.9791 -0.0107 -0.3245
  319MPD2     N 4800   4.696   1.346  16.666 -0.7463 -0.0431  0.0947
  319MPD2    H5 4801   4.691   1.389  16.574  0.8071  1.9331  0.9471
  319MPD2    N1 4802   0.212   1.320  17.081 -0.1555  0.0428 -0.0576
  319MPD2    H7 4803   0.172   1.227  17.083 -2.7781  1.1761  0.5353
  320TMC3    C1 4804   4.509   1.221  16.580  0.1276 -0.0190 -0.1282
  320TMC3    C2 4805   4.493   1.313  16.482  0.7006 -0.2735 -0.4578
  320TMC3    C3 4806   4.417   1.271  16.376 -0.0121  0.3055 -0.2475
  320TMC3    C4 4807   4.440   1.105  16.586 -0.0874 -0.2280  0.2102
  320TMC3    C5 4808   4.363   1.074  16.479 -0.3476 -0.0622 -0.6285
  320TMC3    C6 4809   4.352   1.152  16.368  0.5172  0.2860  0.6662
  320TMC3     C 4810   4.606   1.244  16.690 -0.5277  0.3807  0.3389
  320TMC3     O 4811   4.591   1.164  16.781 -0.7137  0.6527  0.8757
  320TMC3     H 4812   4.524   1.416  16.491  2.3561 -0.9628  1.8794
  320TMC3    H1 4813   4.463   1.033  16.664  0.5825  0.6461  0.8126
  320TMC3    H2 4814   4.306   1.111  16.279  0.2955  2.1489 -0.0628
  320TMC3    C7 4815   4.298   0.946  16.482  0.3534  0.4978 -0.0387
  320TMC3    C8 4816   4.392   1.375  16.272  0.6060 -0.5099  0.4240
  320TMC3    O1 4817   4.311   0.876  16.381  0.2273  1.1015 -0.2502
  320TMC3    O2 4818   4.382   1.494  16.307  0.4496 -0.1864  0.0361
  321TMC3    C1 4819   0.308   1.251  17.280 -0.1999 -0.4837  0.4733
  321TMC3    C2 4820   0.250   1.128  17.251  0.2601  0.1971  0.1028
  321TMC3    C3 4821   0.196   1.060  17.350 -0.4548 -0.1725 -0.5710
  321TMC3    C4 4822   0.326   1.295  17.407  0.5692  0.1697  0.1681
  321TMC3    C5 4823   0.277   1.210  17.514 -0.5237  0.0843 -0.3563
  321TMC3    C6 4824   0.194   1.105  17.477 -0.1883 -0.0661  0.0144
  321TMC3     C 4825   0.294   1.354  17.181  0.0838  1.0152 -0.0327
  321TMC3     O 4826   0.344   1.462  17.205  0.0661 -0.0744 -0.6535
  321TMC3     H 4827   0.270   1.082  17.155  0.8582  0.2105  0.2228
  321TMC3    H1 4828   0.377   1.389  17.424 -0.0467  0.6401 -0.6125
  321TMC3    H2 4829   0.165   1.033  17.552  1.3690  1.4730  2.1312
  321TMC3    C7 4830   0.380   1.154  17.602  0.4386  1.3799  0.7715
  321TMC3    C8 4831   0.243   0.921  17.350  0.0228 -0.4983  0.8590
  321TMC3    O1 4832   0.359   1.062  17.679 -0.3249  0.5682  0.3041
  321TMC3    O2 4833   0.362   0.917  17.312 -0.3148  0.0419 -0.1760
  322MPD2     C 4834   3.953   2.782  13.107  0.6312 -0.3207  0.4185
  322MPD2    C1 4835   3.853   2.763  13.206 -0.0217  0.1249 -0.0482
  322MPD2    C2 4836   3.854   2.641  13.268 -1.3540  0.2090 -0.2478
  322MPD2    C3 4837   3.947   2.540  13.228 -0.0344 -0.2911  0.5052
  322MPD2    C4 4838   4.035   2.559  13.122 -0.3518  0.7823  0.5708
  322MPD2    C5 4839   4.036   2.684  13.072  0.2759 -0.0703 -0.0143
  322MPD2     H 4840   3.781   2.610  13.342 -0.3840  0.2506  0.7308
  322MPD2    H1 4841   4.114   2.490  13.093 -0.6709  1.6084 -2.2584
  322MPD2    H2 4842   3.969   2.878  13.059  0.7745 -0.1368  0.8387
  322MPD2    H3 4843   4.116   2.705  13.001  1.1946 -1.0654  0.7333
  322MPD2     N 4844   3.937   2.412  13.303  0.2572 -0.3543  0.7877
  322MPD2    H5 4845   3.884   2.415  13.389 -1.6370 -0.3115 -0.3802
  322MPD2    N1 4846   3.792   2.876  13.272 -0.9556  0.5571 -0.2342
  322MPD2    H7 4847   3.829   2.964  13.237  4.2172 -1.2644  0.5574
  323TMC3    C1 4848   3.700   2.989  13.466 -0.3792  0.0102  0.5802
  323TMC3    C2 4849   3.804   3.072  13.435  0.5527 -0.4522 -0.0350
  323TMC3    C3 4850   3.882   3.123  13.535  0.2084 -0.0706 -0.1794
  323TMC3    C4 4851   3.685   2.947  13.594 -0.4532 -0.4694 -0.3457
  323TMC3    C5 4852   3.743   3.017  13.690  0.3882 -0.2658  0.0358
  323TMC3    C6 4853   3.840   3.112  13.669  0.1818 -0.1481 -0.3608
  323TMC3     C 4854   3.701   2.871  13.377  0.4564 -0.6462 -0.2708
  323TMC3     O 4855   3.628   2.773  13.407  0.1882  0.1640  0.3105
  323TMC3     H 4856   3.827   3.108  13.335  0.9722 -2.6180 -0.7157
  323TMC3    H1 4857   3.612   2.868  13.612 -0.2458 -0.7058 -0.5486
  323TMC3    H2 4858   3.898   3.157  13.749  0.6083 -0.0936 -0.6972
  323TMC3    C7 4859   3.714   2.975  13.821 -0.4149 -0.0244 -0.9237
  323TMC3    C8 4860   4.006   3.187  13.502 -1.0175  0.3249  0.3050
  323TMC3    O1 4861   3.672   2.861  13.842  0.1537  0.2608 -0.5848
  323TMC3    O2 4862   4.028   3.233  13.390  0.0662  0.6689  0.0053
  324MPD2     C 4863   1.159   4.549  14.495  0.1087 -0.4656  0.1475
  324MPD2    C1 4864   1.187   4.435  14.571  0.1468 -0.0750  0.5696
  324MPD2    C2 4865   1.084   4.365  14.632 -0.6258  0.6691  0.4230
  324MPD2    C3 4866   0.954   4.401  14.590  0.3892 -0.6335 -0.2030
  324MPD2    C4 4867   0.927   4.507  14.504 -0.1821  0.0134 -0.7704
  324MPD2    C5 4868   1.030   4.577  14.458  0.2494 -0.4132 -0.5543
  324MPD2     H 4869   1.089   4.284  14.704  1.5245  1.1004  0.7421
  324MPD2    H1 4870   0.830   4.546  14.476 -0.4839 -1.1286 -1.3081
  324MPD2    H2 4871   1.248   4.593  14.453 -0.5903  1.8163  1.0698
  324MPD2    H3 4872   1.015   4.669  14.404  0.2330 -0.7597 -1.1419
  324MPD2     N 4873   0.840   4.326  14.637  0.6069 -0.2016  0.3492
  324MPD2    H5 4874   0.748   4.364  14.619  1.3440  0.7745 -1.3982
  324MPD2    N1 4875   1.323   4.408  14.599 -0.0849 -0.9429 -0.4358
  324MPD2    H7 4876   1.392   4.454  14.540 -2.4546  2.7104 -0.4120
  325TMC3    C1 4877   0.706   4.152  14.711 -0.0137 -0.2197 -0.7653
  325TMC3    C2 4878   0.672   4.038  14.654 -1.0121 -0.4087 -0.0315
  325TMC3    C3 4879   0.534   4.015  14.663 -0.1253  0.8761 -0.6091
  325TMC3    C4 4880   0.623   4.244  14.758  0.7346 -0.3683 -0.3345
  325TMC3    C5 4881   0.490   4.228  14.741  0.0538  0.3793  0.0195
  325TMC3    C6 4882   0.436   4.104  14.708 -0.8179  0.4314 -0.1856
  325TMC3     C 4883   0.842   4.194  14.679 -0.2490 -0.0794  0.4529
  325TMC3     O 4884   0.933   4.113  14.687  0.3458 -0.1754 -0.2428
  325TMC3     H 4885   0.747   3.969  14.616 -1.3553 -2.1668  2.4807
  325TMC3    H1 4886   0.660   4.338  14.797  2.7340 -1.4163  0.2512
  325TMC3    H2 4887   0.331   4.080  14.697 -1.1077  0.9411  1.3569
  325TMC3    C7 4888   0.420   4.347  14.698  0.2715  0.2044 -0.0396
  325TMC3    C8 4889   0.487   3.897  14.583 -0.8170 -0.8228 -0.5988
  325TMC3    O1 4890   0.485   4.444  14.664  0.0384 -0.7976  0.5378
  325TMC3    O2 4891   0.557   3.868  14.489  0.0194  0.0503  0.1913
  326MPD2     C 4892   1.429   0.785  11.061  0.0894  0.5555 -0.0721
  326MPD2    C1 4893   1.517   0.743  10.964 -0.0592 -0.6025  0.4273
  326MPD2    C2 4894   1.647   0.768  10.975  1.0767 -0.2893  0.4895
  326MPD2    C3 4895   1.697   0.838  11.088 -0.2287 -0.3152 -0.3592
  326MPD2    C4 4896   1.608   0.880  11.185 -0.0073 -0.3624  0.1923
  326MPD2    C5 4897   1.474   0.853  11.174  0.0829  0.4497 -0.3858
  326MPD2     H 4898   1.713   0.726  10.900 -1.2592 -0.6871 -1.3499
  326MPD2    H1 4899   1.643   0.926  11.276  2.5151 -1.3607 -0.2602
  326MPD2    H2 4900   1.323   0.773  11.048  0.2303 -1.0287  0.2205
  326MPD2    H3 4901   1.406   0.883  11.253 -0.0230  1.6922 -0.9506
  326MPD2     N 4902   1.838   0.858  11.109  0.2436 -0.8412 -0.2916
  326MPD2    H5 4903   1.859   0.913  11.192  0.2786  0.3804 -1.1090
  326MPD2    N1 4904   1.481   0.686  10.841 -0.9870  0.5805  0.4728
  326MPD2    H7 4905   1.551   0.681  10.768 -1.4579  1.9412 -0.0760
  327TMC3    C1 4906   1.350   0.606  10.664 -0.3350 -0.4429 -0.0758
  327TMC3    C2 4907   1.268   0.687  10.592  1.1924  0.1292 -0.0495
  327TMC3    C3 4908   1.308   0.733  10.467  0.9811  0.0903 -0.9915
  327TMC3    C4 4909   1.477   0.578  10.618 -0.7103 -0.0709 -0.3981
  327TMC3    C5 4910   1.510   0.623  10.495 -0.6728 -0.4598  0.1718
  327TMC3    C6 4911   1.426   0.697  10.415  0.0485  0.4332  0.2905
  327TMC3     C 4912   1.357   0.653  10.801  0.2045 -0.0779  0.2860
  327TMC3     O 4913   1.251   0.656  10.858 -0.2023  0.3104 -0.2815
  327TMC3     H 4914   1.170   0.705  10.635  1.5803 -0.5475  1.1030
  327TMC3    H1 4915   1.541   0.512  10.674 -1.5338 -0.1908  0.4003
  327TMC3    H2 4916   1.451   0.731  10.315 -2.4873  0.8412 -0.1988
  327TMC3    C7 4917   1.652   0.647  10.472  0.1482 -0.1780 -0.4149
  327TMC3    C8 4918   1.239   0.850  10.420 -1.0907  0.2752 -0.0294
  327TMC3    O1 4919   1.680   0.729  10.386  0.1357 -0.0903 -0.0630
  327TMC3    O2 4920   1.195   0.926  10.501 -0.4551 -0.1153  0.0324
  328MPD2     C 4921   4.447   4.450  17.640 -0.5738  0.1940 -0.0399
  328MPD2    C1 4922   4.357   4.392  17.555 -0.0760 -0.0597 -0.4828
  328MPD2    C2 4923   4.366   4.435  17.423 -1.0132 -0.5126 -0.8338
  328MPD2    C3 4924   4.452   4.531  17.373 -0.1778  0.0349 -0.2649
  328MPD2    C4 4925   4.553   4.571  17.459 -0.4520 -0.5855  0.0317
  328MPD2    C5 4926   4.536   4.537  17.589 -0.1334 -0.2291  0.0476
  328MPD2     H 4927   4.290   4.391  17.358 -1.5776 -0.5074 -0.1833
  328MPD2    H1 4928   4.605   4.665  17.446 -1.1879  0.1802  2.6127
  328MPD2    H2 4929   4.446   4.437   0.066  2.0363 -0.5338 -0.0849
  328MPD2    H3 4930   4.598   4.594  17.658 -0.2936  1.4782 -1.2300
  328MPD2     N 4931   4.429   4.600  17.248 -0.0095 -0.3671  0.0425
  328MPD2    H5 4932   4.482   4.684  17.230 -0.4997 -0.2653 -0.9583
  328MPD2    N1 4933   4.248   4.322  17.612 -0.0707 -0.2467 -0.2091
  328MPD2    H7 4934   4.233   4.329   0.030 -1.7410 -2.0375 -0.3494
  329TMC3    C1 4935   4.024   4.258  17.621  0.0960 -0.7157 -0.2758
  329TMC3    C2 4936   3.993   4.381  17.675  0.3614 -0.2878  0.0414
  329TMC3    C3 4937   3.859   4.418  17.668 -0.6027  0.3019  0.0937
  329TMC3    C4 4938   3.937   4.174  17.568  0.3683 -0.3315 -1.1685
  329TMC3    C5 4939   3.807   4.204  17.571 -0.2820  1.4517 -0.5618
  329TMC3    C6 4940   3.770   4.323  17.628 -1.2805  0.7544  0.1972
  329TMC3     C 4941   4.147   4.258  17.545 -0.5582 -0.1190  0.0753
  329TMC3     O 4942   4.143   4.210  17.433  0.5733  0.2208  0.3367
  329TMC3     H 4943   4.069   4.441   0.041 -1.3008  0.6163  1.5625
  329TMC3    H1 4944   3.973   4.084  17.518  0.0517 -1.3929  0.5122
  329TMC3    H2 4945   3.668   4.359  17.619 -1.1106  0.7439 -1.8611
  329TMC3    C7 4946   3.709   4.140  17.491  0.5743  0.0201 -0.8300
  329TMC3    C8 4947   3.815   4.558  17.653  0.1915 -0.2697  0.2473
  329TMC3    O1 4948   3.627   4.207  17.430 -0.3380  0.2391  0.0578
  329TMC3    O2 4949   3.699   4.576  17.618 -0.0190 -0.4069 -0.0201
  330TMC3    C1 4950   2.149   4.331   9.888  0.4777 -0.7484  0.3523
  330TMC3    C2 4951   2.074   4.265   9.796 -0.5668  0.5986 -0.5402
  330TMC3    C3 4952   2.061   4.133   9.799  0.5979  0.8470 -0.4421
  330TMC3    C4 4953   2.214   4.256   9.982 -0.0151 -0.2708  0.0501
  330TMC3    C5 4954   2.204   4.114   9.982  0.2216  0.5515  0.1684
  330TMC3    C6 4955   2.123   4.053   9.891 -0.2965  0.1085  0.1045
  330TMC3     C 4956   2.152   4.477   9.900 -0.0991  0.0025 -0.9105
  330TMC3     O 4957   2.211   4.530   9.993 -0.4373 -0.1747  0.1212
  330TMC3     H 4958   2.013   4.313   9.720  0.2865  1.0244 -0.9600
  330TMC3    H1 4959   2.284   4.307  10.047  0.0354 -0.2797  0.0015
  330TMC3    H2 4960   2.119   3.945   9.884  1.1678  0.0579 -0.1295
  330TMC3    C7 4961   2.279   4.039  10.088 -0.0748 -0.6612 -0.0766
  330TMC3    C8 4962   1.984   4.077   9.692 -0.4539 -0.1812  0.4031
  330TMC3    O1 4963   2.310   4.104  10.188 -0.2392  0.2643 -0.0289
  330TMC3    O2 4964   1.964   4.151   9.597  0.0927  0.1395 -0.3637
  331MPD2     C 4965   4.460   3.162  12.594  0.7253  0.4076  0.4643
  331MPD2    C1 4966   4.578   3.234  12.566  0.6792 -0.6993 -0.1240
  331MPD2    C2 4967   4.699   3.167  12.569 -0.0198  0.1697  0.5746
  331MPD2    C3 4968   4.706   3.033  12.602 -0.1083  0.8757  0.5563
  331MPD2    C4 4969   4.585   2.968  12.642 -0.0999 -0.4026 -0.0156
  331MPD2    C5 4970   4.466   3.030  12.627  0.3962 -0.7309 -0.6436
  331MPD2     H 4971   0.068   3.221  12.541  0.3844 -1.4826 -1.2662
  331MPD2    H1 4972   4.589   2.871  12.690 -1.1611  0.1711  1.2445
  331MPD2    H2 4973   4.364   3.213  12.598 -0.3108 -1.5183 -0.0804
  331MPD2    H3 4974   4.376   2.971  12.647  0.2367 -1.0062 -2.1934
  331MPD2     N 4975   0.112   2.969  12.599  0.0892  0.4286  0.5807
  331MPD2    H5 4976   0.185   3.039  12.595  0.8831 -0.5687 -2.2971
  331MPD2    N1 4977   4.565   3.367  12.532 -0.0188  0.5562  0.1062
  331MPD2    H7 4978   4.474   3.412  12.529 -1.4908 -2.4240  0.4541
  332TMC3    C1 4979   0.275   2.801  12.610 -0.6092  0.2802 -0.0460
  332TMC3    C2 4980   0.319   2.859  12.492 -0.1401 -0.2570 -0.0409
  332TMC3    C3 4981   0.454   2.864  12.476 -0.2802 -0.2417 -0.5814
  332TMC3    C4 4982   0.363   2.759  12.714  0.3472  0.0773  0.2805
  332TMC3    C5 4983   0.498   2.771  12.688  0.3184 -0.6527 -0.4893
  332TMC3    C6 4984   0.548   2.827  12.571 -0.0758 -0.3424 -0.1901
  332TMC3     C 4985   0.141   2.844  12.657  0.8160  0.1521 -0.4009
  332TMC3     O 4986   0.073   2.767  12.729  0.5831  1.3953  0.0614
  332TMC3     H 4987   0.252   2.882  12.410  0.5745  3.0059  0.3038
  332TMC3    H1 4988   0.323   2.723  12.808  1.8922 -2.1802  0.0554
  332TMC3    H2 4989   0.653   2.841  12.548 -0.3066  1.9940  0.1989
  332TMC3    C7 4990   0.587   2.732  12.799  0.7047 -1.0883 -0.3215
  332TMC3    C8 4991   0.497   2.893  12.343  0.2220 -0.2626  0.3439
  332TMC3    O1 4992   0.546   2.660  12.891  0.3244  0.2754 -0.8623
  332TMC3    O2 4993   0.422   2.868  12.248 -0.2293  0.0618  0.6417
  333MPD2     C 4994   0.476   3.255  11.301  0.5089  0.0013 -0.2558
  333MPD2    C1 4995   0.565   3.152  11.314 -0.1444 -0.6007 -0.1234
  333MPD2    C2 4996   0.514   3.022  11.313  0.1188  0.2399  0.7840
  333MPD2    C3 4997   0.379   2.988  11.337 -0.4791  0.1874 -0.3994
  333MPD2    C4 4998   0.291   3.095  11.320 -0.5520  0.4601  0.0617
  333MPD2    C5 4999   0.343   3.225  11.301  0.1621 -0.4116 -0.1750
  333MPD2     H 5000   0.580   2.937  11.326 -0.8784 -0.4993  1.0709
  333MPD2    H1 5001   0.183   3.080  11.322 -0.4522 -0.1227  0.8844
  333MPD2    H2 5002   0.503   3.359  11.287 -0.6941  0.1201 -1.8027
  333MPD2    H3 5003   0.280   3.309  11.278 -0.5690 -0.6316  1.0190
  333MPD2     N 5004   0.341   2.856  11.368  0.1621  0.2157  0.1610
  333MPD2    H5 5005   0.409   2.784  11.386  0.3244  0.1453 -0.7632
  333MPD2    N1 5006   0.699   3.189  11.306 -0.0312  0.1117  0.2766
  333MPD2    H7 5007   0.724   3.286  11.324  0.6204  0.2647 -1.4901
  334TMC3    C1 5008   0.932   3.167  11.299 -0.6810  0.0950 -0.4568
  334TMC3    C2 5009   1.045   3.088  11.296 -0.0743 -0.2622  0.2441
  334TMC3    C3 5010   1.171   3.150  11.303  0.3978  0.0775 -0.0133
  334TMC3    C4 5011   0.942   3.304  11.289 -0.9002 -0.5079 -0.5674
  334TMC3    C5 5012   1.068   3.362  11.303 -0.4134  0.3983 -0.5959
  334TMC3    C6 5013   1.180   3.286  11.305 -0.1746 -0.1053  0.8435
  334TMC3     C 5014   0.802   3.100  11.301  0.2662  0.0417  0.1102
  334TMC3     O 5015   0.806   2.978  11.312 -0.2262 -0.0277  0.7327
  334TMC3     H 5016   1.030   2.980  11.299 -2.3051  0.0345 -0.5651
  334TMC3    H1 5017   0.857   3.371  11.301 -0.4579 -0.3798  1.8113
  334TMC3    H2 5018   1.278   3.332  11.306 -0.0702 -0.3386  1.5540
  334TMC3    C7 5019   1.083   3.502  11.274  1.3648 -0.7861 -0.9613
  334TMC3    C8 5020   1.291   3.078  11.285  0.5119 -0.8928 -0.3086
  334TMC3    O1 5021   1.186   3.558  11.312  0.1178  0.0247  0.5664
  334TMC3    O2 5022   1.300   2.959  11.317  0.0038  0.1412 -0.2024
  335TMC3    C1 5023   0.369   0.422  17.188 -0.5631 -0.4501 -0.6317
  335TMC3    C2 5024   0.294   0.317  17.233  0.5968 -0.0267  0.5755
  335TMC3    C3 5025   0.359   0.205  17.279  0.4569  0.2562 -0.1909
  335TMC3    C4 5026   0.500   0.409  17.186  0.4362  0.7604  0.2036
  335TMC3    C5 5027   0.565   0.301  17.233 -0.3445  0.1567 -0.3327
  335TMC3    C6 5028   0.491   0.190  17.260 -0.2239 -0.1316  0.0019
  335TMC3     C 5029   0.312   0.550  17.138 -0.1860  0.2750  0.0687
  335TMC3     O 5030   0.396   0.639  17.111  0.0673 -0.5644  0.0454
  335TMC3     H 5031   0.186   0.323  17.242  0.5258  0.7724 -0.9480
  335TMC3    H1 5032   0.561   0.490  17.147  1.5397 -0.8195 -1.3345
  335TMC3    H2 5033   0.541   0.102  17.299 -2.0327 -0.5346  1.4196
  335TMC3    C7 5034   0.706   0.283  17.252 -0.6364 -0.4619  0.5242
  335TMC3    C8 5035   0.284   0.124  17.372 -1.1101 -0.2757 -0.3343
  335TMC3    O1 5036   0.738   0.166  17.250  0.2316  0.0341 -0.0565
  335TMC3    O2 5037   0.182   0.182  17.408 -0.0510  0.6892  0.2290
  336MPD2     C 5038   4.599   2.840  16.116 -0.6087  0.4086  0.0836
  336MPD2    C1 5039   4.560   2.761  16.010 -0.3434  0.5660 -0.3130
  336MPD2    C2 5040   4.601   2.627  16.004  0.0083  0.3430  0.3825
  336MPD2    C3 5041   4.687   2.574  16.101  0.2734 -0.1753 -0.4801
  336MPD2    C4 5042   0.011   2.654  16.202 -0.3436  0.1721  0.2352
  336MPD2    C5 5043   4.678   2.779  16.209  0.8945  0.9063 -0.0691
  336MPD2     H 5044   4.568   2.562  15.924 -0.0326 -0.4536  1.0521
  336MPD2    H1 5045   0.073   2.612  16.281 -0.1732  0.1347  0.0792
  336MPD2    H2 5046   4.563   2.942  16.128 -1.4329  0.3692 -1.9621
  336MPD2    H3 5047   4.698   2.836  16.299  0.4932  1.1289 -0.1200
  336MPD2     N 5048   0.005   2.436  16.106  0.0740  0.0716 -0.7529
  336MPD2    H5 5049   0.046   2.399  16.192 -0.9435 -0.0274 -0.3077
  336MPD2    N1 5050   4.490   2.813  15.903 -0.0430 -0.8197  0.5723
  336MPD2    H7 5051   4.495   2.765  15.813 -0.5038 -1.0886  0.6927
  337TMC3    C1 5052   4.375   2.953  15.778 -0.2335 -0.4566 -0.1186
  337TMC3    C2 5053   4.237   2.978  15.765 -0.1906 -0.0880 -0.0841
  337TMC3    C3 5054   4.195   3.043  15.651  0.2224  0.9174 -0.1147
  337TMC3    C4 5055   4.464   3.003  15.693 -0.1643  0.0863  0.4785
  337TMC3    C5 5056   4.420   3.086  15.598 -0.0434 -0.3486  0.2721
  337TMC3    C6 5057   4.287   3.095  15.566 -0.3626 -0.1380  0.5036
  337TMC3     C 5058   4.414   2.927  15.913  0.1650 -0.1820 -0.8240
  337TMC3     O 5059   4.377   2.994  16.008  0.8625  0.3463  0.5222
  337TMC3     H 5060   4.163   2.949  15.839 -1.5529  1.3351 -0.8794
  337TMC3    H1 5061   4.567   3.007  15.727 -1.3002  1.0808  3.8160
  337TMC3    H2 5062   4.252   3.157  15.483  0.9902  1.8826  1.4340
  337TMC3    C7 5063   4.504   3.127  15.488 -0.1088  0.1208 -0.2008
  337TMC3    C8 5064   4.049   3.055  15.630 -0.6636 -0.7380 -0.1240
  337TMC3    O1 5065   4.599   3.053  15.460  0.3144  0.4129  0.0228
  337TMC3    O2 5066   3.977   3.044  15.732 -0.9291  0.5715 -0.2961
  338MPD2     C 5067   0.381   1.905   1.016 -0.0635  0.0864 -0.0416
  338MPD2    C1 5068   0.343   1.864   0.893 -0.5727  0.5491 -0.0242
  338MPD2    C2 5069   0.210   1.858   0.857  0.5571  0.0812 -0.0818
  338MPD2    C3 5070   0.110   1.883   0.948 -0.2686  0.0873  0.5569
  338MPD2    C4 5071   0.154   1.929   1.073 -0.5778 -0.3091  0.0127
  338MPD2    C5 5072   0.284   1.936   1.103  0.5887 -0.0539  0.1744
  338MPD2     H 5073   0.191   1.823   0.756 -2.4798  1.7495 -0.1221
  338MPD2    H1 5074   0.075   1.960   1.140 -1.1130 -0.9602 -0.3153
  338MPD2    H2 5075   0.486   1.900   1.045  0.6530 -0.2226 -2.6833
  338MPD2    H3 5076   0.313   1.970   1.201 -0.1838 -1.3705  0.8546
  338MPD2     N 5077   4.695   1.855   0.910 -0.0185  0.7090  0.0047
  338MPD2    H5 5078   4.682   1.826   0.814 -0.1220 -2.5648  1.0322
  338MPD2    N1 5079   0.432   1.821   0.792 -0.3593  0.3075  0.4139
  338MPD2    H7 5080   0.396   1.814   0.697  0.6854  1.8211 -0.0967
  339TMC3    C1 5081   4.458   1.816   0.935 -0.6625  0.3197 -0.1063
  339TMC3    C2 5082   4.441   1.677   0.934  0.4839  0.6111  0.3004
  339TMC3    C3 5083   4.396   1.623   0.813  0.0175  0.2898 -0.0076
  339TMC3    C4 5084   4.426   1.896   0.832  0.1962 -0.3550 -0.0743
  339TMC3    C5 5085   4.391   1.834   0.718  0.4484  0.2099  0.3243
  339TMC3    C6 5086   4.378   1.697   0.698  0.1129  0.3724  0.2219
  339TMC3     C 5087   4.584   1.860   0.996 -0.5239  0.1077  0.6883
  339TMC3     O 5088   4.589   1.867   1.118  0.2666  0.0872 -0.4215
  339TMC3     H 5089   4.480   1.624   1.020  1.7828 -0.8772 -1.2194
  339TMC3    H1 5090   4.455   2.000   0.825 -0.6655 -0.1039  0.0914
  339TMC3    H2 5091   4.357   1.647   0.604  1.9614 -2.0333  1.1064
  339TMC3    C7 5092   4.443   1.912   0.603  0.6122 -0.2692  0.8967
  339TMC3    C8 5093   4.440   1.489   0.793  0.1805 -0.3531 -0.1529
  339TMC3    O1 5094   4.449   2.032   0.608 -0.1174 -0.0152  0.7671
  339TMC3    O2 5095   4.502   1.464   0.687  0.2632  0.2985 -0.4636
  340MPD2     C 5096   4.566   4.567   9.467  0.0385 -0.5261  0.4198
  340MPD2    C1 5097   4.631   4.475   9.550 -1.3141 -0.0874  0.0928
  340MPD2    C2 5098   4.716   4.523   9.648  0.0054 -0.2545 -0.2754
  340MPD2    C3 5099   4.713   4.661   9.679 -0.2737  0.3969  0.0210
  340MPD2    C4 5100   4.628   0.023   9.608  0.2274 -0.3686 -0.1283
  340MPD2    C5 5101   4.566   4.696   9.498 -0.4152 -0.1993 -0.5763
  340MPD2     H 5102   0.069   4.456   9.693  0.4618  1.4491  1.5493
  340MPD2    H1 5103   4.611   0.126   9.636 -0.0940 -0.1403 -1.1766
  340MPD2    H2 5104   4.496   4.532   9.392 -0.6101 -1.8287  1.6172
  340MPD2    H3 5105   4.504   0.038   9.435 -0.7975 -0.7355 -0.7264
  340MPD2     N 5106   0.073   0.003   9.784 -0.0242  0.4470  0.0186
  340MPD2    H5 5107   0.077   0.104   9.797 -0.8461  0.7009 -1.6401
  340MPD2    N1 5108   4.618   4.340   9.515  0.4570  0.0550 -0.4040
  340MPD2    H7 5109   4.577   4.333   9.422 -4.0409 -0.7366  1.6383
  341TMC3    C1 5110   4.674   4.116   9.507 -0.6535 -0.0016 -0.3496
  341TMC3    C2 5111   4.694   4.013   9.589  0.1903 -0.3504 -0.0278
  341TMC3    C3 5112   0.079   3.922   9.568  0.4162  0.5738  0.3483
  341TMC3    C4 5113   0.038   4.135   9.405  0.2981 -0.3816  0.0631
  341TMC3    C5 5114   0.140   4.050   9.381 -0.0677 -0.0640  0.3312
  341TMC3    C6 5115   0.152   3.933   9.453  0.8968  0.9178  0.7059
  341TMC3     C 5116   4.662   4.237   9.585 -0.0112  0.0872  0.0833
  341TMC3     O 5117   4.710   4.235   9.703 -0.3804  0.0215 -0.2145
  341TMC3     H 5118   4.629   4.012   9.675 -0.2784 -2.2471 -0.4172
  341TMC3    H1 5119   0.054   4.234   9.364 -1.8106 -0.5987 -1.2736
  341TMC3    H2 5120   0.234   3.865   9.433  1.0504  0.8653  1.5151
  341TMC3    C7 5121   0.264   4.106   9.330 -0.4092 -0.4520 -0.1623
  341TMC3    C8 5122   0.085   3.806   9.656 -0.4444 -0.2299 -0.0961
  341TMC3    O1 5123   0.375   4.059   9.365 -0.0651 -0.5462  0.0693
  341TMC3    O2 5124   4.719   3.803   9.747  0.1525 -0.2796 -0.3508
  342MPD2     C 5125   3.038   2.690   0.224 -0.0199  0.7213  0.2897
  342MPD2    C1 5126   3.119   2.733   0.115  0.3169 -0.6241  0.3010
  342MPD2    C2 5127   3.150   2.866   0.105  0.0547  0.2324 -0.0789
  342MPD2    C3 5128   3.098   2.957   0.198 -0.0250 -0.3586  0.4748
  342MPD2    C4 5129   3.021   2.912   0.301  0.5608 -0.1389 -0.1581
  342MPD2    C5 5130   2.987   2.780   0.311  0.5878 -0.0845 -0.5994
  342MPD2     H 5131   3.213   2.898   0.023 -0.0770 -0.0958 -0.3054
  342MPD2    H1 5132   2.981   2.974   0.380 -2.1993 -0.6216 -1.1425
  342MPD2    H2 5133   3.028   2.584   0.244 -0.6226  0.7801  0.2982
  342MPD2    H3 5134   2.927   2.747   0.395 -3.0081 -0.5498 -3.3502
  342MPD2     N 5135   3.136   3.085   0.182 -0.5728 -0.5549  0.1764
  342MPD2    H5 5136   3.205   3.105   0.111  0.9328 -2.4636  1.0891
  342MPD2    N1 5137   3.178   2.645   0.022 -0.3807 -0.1466  0.3005
  342MPD2    H7 5138   3.260   2.676  17.652  0.4163 -1.8440  0.5592
  343TMC3    C1 5139   3.201   2.465  17.552 -0.4298  0.8159  0.2633
  343TMC3    C2 5140   3.236   2.555  17.450  0.3272  0.4139 -0.1800
  343TMC3    C3 5141   3.280   2.511  17.332  0.9638 -0.3972 -0.1831
  343TMC3    C4 5142   3.186   2.333  17.522  0.1764  0.6619 -0.0558
  343TMC3    C5 5143   3.226   2.294  17.395 -0.1971  0.2886  0.6363
  343TMC3    C6 5144   3.267   2.377  17.291  0.4477  0.1502 -0.8104
  343TMC3     C 5145   3.157   2.510   0.001  0.3804  0.8353  0.0447
  343TMC3     O 5146   3.084   2.427   0.057 -0.4947  0.0917 -0.4371
  343TMC3     H 5147   3.244   2.660  17.476  1.2036  0.1658  0.5513
  343TMC3    H1 5148   3.146   2.260  17.592 -1.1763  1.3309 -0.1201
  343TMC3    H2 5149   3.290   2.344  17.190 -1.1603 -0.7634 -0.8714
  343TMC3    C7 5150   3.187   2.159  17.357  0.5262 -0.2329  0.3828
  343TMC3    C8 5151   3.360   2.601  17.250 -0.0448 -0.8476  0.1270
  343TMC3    O1 5152   3.137   2.145  17.244  0.5825  0.1683 -0.0950
  343TMC3    O2 5153   3.362   2.714  17.300  0.0740  0.0281 -0.1639
  344MPD2     C 5154   4.366   2.278  10.686 -0.4398 -0.0528 -0.4626
  344MPD2    C1 5155   4.241   2.335  10.668  0.1365  0.4437  0.0248
  344MPD2    C2 5156   4.226   2.455  10.615 -0.2644 -0.0409 -0.3442
  344MPD2    C3 5157   4.340   2.530  10.573  0.0889 -0.6270 -0.7649
  344MPD2    C4 5158   4.460   2.467  10.573  0.5075 -0.0966  0.0337
  344MPD2    C5 5159   4.469   2.341  10.627  0.9135  0.2860 -0.1045
  344MPD2     H 5160   4.125   2.492  10.606 -1.2051 -2.0418  2.0562
  344MPD2    H1 5161   4.551   2.517  10.541  1.5771 -1.1584  1.4819
  344MPD2    H2 5162   4.391   2.176  10.712 -0.0563 -0.0727 -0.9032
  344MPD2    H3 5163   4.566   2.292  10.627 -0.2504 -1.9966  1.1873
  344MPD2     N 5164   4.341   2.663  10.527  0.2841 -1.1723  0.2291
  344MPD2    H5 5165   4.427   2.705  10.496 -0.0598 -1.4075 -1.0875
  344MPD2    N1 5166   4.122   2.261  10.690  0.8630  0.7477 -0.0590
  344MPD2    H7 5167   4.039   2.309  10.658 -0.2119 -1.4379 -0.5183
  345TMC3    C1 5168   4.272   2.862  10.443  0.2354  0.4308  0.2800
  345TMC3    C2 5169   4.374   2.931  10.508  0.4309 -0.0766  0.0298
  345TMC3    C3 5170   4.401   3.057  10.467  0.5269  1.1114 -0.3025
  345TMC3    C4 5171   4.193   2.931  10.351  0.4228  0.2335  0.0367
  345TMC3    C5 5172   4.223   3.057  10.321 -0.4905 -0.1497  0.2775
  345TMC3    C6 5173   4.327   3.126  10.378  0.2313 -0.2207 -0.0455
  345TMC3     C 5174   4.227   2.728  10.489 -0.3236 -0.0926 -0.3409
  345TMC3     O 5175   4.107   2.695  10.492  0.1932 -0.1642  0.2250
  345TMC3     H 5176   4.434   2.888  10.587  0.7619  2.1628  1.0125
  345TMC3    H1 5177   4.119   2.873  10.298  0.7888 -2.3678  2.3451
  345TMC3    H2 5178   4.364   3.220  10.337  1.4110 -0.5991  0.1441
  345TMC3    C7 5179   4.137   3.140  10.246 -1.0596  0.1652 -0.7304
  345TMC3    C8 5180   4.497   3.125  10.553  0.1446 -0.0099 -0.0428
  345TMC3    O1 5181   4.184   3.251  10.217 -0.3459  0.1872  0.2703
  345TMC3    O2 5182   4.579   3.060  10.615  0.0200  0.0939 -0.2625
  346MPD2     C 5183   3.855   4.369  14.178  0.4722  0.3681 -0.8544
  346MPD2    C1 5184   3.978   4.420  14.162  0.2733 -0.5323 -0.0129
  346MPD2    C2 5185   4.058   4.443  14.272  0.0084 -0.1578 -0.0083
  346MPD2    C3 5186   4.015   4.423  14.399 -0.5249 -0.0709  0.1169
  346MPD2    C4 5187   3.892   4.360  14.411  0.4527  0.6591 -0.2582
  346MPD2    C5 5188   3.812   4.330  14.304 -0.5000  0.1075 -0.1027
  346MPD2     H 5189   4.146   4.505  14.264  0.3120 -0.6009 -0.1444
  346MPD2    H1 5190   3.835   4.332  14.499 -0.2119 -0.3293 -1.0098
  346MPD2    H2 5191   3.789   4.336  14.098 -0.2904 -0.1221 -0.0188
  346MPD2    H3 5192   3.726   4.266  14.322 -0.9232  0.3610 -1.1675
  346MPD2     N 5193   4.095   4.455  14.507  0.0093  0.2839 -0.0118
  346MPD2    H5 5194   4.190   4.486  14.491 -0.6572  1.6950 -1.2622
  346MPD2    N1 5195   4.028   4.466  14.036 -0.4557 -0.0928  0.2046
  346MPD2    H7 5196   4.128   4.482  14.034 -0.4143 -0.5907 -1.5009
  347TMC3    C1 5197   4.155   4.499  14.736  0.1039 -0.4381  0.1499
  347TMC3    C2 5198   4.285   4.464  14.721 -0.3925 -0.3154  0.2207
  347TMC3    C3 5199   4.359   4.474  14.834 -0.3296 -0.4850  0.0803
  347TMC3    C4 5200   4.098   4.542  14.858  0.4364 -0.0243 -0.3340
  347TMC3    C5 5201   4.183   4.547  14.966 -0.6839 -0.1192 -0.2546
  347TMC3    C6 5202   4.317   4.521  14.951 -0.1617  0.9706  0.9939
  347TMC3     C 5203   4.052   4.459  14.637 -0.4690 -0.6531 -0.1386
  347TMC3     O 5204   3.938   4.442  14.676  0.4137 -0.2055 -0.3711
  347TMC3     H 5205   4.334   4.412  14.639 -1.4453 -0.7251 -0.1506
  347TMC3    H1 5206   3.992   4.551  14.875  0.0468 -1.0720 -2.2108
  347TMC3    H2 5207   4.375   4.520  15.042  2.0090  0.2031 -0.3933
  347TMC3    C7 5208   4.123   4.615  15.083  0.3579  0.1073  0.4777
  347TMC3    C8 5209   4.495   4.452  14.822 -0.0525 -0.4211  0.3190
  347TMC3    O1 5210   4.003   4.603  15.087 -0.2838  0.1332  0.4749
  347TMC3    O2 5211   4.548   4.387  14.912 -0.1897 -0.1679  0.1362
  348MPD2     C 5212   2.540   4.111  12.240  0.6297  0.8253  0.4897
  348MPD2    C1 5213   2.644   4.175  12.180  0.5049 -0.7242 -0.1605
  348MPD2    C2 5214   2.612   4.267  12.081  0.3742 -0.7781  0.1925
  348MPD2    C3 5215   2.481   4.289  12.042  0.5082  0.2932  0.1346
  348MPD2    C4 5216   2.375   4.219  12.095 -0.0494 -0.5070  0.5536
  348MPD2    C5 5217   2.410   4.142  12.202 -0.2355  0.3744  0.2923
  348MPD2     H 5218   2.695   4.328  12.046 -0.2921 -0.5319 -0.9502
  348MPD2    H1 5219   2.268   4.229  12.084 -0.0357 -0.8165  0.1411
  348MPD2    H2 5220   2.564   4.039  12.317 -0.7572  0.3657  0.4757
  348MPD2    H3 5221   2.329   4.082  12.241 -0.7241  1.4724  0.9764
  348MPD2     N 5222   2.459   4.390  11.939  0.0235 -0.2398 -0.5797
  348MPD2    H5 5223   2.533   4.453  11.910 -0.9385  0.8116 -0.7221
  348MPD2    N1 5224   2.777   4.149  12.212 -0.3738 -0.4938  0.3387
  348MPD2    H7 5225   2.848   4.209  12.171 -0.3896  1.1220  2.6522
  349TMC3    C1 5226   2.973   4.056  12.301  0.3867  0.0321 -0.0387
  349TMC3    C2 5227   3.019   3.933  12.310 -0.1753  0.3090 -0.1304
  349TMC3    C3 5228   3.116   3.895  12.220 -0.7131 -0.6334 -0.1982
  349TMC3    C4 5229   3.033   4.151  12.222  0.7371  0.0207 -0.0751
  349TMC3    C5 5230   3.113   4.107  12.115 -0.7475  0.1944 -0.5475
  349TMC3    C6 5231   3.148   3.980  12.114 -0.3954 -0.0874  0.3571
  349TMC3     C 5232   2.826   4.049  12.293  0.3271 -0.1163 -0.0038
  349TMC3     O 5233   2.766   3.960  12.351  0.0936  0.9687  0.0245
  349TMC3     H 5234   2.954   3.860  12.357 -1.5206  1.2726 -0.5258
  349TMC3    H1 5235   2.999   4.251  12.245 -0.6618  0.1869 -2.9338
  349TMC3    H2 5236   3.219   3.939  12.042 -0.8624 -1.0222  0.4250
  349TMC3    C7 5237   3.066   4.146  11.988 -1.2244  0.6880 -0.2430
  349TMC3    C8 5238   3.154   3.752  12.233 -0.6735 -0.3820 -0.6576
  349TMC3    O1 5239   3.055   4.059  11.902 -0.4690 -0.0242  0.9086
  349TMC3    O2 5240   3.086   3.694  12.322 -0.1454  0.4819 -0.0688
  350MPD2     C 5241   1.801   1.638   9.765 -1.0804  0.1093 -0.5496
  350MPD2    C1 5242   1.811   1.580   9.891 -0.5404 -0.7002 -0.3085
  350MPD2    C2 5243   1.847   1.669   9.993 -0.0691  0.3661 -0.5369
  350MPD2    C3 5244   1.876   1.803   9.968  0.5091  1.0888  0.8192
  350MPD2    C4 5245   1.881   1.853   9.844  0.8602 -0.6920 -0.1446
  350MPD2    C5 5246   1.838   1.766   9.746 -0.0388 -0.0260 -0.3083
  350MPD2     H 5247   1.848   1.636  10.097  1.1757  2.1241  0.0136
  350MPD2    H1 5248   1.893   1.959   9.821 -3.3006  0.6866  4.0248
  350MPD2    H2 5249   1.762   1.585   9.678  3.6687  1.3308 -3.4182
  350MPD2    H3 5250   1.834   1.800   9.644  0.4028  0.2376 -0.2371
  350MPD2     N 5251   1.887   1.889  10.079  0.3388 -0.5299 -0.1947
  350MPD2    H5 5252   1.877   1.850  10.173 -1.9666 -1.3794 -0.7991
  350MPD2    N1 5253   1.785   1.450   9.926 -0.0785 -0.0226 -0.0054
  350MPD2    H7 5254   1.804   1.445  10.025 -1.3465 -1.6215  0.1629
  351TMC3    C1 5255   1.766   1.220   9.908 -0.0990 -0.2932  0.3367
  351TMC3    C2 5256   1.899   1.202   9.951  0.0767  0.3698 -0.2332
  351TMC3    C3 5257   1.955   1.082   9.932  0.7788 -0.7151  0.6434
  351TMC3    C4 5258   1.704   1.121   9.832 -0.1394 -0.4753  0.0030
  351TMC3    C5 5259   1.764   0.996   9.813  0.3785 -0.2254  0.3331
  351TMC3    C6 5260   1.889   0.980   9.865  0.0786 -0.1004  0.0931
  351TMC3     C 5261   1.752   1.349   9.846  0.2080 -0.2361 -1.3610
  351TMC3     O 5262   1.702   1.354   9.734  0.0753  0.0119  0.5380
  351TMC3     H 5263   1.945   1.282  10.008  1.1035  0.7396 -1.5670
  351TMC3    H1 5264   1.608   1.144   9.787  0.5457  1.9817 -0.2157
  351TMC3    H2 5265   1.928   0.879   9.869 -1.6819 -0.8680 -1.5822
  351TMC3    C7 5266   1.741   0.930   9.691  0.1090 -0.2623  0.3004
  351TMC3    C8 5267   2.062   1.054  10.026 -0.1568 -0.3318 -0.4480
  351TMC3    O1 5268   1.837   0.883   9.633 -0.7465  0.5291  0.4193
  351TMC3    O2 5269   2.064   1.123  10.125  0.6483 -0.0072  0.0905
  352MPD2     C 5270   0.649   3.715   1.218  0.3018 -0.3805  0.5672
  352MPD2    C1 5271   0.536   3.636   1.260 -0.0264  0.2450  0.4712
  352MPD2    C2 5272   0.564   3.502   1.286  0.2261  0.2757  0.2160
  352MPD2    C3 5273   0.695   3.448   1.279  0.7431 -0.5192  0.2248
  352MPD2    C4 5274   0.796   3.533   1.238 -0.1636  0.0387  0.0903
  352MPD2    C5 5275   0.782   3.668   1.211 -0.1239  0.0644 -0.6242
  352MPD2     H 5276   0.485   3.441   1.328  0.9683 -0.2339  0.8699
  352MPD2    H1 5277   0.899   3.499   1.231 -0.6954 -1.6588  0.5718
  352MPD2    H2 5278   0.635   3.819   1.192 -2.1074 -1.8054 -3.9088
  352MPD2    H3 5279   0.859   3.732   1.170 -0.6009 -1.4451 -3.9189
  352MPD2     N 5280   0.724   3.312   1.295  0.5211 -0.7369 -0.8072
  352MPD2    H5 5281   0.822   3.289   1.282  1.5316  2.0881  1.9763
  352MPD2    N1 5282   0.414   3.696   1.249 -0.7416  0.0018  0.5838
  352MPD2    H7 5283   0.419   3.794   1.221  1.2412 -0.3187 -0.2185
  353TMC3    C1 5284   0.679   3.076   1.297 -0.7217 -0.6172  0.8556
  353TMC3    C2 5285   0.809   3.046   1.326  0.2145  0.2735 -0.1365
  353TMC3    C3 5286   0.840   2.912   1.323 -0.7645  0.0319  0.2603
  353TMC3    C4 5287   0.580   2.978   1.279  0.2021  0.6402 -0.6750
  353TMC3    C5 5288   0.622   2.853   1.263 -0.1682 -0.2566 -0.2643
  353TMC3    C6 5289   0.749   2.814   1.280  0.3562  0.8478 -0.1438
  353TMC3     C 5290   0.628   3.212   1.307  0.6353 -0.5346 -0.2669
  353TMC3     O 5291   0.509   3.223   1.288  0.5322  0.4486 -0.1049
  353TMC3     H 5292   0.869   3.125   1.370 -0.6875  0.2487  1.1294
  353TMC3    H1 5293   0.475   3.003   1.271  0.4363  1.5565 -0.8777
  353TMC3    H2 5294   0.771   2.713   1.250  1.0274  1.0026 -0.1727
  353TMC3    C7 5295   0.520   2.750   1.233 -0.4288  0.3404 -0.1638
  353TMC3    C8 5296   0.971   2.881   1.382 -0.3901 -0.1417  0.1930
  353TMC3    O1 5297   0.561   2.635   1.221 -0.1123  1.0125  0.6033
  353TMC3    O2 5298   1.066   2.956   1.351  0.1354 -0.0702 -0.1716
  354TMC3    C1 5299   2.064   0.378  13.375 -0.8246  0.3354  0.6965
  354TMC3    C2 5300   2.001   0.480  13.311 -0.0760 -1.2548 -0.3787
  354TMC3    C3 5301   2.012   0.486  13.176 -0.6355 -0.0244 -0.0568
  354TMC3    C4 5302   2.165   0.300  13.320  0.6615 -0.4628  0.2220
  354TMC3    C5 5303   2.176   0.313  13.185  0.4001 -0.5634  0.2813
  354TMC3    C6 5304   2.111   0.407  13.113  0.9287 -0.1839  0.3243
  354TMC3     C 5305   2.025   0.348  13.510 -0.0287 -1.1810 -0.4682
  354TMC3     O 5306   1.910   0.306  13.529 -0.1286  0.0719 -0.2237
  354TMC3     H 5307   1.917   0.528  13.361  1.5679  0.0490  1.1387
  354TMC3    H1 5308   2.205   0.214  13.372  1.3156 -0.4823 -0.3206
  354TMC3    H2 5309   2.118   0.414  13.005 -2.0634 -1.2152  0.0586
  354TMC3    C7 5310   2.286   0.244  13.127 -0.4370 -0.3132  0.0914
  354TMC3    C8 5311   1.983   0.607  13.110  0.2839  0.4215  0.6976
  354TMC3    O1 5312   2.315   0.131  13.165  0.4424  0.2167  0.4908
  354TMC3    O2 5313   2.047   0.619  13.008 -0.6144 -0.1573 -0.7933
  355MPD2     C 5314   1.919   1.654  11.792 -0.0844  0.2665  0.1998
  355MPD2    C1 5315   1.938   1.676  11.663 -0.1704  1.1913 -0.4028
  355MPD2    C2 5316   2.067   1.665  11.618  0.5637 -0.1206  0.2167
  355MPD2    C3 5317   2.179   1.640  11.695 -0.0422  0.4892 -0.7026
  355MPD2    C4 5318   2.144   1.606  11.827  0.5893 -0.3441 -0.3041
  355MPD2    C5 5319   2.018   1.617  11.881 -0.4565 -0.2195  0.0194
  355MPD2     H 5320   2.083   1.669  11.511  0.5343 -2.3006  0.1313
  355MPD2    H1 5321   2.220   1.582  11.901  0.6290 -0.4936 -0.3926
  355MPD2    H2 5322   1.819   1.667  11.831 -0.0909 -1.4076  0.7489
  355MPD2    H3 5323   1.995   1.600  11.985  1.5008 -0.1928  0.4537
  355MPD2     N 5324   2.311   1.630  11.649  0.4198 -0.5070  0.6182
  355MPD2    H5 5325   2.384   1.623  11.719  0.1706  0.7275  0.9933
  355MPD2    N1 5326   1.827   1.720  11.586 -0.5131 -0.0399 -0.3835
  355MPD2    H7 5327   1.735   1.697  11.623 -0.5977  0.4485 -0.2880
  356TMC3    C1 5328   2.502   1.701  11.521 -0.2160 -0.1059 -0.1876
  356TMC3    C2 5329   2.545   1.750  11.401 -0.4017 -0.1820  0.1088
  356TMC3    C3 5330   2.667   1.813  11.401  0.2038 -0.7609 -1.0286
  356TMC3    C4 5331   2.578   1.704  11.633  0.0786  0.4911 -0.4606
  356TMC3    C5 5332   2.702   1.762  11.624 -0.3773  0.2124 -0.2659
  356TMC3    C6 5333   2.747   1.825  11.506  0.2737 -0.9591  0.0700
  356TMC3     C 5334   2.361   1.651  11.521  0.9688  0.2887 -0.0213
  356TMC3     O 5335   2.298   1.667  11.417  0.0084  0.2704 -0.2332
  356TMC3     H 5336   2.480   1.741  11.315  0.2312  0.2601 -0.4121
  356TMC3    H1 5337   2.538   1.670  11.728  0.9700 -2.5743 -1.1773
  356TMC3    H2 5338   2.846   1.869  11.496 -0.4132  0.6105  0.1794
  356TMC3    C7 5339   2.772   1.782  11.754 -1.0847  0.4289 -1.0171
  356TMC3    C8 5340   2.707   1.864  11.273 -1.2612 -0.2658  0.1851
  356TMC3    O1 5341   2.744   1.717  11.853  0.5006 -0.2106 -0.2127
  356TMC3    O2 5342   2.642   1.817  11.180 -0.0603  0.7048  0.0750
  357MPD2     C 5343   1.964   1.120   0.909  0.9875  0.5504  0.1496
  357MPD2    C1 5344   1.935   1.006   0.976  0.5469  0.2295 -0.0481
  357MPD2    C2 5345   1.815   0.995   1.040 -0.9089  0.4088  0.6028
  357MPD2    C3 5346   1.729   1.102   1.045 -0.0408  0.3788  0.1777
  357MPD2    C4 5347   1.771   1.226   0.993 -0.8501 -0.2596 -0.9128
  357MPD2    C5 5348   1.896   1.239   0.930  0.0230 -0.7218 -0.0812
  357MPD2     H 5349   1.780   0.896   1.070  0.3054 -0.3650 -0.5685
  357MPD2    H1 5350   1.706   1.312   1.008  0.9409  0.9351  0.1539
  357MPD2    H2 5351   2.060   1.127   0.859 -0.2577 -1.0129 -2.4454
  357MPD2    H3 5352   1.920   1.340   0.899 -1.6827 -0.3383 -0.1572
  357MPD2     N 5353   1.594   1.102   1.095 -0.4727  0.5796 -0.0998
  357MPD2    H5 5354   1.536   1.185   1.092 -0.8828  0.2640 -0.8604
  357MPD2    N1 5355   2.010   0.893   0.945 -0.4403 -0.4225  1.3250
  357MPD2    H7 5356   1.978   0.806   0.986  0.6366 -0.2791  2.4744
  358TMC3    C1 5357   2.152   0.745   0.857  0.2064 -0.0847  0.6338
  358TMC3    C2 5358   2.152   0.674   0.738  0.0169 -0.2969  0.6418
  358TMC3    C3 5359   2.163   0.544   0.741  0.0301 -0.3616 -0.4502
  358TMC3    C4 5360   2.165   0.690   0.976 -0.5878  0.0084 -0.3768
  358TMC3    C5 5361   2.178   0.552   0.974  0.0415  0.7336 -0.1740
  358TMC3    C6 5362   2.164   0.476   0.857  0.4399  0.0790  0.3746
  358TMC3     C 5363   2.114   0.885   0.859  0.4230 -0.3679 -1.1347
  358TMC3     O 5364   2.158   0.947   0.763 -0.0293 -0.1395 -0.2301
  358TMC3     H 5365   2.131   0.724   0.645  0.0012  0.3655  1.0069
  358TMC3    H1 5366   2.181   0.748   1.067 -1.6360  1.3806 -1.0634
  358TMC3    H2 5367   2.211   0.378   0.860  1.2954  0.5450  2.0775
  358TMC3    C7 5368   2.232   0.491   1.090  0.8135 -0.7774 -0.7887
  358TMC3    C8 5369   2.173   0.483   0.609 -0.2629 -0.1720  0.2484
  358TMC3    O1 5370   2.261   0.375   1.079 -0.2079  0.3482 -0.3659
  358TMC3    O2 5371   2.209   0.555   0.518  0.1219  0.0049 -0.2876
  359MPD2     C 5372   2.496   4.436  12.410 -0.0065  0.7805  0.3900
  359MPD2    C1 5373   2.386   4.520  12.458 -0.3485 -1.2905  0.8502
  359MPD2    C2 5374   2.334   4.483  12.579  0.3692  0.4104 -0.7484
  359MPD2    C3 5375   2.386   4.381  12.646 -0.3538 -0.5645 -0.4108
  359MPD2    C4 5376   2.500   4.311  12.605  0.0675  0.9726 -0.6153
  359MPD2    C5 5377   2.556   4.343  12.483  0.0519 -0.3509 -0.2346
  359MPD2     H 5378   2.251   4.542  12.614  0.8484  1.6850 -1.7872
  359MPD2    H1 5379   2.552   4.233  12.659 -1.7717  0.4550  0.4379
  359MPD2    H2 5380   2.532   4.440  12.308 -2.0582  0.2095 -0.3637
  359MPD2    H3 5381   2.634   4.279  12.443  0.4589 -0.5591  0.8759
  359MPD2     N 5382   2.341   4.340  12.770  0.4043 -0.1920  0.3141
  359MPD2    H5 5383   2.383   4.256  12.809  0.5721 -0.0083  0.5290
  359MPD2    N1 5384   2.319   4.617  12.376 -0.1871 -0.6592  0.1741
  359MPD2    H7 5385   2.226   4.641  12.409  0.7386  2.4807  0.4787
  360TMC3    C1 5386   2.289   0.040  12.191 -0.4534  0.1200 -0.6826
  360TMC3    C2 5387   2.355   0.155  12.160  0.8472  0.3118  0.2006
  360TMC3    C3 5388   2.302   0.232  12.062 -0.4394 -0.1444  0.2934
  360TMC3    C4 5389   2.183   4.711  12.118 -0.6673 -0.1275  0.3209
  360TMC3    C5 5390   2.133   0.071  12.009  0.4908 -0.3517 -1.2650
  360TMC3    C6 5391   2.192   0.199  11.982  0.3691  0.0754  0.3197
  360TMC3     C 5392   2.377   4.656  12.255  0.2816 -0.5151 -0.2984
  360TMC3     O 5393   2.493   4.646  12.220  0.3681  0.6493  0.2821
  360TMC3     H 5394   2.414   0.199  12.240  1.1971 -0.6161  0.4597
  360TMC3    H1 5395   2.131   4.618  12.136  1.1592 -1.0380  0.8478
  360TMC3    H2 5396   2.153   0.274  11.913 -0.1101 -2.1129 -1.7953
  360TMC3    C7 5397   2.066   0.007  11.896 -0.1633 -0.6534 -0.3754
  360TMC3    C8 5398   2.356   0.361  12.031  0.5572 -0.2864 -0.1219
  360TMC3    O1 5399   2.005   4.620  11.919  0.0484  0.2586 -0.7190
  360TMC3    O2 5400   2.289   0.462  12.030  0.0787  0.0169  0.5386
  361MPD2     C 5401   4.118   3.605  17.196  0.6517  0.5612 -0.3925
  361MPD2    C1 5402   4.051   3.481  17.208  0.4606  0.6268  0.1043
  361MPD2    C2 5403   4.124   3.366  17.244 -0.4472  0.4946  0.0590
  361MPD2    C3 5404   4.257   3.374  17.281 -0.5164  0.3721  0.2036
  361MPD2    C4 5405   4.314   3.500  17.276  0.1372 -0.1022  0.0276
  361MPD2    C5 5406   4.247   3.608  17.237 -0.2116 -0.0883 -0.2748
  361MPD2     H 5407   4.078   3.268  17.249 -0.3269  0.4284 -0.1408
  361MPD2    H1 5408   4.418   3.510  17.306  0.0631 -3.1449  1.3165
  361MPD2    H2 5409   4.080   3.704  17.173 -0.9707  0.4418  1.7802
  361MPD2    H3 5410   4.299   3.703  17.232 -1.3574  0.5962  0.7801
  361MPD2     N 5411   4.342   3.267  17.317  0.3018  0.3841  0.3345
  361MPD2    H5 5412   4.440   3.289  17.333  0.8882 -2.4811  0.7231
  361MPD2    N1 5413   3.906   3.479  17.182 -0.4658 -0.4321 -0.7061
  361MPD2    H7 5414   3.866   3.566  17.147  1.0551  1.0973  1.3844
  362TMC3    C1 5415   3.700   3.406  17.123 -0.3696  0.0935  0.5196
  362TMC3    C2 5416   3.594   3.342  17.187 -0.4488 -0.1647 -0.0682
  362TMC3    C3 5417   3.469   3.371  17.154 -0.2441  0.2364 -0.3492
  362TMC3    C4 5418   3.684   3.491  17.019 -0.3603  0.0806  0.4698
  362TMC3    C5 5419   3.559   3.512  16.978 -0.1142 -0.9227  0.0771
  362TMC3    C6 5420   3.452   3.467  17.056  0.4702 -0.2214 -0.1882
  362TMC3     C 5421   3.822   3.371  17.186 -0.2954 -0.0219 -0.3613
  362TMC3     O 5422   3.857   3.255  17.215 -0.0643  1.0566 -0.4116
  362TMC3     H 5423   3.615   3.268  17.264  3.0926  0.3223 -0.5736
  362TMC3    H1 5424   3.755   3.553  16.966 -0.6730  1.4018  1.5997
  362TMC3    H2 5425   3.349   3.483  17.025 -0.0282 -2.2197  0.4390
  362TMC3    C7 5426   3.543   3.609  16.863 -0.0145 -0.2972  0.5335
  362TMC3    C8 5427   3.361   3.328  17.240 -0.0053  0.2806  0.5624
  362TMC3    O1 5428   3.625   3.699  16.847  0.3028 -0.6625 -0.0028
  362TMC3    O2 5429   3.389   3.220  17.288  0.1447 -0.4976  0.7688
  363TMC3    C1 5430   2.318   1.924   9.826  0.4806  0.7482 -0.9742
  363TMC3    C2 5431   2.371   1.822   9.903 -0.5938 -0.0306  0.0979
  363TMC3    C3 5432   2.339   1.693   9.867 -0.0023  0.2348  0.0896
  363TMC3    C4 5433   2.262   1.902   9.705 -0.1026  0.3588  0.0623
  363TMC3    C5 5434   2.226   1.774   9.687 -1.0081  0.5458 -0.1156
  363TMC3    C6 5435   2.259   1.663   9.764 -0.5828 -0.3281  0.2990
  363TMC3     C 5436   2.379   2.055   9.843  0.0733  0.4917  0.2713
  363TMC3     O 5437   2.496   2.041   9.877 -0.1503 -0.0576 -0.1232
  363TMC3     H 5438   2.419   1.839   9.999  1.3322 -2.5447 -0.4136
  363TMC3    H1 5439   2.226   1.982   9.641  0.7953  2.0495  1.6577
  363TMC3    H2 5440   2.220   1.564   9.745 -1.0286 -0.1892  0.4978
  363TMC3    C7 5441   2.150   1.743   9.560 -0.4963 -0.2191  0.0419
  363TMC3    C8 5442   2.347   1.592   9.963  0.1197 -0.3239 -0.2326
  363TMC3    O1 5443   2.089   1.840   9.514  0.1396  0.0219 -0.1663
  363TMC3    O2 5444   2.247   1.575  10.033  0.4335 -0.4431 -0.2670
  364MPD2     C 5445   1.080   1.130  10.028  0.2712 -0.0408  0.3015
  364MPD2    C1 5446   1.112   1.166  10.154 -0.3143 -0.5981  0.3084
  364MPD2    C2 5447   1.129   1.069  10.247 -0.0181  0.1029  0.1787
  364MPD2    C3 5448   1.139   0.938  10.215  0.0245  0.1582  0.1755
  364MPD2    C4 5449   1.105   0.903  10.080 -0.2928 -0.1444 -0.4747
  364MPD2    C5 5450   1.076   0.998   9.989 -0.4249 -0.1570 -0.2097
  364MPD2     H 5451   1.161   1.100  10.346 -0.5439  2.4214 -0.3719
  364MPD2    H1 5452   1.097   0.798  10.057  1.4133 -0.3447 -0.1227
  364MPD2    H2 5453   1.059   1.210   9.958 -2.2187 -0.8533  0.0903
  364MPD2    H3 5454   1.054   0.977   9.885  3.4191 -1.7911 -0.7006
  364MPD2     N 5455   1.196   0.835  10.292  0.1283  0.2334 -0.7448
  364MPD2    H5 5456   1.200   0.742  10.252 -0.2106 -0.5742  1.1000
  364MPD2    N1 5457   1.119   1.307  10.186  0.2180 -0.2255  0.1993
  364MPD2    H7 5458   1.132   1.381  10.117 -0.5858 -0.2224  0.0554
  365TMC3    C1 5459   1.214   1.481  10.312  0.5248 -0.4230 -0.3236
  365TMC3    C2 5460   1.321   1.488  10.222  0.7295 -0.2453 -0.6501
  365TMC3    C3 5461   1.421   1.577  10.245  0.1405  0.0802  0.1157
  365TMC3    C4 5462   1.195   1.564  10.419  0.1356  0.2965  0.2516
  365TMC3    C5 5463   1.297   1.658  10.438 -0.1193 -0.2470 -0.2957
  365TMC3    C6 5464   1.404   1.665  10.350  0.1215 -0.0642 -0.1905
  365TMC3     C 5465   1.132   1.361  10.315  0.4181  0.8773 -0.2546
  365TMC3     O 5466   1.096   1.314  10.420  0.0242 -0.7738 -0.2638
  365TMC3     H 5467   1.322   1.426  10.133 -2.8014 -0.1901 -0.7451
  365TMC3    H1 5468   1.113   1.550  10.489  0.0915 -0.6755  0.0119
  365TMC3    H2 5469   1.484   1.735  10.370  0.9116 -0.9259 -0.3664
  365TMC3    C7 5470   1.300   1.739  10.554 -0.2055  0.0969  0.1546
  365TMC3    C8 5471   1.555   1.522  10.233 -0.5565 -0.2977 -0.5026
  365TMC3    O1 5472   1.352   1.850  10.541 -0.0548  0.5752 -0.4740
  365TMC3    O2 5473   1.641   1.583  10.293 -0.2274 -0.3457 -0.7375
  366MPD2     C 5474   3.905   2.360  15.441 -0.1215  0.8151 -0.2540
  366MPD2    C1 5475   4.037   2.342  15.454 -0.0722 -0.0336  0.3996
  366MPD2    C2 5476   4.093   2.217  15.426  0.5197  0.4373  0.0505
  366MPD2    C3 5477   4.016   2.114  15.379 -0.0536  0.3192  0.3989
  366MPD2    C4 5478   3.879   2.128  15.367 -0.3663 -0.6144  0.2006
  366MPD2    C5 5479   3.826   2.251  15.391 -0.0284  0.5875  0.1432
  366MPD2     H 5480   4.201   2.203  15.426  0.7258  2.0090  0.5552
  366MPD2    H1 5481   3.810   2.048  15.345 -1.5121  0.4486 -0.0666
  366MPD2    H2 5482   3.858   2.449  15.481  0.3646  0.3142  1.4138
  366MPD2    H3 5483   3.719   2.264  15.385  0.1493  2.1916  0.5554
  366MPD2     N 5484   4.079   1.990  15.351  0.4878  0.0810 -0.3792
  366MPD2    H5 5485   4.179   1.983  15.369  0.3649  3.6148  1.8062
  366MPD2    N1 5486   4.126   2.447  15.478  0.1823 -1.0745 -0.4625
  366MPD2    H7 5487   4.224   2.423  15.485  0.4344  0.4469  1.1793
  367TMC3    C1 5488   4.214   2.663  15.473  0.6006  0.2185  0.0134
  367TMC3    C2 5489   4.328   2.621  15.525  0.7143 -0.2365 -0.4311
  367TMC3    C3 5490   4.441   2.682  15.486  0.2566  0.1496  0.2929
  367TMC3    C4 5491   4.211   2.759  15.381 -0.8060  0.0637 -0.7467
  367TMC3    C5 5492   4.323   2.815  15.337  0.4210  0.5895  0.2919
  367TMC3    C6 5493   4.439   2.781  15.392 -0.2742  0.6103 -0.6184
  367TMC3     C 5494   4.094   2.579  15.473  0.7769 -0.4605 -0.2227
  367TMC3     O 5495   3.990   2.640  15.457  1.1644 -0.0395  0.7489
  367TMC3     H 5496   4.324   2.548  15.605 -2.7374 -0.6693 -0.9790
  367TMC3    H1 5497   4.114   2.786  15.341 -1.7196 -1.0910  0.6606
  367TMC3    H2 5498   4.526   2.831  15.352 -0.6610  2.0373  0.3285
  367TMC3    C7 5499   4.310   2.889  15.210 -0.0372  0.4521  0.5883
  367TMC3    C8 5500   4.544   2.675  15.584  0.5533 -0.1892 -0.0026
  367TMC3    O1 5501   4.227   2.976  15.208  0.1897  0.2226 -0.1626
  367TMC3    O2 5502   4.523   2.618  15.690 -0.4963 -0.0811  0.3919
  368MPD2     C 5503   0.729   3.501  12.790  0.2903  0.3309 -1.0202
  368MPD2    C1 5504   0.717   3.627  12.848 -0.2028 -0.6287  0.6442
  368MPD2    C2 5505   0.836   3.662  12.907 -0.7638  0.0936  0.4991
  368MPD2    C3 5506   0.958   3.592  12.900 -0.3068  0.4245 -0.0309
  368MPD2    C4 5507   0.966   3.483  12.817  0.2223 -0.6395  0.3437
  368MPD2    C5 5508   0.850   3.441  12.764  0.1906 -0.4854 -0.3480
  368MPD2     H 5509   0.844   3.752  12.967  0.1778  0.2518  0.1410
  368MPD2    H1 5510   1.053   3.424  12.794 -0.2932 -1.4777  0.5524
  368MPD2    H2 5511   0.644   3.444  12.753 -0.0720  1.2115 -1.5340
  368MPD2    H3 5512   0.845   3.350  12.707  0.7242  0.4712 -1.9131
  368MPD2     N 5513   1.076   3.638  12.949 -0.0250 -0.2592  0.4406
  368MPD2    H5 5514   1.159   3.597  12.908 -0.7652 -0.0063 -1.3287
  368MPD2    N1 5515   0.591   3.679  12.863 -0.9028  0.1000  0.2916
  368MPD2    H7 5516   0.516   3.632  12.813 -0.9367  1.6289 -1.1086
  369TMC3    C1 5517   0.461   3.867  12.856 -0.6435  0.3365 -0.4735
  369TMC3    C2 5518   0.477   4.003  12.845 -0.1363 -0.0330  0.1372
  369TMC3    C3 5519   0.366   4.086  12.846  0.1967 -0.4645 -0.5886
  369TMC3    C4 5520   0.338   3.820  12.889  0.2384  0.6042 -0.6521
  369TMC3    C5 5521   0.234   3.907  12.922 -0.2880 -0.7373 -0.2102
  369TMC3    C6 5522   0.249   4.040  12.888  0.4172 -0.1305  0.9953
  369TMC3     C 5523   0.576   3.809  12.915  0.2142  0.5479 -0.1866
  369TMC3     O 5524   0.651   3.877  12.978  0.3901 -0.0648  0.4675
  369TMC3     H 5525   0.577   4.042  12.828 -0.0059 -0.0116  0.9843
  369TMC3    H1 5526   0.331   3.714  12.909 -0.1958  0.5193 -1.2500
  369TMC3    H2 5527   0.179   4.108  12.935  2.1195  0.9441  2.0083
  369TMC3    C7 5528   0.182   3.884  13.056  0.3565 -0.7876  0.5094
  369TMC3    C8 5529   0.383   4.218  12.785 -0.2604 -0.4505  0.1696
  369TMC3    O1 5530   0.181   3.972  13.140  0.3777  0.0828  0.5276
  369TMC3    O2 5531   0.491   4.249  12.743 -0.0191 -0.3262 -0.6937
  370TMC3    C1 5532   0.592   4.300  16.415  0.1669  0.1976  0.0293
  370TMC3    C2 5533   0.480   4.258  16.485 -0.2662  0.1480 -0.2021
  370TMC3    C3 5534   0.415   4.143  16.448 -0.8064 -0.0872 -0.4465
  370TMC3    C4 5535   0.635   4.240  16.304 -0.4204 -0.0680 -0.5707
  370TMC3    C5 5536   0.552   4.139  16.258  0.4947 -0.1139  0.1419
  370TMC3    C6 5537   0.438   4.091  16.320 -0.8557 -0.8936  0.4623
  370TMC3     C 5538   0.681   4.364  16.504  0.7827 -0.4960 -0.0964
  370TMC3     O 5539   0.661   4.350  16.625 -0.1788  0.9149  0.8303
  370TMC3     H 5540   0.451   4.308  16.576  0.7121 -0.4390  0.4482
  370TMC3    H1 5541   0.736   4.256  16.268 -0.2369 -0.9850 -0.4682
  370TMC3    H2 5542   0.396   3.993  16.300 -2.4106 -0.6229  2.4131
  370TMC3    C7 5543   0.601   4.063  16.140 -0.0872 -0.4920 -0.2142
  370TMC3    C8 5544   0.387   4.044  16.556 -0.0391 -0.8544  0.5951
  370TMC3    O1 5545   0.722   4.056  16.125  0.1596  0.2368  0.3069
  370TMC3    O2 5546   0.378   3.927  16.522 -0.2008  0.0446  0.0550
  371TMC3    C1 5547   1.610   2.304  15.639 -0.4174 -0.6004  0.2310
  371TMC3    C2 5548   1.487   2.314  15.699  0.0523 -0.2129 -0.4858
  371TMC3    C3 5549   1.442   2.445  15.722 -0.3494  0.5917 -0.4817
  371TMC3    C4 5550   1.682   2.408  15.591  0.1491 -0.4308 -0.1945
  371TMC3    C5 5551   1.633   2.530  15.608  0.2301 -0.3246 -0.6845
  371TMC3    C6 5552   1.517   2.554  15.685 -0.8583  0.2232 -0.0902
  371TMC3     C 5553   1.664   2.172  15.622  0.0496  0.4740  0.2910
  371TMC3     O 5554   1.781   2.163  15.594  0.3911 -0.1226  0.4230
  371TMC3     H 5555   1.428   2.232  15.740 -2.1203  1.4235 -0.3374
  371TMC3    H1 5556   1.779   2.388  15.547  0.1192  0.6752 -0.7684
  371TMC3    H2 5557   1.487   2.658  15.684 -2.7928 -0.3400  0.6800
  371TMC3    C7 5558   1.711   2.644  15.552 -0.3811 -0.3423 -0.1597
  371TMC3    C8 5559   1.310   2.461  15.785  0.3962 -0.0664 -0.6187
  371TMC3    O1 5560   1.690   2.752  15.597  0.2852  0.3263  0.0094
  371TMC3    O2 5561   1.246   2.359  15.768  0.6208 -0.0271  0.6310
  372MPD2     C 5562   0.527   3.603  13.503  0.3064 -0.0447  0.8303
  372MPD2    C1 5563   0.611   3.688  13.571 -0.1524  0.0804 -0.0199
  372MPD2    C2 5564   0.712   3.642  13.642 -0.1587 -1.4323  0.2539
  372MPD2    C3 5565   0.745   3.510  13.646  0.2448  0.4518  0.7653
  372MPD2    C4 5566   0.672   3.424  13.565 -0.0581 -0.6531 -0.1166
  372MPD2    C5 5567   0.560   3.472  13.495  0.5648 -0.2753  0.3041
  372MPD2     H 5568   0.773   3.712  13.698 -2.1884  1.2132 -0.8198
  372MPD2    H1 5569   0.695   3.318  13.570  1.4360 -0.2398  1.7047
  372MPD2    H2 5570   0.439   3.620  13.442 -0.2275 -1.4524  1.1900
  372MPD2    H3 5571   0.499   3.400  13.441  2.5927 -1.9251  0.2162
  372MPD2     N 5572   0.854   3.458  13.722 -0.3309  0.3563  0.5396
  372MPD2    H5 5573   0.889   3.519  13.795  2.2181  0.2168 -0.5282
  372MPD2    N1 5574   0.594   3.828  13.569  0.0751  1.0261 -0.3576
  372MPD2    H7 5575   0.675   3.879  13.602 -0.2884 -0.6285  3.1945
  373TMC3    C1 5576   1.007   3.302  13.810 -0.6259 -0.0022  0.6982
  373TMC3    C2 5577   1.008   3.373  13.927  0.0893  0.0362 -0.2527
  373TMC3    C3 5578   1.121   3.373  14.004  0.1954  0.2292 -0.4219
  373TMC3    C4 5579   1.128   3.257  13.760 -0.4625  0.2549 -0.1625
  373TMC3    C5 5580   1.241   3.271  13.832 -0.1663 -0.0998 -0.4629
  373TMC3    C6 5581   1.244   3.324  13.963 -0.3698  0.6734 -0.4069
  373TMC3     C 5582   0.914   3.338  13.701 -0.0939 -0.4397 -0.5500
  373TMC3     O 5583   0.913   3.263  13.603 -0.6943  0.1375  0.1680
  373TMC3     H 5584   0.917   3.422  13.959  1.2749  1.6207  0.6983
  373TMC3    H1 5585   1.129   3.218  13.658 -3.0401 -1.1107  0.3391
  373TMC3    H2 5586   1.330   3.357  14.019 -0.4855 -1.4468  1.0159
  373TMC3    C7 5587   1.358   3.208  13.770  0.2563 -0.7315 -0.3155
  373TMC3    C8 5588   1.132   3.472  14.106  0.2762  0.2700  0.0772
  373TMC3    O1 5589   1.351   3.200  13.646  0.5816 -0.1626 -0.2233
  373TMC3    O2 5590   1.228   3.542  14.092  0.3337 -0.1353 -0.1832
  374TMC3    C1 5591   1.539   3.838   9.846  0.4310  0.8454  0.1888
  374TMC3    C2 5592   1.586   3.955   9.895 -0.5970  0.3710  0.9584
  374TMC3    C3 5593   1.562   4.074   9.832 -0.8642  0.6695  0.6298
  374TMC3    C4 5594   1.482   3.828   9.724 -0.5427  0.9286  0.0258
  374TMC3    C5 5595   1.452   3.953   9.662  0.6619 -0.5997 -0.4090
  374TMC3    C6 5596   1.485   4.075   9.719  0.1316 -0.0137  0.8192
  374TMC3     C 5597   1.564   3.717   9.927  0.0537 -0.8307  0.1064
  374TMC3     O 5598   1.669   3.710   9.992  0.6304  0.4668 -0.1142
  374TMC3     H 5599   1.634   3.957   9.992  0.0529  0.9634  0.6258
  374TMC3    H1 5600   1.470   3.734   9.672  1.0102  0.7496 -0.0097
  374TMC3    H2 5601   1.450   4.168   9.676  1.9411  0.1614 -0.2551
  374TMC3    C7 5602   1.374   3.944   9.544  0.1674  0.1159 -0.3977
  374TMC3    C8 5603   1.614   4.196   9.890 -0.2063  0.5478  0.2180
  374TMC3    O1 5604   1.321   3.836   9.519 -0.0593 -0.2263  0.2303
  374TMC3    O2 5605   1.560   4.303   9.862  0.2986  0.4904 -0.9510
  375MPD2     C 5606   1.902   4.380  17.287  0.2373  0.1002 -0.0357
  375MPD2    C1 5607   1.808   4.365  17.186  0.4846  0.1146  0.0981
  375MPD2    C2 5608   1.834   4.293  17.067  0.4254  0.0863  0.5309
  375MPD2    C3 5609   1.962   4.242  17.047 -0.2522 -0.2535  0.0982
  375MPD2    C4 5610   2.053   4.255  17.155  0.2621  0.9729 -0.3447
  375MPD2    C5 5611   2.017   4.310  17.271  0.2011 -0.1449 -0.4330
  375MPD2     H 5612   1.753   4.282  16.996  0.1383 -3.6550  1.4362
  375MPD2    H1 5613   2.153   4.214  17.150  0.1131  0.5822 -0.0960
  375MPD2    H2 5614   1.880   4.429  17.381 -3.2302  1.7796 -1.7529
  375MPD2    H3 5615   2.083   4.296  17.356 -2.0601 -1.4970  1.0977
  375MPD2     N 5616   2.015   4.193  16.922 -0.1220  0.3816 -0.5799
  375MPD2    H5 5617   2.112   4.166  16.914 -1.0615 -2.9547 -0.6083
  375MPD2    N1 5618   1.684   4.432  17.192 -0.3037 -0.4631  0.6775
  375MPD2    H7 5619   1.624   4.402  17.115  0.0205  1.7847 -0.4327
  376TMC3    C1 5620   2.024   4.180  16.680 -0.3642  0.0573 -0.1019
  376TMC3    C2 5621   2.158   4.173  16.689 -0.1059  0.2036 -0.3992
  376TMC3    C3 5622   2.222   4.225  16.582  0.3534  0.4606  0.2935
  376TMC3    C4 5623   1.958   4.199  16.562 -0.2636  0.6795  0.3930
  376TMC3    C5 5624   2.031   4.253  16.455 -0.2414  0.1439  0.0841
  376TMC3    C6 5625   2.162   4.264  16.461 -0.8554 -0.2262 -0.2641
  376TMC3     C 5626   1.946   4.204  16.803  0.3223  0.7968  0.3444
  376TMC3     O 5627   1.838   4.252  16.779  0.1424 -0.5202 -0.4300
  376TMC3     H 5628   2.200   4.168  16.789  0.3746  1.9243 -0.5192
  376TMC3    H1 5629   1.850   4.198  16.559 -0.2801 -0.7283  1.3920
  376TMC3    H2 5630   2.209   4.306  16.373  0.2887 -1.7035 -0.3515
  376TMC3    C7 5631   1.967   4.310  16.341  0.4622 -0.1770  0.5962
  376TMC3    C8 5632   2.361   4.245  16.578 -0.9634  0.5861 -0.4276
  376TMC3    O1 5633   2.032   4.370  16.254  0.0432 -0.3822 -0.0677
  376TMC3    O2 5634   2.409   4.328  16.504  0.4471  0.7068  0.4446
  377MPD2     C 5635   4.510   4.498  12.316  0.4355  0.2941  0.2994
  377MPD2    C1 5636   4.562   4.408  12.405  0.1822  0.3199 -0.1887
  377MPD2    C2 5637   4.524   4.415  12.540  0.8089 -0.5434 -0.6761
  377MPD2    C3 5638   4.441   4.512  12.581  0.4235 -0.6574  0.4851
  377MPD2    C4 5639   4.388   4.603  12.493  0.0634  0.3773  0.4592
  377MPD2    C5 5640   4.423   4.592  12.362  0.4381  0.4829  0.7043
  377MPD2     H 5641   4.570   4.339  12.603  1.6517  1.5482  1.2413
  377MPD2    H1 5642   4.321   4.684  12.521 -1.6458 -1.3139  1.2338
  377MPD2    H2 5643   4.530   4.504  12.209 -0.5744  2.8068  0.2505
  377MPD2    H3 5644   4.376   4.661  12.293 -2.1480  0.6263  2.5814
  377MPD2     N 5645   4.392   4.524  12.713  1.0072 -0.5976 -0.5056
  377MPD2    H5 5646   4.318   4.591  12.727  1.4494 -1.1299  4.4345
  377MPD2    N1 5647   4.662   4.317  12.358 -0.7267 -0.2750  0.4247
  377MPD2    H7 5648   4.707   4.346  12.272 -2.7058 -0.3582 -0.6530
  378TMC3    C1 5649   0.082   4.047  12.137  0.1855 -0.1238  0.1838
  378TMC3    C2 5650   0.015   4.074  12.257  0.6446  0.2616  0.7057
  378TMC3    C3 5651   0.081   4.133  12.357 -0.8564 -0.2841  0.0679
  378TMC3    C4 5652   0.215   4.077  12.126 -0.0602 -0.6249 -0.3548
  378TMC3    C5 5653   0.282   4.125  12.231 -0.4825  0.2399  0.1000
  378TMC3    C6 5654   0.212   4.168  12.345 -0.3593 -0.3908 -0.0594
  378TMC3     C 5655   4.709   4.078  12.026 -0.8069  0.2570 -0.6094
  378TMC3     O 5656   4.592   4.038  12.032  0.0867  0.3564  0.1406
  378TMC3     H 5657   4.627   4.060  12.265  0.5934  0.5707  0.5630
  378TMC3    H1 5658   0.264   4.049  12.033  0.8366 -0.2387  0.0050
  378TMC3    H2 5659   0.267   4.218  12.423 -2.6392 -0.6307  1.7011
  378TMC3    C7 5660   0.414   4.181  12.211  0.3424 -0.2803 -0.3028
  378TMC3    C8 5661   4.717   4.218  12.436 -0.6745  0.4834  0.8007
  378TMC3    O1 5662   0.456   4.257  12.297 -0.3233  0.6001 -0.7255
  378TMC3    O2 5663   4.686   4.171  12.547  0.0005 -0.3292  0.4254
  379MPD2     C 5664   0.957   2.326  16.089 -0.1211  0.1156  0.0608
  379MPD2    C1 5665   0.856   2.255  16.155  0.2622  0.1325  0.0986
  379MPD2    C2 5666   0.897   2.165  16.258  0.4262  0.0058 -0.4831
  379MPD2    C3 5667   1.031   2.144  16.287  0.3172 -0.0748  0.0111
  379MPD2    C4 5668   1.125   2.232  16.237  0.1876 -0.0988  0.9876
  379MPD2    C5 5669   1.085   2.317  16.138 -0.6921  0.4639 -0.3876
  379MPD2     H 5670   0.825   2.116  16.322  2.4887  2.1038  3.4241
  379MPD2    H1 5671   1.229   2.244  16.268 -0.0738  0.8904  1.4987
  379MPD2    H2 5672   0.931   2.396  16.010 -2.7242  0.1702  0.9393
  379MPD2    H3 5673   1.159   2.383  16.094 -0.5045 -0.3015 -1.2093
  379MPD2     N 5674   1.072   2.043  16.383  0.0181 -0.0861  0.2938
  379MPD2    H5 5675   1.172   2.041  16.396  0.1490  0.4580 -0.5633
  379MPD2    N1 5676   0.719   2.279  16.117 -0.3792  0.2201 -0.0307
  379MPD2    H7 5677   0.709   2.334  16.033 -0.9708  1.0121  0.5629
  380TMC3    C1 5678   0.493   2.231  16.091  0.1642  0.1623 -0.6025
  380TMC3    C2 5679   0.480   2.136  15.997 -0.3447 -0.1942 -0.3355
  380TMC3    C3 5680   0.432   2.184  15.875 -0.0135  0.6028 -0.0168
  380TMC3    C4 5681   0.460   2.362  16.080 -0.3360 -0.4455  0.4118
  380TMC3    C5 5682   0.401   2.399  15.959  0.8557  0.1073  0.5443
  380TMC3    C6 5683   0.374   2.308  15.861 -0.2513 -0.4488 -0.6376
  380TMC3     C 5684   0.608   2.213  16.171  0.4389  0.4000 -0.3839
  380TMC3     O 5685   0.607   2.112  16.240 -0.0978 -0.0364 -0.1246
  380TMC3     H 5686   0.508   2.033  16.015 -2.0342 -0.6392 -0.2921
  380TMC3    H1 5687   0.499   2.430  16.155 -1.0858 -0.2893  0.6681
  380TMC3    H2 5688   0.330   2.348  15.771  0.0305  0.8542 -0.2012
  380TMC3    C7 5689   0.356   2.536  15.951  0.2915  0.6897 -0.1411
  380TMC3    C8 5690   0.533   2.168  15.767 -0.4080 -0.3027 -0.2985
  380TMC3    O1 5691   0.406   2.621  16.026 -0.2222 -0.0676 -0.1716
  380TMC3    O2 5692   0.531   2.253  15.676  0.5175  0.2131 -0.6038
  381TMC3    C1 5693   0.249   3.408  16.339  0.4214 -0.4753  0.0701
  381TMC3    C2 5694   0.359   3.475  16.308  0.8924 -0.3461 -0.3957
  381TMC3    C3 5695   0.417   3.563  16.393  0.7184 -0.1396 -0.1946
  381TMC3    C4 5696   0.185   3.434  16.457 -0.5667 -0.5011 -0.1087
  381TMC3    C5 5697   0.239   3.531  16.544  0.3302  0.0954  0.0857
  381TMC3    C6 5698   0.361   3.591  16.515  0.1747 -0.2502  0.2584
  381TMC3     C 5699   0.155   3.383  16.236  0.4151  0.1359  0.2692
  381TMC3     O 5700   0.035   3.403  16.264  0.4275 -0.1187  0.3621
  381TMC3     H 5701   0.414   3.460  16.215 -1.1826  1.8136 -1.9807
  381TMC3    H1 5702   0.102   3.371  16.487 -2.3084  0.4144 -2.9849
  381TMC3    H2 5703   0.399   3.663  16.587  1.1561 -1.5337  1.0132
  381TMC3    C7 5704   0.243   3.479  16.680 -0.5546  0.0675 -0.6977
  381TMC3    C8 5705   0.553   3.617  16.356 -0.1551 -1.0051  0.2149
  381TMC3    O1 5706   0.247   3.355  16.688 -0.0687  0.0437  0.2554
  381TMC3    O2 5707   0.595   3.574  16.246 -0.1421 -0.0312  0.7238
  382MPD2     C 5708   4.703   0.762   0.169 -0.3941  0.6926  0.1533
  382MPD2    C1 5709   4.619   0.783   0.060  1.1740  0.2201 -0.4061
  382MPD2    C2 5710   4.544   0.669   0.015  0.1677  0.4498  0.1808
  382MPD2    C3 5711   4.566   0.544   0.074  0.1534 -0.0182  0.0188
  382MPD2    C4 5712   4.665   0.529   0.171 -0.2878  0.7070  0.1948
  382MPD2    C5 5713   0.008   0.643   0.225  0.0842  0.9299  0.0617
  382MPD2     H 5714   4.470   0.676  17.618  2.7159 -0.5699 -2.3158
  382MPD2    H1 5715   4.692   0.428   0.203  2.1037  0.7896 -1.5736
  382MPD2    H2 5716   0.041   0.845   0.209 -0.4232  0.7376  0.1014
  382MPD2    H3 5717   0.063   0.633   0.318 -1.5020 -1.1946  0.7657
  382MPD2     N 5718   4.491   0.428   0.026 -0.6078 -0.3028 -0.1628
  382MPD2    H5 5719   4.529   0.340   0.060 -1.2278 -0.5961 -0.2305
  382MPD2    N1 5720   4.620   0.914   0.005 -0.0532 -0.0812 -0.6524
  382MPD2    H7 5721   4.649   0.982   0.074 -1.9809  2.1437 -2.0406
  383TMC3    C1 5722   4.328   0.286  17.617  0.0749 -0.5730 -0.2043
  383TMC3    C2 5723   4.251   0.254  17.511 -0.5301 -0.0777  0.3378
  383TMC3    C3 5724   4.212   0.125  17.491  0.1501  0.5352 -0.6356
  383TMC3    C4 5725   4.359   0.198   0.039 -0.0682  0.4977 -0.2380
  383TMC3    C5 5726   4.323   0.063   0.015 -0.1364 -0.5722 -0.0986
  383TMC3    C6 5727   4.259   0.029  17.583 -0.0554 -0.0464 -0.6346
  383TMC3     C 5728   4.374   0.424  17.628  0.0887  0.3098 -0.5156
  383TMC3     O 5729   4.319   0.513  17.564  0.5877 -0.1219  0.2177
  383TMC3     H 5730   4.212   0.334  17.449 -1.7403  0.3992  1.7145
  383TMC3    H1 5731   4.411   0.228   0.129 -1.3801 -3.0260  1.6956
  383TMC3    H2 5732   4.232   4.644  17.573  1.3658 -0.4465 -0.3018
  383TMC3    C7 5733   4.278   4.699   0.127  0.4729  0.0722 -0.9381
  383TMC3    C8 5734   4.111   0.097  17.387  0.2371  0.0611  0.5275
  383TMC3    O1 5735   4.176   4.639   0.102 -0.0017 -0.3159  0.4315
  383TMC3    O2 5736   4.055   0.197  17.336 -0.1852 -0.2194 -0.0058
  384MPD2     C 5737   1.301   2.374  12.254  0.3273 -0.0200 -0.1112
  384MPD2    C1 5738   1.296   2.303  12.384  0.2605 -0.2210  0.4498
  384MPD2    C2 5739   1.295   2.163  12.383 -0.3634  0.1390 -0.3728
  384MPD2    C3 5740   1.313   2.091  12.267  0.7519 -0.0094  0.3614
  384MPD2    C4 5741   1.315   2.161  12.155 -0.8960  0.5861 -0.3006
  384MPD2    C5 5742   1.300   2.297  12.140 -0.3811 -0.2850 -0.3957
  384MPD2     H 5743   1.281   2.122  12.482 -1.1381  0.0071 -0.5429
  384MPD2    H1 5744   1.330   2.114  12.059 -1.3055  1.9126 -1.0213
  384MPD2    H2 5745   1.302   2.481  12.239  1.0040  0.1296  1.0033
  384MPD2    H3 5746   1.298   2.336  12.039  1.6846  1.4834  0.2471
  384MPD2     N 5747   1.305   1.952  12.256  0.2025  0.6216  0.3666
  384MPD2    H5 5748   1.301   1.907  12.165 -1.9570  0.8288  0.3702
  384MPD2    N1 5749   1.270   2.361  12.507 -0.4287  0.0059 -0.1549
  384MPD2    H7 5750   1.250   2.293  12.578 -1.0963  0.0365 -0.3192
  385TMC3    C1 5751   1.260   1.727  12.341 -0.4992 -0.0108 -0.6957
  385TMC3    C2 5752   1.159   1.703  12.256  0.1681  0.1430 -0.8532
  385TMC3    C3 5753   1.070   1.610  12.303  0.5156  0.1521 -0.0629
  385TMC3    C4 5754   1.275   1.667  12.457  0.0169  0.0403 -0.2331
  385TMC3    C5 5755   1.188   1.572  12.502  0.4168  1.1473 -0.8603
  385TMC3    C6 5756   1.078   1.550  12.426 -0.1531  0.1103  0.0878
  385TMC3     C 5757   1.283   1.870  12.368 -0.6446 -0.2993  0.7584
  385TMC3     O 5758   1.307   1.900  12.485 -0.4755 -0.1472  0.0816
  385TMC3     H 5759   1.140   1.754  12.162 -0.0993  1.7730  0.0751
  385TMC3    H1 5760   1.370   1.671  12.509  0.7151 -0.5273 -1.4632
  385TMC3    H2 5761   1.013   1.472  12.465  0.5903  0.7851  2.6977
  385TMC3    C7 5762   1.159   1.587  12.643 -0.6052 -0.4922  0.6803
  385TMC3    C8 5763   0.965   1.556  12.224  0.0847 -0.1486 -0.1703
  385TMC3    O1 5764   1.073   1.513  12.686 -0.1840  0.2313 -0.8592
  385TMC3    O2 5765   0.868   1.532  12.287 -0.2281 -0.7747 -0.2801
  386TMC3    C1 5766   1.828   4.574  12.291  0.1385  0.0432  0.0487
  386TMC3    C2 5767   1.822   4.529  12.159  0.3541 -0.0636 -0.1890
  386TMC3    C3 5768   1.699   4.545  12.090 -0.4975 -0.6984  0.2007
  386TMC3    C4 5769   1.729   4.653  12.338  0.8448  0.2785  0.7749
  386TMC3    C5 5770   1.612   4.667  12.268  0.0443 -1.0215 -0.3612
  386TMC3    C6 5771   1.594   4.603  12.150  0.1936 -0.1154 -0.0768
  386TMC3     C 5772   1.906   4.497  12.382 -0.2696 -0.2250  0.1673
  386TMC3     O 5773   1.918   4.541  12.496  0.3491  0.4798  0.3939
  386TMC3     H 5774   1.908   4.481  12.115  0.2187 -0.5683  0.0973
  386TMC3    H1 5775   1.728   4.668  12.445  2.0424  0.4085  0.7711
  386TMC3    H2 5776   1.500   4.604  12.097  0.4263 -0.7077 -0.5057
  386TMC3    C7 5777   1.495   0.009  12.319  0.2687 -0.2825 -0.7269
  386TMC3    C8 5778   1.663   4.460  11.974 -0.3251 -0.2206  0.3844
  386TMC3    O1 5779   1.384   4.685  12.292  0.0891 -0.3527  0.0036
  386TMC3    O2 5780   1.547   4.454  11.935 -0.4199  0.5869 -0.5601
  387MPD2     C 5781   3.799   4.525   9.553  0.0386 -0.5537 -0.3142
  387MPD2    C1 5782   3.805   4.528   9.693  0.5496 -0.0011 -0.3409
  387MPD2    C2 5783   3.786   4.410   9.764  0.2980  0.1106 -0.5464
  387MPD2    C3 5784   3.768   4.287   9.697 -0.5039 -0.2253  0.1912
  387MPD2    C4 5785   3.772   4.288   9.560  0.4104 -0.5103  0.5065
  387MPD2    C5 5786   3.782   4.407   9.494  0.3654 -0.3569  0.0510
  387MPD2     H 5787   3.770   4.415   9.871 -0.6209 -3.9080 -0.4898
  387MPD2    H1 5788   3.755   4.201   9.498 -4.0868 -0.0247  1.0640
  387MPD2    H2 5789   3.822   4.608   9.486  0.9102 -1.3907 -1.0573
  387MPD2    H3 5790   3.773   4.399   9.386  1.7020  0.1760 -0.0993
  387MPD2     N 5791   3.773   4.171   9.774  0.2415  0.1946  1.3397
  387MPD2    H5 5792   3.791   4.183   9.873  0.1865  1.4847  1.1873
  387MPD2    N1 5793   3.856   4.629   9.767  0.0510 -1.0442 -0.1924
  387MPD2    H7 5794   3.864   4.605   9.866  0.7140  1.1550  0.2995
  388TMC3    C1 5795   3.943   0.099   9.849 -0.0435 -0.1170 -0.4694
  388TMC3    C2 5796   3.865   0.190   9.907  0.1385 -0.8877  0.4218
  388TMC3    C3 5797   3.885   0.224  10.037  0.1428 -0.3067 -0.8492
  388TMC3    C4 5798   4.034   0.027   9.919  0.1009 -0.2340 -0.4884
  388TMC3    C5 5799   4.061   0.070  10.050 -0.4660  0.6133  0.0662
  388TMC3    C6 5800   3.990   0.169  10.108 -0.2077  0.2418 -0.1433
  388TMC3     C 5801   3.887   0.035   9.730 -0.0928  0.7000  0.0793
  388TMC3     O 5802   3.916   0.085   9.621 -0.3616  0.9532  0.0190
  388TMC3     H 5803   3.793   0.237   9.840  1.4037 -1.5422 -1.4091
  388TMC3    H1 5804   4.091   4.675   9.862  1.5425  0.5498 -0.0337
  388TMC3    H2 5805   4.015   0.192  10.212  1.6615 -0.5321 -0.4165
  388TMC3    C7 5806   4.120   4.695  10.142  0.7667 -0.4132 -0.0784
  388TMC3    C8 5807   3.838   0.353  10.088  0.3176  0.8320  0.4870
  388TMC3    O1 5808   4.155   0.004  10.253  0.2309  0.0706 -0.0956
  388TMC3    O2 5809   3.871   0.399  10.196 -0.1143  0.4558  0.2553
  389MPD2     C 5810   3.336   2.953  10.953 -0.7072  0.7647 -0.0400
  389MPD2    C1 5811   3.230   2.883  10.901  0.0996  0.0127  0.0432
  389MPD2    C2 5812   3.137   2.827  10.997  0.1498  0.5903  0.2535
  389MPD2    C3 5813   3.164   2.843  11.132  0.2907 -0.7823 -0.0502
  389MPD2    C4 5814   3.254   2.941  11.178 -0.6483  1.0766 -0.5556
  389MPD2    C5 5815   3.340   2.992  11.083  0.1112  0.1200  0.1346
  389MPD2     H 5816   3.052   2.775  10.954  2.0737 -1.2869 -1.2878
  389MPD2    H1 5817   3.263   2.974  11.281 -1.3477  1.1730 -0.5269
  389MPD2    H2 5818   3.415   2.995  10.891  1.2398 -0.7700  1.4108
  389MPD2    H3 5819   3.418   3.060  11.117 -1.7441  1.8652  0.9194
  389MPD2     N 5820   3.084   2.787  11.225 -0.2644 -0.0340 -0.9396
  389MPD2    H5 5821   3.130   2.784  11.316 -2.9906 -3.3573  0.2979
  389MPD2    N1 5822   3.211   2.869  10.759  0.0699 -0.0944  0.4300
  389MPD2    H7 5823   3.282   2.915  10.704  2.0947 -1.1067  2.2203
  390TMC3    C1 5824   2.934   2.660  11.355 -0.6891 -0.0564  0.1187
  390TMC3    C2 5825   2.847   2.560  11.361  0.0740  0.6743  0.5496
  390TMC3    C3 5826   2.767   2.553  11.471  0.3512 -0.3660 -0.0635
  390TMC3    C4 5827   2.949   2.746  11.464 -1.1122 -0.0198  0.1003
  390TMC3    C5 5828   2.870   2.733  11.572 -0.9940  0.2166 -0.4078
  390TMC3    C6 5829   2.774   2.636  11.584 -0.6040 -0.1882  0.1324
  390TMC3     C 5830   2.974   2.702  11.224  0.1144  0.2775 -0.1235
  390TMC3     O 5831   2.904   2.675  11.130 -0.3100 -0.1920 -0.0150
  390TMC3     H 5832   2.820   2.506  11.271 -0.4313 -1.8286  2.2126
  390TMC3    H1 5833   3.023   2.826  11.469 -0.7368 -0.2961 -1.0590
  390TMC3    H2 5834   2.700   2.631  11.663 -0.6419 -1.3126  0.0279
  390TMC3    C7 5835   2.882   2.841  11.675  0.2206  0.0107 -0.1336
  390TMC3    C8 5836   2.683   2.430  11.483 -0.1837 -0.3336 -0.4172
  390TMC3    O1 5837   2.944   2.944  11.657 -0.1677  0.1653 -0.2587
  390TMC3    O2 5838   2.649   2.391  11.374 -0.5806 -0.1791 -0.4532
  391MPD2     C 5839   1.947   4.319  11.341 -0.2526 -0.2158  0.6606
  391MPD2    C1 5840   2.080   4.349  11.317  0.1447  0.1234 -0.6508
  391MPD2    C2 5841   2.136   4.310  11.197 -0.5544  0.1167  0.2490
  391MPD2    C3 5842   2.056   4.269  11.090 -0.5365  0.0261 -0.2936
  391MPD2    C4 5843   1.918   4.264  11.107 -0.0706 -0.6281  0.1136
  391MPD2    C5 5844   1.868   4.286  11.234  0.2460  0.6967 -0.4763
  391MPD2     H 5845   2.243   4.318  11.178 -0.8457 -0.1457 -1.5359
  391MPD2    H1 5846   1.846   4.241  11.028 -0.8301  1.0929  0.2885
  391MPD2    H2 5847   1.904   4.338  11.439 -2.4021  1.5090 -0.6095
  391MPD2    H3 5848   1.761   4.281  11.253  0.2781 -0.6429 -0.6882
  391MPD2     N 5849   2.118   4.240  10.961  0.3985 -0.8311  0.6434
  391MPD2    H5 5850   2.219   4.234  10.967  0.5873 -0.0700 -1.7998
  391MPD2    N1 5851   2.153   4.407  11.428  0.1429 -0.3088 -0.2939
  391MPD2    H7 5852   2.102   4.413  11.515  0.4062 -0.4724 -0.1261
  392TMC3    C1 5853   2.129   4.197  10.724 -0.3872  0.5656 -0.2584
  392TMC3    C2 5854   2.070   4.151  10.607 -0.1633  0.6232 -0.0913
  392TMC3    C3 5855   2.124   4.188  10.492  0.0488  0.1903  0.4242
  392TMC3    C4 5856   2.246   4.271  10.715 -0.6406 -0.3015  0.3195
  392TMC3    C5 5857   2.300   4.300  10.593  0.1080 -0.0679  0.6930
  392TMC3    C6 5858   2.240   4.260  10.479  0.1152  0.1738 -0.6861
  392TMC3     C 5859   2.054   4.215  10.841 -0.4305 -0.1589  0.0268
  392TMC3     O 5860   1.941   4.251  10.816 -0.1592  0.1420 -0.2060
  392TMC3     H 5861   1.974   4.099  10.606  0.7512 -1.0523  1.4155
  392TMC3    H1 5862   2.296   4.304  10.805 -1.2112 -1.6403  1.1237
  392TMC3    H2 5863   2.278   4.267  10.378 -1.2754 -0.5353 -1.2515
  392TMC3    C7 5864   2.399   4.413  10.588 -0.2806 -0.8453  0.4961
  392TMC3    C8 5865   2.020   4.187  10.385 -0.6901 -0.0368  0.0026
  392TMC3    O1 5866   2.448   4.437  10.697  0.1826 -0.2509  0.0748
  392TMC3    O2 5867   1.930   4.107  10.397  0.3123  0.3224  0.2678
  393TMC3    C1 5868   0.845   2.210  10.432 -0.2526 -0.6062  0.5433
  393TMC3    C2 5869   0.737   2.158  10.489  0.1621 -0.4170 -0.2930
  393TMC3    C3 5870   0.737   2.137  10.623  0.5293  0.5324 -0.6465
  393TMC3    C4 5871   0.954   2.239  10.503  0.4577 -0.0831  0.2797
  393TMC3    C5 5872   0.942   2.236  10.639 -0.1588 -0.1245  0.3017
  393TMC3    C6 5873   0.834   2.181  10.697  0.0392  0.8602  0.3461
  393TMC3     C 5874   0.849   2.197  10.284  0.1921  1.2405 -0.0873
  393TMC3     O 5875   0.738   2.182  10.237 -0.1073  0.2624  0.2988
  393TMC3     H 5876   0.664   2.113  10.423 -1.7047 -0.1300  1.5861
  393TMC3    H1 5877   1.035   2.292  10.454 -1.2896  2.1743 -0.1828
  393TMC3    H2 5878   0.861   2.157  10.800  0.8789 -0.2359 -0.1288
  393TMC3    C7 5879   1.056   2.251  10.729 -0.4241 -0.6636  0.2426
  393TMC3    C8 5880   0.642   2.035  10.675  0.0626 -0.6147  0.0532
  393TMC3    O1 5881   1.036   2.278  10.844 -0.9549  0.2412  1.0949
  393TMC3    O2 5882   0.596   1.953  10.590 -0.0504 -0.5671  0.2979
  394TMC3    C1 5883   3.095   2.816  10.560  0.5531 -0.4770 -0.6883
  394TMC3    C2 5884   3.008   2.729  10.507 -0.5671 -0.0370  0.0646
  394TMC3    C3 5885   2.930   2.775  10.409  0.5012 -0.0763  0.2564
  394TMC3    C4 5886   3.124   2.941  10.515  0.1897 -0.5235 -1.1408
  394TMC3    C5 5887   3.051   2.978  10.411 -0.1650  0.1768  0.3087
  394TMC3    C6 5888   2.951   2.904  10.359  0.3428  0.4090  0.0219
  394TMC3     C 5889   3.122   2.782  10.694  0.6908  0.4365 -0.2179
  394TMC3     O 5890   3.050   2.700  10.748 -0.0693 -0.0102  0.1707
  394TMC3     H 5891   2.998   2.632  10.554  2.8575 -1.5144 -2.1850
  394TMC3    H1 5892   3.188   3.017  10.557  1.7990 -1.0612 -2.6163
  394TMC3    H2 5893   2.877   2.936  10.287 -1.2462  1.4040  2.1141
  394TMC3    C7 5894   3.101   3.082  10.322 -0.8181 -0.1454 -0.3042
  394TMC3    C8 5895   2.817   2.692  10.372  0.0368 -0.6715 -0.1170
  394TMC3    O1 5896   3.169   3.171  10.375  0.3604  0.4983 -0.4642
  394TMC3    O2 5897   2.724   2.751  10.317  0.2816  0.1564  0.5731
  395TMC3    C1 5898   2.270   0.050  14.478  0.2595 -0.0208  0.1644
  395TMC3    C2 5899   2.173   0.017  14.564 -0.7022  0.0151 -0.1686
  395TMC3    C3 5900   2.168   0.080  14.683 -0.3405  0.8736  0.0427
  395TMC3    C4 5901   2.358   0.149  14.522 -0.6647 -0.6160  0.8419
  395TMC3    C5 5902   2.354   0.210  14.638 -0.7429 -0.6758 -0.5406
  395TMC3    C6 5903   2.248   0.185  14.721  0.3915  0.0537 -0.4721
  395TMC3     C 5904   2.337   4.646  14.444 -0.4282 -0.0980  0.2484
  395TMC3     O 5905   2.319   4.557  14.527  0.2589  0.3125  0.1699
  395TMC3     H 5906   2.104   4.661  14.529 -0.1188 -0.6908  0.2238
  395TMC3    H1 5907   2.436   0.183  14.454 -1.3693 -0.3333  0.1671
  395TMC3    H2 5908   2.229   0.223  14.820  0.3258  0.0505 -0.4840
  395TMC3    C7 5909   2.478   0.236  14.711 -0.2774  0.3041 -0.2242
  395TMC3    C8 5910   2.108   4.718  14.787 -0.5850 -0.7462 -1.0415
  395TMC3    O1 5911   2.474   0.300  14.814 -0.2031  1.0976  0.0464
  395TMC3    O2 5912   2.067   0.052  14.888  0.1467  0.0850  0.3809
  396MPD2     C 5913   2.491   0.496  16.810 -0.7397 -0.6272 -0.0784
  396MPD2    C1 5914   2.582   0.533  16.908  0.2048  0.2762  1.2344
  396MPD2    C2 5915   2.680   0.630  16.875  0.5109 -0.3231  0.0423
  396MPD2    C3 5916   2.680   0.697  16.751 -0.0208  0.3824 -0.3791
  396MPD2    C4 5917   2.590   0.663  16.656  0.2770 -0.4841  0.3729
  396MPD2    C5 5918   2.499   0.569  16.691  0.2792 -0.1134 -0.2876
  396MPD2     H 5919   2.754   0.663  16.947  1.5516  1.7336 -1.9692
  396MPD2    H1 5920   2.584   0.707  16.557 -2.5862 -1.0470  0.2872
  396MPD2    H2 5921   2.410   0.426  16.827 -0.1677 -0.9752  1.2336
  396MPD2    H3 5922   2.424   0.549  16.615 -3.3046  1.5049  2.8016
  396MPD2     N 5923   2.774   0.799  16.721 -0.2281 -0.1216  0.9239
  396MPD2    H5 5924   2.849   0.812  16.787 -1.0085  0.5552  1.6723
  396MPD2    N1 5925   2.590   0.462  17.036 -0.2343 -0.2810  1.1359
  396MPD2    H7 5926   2.549   0.370  17.027  0.6792 -0.7113  1.3971
  397TMC3    C1 5927   2.642   0.393  17.252 -0.3402  0.3323  0.2882
  397TMC3    C2 5928   2.761   0.326  17.271  0.9048  0.7720  0.2046
  397TMC3    C3 5929   2.761   0.190  17.282 -0.3807 -0.0144  0.5028
  397TMC3    C4 5930   2.523   0.322  17.230  0.4499  0.4785 -0.1100
  397TMC3    C5 5931   2.522   0.186  17.238  1.2267 -0.2318  0.3658
  397TMC3    C6 5932   2.643   0.119  17.267  0.4313  0.1914  0.2133
  397TMC3     C 5933   2.660   0.493  17.149 -0.6974  0.6441  0.1212
  397TMC3     O 5934   2.750   0.571  17.165 -0.2962  0.3870 -0.3764
  397TMC3     H 5935   2.840   0.395  17.245  0.5097  1.2309  0.2079
  397TMC3    H1 5936   2.429   0.377  17.236  0.1950  0.1019 -0.6386
  397TMC3    H2 5937   2.635   0.011  17.263  0.5854  0.2115 -0.7743
  397TMC3    C7 5938   2.389   0.140  17.271  0.6428 -0.0792 -0.6656
  397TMC3    C8 5939   2.864   0.139  17.187  0.5943  0.1402 -0.5822
  397TMC3    O1 5940   2.297   0.152  17.192 -0.5028 -0.0713 -0.5010
  397TMC3    O2 5941   2.822   0.097  17.082  0.4579  0.7241 -0.3190
  398MPD2     C 5942   0.817   1.485   0.235 -0.0511 -0.7060 -0.1397
  398MPD2    C1 5943   0.941   1.432   0.272  0.3654 -0.0254  0.0448
  398MPD2    C2 5944   1.059   1.491   0.224 -0.3729 -0.4955 -0.1278
  398MPD2    C3 5945   1.051   1.594   0.137  0.0606  0.4456  0.1154
  398MPD2    C4 5946   0.928   1.641   0.094  0.5645 -0.0985 -0.2513
  398MPD2    C5 5947   0.815   1.587   0.146  0.0992 -0.4573 -0.2526
  398MPD2     H 5948   1.159   1.456   0.245 -0.3053 -0.1711  0.0773
  398MPD2    H1 5949   0.922   1.728   0.030 -1.8634 -1.0136 -1.2717
  398MPD2    H2 5950   0.724   1.448   0.277 -0.6552  1.7390  0.7101
  398MPD2    H3 5951   0.717   1.627   0.121 -0.2542 -0.3991  1.2180
  398MPD2     N 5952   1.174   1.647   0.086 -0.4473  0.1313 -0.3968
  398MPD2    H5 5953   1.262   1.617   0.125  0.7971  3.1253 -0.9082
  398MPD2    N1 5954   0.953   1.317   0.360 -0.0010 -0.4564 -0.2141
  398MPD2    H7 5955   1.050   1.298   0.385 -0.3638 -0.3870  1.2417
  399TMC3    C1 5956   0.902   1.103   0.432 -0.4356  0.0678 -0.2474
  399TMC3    C2 5957   1.027   1.061   0.409 -0.5472 -1.0883  0.0410
  399TMC3    C3 5958   1.051   0.927   0.407  0.5036  0.0782  0.7822
  399TMC3    C4 5959   0.801   1.008   0.447  0.1168 -0.2175 -0.9118
  399TMC3    C5 5960   0.823   0.874   0.458 -1.4783  0.4526  0.1675
  399TMC3    C6 5961   0.952   0.835   0.422 -0.7360  0.3163  0.0150
  399TMC3     C 5962   0.851   1.231   0.385 -0.4924 -0.0928  0.3655
  399TMC3     O 5963   0.741   1.228   0.334  0.0510  0.2151 -0.0221
  399TMC3     H 5964   1.105   1.135   0.394 -0.9861 -0.0071  3.1818
  399TMC3    H1 5965   0.704   1.051   0.469  0.6501 -0.0938  1.1452
  399TMC3    H2 5966   0.972   0.728   0.424  0.4494  0.5137 -0.9604
  399TMC3    C7 5967   0.719   0.775   0.427 -0.2886  0.2481  0.1337
  399TMC3    C8 5968   1.188   0.889   0.362  0.5854 -0.0069  0.0600
  399TMC3    O1 5969   0.740   0.660   0.461  0.2924 -0.0510  0.2592
  399TMC3    O2 5970   1.276   0.975   0.373 -0.6040 -0.2568  0.3345
  400TMC3    C1 5971   4.298   4.673  17.060  0.1668 -0.5346 -0.7618
  400TMC3    C2 5972   4.162   4.670  17.024 -0.0199  0.1450 -0.2211
  400TMC3    C3 5973   4.100   0.071  17.006  0.1629  0.5682  0.1381
  400TMC3    C4 5974   4.363   0.078  17.093  0.1679  0.6812 -0.5609
  400TMC3    C5 5975   4.291   0.189  17.080 -0.1720 -0.4811 -0.0148
  400TMC3    C6 5976   4.163   0.185  17.033  0.4635 -0.0933 -0.1490
  400TMC3     C 5977   4.338   4.561  17.150 -0.0434 -0.3167 -0.5777
  400TMC3     O 5978   4.289   4.453  17.136 -0.2305 -0.2650  0.1095
  400TMC3     H 5979   4.110   4.577  17.007  1.8009 -0.4057 -2.8565
  400TMC3    H1 5980   4.470   0.088  17.109  0.3970 -1.3218 -0.8531
  400TMC3    H2 5981   4.110   0.275  17.005  1.3899  0.2616 -0.7093
  400TMC3    C7 5982   4.350   0.316  17.126  0.2323  0.1761  0.1226
  400TMC3    C8 5983   3.969   0.081  16.939 -0.6305 -0.0357 -0.5113
  400TMC3    O1 5984   4.471   0.329  17.114 -0.2232 -0.6037  0.1948
  400TMC3    O2 5985   3.916   0.190  16.954 -0.0788 -0.7790 -0.0824
  401MPD2     C 5986   2.865   3.348   1.687 -0.6329  0.0633 -0.9125
  401MPD2    C1 5987   2.989   3.320   1.641  0.3348 -0.3041  0.2938
  401MPD2    C2 5988   3.010   3.194   1.584  0.5283 -0.5844  0.0841
  401MPD2    C3 5989   2.918   3.096   1.587 -0.5476 -0.2531  0.3560
  401MPD2    C4 5990   2.792   3.131   1.633 -0.3249  0.5284  0.5272
  401MPD2    C5 5991   2.772   3.249   1.704 -0.1675 -0.4210  0.1291
  401MPD2     H 5992   3.111   3.169   1.555  0.5142 -0.6401  0.0841
  401MPD2    H1 5993   2.708   3.063   1.640  0.3734 -0.2715  1.0854
  401MPD2    H2 5994   2.843   3.444   1.732 -0.9516  0.4125 -1.8176
  401MPD2    H3 5995   2.676   3.270   1.750 -1.0958 -0.6746 -1.7024
  401MPD2     N 5996   2.950   2.976   1.530  0.2327  0.0229 -0.6220
  401MPD2    H5 5997   3.038   2.959   1.484  0.4141 -2.3448  0.5733
  401MPD2    N1 5998   3.095   3.416   1.630 -0.4650  0.1395 -0.3298
  401MPD2    H7 5999   3.182   3.378   1.593  1.3391  0.7781  3.2754
  402TMC3    C1 6000   2.923   2.772   1.429  0.3008 -0.3294 -0.6895
  402TMC3    C2 6001   2.901   2.639   1.448  0.2110 -0.4263  0.2442
  402TMC3    C3 6002   2.930   2.552   1.342  0.3485  0.6681  0.1643
  402TMC3    C4 6003   2.985   2.826   1.323  0.3338  0.3703 -0.1932
  402TMC3    C5 6004   3.022   2.739   1.228  0.1976 -0.5042 -0.4384
  402TMC3    C6 6005   2.983   2.608   1.229  0.4166 -0.5319  0.4449
  402TMC3     C 6006   2.875   2.869   1.528  0.1779  0.5783  0.4585
  402TMC3     O 6007   2.776   2.830   1.590 -0.5168  0.1960  0.0069
  402TMC3     H 6008   2.844   2.598   1.531 -0.7916 -1.5312 -1.0019
  402TMC3    H1 6009   3.007   2.932   1.310 -1.5888  0.7313 -0.6101
  402TMC3    H2 6010   3.000   2.542   1.145  0.3944  1.3085 -1.0040
  402TMC3    C7 6011   3.101   2.796   1.120  0.2996  0.5709 -0.6425
  402TMC3    C8 6012   2.964   2.410   1.360  0.1342  0.2563 -0.1900
  402TMC3    O1 6013   3.096   2.915   1.104 -0.3930  0.6622 -0.3473
  402TMC3    O2 6014   3.004   2.349   1.263 -0.1748 -0.4820 -0.5653
  403MPD2     C 6015   0.895   2.477  13.439 -0.1480 -0.1192 -0.0646
  403MPD2    C1 6016   0.883   2.350  13.489  0.3510  0.5077 -0.1812
  403MPD2    C2 6017   0.943   2.324  13.618 -0.3279  0.5578 -0.9089
  403MPD2    C3 6018   1.009   2.422  13.690  0.6232  0.8678 -0.0325
  403MPD2    C4 6019   1.015   2.549  13.630 -0.4016  0.4340 -0.2313
  403MPD2    C5 6020   0.949   2.576  13.515  0.0787 -0.2372 -0.0894
  403MPD2     H 6021   0.923   2.230  13.669  2.5363  1.1481  1.2931
  403MPD2    H1 6022   1.060   2.638  13.673  0.8834 -0.5451  0.4261
  403MPD2    H2 6023   0.852   2.504  13.343 -2.4566 -0.1387  0.9636
  403MPD2    H3 6024   0.955   2.676  13.474 -0.2121 -0.0172  0.4168
  403MPD2     N 6025   1.076   2.395  13.815  0.1048 -0.3454 -0.1284
  403MPD2    H5 6026   1.106   2.299  13.831 -3.2252 -1.7447 -2.1561
  403MPD2    N1 6027   0.818   2.253  13.405  0.6446  0.0599  0.2866
  403MPD2    H7 6028   0.785   2.288  13.315 -2.8979 -1.6455  0.9363
  404TMC3    C1 6029   0.739   2.039  13.336  0.0342 -0.3947 -0.3408
  404TMC3    C2 6030   0.658   1.940  13.378  0.0342  0.3987 -0.2996
  404TMC3    C3 6031   0.596   1.861  13.289  0.6814 -0.0418  0.3359
  404TMC3    C4 6032   0.760   2.067  13.201 -0.5212  0.4631  0.1028
  404TMC3    C5 6033   0.703   1.980  13.110  0.2166 -0.2031 -0.1975
  404TMC3    C6 6034   0.628   1.879  13.156  0.5256  0.5910 -0.1426
  404TMC3     C 6035   0.799   2.121  13.438  0.9561 -0.0444  0.0545
  404TMC3     O 6036   0.835   2.069  13.544 -0.0207 -0.0883 -0.1255
  404TMC3     H 6037   0.641   1.934  13.485  0.7105 -1.1494 -0.2881
  404TMC3    H1 6038   0.825   2.145  13.166  0.9681 -0.1747  1.4450
  404TMC3    H2 6039   0.589   1.811  13.081  0.4082  1.0959 -0.5430
  404TMC3    C7 6040   0.701   2.024  12.969  0.0385  0.4323 -0.5556
  404TMC3    C8 6041   0.532   1.737  13.323 -0.7553  0.6709 -0.4309
  404TMC3    O1 6042   0.762   2.128  12.950  0.5441 -0.4499 -0.3786
  404TMC3    O2 6043   0.547   1.642  13.247  0.0047  0.0029 -0.3459
  405MPD2     C 6044   1.271   2.821  14.965 -0.3961 -0.0840  0.4252
  405MPD2    C1 6045   1.215   2.729  14.881 -0.0674 -0.2296  0.0571
  405MPD2    C2 6046   1.150   2.769  14.764  0.4241 -0.5401  0.5079
  405MPD2    C3 6047   1.170   2.894  14.708 -0.0284  0.3017 -0.9033
  405MPD2    C4 6048   1.250   2.984  14.783  0.1445  0.1884 -0.2756
  405MPD2    C5 6049   1.294   2.946  14.911  0.4878 -0.5914  0.3757
  405MPD2     H 6050   1.096   2.701  14.700  1.4529 -0.6397 -0.2654
  405MPD2    H1 6051   1.276   3.081  14.743 -0.7537 -0.1322 -1.6684
  405MPD2    H2 6052   1.313   2.811  15.065  0.7522  0.8365  0.0292
  405MPD2    H3 6053   1.337   3.024  14.973  0.4720  0.1392 -0.5432
  405MPD2     N 6054   1.116   2.918  14.579 -0.0610 -0.0514  0.7066
  405MPD2    H5 6055   1.047   2.854  14.542  0.3796  0.1669 -0.5136
  405MPD2    N1 6056   1.221   2.596  14.917  0.2250 -0.3688 -0.3004
  405MPD2    H7 6057   1.232   2.578  15.016  0.0464 -0.9932 -0.3951
  406TMC3    C1 6058   0.904   3.067  14.219  0.1644  0.6625 -0.3432
  406TMC3    C2 6059   0.879   2.938  14.199  0.2544  0.7568  0.4066
  406TMC3    C3 6060   0.955   2.839  14.258 -0.3334 -0.1962  0.1024
  406TMC3    C4 6061   1.011   3.104  14.308 -0.8060 -0.2471  0.3635
  406TMC3    C5 6062   1.088   3.004  14.360 -0.0833 -0.1234 -0.4499
  406TMC3    C6 6063   1.065   2.875  14.336  0.0566  0.7453  0.3151
  406TMC3     C 6064   0.801   3.170  14.220  0.2388  0.2176  0.1093
  406TMC3     O 6065   0.848   3.283  14.210 -0.3315 -0.3685  0.7981
  406TMC3     H 6066   0.782   2.909  14.163  0.6418 -1.9962  1.6143
  406TMC3    H1 6067   1.015   3.207  14.342  0.4519 -0.0391 -0.3936
  406TMC3    H2 6068   1.149   2.814  14.368 -0.1212  0.7817  0.8490
  406TMC3    C7 6069   1.141   3.030  14.498  0.3671  0.8301 -0.5813
  406TMC3    C8 6070   0.934   2.698  14.227 -0.1466  0.1662 -0.0384
  406TMC3    O1 6071   1.175   3.144  14.532 -0.0071  0.6279  0.5889
  406TMC3    O2 6072   0.850   2.661  14.146  0.0611 -0.4353 -0.0928
  407MPD2     C 6073   3.432   4.587   9.288  0.8758  0.5633 -0.5723
  407MPD2    C1 6074   3.424   4.484   9.377 -0.6186 -0.1710  0.2013
  407MPD2    C2 6075   3.449   4.507   9.511 -0.9231 -0.7343 -1.2768
  407MPD2    C3 6076   3.454   4.629   9.557 -0.1459 -0.5908 -0.1490
  407MPD2    C4 6077   3.457   0.014   9.467 -0.0994 -0.2183 -0.3504
  407MPD2    C5 6078   3.449   4.717   9.334 -0.1314 -0.2286 -0.0203
  407MPD2     H 6079   3.438   4.421   9.575 -2.0541  2.0895  2.3720
  407MPD2    H1 6080   3.463   0.118   9.495  3.6103 -0.3129 -0.8531
  407MPD2    H2 6081   3.423   4.576   9.180  1.1226  0.7858 -0.6155
  407MPD2    H3 6082   3.469   0.082   9.269  3.2366 -0.4760  0.6854
  407MPD2     N 6083   3.478   4.669   9.691  0.1781 -0.2386 -0.3669
  407MPD2    H5 6084   3.492   0.046   9.718  0.9769 -0.5492  0.3257
  407MPD2    N1 6085   3.389   4.352   9.346 -0.0145  0.2008 -0.2337
  407MPD2    H7 6086   3.397   4.271   9.407  0.3784  0.3819 -0.0435
  408TMC3    C1 6087   3.281   4.187   9.218  0.2072  0.6666  0.0407
  408TMC3    C2 6088   3.357   4.081   9.270  0.0675  0.4377  0.5402
  408TMC3    C3 6089   3.304   3.960   9.249  0.8311 -0.1903 -0.5452
  408TMC3    C4 6090   3.172   4.164   9.135 -0.2147  0.1645  0.6839
  408TMC3    C5 6091   3.118   4.039   9.131  0.9250  0.0082  0.0654
  408TMC3    C6 6092   3.177   3.939   9.202 -0.1305 -0.4688  0.1399
  408TMC3     C 6093   3.326   4.327   9.224 -0.6270 -1.0966 -0.0179
  408TMC3     O 6094   3.271   4.405   9.148  0.6456  0.0184  0.3806
  408TMC3     H 6095   3.452   4.105   9.316 -0.0848  2.4711 -0.2109
  408TMC3    H1 6096   3.115   4.246   9.094 -1.4022 -0.7598  0.4620
  408TMC3    H2 6097   3.136   3.839   9.194  0.6608 -0.8001  0.1517
  408TMC3    C7 6098   2.978   4.028   9.086  0.3810  0.3823 -0.5624
  408TMC3    C8 6099   3.354   3.850   9.324 -0.6015  0.4279  0.7279
  408TMC3    O1 6100   2.919   4.131   9.052 -0.5211  0.0170 -0.0724
  408TMC3    O2 6101   3.275   3.755   9.344  0.1427  0.3082 -0.1040
  409MPD2     C 6102   2.750   4.294  17.146  0.4856 -0.3813  0.6128
  409MPD2    C1 6103   2.854   4.311  17.242  0.2813  0.5902 -0.6414
  409MPD2    C2 6104   2.940   4.411  17.231 -0.0043 -0.1699  0.1759
  409MPD2    C3 6105   2.953   4.486  17.116 -0.4743 -0.0652 -0.0021
  409MPD2    C4 6106   2.864   4.458  17.012  1.0096  0.1601 -0.2277
  409MPD2    C5 6107   2.759   4.379  17.040  0.9290 -0.2218 -0.0771
  409MPD2     H 6108   3.005   4.423  17.317 -0.4664 -1.2989  0.6788
  409MPD2    H1 6109   2.858   4.506  16.915 -1.2820 -0.3421 -0.3300
  409MPD2    H2 6110   2.669   4.223  17.154  1.1848 -1.0678  1.5220
  409MPD2    H3 6111   2.676   4.371  16.971  0.4620 -0.6745  0.5351
  409MPD2     N 6112   3.069   4.563  17.084  0.0198  0.1871 -0.1355
  409MPD2    H5 6113   3.075   4.592  16.986  1.1753  1.5896  0.3570
  409MPD2    N1 6114   2.857   4.229  17.360 -0.2914 -0.5445  0.2541
  409MPD2    H7 6115   2.931   4.253  17.425  1.2016 -0.3252 -1.5073
  410TMC3    C1 6116   3.265   4.696  17.096  0.8784  0.1451  0.0427
  410TMC3    C2 6117   3.377   0.011  17.162 -0.4652  0.2050  0.2364
  410TMC3    C3 6118   3.468   0.091  17.104  0.0032  0.4434  0.0147
  410TMC3    C4 6119   3.247   0.029  16.970 -0.0507 -0.7459 -0.4505
  410TMC3    C5 6120   3.347   0.107  16.905  0.0445 -0.3192 -0.1985
  410TMC3    C6 6121   3.465   0.135  16.967  0.1351  0.0122  0.8243
  410TMC3     C 6122   3.166   4.608  17.170  0.1647  0.3411  0.9418
  410TMC3     O 6123   3.166   4.595  17.293  0.2768  0.2317 -0.3346
  410TMC3     H 6124   3.401   4.713  17.266  0.4457  0.5376  0.0852
  410TMC3    H1 6125   3.149   0.033  16.923 -0.8267  1.3097  1.3465
  410TMC3    H2 6126   3.551   0.193  16.935 -1.2567  0.7666 -1.5630
  410TMC3    C7 6127   3.308   0.165  16.775  0.9865 -0.0441  0.5117
  410TMC3    C8 6128   3.601   0.081  17.159 -0.0575 -0.1090  0.1977
  410TMC3    O1 6129   3.222   0.098  16.721  0.0603 -0.2064 -0.0224
  410TMC3    O2 6130   3.677   0.177  17.141 -0.4488  0.2076  0.0879
  411MPD2     C 6131   3.373   0.636  14.814 -0.2259 -0.1085 -0.1291
  411MPD2    C1 6132   3.247   0.684  14.795 -0.1118  0.2100  0.3697
  411MPD2    C2 6133   3.142   0.597  14.754 -0.3544 -0.1687  0.5446
  411MPD2    C3 6134   3.169   0.458  14.735  0.5398 -0.6221  0.0281
  411MPD2    C4 6135   3.297   0.410  14.765 -0.2051 -0.4897 -0.1437
  411MPD2    C5 6136   3.395   0.497  14.805 -0.7824  0.2598 -0.2772
  411MPD2     H 6137   3.048   0.647  14.735 -0.7536 -1.0140  0.2778
  411MPD2    H1 6138   3.329   0.311  14.734  4.0350  0.2405  1.8582
  411MPD2    H2 6139   3.458   0.696  14.848 -0.7002  1.4344 -1.6479
  411MPD2    H3 6140   3.496   0.458  14.815 -0.9707  0.1616  1.2034
  411MPD2     N 6141   3.077   0.379  14.657  0.2921  0.4189  0.3276
  411MPD2    H5 6142   3.119   0.295  14.617 -0.6128 -0.0037  0.2832
  411MPD2    N1 6143   3.217   0.822  14.802  0.1186 -0.4738  0.7120
  411MPD2    H7 6144   3.122   0.843  14.773  0.1387 -2.5853 -0.8473
  412TMC3    C1 6145   2.893   0.344  14.504 -0.3020 -0.4157  0.2677
  412TMC3    C2 6146   2.766   0.367  14.478  0.0606 -0.3712  0.3131
  412TMC3    C3 6147   2.724   0.327  14.356 -0.4666  0.2196 -0.4468
  412TMC3    C4 6148   2.982   0.283  14.425 -0.0499 -0.5807 -0.4312
  412TMC3    C5 6149   2.936   0.230  14.307  0.5717  0.1234 -0.1013
  412TMC3    C6 6150   2.807   0.259  14.274  0.4442  0.7314 -0.2227
  412TMC3     C 6151   2.946   0.411  14.633  0.7766  0.0855 -0.5750
  412TMC3     O 6152   2.869   0.496  14.681  0.1979 -0.0027 -0.2601
  412TMC3     H 6153   2.713   0.441  14.536  0.5301  0.7695 -0.7201
  412TMC3    H1 6154   3.089   0.284  14.443 -0.2822 -1.8658  0.9412
  412TMC3    H2 6155   2.773   0.254  14.171 -0.2382  0.0035  0.0302
  412TMC3    C7 6156   3.026   0.250  14.199 -0.2934 -0.2359  0.1570
  412TMC3    C8 6157   2.660   0.435  14.289 -0.1360 -0.4615 -0.0352
  412TMC3    O1 6158   2.977   0.316  14.107 -0.3764  0.4742 -0.1669
  412TMC3    O2 6159   2.552   0.473  14.321 -0.7764  0.6489  0.1326
  413MPD2     C 6160   0.261   4.062  15.443  0.4807 -0.6861  1.0270
  413MPD2    C1 6161   0.179   3.963  15.400 -0.1565 -0.1266 -0.1982
  413MPD2    C2 6162   0.226   3.849  15.344  0.1771  0.1014 -0.0597
  413MPD2    C3 6163   0.360   3.832  15.345 -0.0304  0.0621  0.2179
  413MPD2    C4 6164   0.451   3.934  15.380 -0.4348  0.3008  0.7289
  413MPD2    C5 6165   0.396   4.042  15.437 -0.5856  0.1217  0.4667
  413MPD2     H 6166   0.161   3.769  15.310  1.0735 -1.2663  1.4879
  413MPD2    H1 6167   0.558   3.920  15.371 -0.7340 -0.3600 -1.6014
  413MPD2    H2 6168   0.220   4.151  15.491 -0.4937  0.3122 -1.6520
  413MPD2    H3 6169   0.468   4.118  15.465 -1.4211  0.7304  0.9532
  413MPD2     N 6170   0.411   3.705  15.305  0.3043 -0.1645 -0.6472
  413MPD2    H5 6171   0.355   3.636  15.256  2.1110 -3.5005  1.9581
  413MPD2    N1 6172   0.035   3.987  15.404 -0.0348  0.3669  0.8942
  413MPD2    H7 6173   0.004   4.068  15.455  0.0497  0.7646  0.3151
  414TMC3    C1 6174   0.570   3.532  15.297  0.4109  0.3950  0.1702
  414TMC3    C2 6175   0.635   3.456  15.391  0.1865  0.0104 -0.5684
  414TMC3    C3 6176   0.659   3.328  15.347  0.3612 -0.7498  0.1328
  414TMC3    C4 6177   0.506   3.480  15.181  0.0447  0.4230 -0.2311
  414TMC3    C5 6178   0.539   3.352  15.152  0.6665 -0.3449  0.4494
  414TMC3    C6 6179   0.623   3.281  15.227 -0.3341  0.3571  0.5352
  414TMC3     C 6180   0.541   3.670  15.330 -0.1571 -0.3044 -0.3808
  414TMC3     O 6181   0.610   3.710  15.420  0.3886  0.1433 -0.0384
  414TMC3     H 6182   0.666   3.483  15.491 -1.1577 -1.1546  0.1716
  414TMC3    H1 6183   0.456   3.546  15.110  3.4402  0.4835 -2.5541
  414TMC3    H2 6184   0.645   3.179  15.197  2.9065  0.8859  1.1595
  414TMC3    C7 6185   0.564   3.331  15.016 -0.2332  0.1308  0.1426
  414TMC3    C8 6186   0.728   3.228  15.430  0.5020 -0.4755 -0.0689
  414TMC3    O1 6187   0.491   3.385  14.938  0.4079  0.3306 -0.1592
  414TMC3    O2 6188   0.676   3.116  15.431  0.0768 -0.1337  0.0385
  415TMC3    C1 6189   0.513   1.078   9.183 -0.8983  0.1874 -0.1976
  415TMC3    C2 6190   0.635   1.045   9.135  0.3457  0.1009  0.2242
  415TMC3    C3 6191   0.635   0.986   9.012 -0.6325 -0.2059 -0.9249
  415TMC3    C4 6192   0.397   1.034   9.125  0.1658 -0.1225 -0.5021
  415TMC3    C5 6193   0.406   0.965   9.009 -0.5149  0.1259  0.2168
  415TMC3    C6 6194   0.527   0.940   8.946 -0.7625 -0.4384 -0.0220
  415TMC3     C 6195   0.490   1.112   9.321  0.6009  0.1510  0.1823
  415TMC3     O 6196   0.381   1.165   9.344 -0.4688 -0.2641 -0.2048
  415TMC3     H 6197   0.723   1.096   9.172  0.0287  1.5141 -1.0054
  415TMC3    H1 6198   0.300   1.062   9.164  1.8918  3.5246  1.1942
  415TMC3    H2 6199   0.533   0.882   8.855 -1.6819  0.2872 -0.5425
  415TMC3    C7 6200   0.286   0.925   8.933 -0.1667 -0.3419  0.3590
  415TMC3    C8 6201   0.764   0.965   8.947  0.0539  0.3439 -0.3432
  415TMC3    O1 6202   0.303   0.879   8.823  0.3298  0.1307 -0.5556
  415TMC3    O2 6203   0.768   0.879   8.857 -0.1152  0.1753  0.1186
  416MPD2     C 6204   2.695   0.726  11.422 -0.4896 -0.3633  0.7669
  416MPD2    C1 6205   2.558   0.740  11.412 -0.2897  0.8036  0.9970
  416MPD2    C2 6206   2.488   0.651  11.328  0.1173 -0.2705  0.1877
  416MPD2    C3 6207   2.556   0.569  11.241  0.0416 -0.2569 -0.0844
  416MPD2    C4 6208   2.696   0.569  11.244 -0.0874 -0.0365 -0.1489
  416MPD2    C5 6209   2.761   0.646  11.336 -0.5062  0.1216  0.7642
  416MPD2     H 6210   2.380   0.636  11.330  0.0830 -0.1200 -0.2875
  416MPD2    H1 6211   2.752   0.496  11.186  2.3896  0.1825  1.9389
  416MPD2    H2 6212   2.755   0.794  11.480  1.4151  0.6744 -2.3851
  416MPD2    H3 6213   2.868   0.632  11.337 -0.7411 -1.9267 -2.8055
  416MPD2     N 6214   2.485   0.480  11.164 -0.0926 -0.1217 -0.5207
  416MPD2    H5 6215   2.385   0.473  11.180  0.2601  1.2715  2.3761
  416MPD2    N1 6216   2.491   0.835  11.494 -0.0458 -0.6776 -0.2239
  416MPD2    H7 6217   2.553   0.879  11.561 -0.4770  0.3356 -0.4884
  417TMC3    C1 6218   2.324   1.000  11.540  0.7869  0.5589 -0.6433
  417TMC3    C2 6219   2.342   1.012  11.677  0.0560 -0.1765 -0.9234
  417TMC3    C3 6220   2.285   1.124  11.732  0.6604 -1.2098 -0.2329
  417TMC3    C4 6221   2.249   1.085  11.464  0.0266  0.0472  0.1310
  417TMC3    C5 6222   2.188   1.197  11.521  0.3216  0.5531 -0.1873
  417TMC3    C6 6223   2.203   1.213  11.658 -0.3591 -0.2319  0.2527
  417TMC3     C 6224   2.357   0.877  11.474  0.6102  0.7058 -0.7110
  417TMC3     O 6225   2.280   0.854  11.379 -0.1393 -0.1562 -0.2351
  417TMC3     H 6226   2.397   0.932  11.724  0.2665 -0.2941 -1.3676
  417TMC3    H1 6227   2.218   1.064  11.362 -1.3059 -0.1180  0.5616
  417TMC3    H2 6228   2.159   1.300  11.706 -0.4580 -0.3811  0.4282
  417TMC3    C7 6229   2.066   1.244  11.460  0.9105  0.2970  0.6253
  417TMC3    C8 6230   2.294   1.140  11.876 -0.2405  0.4412 -0.4635
  417TMC3    O1 6231   2.072   1.229  11.336  0.4949 -0.1026 -0.3431
  417TMC3    O2 6232   2.233   1.236  11.928  0.0740  0.4303  0.3106
  418TMC3    C1 6233   1.497   1.725  17.535 -0.3333  0.6144  0.9489
  418TMC3    C2 6234   1.372   1.771  17.535  0.4032 -0.2384 -0.0445
  418TMC3    C3 6235   1.316   1.784  17.656  0.5431 -0.0495 -0.3916
  418TMC3    C4 6236   1.577   1.704  17.638 -0.3195 -0.0070 -0.5029
  418TMC3    C5 6237   1.524   1.729   0.083  1.1576  0.6505  0.0162
  418TMC3    C6 6238   1.395   1.760   0.085  0.1840  0.3205  0.1080
  418TMC3     C 6239   1.550   1.697  17.400 -0.4788  0.1077  0.2923
  418TMC3     O 6240   1.481   1.734  17.308  0.7599 -0.0109  0.1859
  418TMC3     H 6241   1.306   1.774  17.448 -2.5512 -0.3551  2.1917
  418TMC3    H1 6242   1.683   1.692  17.621  0.0955  3.0692 -0.1688
  418TMC3    H2 6243   1.348   1.790   0.179  1.0851  1.1162  0.3095
  418TMC3    C7 6244   1.580   1.670   0.207 -0.2973 -0.3033  0.7009
  418TMC3    C8 6245   1.182   1.743  17.668 -0.5819  0.3841 -0.0442
  418TMC3    O1 6246   1.496   1.635   0.288 -0.1942 -0.2683 -0.4157
  418TMC3    O2 6247   1.093   1.767  17.583 -0.8511  0.4632 -0.5069
  419MPD2     C 6248   0.079   0.839  12.425  0.5322 -0.6560  0.2016
  419MPD2    C1 6249   4.660   0.851  12.446  0.2799 -0.5075  0.2741
  419MPD2    C2 6250   4.611   0.862  12.578 -0.4190  0.0682  0.1119
  419MPD2    C3 6251   4.702   0.872  12.681  0.1072 -0.4614 -0.1086
  419MPD2    C4 6252   0.119   0.851  12.660  0.5133 -0.1935  0.4837
  419MPD2    C5 6253   0.165   0.832  12.533 -0.0260  0.1043 -0.2122
  419MPD2     H 6254   4.506   0.880  12.597 -0.4888 -1.4305  1.1835
  419MPD2    H1 6255   0.192   0.853  12.739  1.4795 -0.8581 -0.3795
  419MPD2    H2 6256   0.125   0.834  12.327  1.2368 -2.7905  0.6500
  419MPD2    H3 6257   0.267   0.805  12.509 -0.0176  0.2108 -0.2978
  419MPD2     N 6258   4.652   0.905  12.807 -0.4858  0.2931 -0.1961
  419MPD2    H5 6259   4.552   0.923  12.809 -0.6194 -0.4121 -0.5481
  419MPD2    N1 6260   4.564   0.836  12.342 -0.6400 -0.3277 -0.1419
  419MPD2    H7 6261   4.466   0.828  12.366 -0.6413 -2.7410 -0.9484
  420TMC3    C1 6262   4.640   0.913  13.039  0.3538  0.0754 -0.3661
  420TMC3    C2 6263   4.505   0.898  13.028 -0.4574 -0.0636  1.1454
  420TMC3    C3 6264   4.426   0.934  13.140  0.3538  0.2352  0.3603
  420TMC3    C4 6265   4.689   0.979  13.143 -0.2342  0.6774 -0.3265
  420TMC3    C5 6266   4.610   1.030  13.242  0.3231  0.8739 -0.0220
  420TMC3    C6 6267   4.471   1.005  13.247 -0.5261 -0.2672 -0.2686
  420TMC3     C 6268   0.003   0.902  12.922 -0.1106 -0.0495  0.3256
  420TMC3     O 6269   0.122   0.888  12.943  0.0230 -0.1761  0.3706
  420TMC3     H 6270   4.464   0.843  12.944 -0.0386  2.6493 -0.8509
  420TMC3    H1 6271   0.077   0.978  13.156 -0.1883  0.0149 -0.7875
  420TMC3    H2 6272   4.417   1.059  13.323  0.0846  1.7796 -1.2988
  420TMC3    C7 6273   4.657   1.013  13.378  0.2347  0.5643  0.4085
  420TMC3    C8 6274   4.285   0.936  13.117 -0.7864 -0.1765  0.2883
  420TMC3    O1 6275   4.587   0.940  13.449 -0.2573 -0.3894  0.4361
  420TMC3    O2 6276   4.242   0.914  13.002 -0.2643 -0.8683  0.3191
  421TMC3    C1 6277   1.204   2.435  14.008  0.1443 -0.0251 -0.7393
  421TMC3    C2 6278   1.270   2.525  14.093  0.2643  0.3844  0.7474
  421TMC3    C3 6279   1.375   2.480  14.165 -0.0364  0.2564  0.0004
  421TMC3    C4 6280   1.251   2.305  13.993  0.6955  0.3330  0.3917
  421TMC3    C5 6281   1.363   2.271  14.062  0.3673  0.0523  0.9399
  421TMC3    C6 6282   1.428   2.358  14.145 -0.9673 -0.6049 -0.6412
  421TMC3     C 6283   1.117   2.488  13.906 -0.9278  0.0913 -0.3007
  421TMC3     O 6284   1.103   2.608  13.900 -0.5070  0.1184  0.1187
  421TMC3     H 6285   1.226   2.623  14.109 -1.1898 -0.1418 -0.0447
  421TMC3    H1 6286   1.205   2.236  13.923 -0.4289 -0.2726  1.7418
  421TMC3    H2 6287   1.515   2.329  14.203 -0.7935  0.2258 -0.4821
  421TMC3    C7 6288   1.406   2.139  14.070  0.8040 -0.3650  0.0396
  421TMC3    C8 6289   1.420   2.560  14.272  0.1980  1.1065 -0.5046
  421TMC3    O1 6290   1.513   2.114  14.128 -0.7762 -0.3868 -0.5169
  421TMC3    O2 6291   1.482   2.495  14.357  0.3227  0.6208  0.8160
  422TMC3    C1 6292   3.485   3.711  12.543 -0.7724 -0.6610 -0.2526
  422TMC3    C2 6293   3.514   3.771  12.664  1.0122 -0.0070 -0.0739
  422TMC3    C3 6294   3.429   3.748  12.764  0.6049 -0.1585 -0.1478
  422TMC3    C4 6295   3.381   3.620  12.528 -0.1771  0.4478  0.6450
  422TMC3    C5 6296   3.295   3.599  12.640 -0.7248 -0.0738  0.3373
  422TMC3    C6 6297   3.318   3.664  12.753 -0.4799 -0.1229  0.6472
  422TMC3     C 6298   3.600   3.702  12.451  0.0893  0.6730 -0.0447
  422TMC3     O 6299   3.683   3.782  12.463 -0.4129 -0.5169 -0.0211
  422TMC3     H 6300   3.602   3.832  12.677  0.3915  0.4546  2.0628
  422TMC3    H1 6301   3.365   3.569  12.433 -0.6106  2.6778 -0.4591
  422TMC3    H2 6302   3.256   3.646  12.840  1.4356 -0.0270  2.0560
  422TMC3    C7 6303   3.202   3.492  12.621  0.2395 -0.2423 -0.9996
  422TMC3    C8 6304   3.463   3.794  12.895  0.3825 -0.3337  0.6023
  422TMC3    O1 6305   3.210   3.419  12.520  0.4132  0.2208  0.3946
  422TMC3    O2 6306   3.513   3.908  12.905  0.2008  0.0146 -1.1804
  423MPD2     C 6307   0.120   4.148   0.825 -0.2636  0.2152 -0.4796
  423MPD2    C1 6308   0.140   4.008   0.812 -0.2412  0.0710 -0.4805
  423MPD2    C2 6309   0.203   3.954   0.701 -0.4108  0.3475 -0.7535
  423MPD2    C3 6310   0.232   4.035   0.592 -0.0951  0.7634 -0.2162
  423MPD2    C4 6311   0.222   4.172   0.616  0.2005  0.3462 -0.4967
  423MPD2    C5 6312   0.162   4.230   0.722  0.2450 -0.3808 -0.1318
  423MPD2     H 6313   0.222   3.847   0.697  0.9003  0.5094  0.6882
  423MPD2    H1 6314   0.241   4.236   0.531  0.7645 -1.2782 -1.5986
  423MPD2    H2 6315   0.068   4.194   0.909 -0.5290 -0.7044 -0.1459
  423MPD2    H3 6316   0.148   4.337   0.726  1.2360 -0.1846 -1.9785
  423MPD2     N 6317   0.279   3.990   0.469 -0.4810 -0.3756 -0.0081
  423MPD2    H5 6318   0.304   4.060   0.401 -3.2472  1.6278  1.0541
  423MPD2    N1 6319   0.104   3.920   0.917 -0.3809 -1.0783  0.3026
  423MPD2    H7 6320   0.134   3.823   0.916  0.2902 -0.8759  0.8637
  424TMC3    C1 6321   0.046   3.863   1.133 -0.2884 -0.3202  0.1875
  424TMC3    C2 6322   0.170   3.807   1.155 -0.0547  0.3615  0.3176
  424TMC3    C3 6323   0.189   3.739   1.271  0.6798 -0.7008 -0.2097
  424TMC3    C4 6324   4.671   3.854   1.234 -0.4180  0.3241 -0.2245
  424TMC3    C5 6325   4.695   3.779   1.343  0.1530 -0.0776 -0.7367
  424TMC3    C6 6326   0.093   3.717   1.362 -0.0160  0.0662 -0.1589
  424TMC3     C 6327   0.024   3.948   1.022 -0.2573  0.2145 -0.0782
  424TMC3     O 6328   4.656   4.035   1.028 -0.3151 -0.0855 -0.0790
  424TMC3     H 6329   0.253   3.817   1.087  0.2463 -1.9084  0.3315
  424TMC3    H1 6330   4.576   3.906   1.225 -0.0804  0.9142 -0.4259
  424TMC3    H2 6331   0.138   3.693   1.457  2.8139  3.3769 -0.6602
  424TMC3    C7 6332   4.592   3.769   1.439 -0.1143  0.4520 -0.6720
  424TMC3    C8 6333   0.294   3.641   1.280  0.4774 -0.1327  0.2456
  424TMC3    O1 6334   4.516   3.864   1.454 -0.5674  0.2399 -0.1261
  424TMC3    O2 6335   0.261   3.546   1.348  0.0878  0.2646 -0.3168
  425MPD2     C 6336   3.865   3.340  17.514  0.6739  0.0692 -0.4397
  425MPD2    C1 6337   3.787   3.225  17.526  0.5325 -0.7133 -0.1343
  425MPD2    C2 6338   3.669   3.236  17.596 -0.0579 -0.4348 -0.1080
  425MPD2    C3 6339   3.632   3.357  17.656  0.0116  0.9090 -0.2656
  425MPD2    C4 6340   3.720   3.464  17.658  0.1164 -0.1269  0.5370
  425MPD2    C5 6341   3.827   3.462  17.572  0.0232  0.3461  0.2589
  425MPD2     H 6342   3.607   3.147  17.595 -1.0626  0.2885 -1.8817
  425MPD2    H1 6343   3.691   3.559   0.020 -2.1217 -1.1632  1.3024
  425MPD2    H2 6344   3.957   3.350  17.457  0.6371  1.2792 -0.2855
  425MPD2    H3 6345   3.890   3.548  17.552 -0.5751  1.2248  2.2160
  425MPD2     N 6346   3.502   3.373   0.038 -0.0264 -0.3168 -0.1663
  425MPD2    H5 6347   3.448   3.289   0.023  0.6608 -0.6457 -0.8163
  425MPD2    N1 6348   3.827   3.111  17.457 -0.6263 -0.4761  0.0471
  425MPD2    H7 6349   3.906   3.124  17.395 -1.1809  2.5358 -0.0414
  426TMC3    C1 6350   3.848   2.900  17.382  1.0334  1.1462 -0.7271
  426TMC3    C2 6351   3.918   2.938  17.271 -0.1963 -0.2090  0.1559
  426TMC3    C3 6352   4.012   2.843  17.231 -0.1652 -0.1168  0.3603
  426TMC3    C4 6353   3.856   2.770  17.446 -0.2098  0.2221 -0.0657
  426TMC3    C5 6354   3.935   2.680  17.381  0.2174  0.0944 -0.1705
  426TMC3    C6 6355   4.025   2.718  17.280  0.3194 -0.6248 -0.5622
  426TMC3     C 6356   3.763   2.992  17.453 -0.4756  0.5198 -0.1146
  426TMC3     O 6357   3.675   2.938  17.521  0.6300  0.3641 -0.2842
  426TMC3     H 6358   3.907   3.032  17.218  1.6561 -0.8708 -1.4154
  426TMC3    H1 6359   3.802   2.753  17.539 -1.5024 -1.8068 -1.1819
  426TMC3    H2 6360   4.091   2.648  17.230  0.8793 -0.3286 -0.2513
  426TMC3    C7 6361   3.941   2.543  17.428  1.0885 -0.4273  0.1614
  426TMC3    C8 6362   4.052   2.856  17.087  0.6882 -0.5990  0.0213
  426TMC3    O1 6363   3.980   2.453  17.352 -0.8380  0.1498 -0.3008
  426TMC3    O2 6364   4.078   2.753  17.030 -0.5011  0.0794  0.2294
  427MPD2     C 6365   2.442   1.033  15.062 -0.3992 -0.4405  1.0704
  427MPD2    C1 6366   2.386   0.906  15.084 -0.4897 -0.1122  0.1390
  427MPD2    C2 6367   2.250   0.882  15.067  0.6329  0.1883 -0.8076
  427MPD2    C3 6368   2.164   0.981  15.028  0.4330  0.4519  0.0166
  427MPD2    C4 6369   2.215   1.109  15.023  0.2137 -0.1085  0.2670
  427MPD2    C5 6370   2.348   1.133  15.038 -0.6486 -0.1095  1.1663
  427MPD2     H 6371   2.213   0.782  15.087  0.1526  0.4083 -0.6076
  427MPD2    H1 6372   2.154   1.194  14.995 -1.3157 -1.5409 -0.7305
  427MPD2    H2 6373   2.546   1.064  15.067 -0.5284 -0.3239  3.0532
  427MPD2    H3 6374   2.374   1.236  15.018  1.3891 -0.3115  2.8944
  427MPD2     N 6375   2.026   0.955  15.015  0.0556 -0.4909 -0.6968
  427MPD2    H5 6376   1.971   1.039  15.029 -1.0474 -1.0469 -1.7346
  427MPD2    N1 6377   2.469   0.800  15.129 -0.8742 -0.0109 -0.1768
  427MPD2    H7 6378   2.423   0.716  15.164 -4.1337  0.8051 -2.4852
  428TMC3    C1 6379   2.675   0.712  15.222  0.3857 -0.1328  0.1833
  428TMC3    C2 6380   2.604   0.600  15.257  0.4094  0.9207  0.2258
  428TMC3    C3 6381   2.681   0.501  15.310  0.0798  0.5218  0.9265
  428TMC3    C4 6382   2.801   0.737  15.265 -0.9155 -0.0346 -0.9853
  428TMC3    C5 6383   2.869   0.635  15.325  0.4485  0.3444  0.5185
  428TMC3    C6 6384   2.810   0.519  15.346 -0.1846  0.0852  0.4357
  428TMC3     C 6385   2.609   0.810  15.136 -0.0731 -0.2397 -0.3251
  428TMC3     O 6386   2.684   0.887  15.071  0.2024 -0.0390  0.0344
  428TMC3     H 6387   2.509   0.574  15.213 -1.1816  1.5346  3.3586
  428TMC3    H1 6388   2.848   0.832  15.244 -0.2235 -0.4152 -1.1615
  428TMC3    H2 6389   2.863   0.446  15.407 -1.5409 -1.8473 -0.7003
  428TMC3    C7 6390   2.998   0.650  15.394  1.0779 -0.3706 -0.2306
  428TMC3    C8 6391   2.653   0.353  15.306 -0.4221 -0.1793  0.3266
  428TMC3    O1 6392   3.027   0.587  15.496 -0.2034  0.5222 -0.2797
  428TMC3    O2 6393   2.733   0.269  15.346  0.1298 -0.1623 -0.2626
  429MPD2     C 6394   3.356   0.431   0.189  0.1548  0.4885 -0.1241
  429MPD2    C1 6395   3.472   0.385   0.138  1.0652 -0.6059 -0.1016
  429MPD2    C2 6396   3.557   0.466   0.069  0.2375  0.2015  0.0229
  429MPD2    C3 6397   3.520   0.599   0.046 -0.1990 -0.8990  0.0643
  429MPD2    C4 6398   3.407   0.649   0.102  0.3726 -0.3424  0.4625
  429MPD2    C5 6399   3.330   0.567   0.177 -0.4681  0.0655  0.1437
  429MPD2     H 6400   3.657   0.430   0.047  0.6432  1.9345 -0.9357
  429MPD2    H1 6401   3.382   0.754   0.097  1.2739 -0.0819  1.3324
  429MPD2    H2 6402   3.297   0.375   0.261 -0.1336 -0.1902 -0.8879
  429MPD2    H3 6403   3.240   0.599   0.230 -1.1854 -0.6216 -0.6611
  429MPD2     N 6404   3.608   0.683  17.654 -0.2771  0.0534 -0.0134
  429MPD2    H5 6405   3.700   0.648  17.628  0.2393  0.4152  1.3167
  429MPD2    N1 6406   3.521   0.258   0.169 -0.3360 -1.3490 -0.0335
  429MPD2    H7 6407   3.617   0.237   0.146 -0.0390 -0.2317  0.1911
  430TMC3    C1 6408   3.671   0.853  17.496 -0.0839 -0.0198 -0.2295
  430TMC3    C2 6409   3.625   0.949  17.403 -0.1136 -0.0213  0.2890
  430TMC3    C3 6410   3.711   1.033  17.338 -0.0220 -0.1120 -0.8221
  430TMC3    C4 6411   3.803   0.829  17.518 -0.3638 -0.0256 -0.5999
  430TMC3    C5 6412   3.878   0.912  17.447 -0.1384 -0.1870 -0.3912
  430TMC3    C6 6413   3.848   1.010  17.361  0.7345  0.2605  0.0665
  430TMC3     C 6414   3.571   0.803  17.590  0.0998 -0.4343  0.4674
  430TMC3     O 6415   3.455   0.844  17.580  0.3932 -0.1241  0.7089
  430TMC3     H 6416   3.522   0.951  17.368 -0.4090  0.3013  1.1774
  430TMC3    H1 6417   3.847   0.759  17.588  1.0595 -0.9347 -2.3813
  430TMC3    H2 6418   3.923   1.057  17.299  1.2359 -0.2717  0.2740
  430TMC3    C7 6419   4.019   0.897  17.441  0.1677  0.2775 -0.7389
  430TMC3    C8 6420   3.681   1.086  17.201 -0.3247 -0.0342  0.5285
  430TMC3    O1 6421   4.093   0.992  17.441 -0.0912  0.1898 -0.0977
  430TMC3    O2 6422   3.772   1.074  17.123 -0.3830  0.9493 -0.7600
  431MPD2     C 6423   4.381   1.436  12.529 -0.2401  0.3894 -0.3590
  431MPD2    C1 6424   4.422   1.430  12.399  0.0818 -0.2096 -0.3491
  431MPD2    C2 6425   4.369   1.336  12.314 -0.0703 -0.4584  0.5971
  431MPD2    C3 6426   4.274   1.244  12.348 -0.8657  0.1961  0.1849
  431MPD2    C4 6427   4.230   1.265  12.482 -0.4534 -0.0243 -0.1649
  431MPD2    C5 6428   4.283   1.357  12.565  0.3589 -0.4950  0.0256
  431MPD2     H 6429   4.406   1.339  12.212  2.1540  1.6479  1.4846
  431MPD2    H1 6430   4.153   1.204  12.528 -0.3769 -0.7915 -1.0491
  431MPD2    H2 6431   4.417   1.509  12.601  0.9690  0.2416 -0.8250
  431MPD2    H3 6432   4.249   1.355  12.668 -0.3000  0.5941 -0.1774
  431MPD2     N 6433   4.226   1.140  12.268 -0.1097  0.4079 -0.1576
  431MPD2    H5 6434   4.165   1.072  12.311 -1.4712  2.2727  0.8721
  431MPD2    N1 6435   4.533   1.503  12.357 -0.4009 -0.4425 -0.2221
  431MPD2    H7 6436   4.547   1.500  12.257 -0.2848 -1.0788 -0.1866
  432TMC3    C1 6437   4.286   1.005  12.088  0.4432 -0.3965  0.1833
  432TMC3    C2 6438   4.302   0.997  11.950 -0.2336  0.2099 -1.0605
  432TMC3    C3 6439   4.391   0.895  11.909  1.1126  0.4966  0.0603
  432TMC3    C4 6440   4.369   0.927  12.173  0.3993  0.3217  0.5142
  432TMC3    C5 6441   4.464   0.842  12.126  0.1599  0.6759 -0.9422
  432TMC3    C6 6442   4.474   0.815  11.990  0.1718  0.5430  0.0997
  432TMC3     C 6443   4.251   1.135  12.135 -0.2788 -0.0810  0.1473
  432TMC3     O 6444   4.280   1.225  12.063  0.1450 -0.1432  0.4074
  432TMC3     H 6445   4.247   1.068  11.889 -0.2726  0.8862 -0.2296
  432TMC3    H1 6446   4.374   0.960  12.276 -2.9801 -2.5488  1.5810
  432TMC3    H2 6447   4.547   0.751  11.941 -1.3662  0.6264 -2.3169
  432TMC3    C7 6448   4.585   0.826  12.207 -0.9597 -0.1770  0.1721
  432TMC3    C8 6449   4.458   0.933  11.786 -0.2441 -0.1345  0.5614
  432TMC3    O1 6450   4.685   0.793  12.152 -0.1314 -0.0459  0.3583
  432TMC3    O2 6451   4.390   0.972  11.695 -0.1953  0.1218 -0.2496
  433MPD2     C 6452   3.443   0.230  10.990  0.1725  0.8921 -0.0694
  433MPD2    C1 6453   3.347   0.133  11.004  0.3532 -0.1044  0.1449
  433MPD2    C2 6454   3.271   0.126  11.122  0.5335 -0.3726 -0.5178
  433MPD2    C3 6455   3.298   0.211  11.229  0.6103  0.1345  0.9318
  433MPD2    C4 6456   3.396   0.307  11.213  0.3688  0.1790 -0.0697
  433MPD2    C5 6457   3.465   0.315  11.093 -0.0622  0.5381 -0.2194
  433MPD2     H 6458   3.200   0.045  11.140  0.4384 -0.5731 -1.7930
  433MPD2    H1 6459   3.423   0.371  11.296 -0.0734  1.3802 -0.8532
  433MPD2    H2 6460   3.494   0.258  10.899  0.3107  1.5933  0.2250
  433MPD2    H3 6461   3.539   0.393  11.077  0.6536  0.1113  0.9726
  433MPD2     N 6462   3.242   0.196  11.358  0.2200 -0.0127  0.6450
  433MPD2    H5 6463   3.187   0.112  11.376  0.5188 -0.5073 -0.7391
  433MPD2    N1 6464   3.327   0.048  10.896  0.4299 -0.0796 -0.4337
  433MPD2    H7 6465   3.401   0.042  10.827 -0.7166 -1.5767 -1.5502
  434TMC3    C1 6466   3.250   4.580  10.782 -0.2910  0.1605 -0.6143
  434TMC3    C2 6467   3.219   4.452  10.823 -0.3821 -0.4725 -0.3494
  434TMC3    C3 6468   3.284   4.350  10.769  0.7137  0.3549 -0.6391
  434TMC3    C4 6469   3.343   4.600  10.689 -0.3114 -0.2924  0.3761
  434TMC3    C5 6470   3.398   4.493  10.623 -0.2203 -0.0452 -0.6151
  434TMC3    C6 6471   3.382   4.370  10.673 -0.2869 -0.2434 -0.5443
  434TMC3     C 6472   3.229   4.679  10.880  0.7303  0.3994  0.3410
  434TMC3     O 6473   3.138   4.659  10.958  0.1102 -0.3272 -0.0560
  434TMC3     H 6474   3.148   4.437  10.903  0.2658 -0.0155  0.3128
  434TMC3    H1 6475   3.348   4.700  10.648 -1.1650 -0.6621 -0.6186
  434TMC3    H2 6476   3.453   4.292  10.649 -0.4032 -0.7748  0.7892
  434TMC3    C7 6477   3.399   4.512  10.473 -0.0608  0.3704  0.2079
  434TMC3    C8 6478   3.322   4.256  10.878 -0.0113 -0.3939 -0.9325
  434TMC3    O1 6479   3.412   4.621  10.417  0.0453  0.1666  0.0795
  434TMC3    O2 6480   3.380   4.319  10.966  0.3821  0.2362  0.0165
  435MPD2     C 6481   0.705   4.242  15.457  0.8474  0.6343  0.0480
  435MPD2    C1 6482   0.672   4.238  15.592 -0.3522  0.8636  0.4210
  435MPD2    C2 6483   0.760   4.164  15.671 -0.0335 -0.3628 -0.1516
  435MPD2    C3 6484   0.878   4.100  15.632 -0.2609 -0.1274 -0.5801
  435MPD2    C4 6485   0.910   4.128  15.500 -0.3152  0.4894  0.5064
  435MPD2    C5 6486   0.827   4.186  15.416 -0.4346  0.7995  0.0802
  435MPD2     H 6487   0.736   4.143  15.774 -0.2920  0.9148  0.0504
  435MPD2    H1 6488   1.003   4.095  15.455 -0.2483  2.9385 -1.1416
  435MPD2    H2 6489   0.643   4.300  15.389 -0.1718 -1.3794 -0.7523
  435MPD2    H3 6490   0.838   4.176  15.309 -1.0891 -2.3583  0.3074
  435MPD2     N 6491   0.956   4.026  15.723 -0.1658 -0.2695  0.4184
  435MPD2    H5 6492   0.910   4.008  15.811 -0.2554 -0.3219  0.3615
  435MPD2    N1 6493   0.566   4.305  15.655  0.0767  0.2075 -0.6116
  435MPD2    H7 6494   0.571   4.313  15.756 -0.0803 -1.0431 -0.5093
  436TMC3    C1 6495   0.231   4.378  15.877 -1.2012 -0.1821  0.0363
  436TMC3    C2 6496   0.338   4.343  15.801  0.6622 -0.0192 -0.7127
  436TMC3    C3 6497   0.375   4.430  15.696 -0.3023 -0.0724 -0.0393
  436TMC3    C4 6498   0.159   4.489  15.842 -0.1208 -0.0156 -0.1504
  436TMC3    C5 6499   0.195   4.575  15.743  0.4452 -0.4208 -0.4539
  436TMC3    C6 6500   0.301   4.539  15.669 -0.4484  0.1635 -0.5885
  436TMC3     C 6501   0.203   4.301  15.999  0.3580  0.1902  0.6650
  436TMC3     O 6502   0.281   4.209  16.021 -0.4179 -0.4174  0.1313
  436TMC3     H 6503   0.386   4.248  15.822  0.3165  0.0062  0.1864
  436TMC3    H1 6504   0.062   4.511  15.886 -1.5482 -3.2279 -1.7290
  436TMC3    H2 6505   0.307   4.584  15.570  1.8787  2.2966  0.5070
  436TMC3    C7 6506   0.125   4.700  15.728 -0.0312 -0.1583 -0.7595
  436TMC3    C8 6507   0.464   4.371  15.597 -0.1376 -0.3194 -0.2864
  436TMC3    O1 6508   0.015   4.716  15.785  0.2148 -0.1531  0.2509
  436TMC3    O2 6509   0.434   4.374  15.482 -0.0107  0.7873 -0.3101
  437TMC3    C1 6510   4.020   1.647  12.244  0.9599  0.5070 -0.5309
  437TMC3    C2 6511   3.963   1.607  12.360  1.2476  0.2823 -0.6450
  437TMC3    C3 6512   3.855   1.679  12.410  0.0358 -0.5923 -0.0593
  437TMC3    C4 6513   3.977   1.758  12.183 -0.1227  0.5296 -0.4498
  437TMC3    C5 6514   3.872   1.826  12.242  0.4714  0.3698  1.0950
  437TMC3    C6 6515   3.794   1.781  12.343  0.4343 -0.2377 -0.1107
  437TMC3     C 6516   4.165   1.661  12.256  0.7741 -0.5830  0.4553
  437TMC3     O 6517   4.190   1.730  12.354  0.2937  0.1851  0.0263
  437TMC3     H 6518   4.003   1.516  12.405 -0.3429  0.0474  0.2909
  437TMC3    H1 6519   4.024   1.798  12.094  1.1592 -1.0650 -0.4851
  437TMC3    H2 6520   3.716   1.843  12.385 -0.5727 -2.1253  0.7729
  437TMC3    C7 6521   3.906   1.965  12.259 -0.6793 -0.0080  0.3126
  437TMC3    C8 6522   3.799   1.638  12.539  0.0097  0.5662 -0.1960
  437TMC3    O1 6523   3.821   2.041  12.298 -0.5831  0.0988 -0.5009
  437TMC3    O2 6524   3.678   1.631  12.552  0.4211 -0.3983 -0.0056
  438MPD2     C 6525   1.325   2.087  16.689 -0.3229  0.1223 -0.2342
  438MPD2    C1 6526   1.413   2.007  16.749 -0.5776 -0.9084 -0.0379
  438MPD2    C2 6527   1.381   1.940  16.869 -0.2957  0.8999 -0.7007
  438MPD2    C3 6528   1.256   1.949  16.925 -1.1441  0.0893 -0.3520
  438MPD2    C4 6529   1.161   2.032  16.864 -0.2905  0.3863 -0.6265
  438MPD2    C5 6530   1.195   2.098  16.745 -0.4028  0.4021  0.3333
  438MPD2     H 6531   1.453   1.880  16.923 -1.6019 -0.1115 -0.0781
  438MPD2    H1 6532   1.059   2.026  16.899 -0.5306 -0.6172 -1.4842
  438MPD2    H2 6533   1.340   2.141  16.596 -0.5490  0.3143 -0.1603
  438MPD2    H3 6534   1.116   2.143  16.686  2.3277  3.6410 -0.8819
  438MPD2     N 6535   1.207   1.870  17.030 -0.5985  0.2295  0.0156
  438MPD2    H5 6536   1.119   1.891  17.075 -1.1471 -0.9397 -0.4902
  438MPD2    N1 6537   1.544   1.990  16.704  0.4415 -0.2661  0.8479
  438MPD2    H7 6538   1.610   1.935  16.759 -0.1054 -1.0039  0.7662
  439TMC3    C1 6539   1.730   2.004  16.560  0.5921  0.4332  0.4020
  439TMC3    C2 6540   1.769   1.947  16.444  0.4443 -0.0758  0.5675
  439TMC3    C3 6541   1.890   1.898  16.438  0.0494 -0.1434 -0.5299
  439TMC3    C4 6542   1.810   2.008  16.666 -0.2753  0.1836 -0.4290
  439TMC3    C5 6543   1.937   1.956  16.653 -0.0080  0.1436 -0.0949
  439TMC3    C6 6544   1.983   1.910  16.536 -0.2883  0.5328  0.1736
  439TMC3     C 6545   1.590   2.034  16.582 -0.1330 -0.1904  0.2514
  439TMC3     O 6546   1.532   2.087  16.490  0.1232  0.2584  0.4698
  439TMC3     H 6547   1.691   1.921  16.373  0.2671  2.0366 -0.0277
  439TMC3    H1 6548   1.780   2.063  16.754  0.5724  0.6179 -0.4152
  439TMC3    H2 6549   2.082   1.872  16.517 -0.6468 -0.6015  0.5723
  439TMC3    C7 6550   2.039   1.940  16.757 -0.3891 -0.6155 -0.1203
  439TMC3    C8 6551   1.930   1.832  16.317 -0.7230  0.3279 -0.3970
  439TMC3    O1 6552   2.159   1.955  16.733 -0.0075 -0.1467 -0.4775
  439TMC3    O2 6553   2.015   1.749  16.334  0.0340 -0.0179  0.0808
  440MPD2     C 6554   0.325   2.818  15.293  0.3033  0.6016 -0.5857
  440MPD2    C1 6555   0.434   2.889  15.332 -0.1952 -0.1780  0.3565
  440MPD2    C2 6556   0.560   2.844  15.305 -0.1621 -0.3070 -0.2172
  440MPD2    C3 6557   0.586   2.733  15.236 -0.1518 -0.1533  0.2055
  440MPD2    C4 6558   0.476   2.667  15.182 -0.6490  0.0521  0.4277
  440MPD2    C5 6559   0.348   2.702  15.221 -0.3281  0.0626 -0.6483
  440MPD2     H 6560   0.645   2.903  15.340 -2.2196  2.3754  0.2768
  440MPD2    H1 6561   0.489   2.580  15.119 -0.7259  0.2119  0.1897
  440MPD2    H2 6562   0.223   2.835  15.324  0.6198  1.1557  0.1395
  440MPD2    H3 6563   0.266   2.638  15.189  0.2184 -0.4754 -0.9469
  440MPD2     N 6564   0.715   2.677  15.219 -0.5586 -0.0392 -0.7495
  440MPD2    H5 6565   0.714   2.605  15.148  0.0618  0.2695 -1.0729
  440MPD2    N1 6566   0.427   3.018  15.399 -0.4333  0.1827  0.5636
  440MPD2    H7 6567   0.520   3.057  15.416  0.7920 -1.6458 -2.0742
  441TMC3    C1 6568   0.952   2.645  15.244 -0.1124  0.2825  0.2325
  441TMC3    C2 6569   1.059   2.719  15.285 -0.2842  0.4769 -0.0706
  441TMC3    C3 6570   1.140   2.671  15.388 -0.6661  0.1359 -0.1241
  441TMC3    C4 6571   0.915   2.526  15.300  0.4358  0.4272  0.0308
  441TMC3    C5 6572   0.997   2.490  15.402  0.7722 -0.5775  0.1457
  441TMC3    C6 6573   1.108   2.553  15.450 -0.5183 -0.8011 -0.2249
  441TMC3     C 6574   0.836   2.730  15.252  1.1339  0.9105  0.4790
  441TMC3     O 6575   0.855   2.844  15.291 -0.2981 -0.7199 -0.4460
  441TMC3     H 6576   1.093   2.810  15.237  2.7676 -0.3015  0.6125
  441TMC3    H1 6577   0.827   2.471  15.267  1.0850  0.0872 -1.1332
  441TMC3    H2 6578   1.143   2.532  15.550  0.1581 -1.1950 -0.5463
  441TMC3    C7 6579   0.921   2.402  15.491  0.7772  0.0980 -0.4176
  441TMC3    C8 6580   1.172   2.764  15.493  0.1743  0.3059 -0.6379
  441TMC3    O1 6581   0.803   2.431  15.503  0.3133 -0.2221 -0.4801
  441TMC3    O2 6582   1.269   2.751  15.563 -0.2355 -0.7124  0.1013
  442MPD2     C 6583   3.404   3.193  16.574 -0.3069 -0.4143  0.0213
  442MPD2    C1 6584   3.365   3.080  16.647 -0.3494  0.2570  0.8536
  442MPD2    C2 6585   3.354   2.967  16.587 -0.1583  0.4550 -1.1710
  442MPD2    C3 6586   3.400   2.940  16.458 -0.6789 -0.3128 -0.1423
  442MPD2    C4 6587   3.449   3.046  16.388  0.2894 -0.5291 -0.0030
  442MPD2    C5 6588   3.448   3.165  16.446 -0.3804  0.0235 -0.6780
  442MPD2     H 6589   3.321   2.881  16.644 -0.0133  1.7642  0.8862
  442MPD2    H1 6590   3.494   3.044  16.290  0.6618 -0.6496  0.1675
  442MPD2    H2 6591   3.426   3.291  16.616 -0.2429  0.0379 -1.0833
  442MPD2    H3 6592   3.483   3.246  16.383  1.8882 -0.4408  0.0002
  442MPD2     N 6593   3.414   2.810  16.393 -0.0618  0.5294  0.2781
  442MPD2    H5 6594   3.472   2.807  16.310  0.2812 -0.4863  0.5493
  442MPD2    N1 6595   3.331   3.096  16.781  0.0157  0.2221  0.1608
  442MPD2    H7 6596   3.299   3.009  16.823 -1.3090  1.2742  1.3082
  443TMC3    C1 6597   3.210   3.191  16.954  0.2671 -0.2325 -0.9876
  443TMC3    C2 6598   3.110   3.286  16.961  0.0802  0.9726  0.8696
  443TMC3    C3 6599   3.007   3.271  17.045  0.1913 -0.0566 -0.2996
  443TMC3    C4 6600   3.211   3.084  17.043 -1.0289  0.2394  0.9383
  443TMC3    C5 6601   3.108   3.084  17.132 -0.2227  0.0116  0.5734
  443TMC3    C6 6602   3.002   3.170  17.134 -0.1370 -0.4682 -0.1926
  443TMC3     C 6603   3.313   3.209  16.849  1.1652  0.5002 -0.4628
  443TMC3     O 6604   3.333   3.329  16.817  1.0881 -0.3674 -0.0981
  443TMC3     H 6605   3.108   3.375  16.899  0.9970  1.6544  1.8159
  443TMC3    H1 6606   3.289   3.009  17.051 -1.6830 -0.3276  2.0076
  443TMC3    H2 6607   2.917   3.167  17.202  1.1063 -2.7853  1.2691
  443TMC3    C7 6608   3.090   2.962  17.207  0.0033 -0.7223  0.0827
  443TMC3    C8 6609   2.887   3.261  16.960  0.4254  0.5441  0.5896
  443TMC3    O1 6610   3.129   2.859  17.152  0.3337 -0.5329 -0.6125
  443TMC3    O2 6611   2.830   3.153  16.970 -0.5032 -0.4753 -0.0288
  444MPD2     C 6612   3.601   2.711  17.112 -0.6845 -0.0085 -0.6368
  444MPD2    C1 6613   3.541   2.592  17.080  0.1707 -0.1503 -0.0014
  444MPD2    C2 6614   3.600   2.503  16.992  0.1168 -0.2637 -0.7985
  444MPD2    C3 6615   3.713   2.538  16.924 -0.7013 -0.6278 -0.1087
  444MPD2    C4 6616   3.784   2.656  16.961 -0.3315 -0.2316 -0.6504
  444MPD2    C5 6617   3.719   2.742  17.048  0.1977 -0.5879  0.9004
  444MPD2     H 6618   3.551   2.407  16.980 -1.5041  0.4025  0.4288
  444MPD2    H1 6619   3.887   2.672  16.931 -0.3055 -0.1677 -0.5237
  444MPD2    H2 6620   3.553   2.796  17.159 -1.0222 -1.5113  1.7322
  444MPD2    H3 6621   3.763   2.837  17.074  2.0896 -1.6261  1.4321
  444MPD2     N 6622   3.752   2.438  16.829  0.2011  0.3858 -0.0133
  444MPD2    H5 6623   3.693   2.364  16.793 -0.1571 -0.0157  1.3993
  444MPD2    N1 6624   3.431   2.544  17.147  0.1143 -0.4053  0.1246
  444MPD2    H7 6625   3.397   2.459  17.103  0.1338 -0.3049 -0.0840
  445TMC3    C1 6626   3.892   2.291  16.726 -0.1427  0.4003 -0.1706
  445TMC3    C2 6627   3.805   2.190  16.763 -0.0208  0.0251  0.0548
  445TMC3    C3 6628   3.846   2.063  16.737  0.1689 -0.5284 -0.2114
  445TMC3    C4 6629   4.002   2.254  16.650 -0.1955 -0.5084  0.0464
  445TMC3    C5 6630   4.028   2.117  16.624  0.4385  0.6708  0.7179
  445TMC3    C6 6631   3.955   2.015  16.668  0.6234  0.3514 -0.4884
  445TMC3     C 6632   3.883   2.420  16.792  0.0051  0.0747  0.4966
  445TMC3     O 6633   3.983   2.487  16.792 -0.9638 -0.3176  0.5992
  445TMC3     H 6634   3.732   2.203  16.842  0.7695  0.6380  0.6891
  445TMC3    H1 6635   4.070   2.327  16.609 -0.4032  0.3117  1.1380
  445TMC3    H2 6636   3.978   1.911  16.651 -0.9093  0.2793 -2.0721
  445TMC3    C7 6637   4.160   2.083  16.568  0.2432  0.0744  0.0422
  445TMC3    C8 6638   3.744   1.971  16.786  0.0202 -0.0154  0.2721
  445TMC3    O1 6639   4.207   2.162  16.487  0.2075  0.0679 -0.1896
  445TMC3    O2 6640   3.627   2.000  16.774 -0.1674 -0.5828 -0.2210
  446MPD2     C 6641   3.112   4.218  11.495 -0.0529 -0.2303 -0.2984
  446MPD2    C1 6642   3.110   4.188  11.358  0.0190  0.7734 -0.4270
  446MPD2    C2 6643   3.190   4.273  11.276 -0.2152  0.2620 -0.3986
  446MPD2    C3 6644   3.261   4.386  11.329 -0.0131  0.4452  0.1719
  446MPD2    C4 6645   3.248   4.408  11.467  0.1647  0.3593  0.0445
  446MPD2    C5 6646   3.177   4.330  11.547  0.0664  0.3526  0.0200
  446MPD2     H 6647   3.192   4.248  11.171  0.1767  1.9806 -0.7980
  446MPD2    H1 6648   3.272   4.499  11.520  1.1239  0.9961 -1.5091
  446MPD2    H2 6649   3.047   4.171  11.569 -1.0739 -1.2530 -1.8551
  446MPD2    H3 6650   3.158   4.358  11.650 -0.7248  0.0476 -0.0406
  446MPD2     N 6651   3.337   4.472  11.250 -1.3633  0.1343 -0.6488
  446MPD2    H5 6652   3.355   4.444  11.154 -0.2280 -1.4584  0.0162
  446MPD2    N1 6653   3.031   4.088  11.297  0.0145  0.4907  0.5142
  446MPD2    H7 6654   3.013   4.099  11.198  0.1996 -0.5377  0.3734
  447TMC3    C1 6655   3.542   4.584  11.224 -0.4550  0.1069  0.3076
  447TMC3    C2 6656   3.550   4.583  11.092  0.5637 -0.6872  0.2921
  447TMC3    C3 6657   3.671   4.595  11.029 -0.2948  0.1654 -0.0573
  447TMC3    C4 6658   3.653   4.586  11.308  0.1307  0.6068 -0.1948
  447TMC3    C5 6659   3.775   4.587  11.237 -0.4490  0.3391  0.4199
  447TMC3    C6 6660   3.790   4.586  11.103 -0.7108 -0.0747 -0.5295
  447TMC3     C 6661   3.422   4.570  11.296  0.4915 -0.2528  0.1452
  447TMC3     O 6662   3.422   4.609  11.412 -0.9130 -0.3260 -0.1081
  447TMC3     H 6663   3.452   4.579  11.046  0.0868  1.5382  1.1540
  447TMC3    H1 6664   3.650   4.601  11.416 -0.7142  0.5966 -0.2151
  447TMC3    H2 6665   3.890   4.572  11.062 -0.6617  0.0131 -0.4417
  447TMC3    C7 6666   3.892   4.547  11.308  0.2990  0.2075 -1.1338
  447TMC3    C8 6667   3.676   4.606  10.886  0.3308 -0.0633  0.3372
  447TMC3    O1 6668   3.999   4.571  11.249 -0.0199  0.4249 -0.4529
  447TMC3    O2 6669   3.580   4.658  10.834 -0.0092  0.4928 -0.4320
  448TMC3    C1 6670   2.227   3.711  16.810 -0.4114 -0.1908 -0.0866
  448TMC3    C2 6671   2.185   3.579  16.792  0.5252  0.2640 -1.1005
  448TMC3    C3 6672   2.207   3.487  16.891 -0.2548  1.1527  0.2760
  448TMC3    C4 6673   2.298   3.741  16.922 -0.1537 -0.1024 -0.8563
  448TMC3    C5 6674   2.328   3.646  17.016  0.0601 -0.3595 -0.1396
  448TMC3    C6 6675   2.278   3.519  17.006 -0.6841 -0.0932  0.2988
  448TMC3     C 6676   2.236   3.803  16.699 -0.4456 -0.2023  0.6228
  448TMC3     O 6677   2.302   3.903  16.714  0.2072  0.3963  0.0924
  448TMC3     H 6678   2.149   3.544  16.696 -0.0904  1.6481 -1.3829
  448TMC3    H1 6679   2.347   3.836  16.940 -0.9809  0.2458 -0.4629
  448TMC3    H2 6680   2.296   3.449  17.086 -0.8160  0.2358  0.6170
  448TMC3    C7 6681   2.379   3.696  17.139 -0.6912 -0.1228  0.6726
  448TMC3    C8 6682   2.166   3.350  16.879  0.5436  0.1167  0.0479
  448TMC3    O1 6683   2.347   3.814  17.167  0.5360 -0.8182  0.0181
  448TMC3    O2 6684   2.213   3.278  16.966 -0.2180  0.6359 -0.2345
  449MPD2     C 6685   3.519   2.001  13.873  0.2082 -0.2960  0.0194
  449MPD2    C1 6686   3.383   2.031  13.906 -0.1348  0.5371 -0.6253
  449MPD2    C2 6687   3.294   1.929  13.943 -1.0652  1.1370  0.2914
  449MPD2    C3 6688   3.349   1.804  13.958  0.5138 -0.1942 -0.0641
  449MPD2    C4 6689   3.479   1.772  13.918  0.4989 -0.3260 -0.3521
  449MPD2    C5 6690   3.562   1.874  13.877  0.4226 -0.5070  0.3853
  449MPD2     H 6691   3.192   1.950  13.972 -1.5368  1.1259 -1.3535
  449MPD2    H1 6692   3.519   1.673  13.937  0.0394 -0.4582 -0.0794
  449MPD2    H2 6693   3.586   2.081  13.844 -0.6265  0.0075 -1.0836
  449MPD2    H3 6694   3.665   1.846  13.859 -0.3284 -1.3598 -2.6841
  449MPD2     N 6695   3.255   1.713  14.010  0.0205  0.3281  0.3958
  449MPD2    H5 6696   3.168   1.750  14.048  0.4237  1.4426  0.2244
  449MPD2    N1 6697   3.327   2.160  13.918  0.3560 -0.0646  0.1347
  449MPD2    H7 6698   3.234   2.168  13.959 -0.0141 -3.9204  0.0943
  450TMC3    C1 6699   3.298   2.383  13.930 -0.2046  0.3118  0.2137
  450TMC3    C2 6700   3.261   2.465  13.833 -0.5352 -0.3823 -0.2308
  450TMC3    C3 6701   3.123   2.498  13.824 -0.3911 -0.1319  0.3147
  450TMC3    C4 6702   3.211   2.344  14.032  0.6623  0.8112  0.0060
  450TMC3    C5 6703   3.081   2.387  14.030  0.7724 -0.0965  0.0491
  450TMC3    C6 6704   3.036   2.457  13.923  0.4344  0.2100  0.9796
  450TMC3     C 6705   3.387   2.276  13.894  0.2541  0.5476  0.0902
  450TMC3     O 6706   3.487   2.309  13.829  0.4722 -0.1570 -0.1377
  450TMC3     H 6707   3.333   2.491  13.757  1.0855 -0.6717  1.2093
  450TMC3    H1 6708   3.255   2.282  14.110  0.9476  1.3539  0.2713
  450TMC3    H2 6709   2.931   2.476  13.903  0.7688  0.1891 -0.8537
  450TMC3    C7 6710   3.003   2.267  14.051 -0.5077  0.5209 -0.2383
  450TMC3    C8 6711   3.071   2.545  13.696 -0.3494 -0.1873  0.4386
  450TMC3    O1 6712   3.074   2.169  14.049 -0.1370 -0.1087 -0.0895
  450TMC3    O2 6713   2.965   2.496  13.661 -0.2567  0.2169 -0.0980
  451MPD2     C 6714   3.758   4.288   1.311  1.4292  0.0825  0.1355
  451MPD2    C1 6715   3.838   4.378   1.237 -0.0881  0.0698 -0.3382
  451MPD2    C2 6716   3.975   4.362   1.226 -0.3066  0.0865 -0.2535
  451MPD2    C3 6717   4.040   4.258   1.295  0.4511  0.3402  0.1436
  451MPD2    C4 6718   3.962   4.167   1.364 -0.1190 -0.2812 -0.2754
  451MPD2    C5 6719   3.824   4.182   1.376  0.0399  0.2751 -0.1679
  451MPD2     H 6720   4.039   4.431   1.172 -2.1383  1.6260 -0.4768
  451MPD2    H1 6721   4.016   4.081   1.402  3.2259  1.8313 -0.2533
  451MPD2    H2 6722   3.651   4.302   1.320  1.4217 -1.1857  1.9295
  451MPD2    H3 6723   3.772   4.110   1.439  2.9074 -2.0593 -0.4725
  451MPD2     N 6724   4.184   4.250   1.274  0.4826 -0.4485 -0.0561
  451MPD2    H5 6725   4.225   4.180   1.335 -1.5848 -0.9034  0.7903
  451MPD2    N1 6726   3.770   4.485   1.171  0.1450 -0.1346 -0.1568
  451MPD2    H7 6727   3.676   4.505   1.203  0.6218  2.7580 -0.5513
  452TMC3    C1 6728   4.396   4.327   1.205 -0.1718  0.1897  0.0100
  452TMC3    C2 6729   4.435   4.331   1.333 -0.0446  0.3697 -0.6116
  452TMC3    C3 6730   4.556   4.393   1.364  0.1606  0.2388  0.5868
  452TMC3    C4 6731   4.475   4.381   1.112  0.7690 -0.5006 -0.6353
  452TMC3    C5 6732   4.591   4.446   1.143  0.1954 -0.1858  0.1866
  452TMC3    C6 6733   4.634   4.454   1.271 -0.9304 -0.4004  0.4850
  452TMC3     C 6734   4.262   4.303   1.171 -0.4564  0.4788  0.1651
  452TMC3     O 6735   4.221   4.337   1.061 -0.3130 -0.6414  0.1390
  452TMC3     H 6736   4.371   4.295   1.412  0.9447 -0.4128 -0.1740
  452TMC3    H1 6737   4.450   4.359   1.008 -1.3185  0.4334 -0.3274
  452TMC3    H2 6738   0.017   4.472   1.300 -0.6523 -0.0081 -0.7666
  452TMC3    C7 6739   4.655   4.522   1.040 -0.4084 -0.5180 -0.2047
  452TMC3    C8 6740   4.630   4.355   1.488  0.3641  0.3009 -0.2006
  452TMC3    O1 6741   4.634   4.492   0.921  0.7856  0.3684 -0.2673
  452TMC3    O2 6742   0.012   4.417   1.517  0.3193  0.3151 -0.3573
  453TMC3    C1 6743   1.011   2.767  12.086 -0.4277  0.0466  0.1991
  453TMC3    C2 6744   1.019   2.653  12.158 -0.0281 -0.0124 -0.5375
  453TMC3    C3 6745   0.963   2.537  12.104  0.3065 -0.2388  0.1489
  453TMC3    C4 6746   0.952   2.768  11.962 -0.3491  0.0696  0.0465
  453TMC3    C5 6747   0.887   2.661  11.922  0.2917  0.1698 -0.3068
  453TMC3    C6 6748   0.896   2.538  11.981 -0.1045  0.5117 -0.2261
  453TMC3     C 6749   1.124   2.863  12.093  0.0012  0.3689  0.6129
  453TMC3     O 6750   1.111   2.977  12.054 -0.1147  0.4567 -0.1887
  453TMC3     H 6751   1.061   2.658  12.258 -1.7941  1.7047  0.1339
  453TMC3    H1 6752   0.957   2.859  11.903  1.2665  0.6407  1.0793
  453TMC3    H2 6753   0.838   2.451  11.956  1.2849 -0.1516 -1.1223
  453TMC3    C7 6754   0.854   2.668  11.784 -0.6094  0.1004  0.1168
  453TMC3    C8 6755   0.948   2.429  12.198  0.0287 -0.4972 -0.1676
  453TMC3    O1 6756   0.832   2.775  11.738 -0.3003 -0.0910  0.1541
  453TMC3    O2 6757   0.978   2.459  12.312  0.6439  0.5558 -0.5293
  454MPD2     C 6758   4.434   2.309  16.237 -0.2079 -0.1176 -0.7232
  454MPD2    C1 6759   4.357   2.361  16.138  0.4816 -0.1497 -0.5087
  454MPD2    C2 6760   4.296   2.487  16.150  0.1209 -0.1508  0.5951
  454MPD2    C3 6761   4.322   2.567  16.256  1.0430 -0.6766 -0.5212
  454MPD2    C4 6762   4.409   2.520  16.348  0.1104  0.0110  0.4916
  454MPD2    C5 6763   4.463   2.394  16.340 -0.2098  0.4186 -0.2759
  454MPD2     H 6764   4.227   2.514  16.071  3.0597  0.6000 -1.7191
  454MPD2    H1 6765   4.420   2.582  16.437 -0.0849 -1.0808  1.2722
  454MPD2    H2 6766   4.467   2.207  16.229 -1.4623 -0.5813  0.0592
  454MPD2    H3 6767   4.537   2.359  16.412  0.2316  0.4422 -0.7200
  454MPD2     N 6768   4.255   2.692  16.256 -0.4009 -0.5340 -0.5660
  454MPD2    H5 6769   4.258   2.737  16.347  0.8751  1.9501 -1.8384
  454MPD2    N1 6770   4.326   2.290  16.021  0.0689 -0.2313 -0.0546
  454MPD2    H7 6771   4.261   2.334  15.956 -1.0463  0.5368  1.5904
  455TMC3    C1 6772   4.077   2.810  16.202 -0.2428 -0.8995  0.1299
  455TMC3    C2 6773   4.087   2.854  16.334 -0.0496  0.1380 -0.5789
  455TMC3    C3 6774   4.003   2.801  16.423  0.6315  0.0555  0.7819
  455TMC3    C4 6775   3.980   2.718  16.176  0.6694  0.2033  0.0491
  455TMC3    C5 6776   3.926   2.639  16.279 -0.1616  0.2327 -0.3100
  455TMC3    C6 6777   3.938   2.684  16.404  0.5507  0.4360 -0.3011
  455TMC3     C 6778   4.194   2.753  16.150  0.3345  0.2094  0.0278
  455TMC3     O 6779   4.197   2.729  16.030 -0.0488  0.6339  0.3882
  455TMC3     H 6780   4.150   2.942  16.345 -1.1429  0.9314 -0.7334
  455TMC3    H1 6781   3.978   2.676  16.076 -2.1924 -0.7443  0.5114
  455TMC3    H2 6782   3.915   2.619  16.488 -0.8663 -1.6372 -2.2934
  455TMC3    C7 6783   3.898   2.494  16.259  0.2018 -0.5500 -0.7003
  455TMC3    C8 6784   3.997   2.849  16.557 -0.3955 -0.0028  0.0683
  455TMC3    O1 6785   3.965   2.452  16.164 -0.7236  0.1117 -1.0557
  455TMC3    O2 6786   3.946   2.771  16.634 -0.4552 -0.3876  0.1813
  456MPD2     C 6787   1.839   2.224  16.309  0.3351 -0.2414  0.4290
  456MPD2    C1 6788   1.972   2.215  16.350 -0.5606 -0.1765 -0.6583
  456MPD2    C2 6789   2.020   2.273  16.468  0.1768  0.7253 -0.7753
  456MPD2    C3 6790   1.931   2.349  16.542  0.0954  0.9666  0.2691
  456MPD2    C4 6791   1.803   2.369  16.496  0.5334  0.4611 -0.0540
  456MPD2    C5 6792   1.758   2.306  16.383  0.6265  0.3784  0.0285
  456MPD2     H 6793   2.124   2.257  16.492 -0.8364 -3.6321  0.6775
  456MPD2    H1 6794   1.736   2.435  16.551  0.2470  0.2959 -0.2030
  456MPD2    H2 6795   1.799   2.173  16.222 -1.0667  2.9836 -0.7908
  456MPD2    H3 6796   1.653   2.319  16.356  1.0096 -1.5862 -2.4496
  456MPD2     N 6797   1.971   2.411  16.663  0.4394  0.4527 -0.4680
  456MPD2    H5 6798   1.900   2.468  16.708 -1.3787 -0.6746 -1.8674
  456MPD2    N1 6799   2.060   2.148  16.268 -0.3578  0.1663  0.4431
  456MPD2    H7 6800   2.042   2.125  16.170 -1.0217  0.5617  0.4731
  457TMC3    C1 6801   2.095   2.449  16.853  0.4901 -0.4306 -0.1043
  457TMC3    C2 6802   2.087   2.588  16.839  0.1294 -0.2012  0.4151
  457TMC3    C3 6803   2.094   2.665  16.945  0.1879  0.2752  0.2902
  457TMC3    C4 6804   2.134   2.391  16.969 -0.8020 -0.4751 -0.0794
  457TMC3    C5 6805   2.162   2.473  17.074 -0.2608 -0.9461  0.0380
  457TMC3    C6 6806   2.132   2.609  17.069 -0.1278  0.4084  0.2532
  457TMC3     C 6807   2.067   2.359  16.739 -0.5143 -0.0122 -0.0438
  457TMC3     O 6808   2.130   2.255  16.726 -0.3949  0.2822 -0.1537
  457TMC3     H 6809   2.077   2.627  16.738  0.1105 -0.5849  0.2673
  457TMC3    H1 6810   2.164   2.287  16.964 -1.1865 -0.5129 -1.6899
  457TMC3    H2 6811   2.156   2.679  17.148  0.0005  0.6366  0.0136
  457TMC3    C7 6812   2.231   2.411  17.187  0.8333  0.0672 -0.3658
  457TMC3    C8 6813   2.073   2.811  16.935  0.2998  1.0975 -0.8169
  457TMC3    O1 6814   2.215   2.289  17.204 -0.1485 -0.5917 -0.7494
  457TMC3    O2 6815   2.125   2.875  17.022  0.7738 -0.6037 -0.2056
  458MPD2     C 6816   4.279   2.316  12.345  1.3061  0.1671 -1.4470
  458MPD2    C1 6817   4.332   2.190  12.350 -0.0216 -0.3762 -0.1482
  458MPD2    C2 6818   4.247   2.078  12.317 -0.0843  0.0387 -0.2760
  458MPD2    C3 6819   4.114   2.102  12.287 -0.4948  0.1800 -0.1334
  458MPD2    C4 6820   4.068   2.232  12.275 -0.6073 -0.6871  0.0050
  458MPD2    C5 6821   4.151   2.342  12.296  0.5714 -0.2095 -0.2090
  458MPD2     H 6822   4.280   1.975  12.322 -1.1074 -0.3612 -1.7478
  458MPD2    H1 6823   3.966   2.248  12.244 -0.3535  0.3575 -0.2972
  458MPD2    H2 6824   4.344   2.400  12.365 -0.4594  1.6263 -1.8492
  458MPD2    H3 6825   4.120   2.442  12.268 -1.3841 -1.1088 -1.3420
  458MPD2     N 6826   4.041   1.985  12.262 -0.0208  0.1067  0.2995
  458MPD2    H5 6827   4.102   1.904  12.271 -1.1894 -0.6310  1.5825
  458MPD2    N1 6828   4.467   2.175  12.394  0.2416 -0.7430 -0.0027
  458MPD2    H7 6829   4.517   2.257  12.428 -0.4989 -0.3689  0.1700
  459TMC3    C1 6830   4.663   2.079  12.475  0.5132 -0.6520  0.5698
  459TMC3    C2 6831   0.020   2.180  12.421  0.5928 -0.1491 -0.8686
  459TMC3    C3 6832   0.146   2.186  12.465 -0.3933 -0.8712  0.2649
  459TMC3    C4 6833   4.704   1.988  12.569 -0.2207 -0.0121  0.5358
  459TMC3    C5 6834   0.106   2.007  12.625 -0.2184  0.3245 -0.8084
  459TMC3    C6 6835   0.178   2.110  12.575  0.4608 -0.5280 -0.7143
  459TMC3     C 6836   4.533   2.057  12.420 -0.0600  0.1866 -0.2363
  459TMC3     O 6837   4.485   1.944  12.424 -0.1151  0.1140  0.2851
  459TMC3     H 6838   4.708   2.240  12.336 -0.0478  3.0586  1.6541
  459TMC3    H1 6839   4.634   1.911  12.599  0.0630 -0.0499  1.1053
  459TMC3    H2 6840   0.279   2.120  12.613  0.1291  1.6124 -0.4076
  459TMC3    C7 6841   0.119   1.942  12.757  0.0580  0.1742  0.1301
  459TMC3    C8 6842   0.235   2.270  12.401 -0.0262 -0.6766  0.1853
  459TMC3    O1 6843   0.041   1.857  12.790 -0.1876  0.0861  0.2344
  459TMC3    O2 6844   0.210   2.315  12.284  0.2568 -0.2171 -0.1785
  460MPD2     C 6845   3.952   4.515  10.657 -0.4248  0.0041 -0.3905
  460MPD2    C1 6846   3.831   4.570  10.699  0.5273 -0.3623 -0.2655
  460MPD2    C2 6847   3.744   4.621  10.597 -0.0242  0.5412 -0.2076
  460MPD2    C3 6848   3.782   4.609  10.457 -0.5601  0.1240  0.4299
  460MPD2    C4 6849   3.901   4.547  10.425 -0.7024  0.0410 -0.2736
  460MPD2    C5 6850   3.994   4.520  10.526 -0.0545 -0.4325 -0.2274
  460MPD2     H 6851   3.645   4.658  10.619  0.1053  1.0842 -0.5349
  460MPD2    H1 6852   3.939   4.527  10.326 -1.2676 -1.3065 -0.2158
  460MPD2    H2 6853   4.040   4.491  10.716 -1.9544  0.1024  1.9338
  460MPD2    H3 6854   4.089   4.480  10.493  1.3058  1.3777  1.4641
  460MPD2     N 6855   3.694   4.654  10.354  0.3332 -0.2016  0.2824
  460MPD2    H5 6856   3.600   4.684  10.381  0.1831  0.2967 -0.8218
  460MPD2    N1 6857   3.800   4.578  10.836  0.3257  0.9177  1.1123
  460MPD2    H7 6858   3.864   4.535  10.902 -0.5006 -0.7675  0.8334
  461TMC3    C1 6859   3.602   4.663  10.137  0.0567  0.3877 -0.1072
  461TMC3    C2 6860   3.576   4.587  10.029 -0.2507  0.8043 -0.1257
  461TMC3    C3 6861   3.508   4.654   9.930  0.3980 -0.3185 -0.0492
  461TMC3    C4 6862   3.551   0.072  10.151  1.1664  0.3238 -0.4853
  461TMC3    C5 6863   3.473   0.126  10.056 -0.9546 -0.3365 -0.0886
  461TMC3    C6 6864   3.458   0.060   9.938 -0.1000 -0.0307 -0.8804
  461TMC3     C 6865   3.705   4.614  10.225 -0.2853 -0.2147  0.2827
  461TMC3     O 6866   3.790   4.552  10.163  0.0267  0.2508  0.1640
  461TMC3     H 6867   3.617   4.487  10.015  2.2589  1.9017 -0.5786
  461TMC3    H1 6868   3.574   0.127  10.241 -0.5047  0.2117  0.0055
  461TMC3    H2 6869   3.391   0.099   9.862 -0.0550  1.9929  0.1099
  461TMC3    C7 6870   3.406   0.255  10.067  0.9885  0.0455  0.1928
  461TMC3    C8 6871   3.481   4.586   9.804 -0.4524  0.1539  0.1428
  461TMC3    O1 6872   3.348   0.295   9.970  0.4835 -0.4245  0.0061
  461TMC3    O2 6873   3.476   4.465   9.807  0.4729 -0.7364  0.1913
  462TMC3    C1 6874   3.883   0.734   0.395 -0.1237 -0.8007  0.1008
  462TMC3    C2 6875   3.960   0.706   0.294  0.3589  0.4479  0.2401
  462TMC3    C3 6876   3.992   0.576   0.273 -0.2281 -0.2442  0.4141
  462TMC3    C4 6877   3.829   0.642   0.480  0.3669 -0.8158  0.7376
  462TMC3    C5 6878   3.859   0.511   0.460 -0.2814  0.3286 -0.2191
  462TMC3    C6 6879   3.956   0.479   0.371  0.8498  0.0234 -0.4458
  462TMC3     C 6880   3.887   0.876   0.423 -0.0218 -0.1535  0.2417
  462TMC3     O 6881   3.991   0.935   0.380  0.3630  0.2993  0.1545
  462TMC3     H 6882   3.974   0.784   0.220  3.2930 -2.2010 -2.0054
  462TMC3    H1 6883   3.765   0.675   0.562  1.2491 -1.0620  1.5178
  462TMC3    H2 6884   3.967   0.372   0.358 -0.1243  0.0029 -1.0930
  462TMC3    C7 6885   3.758   0.410   0.477  0.1240 -0.0309 -0.6525
  462TMC3    C8 6886   3.965   0.524   0.142  0.1468  0.4304 -0.5939
  462TMC3    O1 6887   3.780   0.295   0.450  0.1849  0.3091 -0.6478
  462TMC3    O2 6888   3.894   0.596   0.072 -0.3668 -0.0047  0.0812
  463MPD2     C 6889   0.837   2.946   1.665  0.6811 -0.3731  0.7554
  463MPD2    C1 6890   0.711   2.999   1.638 -0.7798  0.2634  0.1359
  463MPD2    C2 6891   0.689   3.135   1.638  0.2848 -0.1860  0.2126
  463MPD2    C3 6892   0.788   3.221   1.668 -0.4199 -0.3637 -0.3137
  463MPD2    C4 6893   0.913   3.171   1.692  0.6565  0.2763  0.1139
  463MPD2    C5 6894   0.940   3.033   1.687  0.5678 -0.5213  0.3581
  463MPD2     H 6895   0.589   3.173   1.620  0.7625  0.6409 -0.6351
  463MPD2    H1 6896   1.003   3.227   1.711  0.5278  0.9127 -1.1692
  463MPD2    H2 6897   0.860   2.840   1.668 -2.2357 -1.0516 -0.0033
  463MPD2    H3 6898   1.045   3.005   1.690  0.9737  0.8702 -0.8336
  463MPD2     N 6899   0.764   3.363   1.676 -0.1749  0.5329 -0.5360
  463MPD2    H5 6900   0.851   3.413   1.690 -1.1796  1.9384  0.6020
  463MPD2    N1 6901   0.595   2.921   1.613 -0.0929  0.3769 -0.2353
  463MPD2    H7 6902   0.506   2.968   1.607 -0.4307 -0.0877  1.0249
  464TMC3    C1 6903   0.468   2.724   1.595 -0.2577  0.6517  0.1145
  464TMC3    C2 6904   0.355   2.796   1.641  0.3188  0.3656  0.5335
  464TMC3    C3 6905   0.235   2.728   1.629 -0.4281  0.2905  0.1316
  464TMC3    C4 6906   0.459   2.594   1.570 -0.2442  0.5462  0.6223
  464TMC3    C5 6907   0.340   2.529   1.570  0.1016 -0.1273  0.0230
  464TMC3    C6 6908   0.222   2.595   1.597  0.2187  0.4230 -0.0775
  464TMC3     C 6909   0.603   2.785   1.597  0.7006 -0.6969  0.5818
  464TMC3     O 6910   0.697   2.704   1.587  0.1273 -0.1894 -0.1841
  464TMC3     H 6911   0.365   2.899   1.674  1.3766 -0.1731  1.8811
  464TMC3    H1 6912   0.553   2.548   1.540 -1.3110 -1.0655 -0.2423
  464TMC3    H2 6913   0.125   2.547   1.598  0.4277 -0.0214 -1.1051
  464TMC3    C7 6914   0.348   2.387   1.571  0.2305  0.7898  0.1323
  464TMC3    C8 6915   0.119   2.805   1.653 -0.7629 -0.1353  0.5599
  464TMC3    O1 6916   0.454   2.334   1.598 -0.0739  0.3541  0.6976
  464TMC3    O2 6917   0.124   2.921   1.615 -0.4071 -0.7180 -0.2947
  465MPD2     C 6918   1.425   2.472  16.532 -0.1832  0.5380 -0.0119
  465MPD2    C1 6919   1.355   2.421  16.644 -0.9267 -0.1899 -0.1928
  465MPD2    C2 6920   1.217   2.413  16.627  0.7772 -0.4969 -0.6196
  465MPD2    C3 6921   1.152   2.458  16.514 -0.6302  0.4684  0.3172
  465MPD2    C4 6922   1.225   2.511  16.407  0.8026  1.0216 -0.5791
  465MPD2    C5 6923   1.356   2.516  16.419  0.0309 -0.8290 -0.7950
  465MPD2     H 6924   1.147   2.391  16.706  2.5005 -0.1428  1.0061
  465MPD2    H1 6925   1.185   2.546  16.312 -3.4189 -0.1680  0.7524
  465MPD2    H2 6926   1.533   2.482  16.534  0.0210 -1.9654  1.7232
  465MPD2    H3 6927   1.414   2.565  16.342 -1.0575  2.5797  0.5570
  465MPD2     N 6928   1.015   2.434  16.518  0.3455 -0.0640  0.4605
  465MPD2    H5 6929   0.970   2.395  16.600 -0.1655 -0.8341 -0.1827
  465MPD2    N1 6930   1.416   2.377  16.759  0.2054  0.4030 -0.6169
  465MPD2    H7 6931   1.349   2.351  16.831  1.7793 -2.7287 -0.2599
  466TMC3    C1 6932   0.620   2.286  16.514 -0.0970  0.2961 -0.2084
  466TMC3    C2 6933   0.528   2.380  16.473  0.4702 -0.3280  0.2446
  466TMC3    C3 6934   0.570   2.499  16.408 -0.2732  0.3973  0.6154
  466TMC3    C4 6935   0.754   2.305  16.494  0.4907  0.2536 -0.1139
  466TMC3    C5 6936   0.792   2.433  16.447 -0.9366  0.5037 -0.1070
  466TMC3    C6 6937   0.705   2.526  16.398 -0.3323  0.2703  0.2195
  466TMC3     C 6938   0.596   2.227  16.642 -0.1195 -0.3349  0.0255
  466TMC3     O 6939   0.692   2.170  16.688  0.7500 -0.2741 -0.2071
  466TMC3     H 6940   0.422   2.371  16.492  0.2507  0.0347 -0.8264
  466TMC3    H1 6941   0.829   2.240  16.538  0.3286 -2.0596 -3.2116
  466TMC3    H2 6942   0.739   2.618  16.352 -0.9263  0.4476  0.1340
  466TMC3    C7 6943   0.929   2.466  16.418  0.3440  0.2479  0.7230
  466TMC3    C8 6944   0.464   2.602  16.391  0.3476 -0.4101  0.7693
  466TMC3    O1 6945   0.947   2.530  16.313 -0.0434  0.3727  0.2638
  466TMC3    O2 6946   0.351   2.564  16.366  0.1958  0.8034  0.0658
  467TMC3    C1 6947   1.431   1.493  13.682 -0.3724  0.1803 -0.2231
  467TMC3    C2 6948   1.456   1.518  13.550 -0.0544 -0.2621 -0.4442
  467TMC3    C3 6949   1.473   1.418  13.464  0.4678 -0.3843  0.5426
  467TMC3    C4 6950   1.374   1.372  13.712 -0.4045  0.2829 -0.3167
  467TMC3    C5 6951   1.361   1.276  13.614 -0.0093 -0.6998  0.3215
  467TMC3    C6 6952   1.421   1.295  13.491 -0.1936 -0.2209 -0.6190
  467TMC3     C 6953   1.547   1.527  13.763  0.5414 -0.2105  0.2688
  467TMC3     O 6954   1.614   1.438  13.807  0.3626  0.5151 -0.3703
  467TMC3     H 6955   1.507   1.609  13.521  1.1933 -0.7290  0.2926
  467TMC3    H1 6956   1.374   1.349  13.818 -1.2948 -1.2084 -0.6454
  467TMC3    H2 6957   1.416   1.214  13.419 -2.6274 -0.2487 -0.4020
  467TMC3    C7 6958   1.315   1.146  13.644  0.7441  0.0984 -0.0266
  467TMC3    C8 6959   1.568   1.440  13.358 -0.6504 -0.2098  0.3966
  467TMC3    O1 6960   1.344   1.053  13.577  0.1244  0.1385 -0.0240
  467TMC3    O2 6961   1.595   1.552  13.327 -0.0741 -0.6982 -0.2682
  468MPD2     C 6962   0.959   3.923  11.008  0.1475 -0.5027 -0.6083
  468MPD2    C1 6963   1.034   3.917  11.121 -0.2454 -0.7095  0.0112
  468MPD2    C2 6964   1.050   3.791  11.185 -0.3798 -0.5278 -0.9846
  468MPD2    C3 6965   0.980   3.684  11.142  0.8754  0.0031  0.0122
  468MPD2    C4 6966   0.892   3.697  11.035  0.1003  1.8376 -0.1172
  468MPD2    C5 6967   0.882   3.818  10.963  0.4991 -0.2750  0.2803
  468MPD2     H 6968   1.110   3.783  11.274 -0.3623 -0.8010 -1.0218
  468MPD2    H1 6969   0.830   3.624  10.985  0.4180  0.4367  1.5019
  468MPD2    H2 6970   0.956   4.008  10.941 -0.5895 -0.1033 -0.0769
  468MPD2    H3 6971   0.828   3.817  10.869  0.2012  1.3483  0.4356
  468MPD2     N 6972   0.988   3.552  11.192 -0.5308  0.4583  0.2258
  468MPD2    H5 6973   0.906   3.497  11.168 -0.4265  0.1204  0.6493
  468MPD2    N1 6974   1.107   4.024  11.174  0.9939  0.5841 -0.4148
  468MPD2    H7 6975   1.170   4.001  11.251 -0.8335 -0.7335  0.6886
  469TMC3    C1 6976   1.207   4.238  11.189  0.1565  0.3400  0.0023
  469TMC3    C2 6977   1.318   4.182  11.252 -0.3809 -0.5282 -0.4037
  469TMC3    C3 6978   1.381   4.262  11.338  0.5610  0.7157  0.4809
  469TMC3    C4 6979   1.154   4.363  11.218 -0.2664  0.8395  0.0450
  469TMC3    C5 6980   1.223   4.436  11.313 -0.7112  0.2877 -0.0294
  469TMC3    C6 6981   1.336   4.386  11.377  0.3182  0.0957  0.2552
  469TMC3     C 6982   1.106   4.150  11.131  0.8982  0.4765  0.3736
  469TMC3     O 6983   1.036   4.197  11.040  0.1993 -0.0223 -0.0059
  469TMC3     H 6984   1.364   4.086  11.233  0.3105 -0.6068  1.6991
  469TMC3    H1 6985   1.066   4.395  11.163  0.2034  2.0947  0.0194
  469TMC3    H2 6986   1.385   4.442  11.455 -0.6046  2.7597 -1.0741
  469TMC3    C7 6987   1.167   4.569  11.336  0.5476 -0.4127  0.5207
  469TMC3    C8 6988   1.499   4.203  11.406  0.0236  0.3951  0.7428
  469TMC3    O1 6989   1.059   4.596  11.278  0.1780  0.4162  0.4542
  469TMC3    O2 6990   1.570   4.131  11.335 -0.3169 -0.2871 -0.5984
  470TMC3    C1 6991   2.770   4.713   0.391  0.3567  0.2146 -0.9745
  470TMC3    C2 6992   2.800   0.122   0.425 -0.2823 -0.4994 -0.3479
  470TMC3    C3 6993   2.870   0.150   0.539 -1.2192  0.1239  0.1727
  470TMC3    C4 6994   2.822   4.608   0.459  0.5375 -0.5663  0.6117
  470TMC3    C5 6995   2.902   4.635   0.567 -0.1066 -0.9768  0.3696
  470TMC3    C6 6996   2.926   0.046   0.608  0.0141  0.4741  0.2474
  470TMC3     C 6997   2.720   4.685   0.260  0.0109 -0.4102 -0.8288
  470TMC3     O 6998   2.735   0.056   0.181 -0.1745 -0.5061  0.0727
  470TMC3     H 6999   2.754   0.193   0.358  0.2811 -1.0361 -1.2911
  470TMC3    H1 7000   2.818   4.504   0.431  2.5445 -0.1746 -1.1490
  470TMC3    H2 7001   2.997   0.062   0.688 -1.1118  0.7921  1.1835
  470TMC3    C7 7002   2.951   4.532   0.651  0.1092  0.4544  1.1676
  470TMC3    C8 7003   2.886   0.282   0.595 -0.9308 -0.1756  0.8237
  470TMC3    O1 7004   2.973   4.428   0.589 -0.0063  0.1482 -0.7006
  470TMC3    O2 7005   2.942   0.295   0.705  0.0768 -0.8751  0.0214
  471MPD2     C 7006   3.343   1.206  16.822  0.6058  0.5770  0.4164
  471MPD2    C1 7007   3.475   1.161  16.819 -0.3437  0.1231 -0.0942
  471MPD2    C2 7008   3.541   1.132  16.931 -0.1289  0.1458  0.6841
  471MPD2    C3 7009   3.478   1.141  17.053 -0.3152 -0.3998 -0.7574
  471MPD2    C4 7010   3.347   1.186  17.059 -0.2835  0.0746  0.4131
  471MPD2    C5 7011   3.278   1.221  16.945 -0.0428 -0.3007  0.8877
  471MPD2     H 7012   3.642   1.094  16.936 -1.0390 -2.3101  0.4137
  471MPD2    H1 7013   3.297   1.211  17.152 -0.6646 -4.3282  1.3824
  471MPD2    H2 7014   3.287   1.231  16.733  0.9196 -0.7841 -0.1506
  471MPD2    H3 7015   3.179   1.261  16.961 -0.3417  0.2330 -2.3312
  471MPD2     N 7016   3.549   1.115  17.175 -0.2356 -0.0591  0.4866
  471MPD2    H5 7017   3.486   1.110  17.254  0.6521 -0.0415  1.1934
  471MPD2    N1 7018   3.538   1.132  16.705 -0.1764 -0.1515  0.5345
  471MPD2    H7 7019   3.617   1.072  16.722  0.9861  1.4256  0.7076
  472TMC3    C1 7020   3.558   1.055  16.484 -0.9261 -0.4674 -0.6234
  472TMC3    C2 7021   3.521   1.057  16.350  0.0753 -0.1017  0.0656
  472TMC3    C3 7022   3.553   0.947  16.271 -0.0146  0.0687 -0.2324
  472TMC3    C4 7023   3.624   0.950  16.541  0.0281 -0.0890 -0.2453
  472TMC3    C5 7024   3.636   0.838  16.462 -0.2362  0.4612 -0.2756
  472TMC3    C6 7025   3.615   0.836  16.329 -0.3055 -0.3212  0.1279
  472TMC3     C 7026   3.486   1.148  16.575  0.0960 -0.7451 -0.0715
  472TMC3     O 7027   3.389   1.205  16.525  0.3604  0.4441  0.0245
  472TMC3     H 7028   3.468   1.146  16.316 -0.0283 -0.2019 -0.0382
  472TMC3    H1 7029   3.631   0.938  16.649  3.5427  0.7261 -0.3816
  472TMC3    H2 7030   3.641   0.750  16.269  2.5020 -0.5817  1.6808
  472TMC3    C7 7031   3.588   0.721  16.537  0.1191 -0.1631  0.1314
  472TMC3    C8 7032   3.433   0.898  16.205 -0.2007  0.3521 -0.5063
  472TMC3    O1 7033   3.634   0.699  16.649 -0.1102  0.3687 -0.2046
  472TMC3    O2 7034   3.421   0.778  16.213 -0.1656  0.1537  0.7610
  473MPD2     C 7035   3.564   3.502  14.141 -0.7830  0.3230  0.3365
  473MPD2    C1 7036   3.513   3.624  14.107  0.9894 -0.4167  0.1808
  473MPD2    C2 7037   3.535   3.727  14.195 -0.0136  0.0201 -0.3813
  473MPD2    C3 7038   3.590   3.703  14.322 -0.1452 -0.7596 -0.4545
  473MPD2    C4 7039   3.633   3.577  14.355  0.4270 -0.3362  0.1174
  473MPD2    C5 7040   3.620   3.481  14.262  0.4685  0.1754  0.3705
  473MPD2     H 7041   3.511   3.830  14.173 -0.9300  0.0958  0.9898
  473MPD2    H1 7042   3.680   3.561  14.452 -1.4114  1.7481  1.3570
  473MPD2    H2 7043   3.546   3.412  14.083 -1.2119 -0.1059  1.1364
  473MPD2    H3 7044   3.637   3.376  14.285 -0.3361  0.0665  0.4361
  473MPD2     N 7045   3.609   3.801  14.419 -0.2693  0.3844  0.1026
  473MPD2    H5 7046   3.668   3.774  14.497 -0.3625  0.2044  0.1108
  473MPD2    N1 7047   3.437   3.650  13.982 -0.5109  0.6586  0.5814
  473MPD2    H7 7048   3.386   3.736  13.964  1.1450  1.1885 -1.5201
  474TMC3    C1 7049   3.626   4.003  14.542 -0.3658  0.6814 -0.3184
  474TMC3    C2 7050   3.529   4.041  14.634 -0.3045  0.3792 -0.1974
  474TMC3    C3 7051   3.564   4.095  14.751  0.3268  0.3472  0.0706
  474TMC3    C4 7052   3.756   4.028  14.551  0.7018  0.4480 -0.3029
  474TMC3    C5 7053   3.790   4.083  14.679 -0.0382  0.5247  0.5701
  474TMC3    C6 7054   3.695   4.111  14.779 -0.2722  0.1559 -0.0570
  474TMC3     C 7055   3.571   3.931  14.427 -0.0748  0.0537  0.0944
  474TMC3     O 7056   3.492   3.995  14.351  0.0838 -0.0150 -0.7748
  474TMC3     H 7057   3.422   4.027  14.619 -0.1508 -0.1650 -0.7812
  474TMC3    H1 7058   3.830   3.996  14.480  0.8223  0.6476 -0.2672
  474TMC3    H2 7059   3.700   4.153  14.879  1.5687  2.5567 -1.1754
  474TMC3    C7 7060   3.933   4.100  14.714  0.7440 -0.9921 -0.0955
  474TMC3    C8 7061   3.477   4.207  14.794  0.0382  0.0207 -0.7075
  474TMC3    O1 7062   4.017   4.083  14.630 -0.0644 -0.0809 -0.0174
  474TMC3    O2 7063   3.473   4.229  14.915 -0.2805 -0.3329 -0.3388
  475MPD2     C 7064   1.570   2.247  10.801 -0.1884  0.3418 -0.3743
  475MPD2    C1 7065   1.543   2.208  10.673  0.8202  0.5898 -0.5704
  475MPD2    C2 7066   1.412   2.198  10.623  1.0207 -0.0716 -0.4477
  475MPD2    C3 7067   1.306   2.215  10.705 -0.7722  0.3451 -0.1993
  475MPD2    C4 7068   1.339   2.249  10.834 -0.0147 -0.0125  0.0244
  475MPD2    C5 7069   1.464   2.268  10.887 -0.7683  0.0620 -0.4427
  475MPD2     H 7070   1.387   2.177  10.520 -0.0671  0.5325 -0.3075
  475MPD2    H1 7071   1.255   2.282  10.894  0.3579  1.5893 -0.3339
  475MPD2    H2 7072   1.672   2.263  10.835  0.4021 -2.9875 -0.5897
  475MPD2    H3 7073   1.475   2.298  10.991 -0.5557 -0.2289 -0.3798
  475MPD2     N 7074   1.173   2.219  10.654  0.0058  0.4164  0.1285
  475MPD2    H5 7075   1.159   2.175  10.563  2.8823 -0.0272 -0.1031
  475MPD2    N1 7076   1.662   2.185  10.596 -0.2227  0.0409  0.8003
  475MPD2    H7 7077   1.750   2.194  10.645 -0.2426 -0.1341  0.8677
  476TMC3    C1 7078   1.789   2.113  10.411 -0.0015  0.5039  0.8015
  476TMC3    C2 7079   1.791   2.052  10.290 -0.1255  0.7090  0.1620
  476TMC3    C3 7080   1.900   2.080  10.211  0.1937  0.8618  0.2139
  476TMC3    C4 7081   1.891   2.189  10.466 -0.3854 -0.9330 -0.4363
  476TMC3    C5 7082   1.987   2.217  10.380  0.6756  0.1281 -1.1966
  476TMC3    C6 7083   2.003   2.164  10.249  0.5986  0.2725  0.7316
  476TMC3     C 7084   1.655   2.124  10.469  0.8299 -0.6129  0.2523
  476TMC3     O 7085   1.565   2.104  10.388  0.5212  0.0271 -0.5990
  476TMC3     H 7086   1.710   1.988  10.257  1.0018 -1.6412  1.9055
  476TMC3    H1 7087   1.901   2.227  10.567 -2.5214 -1.2050 -0.1193
  476TMC3    H2 7088   2.089   2.171  10.184  0.7173 -1.7682  0.6721
  476TMC3    C7 7089   2.119   2.237  10.433 -0.4896  0.2661  0.3938
  476TMC3    C8 7090   1.917   2.017  10.084  0.0723 -0.8199  0.0329
  476TMC3    O1 7091   2.203   2.151  10.406  0.0201  0.3870 -0.4741
  476TMC3    O2 7092   1.973   2.091  10.001  0.1211  0.0611  0.4939
  477MPD2     C 7093   3.808   3.327  11.575 -0.0671  0.2555  0.0405
  477MPD2    C1 7094   3.847   3.447  11.633  0.4703 -0.6144  0.2585
  477MPD2    C2 7095   3.954   3.431  11.721  0.4873 -0.2663  0.2709
  477MPD2    C3 7096   4.020   3.313  11.748  0.3235  0.1294  0.2172
  477MPD2    C4 7097   3.986   3.203  11.670  0.0935  0.3165 -0.4585
  477MPD2    C5 7098   3.880   3.212  11.583 -0.9635 -0.1671  0.2140
  477MPD2     H 7099   3.985   3.517  11.779 -0.9202  0.4394 -0.0408
  477MPD2    H1 7100   4.048   3.114  11.671  1.8436  1.5364  1.0826
  477MPD2    H2 7101   3.738   3.324  11.492 -0.2807 -0.6394  0.2536
  477MPD2    H3 7102   3.845   3.125  11.529 -2.7069  0.1874  0.7813
  477MPD2     N 7103   4.103   3.309  11.862  0.5813 -0.0616  0.0485
  477MPD2    H5 7104   4.124   3.395  11.910  1.8758 -0.4660  0.1953
  477MPD2    N1 7105   3.775   3.565  11.608 -0.5124 -0.1513 -0.3701
  477MPD2    H7 7106   3.707   3.558  11.532 -0.6707 -3.0728  0.0296
  478TMC3    C1 7107   3.693   3.790  11.620 -0.5945  0.1252 -0.9415
  478TMC3    C2 7108   3.702   3.913  11.687  0.2140  0.3935 -0.1526
  478TMC3    C3 7109   3.604   4.010  11.659  0.1025 -0.1568  0.4989
  478TMC3    C4 7110   3.586   3.761  11.533  0.1194 -0.2840 -0.6747
  478TMC3    C5 7111   3.500   3.872  11.504 -0.0211 -0.9014  0.5802
  478TMC3    C6 7112   3.495   3.989  11.570  0.0322 -0.9414 -0.0873
  478TMC3     C 7113   3.786   3.687  11.670  0.2479  0.6625 -0.1093
  478TMC3     O 7114   3.867   3.725  11.755  0.3091  0.3597  0.3430
  478TMC3     H 7115   3.782   3.943  11.754  1.1563  0.2367 -1.2092
  478TMC3    H1 7116   3.578   3.671  11.475  0.6461 -1.4867  1.1137
  478TMC3    H2 7117   3.416   4.063  11.561  1.5278  0.8772  1.8121
  478TMC3    C7 7118   3.418   3.846  11.398  0.0144 -0.4759 -0.6812
  478TMC3    C8 7119   3.583   4.089  11.779  0.6245 -0.3277 -0.2688
  478TMC3    O1 7120   3.378   3.730  11.390 -0.1163  0.2008  0.1412
  478TMC3    O2 7121   3.633   4.052  11.882  0.0665  0.2613  0.1354
  479MPD2     C 7122   3.261   0.876  15.270  0.4817 -0.8844  0.0959
  479MPD2    C1 7123   3.191   0.796  15.363  0.0206  0.2042 -0.2024
  479MPD2    C2 7124   3.248   0.781  15.494  0.3711  0.7513 -0.4802
  479MPD2    C3 7125   3.358   0.856  15.530 -0.5884  0.0308  0.1013
  479MPD2    C4 7126   3.419   0.933  15.435 -0.0141  0.5627 -1.1769
  479MPD2    C5 7127   3.369   0.951  15.306 -0.3644 -0.1186  0.2006
  479MPD2     H 7128   3.206   0.715  15.568 -0.1860  0.6393 -0.9011
  479MPD2    H1 7129   3.503   0.995  15.462  0.4196 -0.9075  0.8732
  479MPD2    H2 7130   3.210   0.884  15.174 -1.6621  0.0122  1.3064
  479MPD2    H3 7131   3.412   1.016  15.231 -1.4172  0.1562 -0.1576
  479MPD2     N 7132   3.433   0.849  15.653 -0.4372  0.0903 -0.9047
  479MPD2    H5 7133   3.528   0.887  15.651  0.2644 -1.5391  0.7698
  479MPD2    N1 7134   3.072   0.739  15.322  0.6276 -0.8928 -1.0210
  479MPD2    H7 7135   3.038   0.763  15.230 -1.8378 -2.4842 -0.5101
  480TMC3    C1 7136   3.101   0.632  15.903  0.0915  0.0458 -0.4420
  480TMC3    C2 7137   2.994   0.712  15.867 -0.0018 -0.2642  0.2206
  480TMC3    C3 7138   3.028   0.818  15.787  0.1069  0.2263  0.4647
  480TMC3    C4 7139   3.231   0.659  15.884  0.2119 -0.2346  0.5796
  480TMC3    C5 7140   3.260   0.769  15.808  0.1157  0.3164  0.1991
  480TMC3    C6 7141   3.159   0.856  15.768  0.3489  0.1085 -0.2083
  480TMC3     C 7142   3.080   0.517  15.990 -0.2012 -0.6656  0.3352
  480TMC3     O 7143   3.174   0.489  16.063 -0.4019  0.0245 -0.1931
  480TMC3     H 7144   2.889   0.699  15.889 -0.4338  1.7008 -0.7173
  480TMC3    H1 7145   3.316   0.598  15.913 -0.6402 -0.3956  2.7319
  480TMC3    H2 7146   3.177   0.956  15.729  0.7200  0.4059  0.7192
  480TMC3    C7 7147   3.403   0.791  15.778  0.2254  0.1249  0.1019
  480TMC3    C8 7148   2.919   0.883  15.711  0.3298 -0.0998 -1.0480
  480TMC3    O1 7149   3.477   0.764  15.870  0.5113 -0.3511  0.0970
  480TMC3    O2 7150   2.803   0.851  15.733  0.3033 -0.2195  0.5588
  481MPD2     C 7151   0.182   0.941  14.623  0.8701 -0.6728  0.5778
  481MPD2    C1 7152   0.114   0.826  14.603 -0.6984 -0.2242 -0.1295
  481MPD2    C2 7153   0.072   0.741  14.707  0.0641 -0.6464  0.1834
  481MPD2    C3 7154   0.108   0.784  14.837  0.1604 -0.1430 -0.2181
  481MPD2    C4 7155   0.175   0.902  14.860  0.3633 -0.0474  0.1006
  481MPD2    C5 7156   0.223   0.968  14.748  1.2578 -0.1190  0.0866
  481MPD2     H 7157   0.028   0.646  14.679  1.2341 -1.0294 -0.3528
  481MPD2    H1 7158   0.205   0.936  14.958  0.9765 -0.3137  0.0012
  481MPD2    H2 7159   0.220   0.993  14.535  0.3724 -2.7372 -0.8664
  481MPD2    H3 7160   0.283   1.056  14.770 -0.6472  0.6394  2.2314
  481MPD2     N 7161   0.097   0.696  14.952  0.2539 -0.0781 -0.5385
  481MPD2    H5 7162   0.135   0.728  15.041  0.9325 -1.1331 -0.4417
  481MPD2    N1 7163   0.085   0.794  14.467  0.1091 -0.0105  0.1485
  481MPD2    H7 7164   0.129   0.856  14.399  2.9811 -0.5144  1.5262
  482TMC3    C1 7165   0.006   0.698  14.266  0.1548  0.0103 -0.2747
  482TMC3    C2 7166   4.636   0.619  14.204  0.0957 -0.0628 -0.2677
  482TMC3    C3 7167   4.599   0.654  14.073 -0.0637 -0.0196 -1.1799
  482TMC3    C4 7168   0.082   0.789  14.193  0.6972 -0.3163  0.5281
  482TMC3    C5 7169   0.064   0.791  14.056 -0.4129  0.1731 -0.2796
  482TMC3    C6 7170   4.676   0.732  13.994  0.7000  0.1043 -0.0045
  482TMC3     C 7171   0.015   0.686  14.413 -0.3557  0.4858  0.1855
  482TMC3     O 7172   4.661   0.604  14.471 -0.1663 -0.2555  0.0291
  482TMC3     H 7173   4.566   0.562  14.263  0.2710  2.0585  2.0041
  482TMC3    H1 7174   0.160   0.853  14.233  1.6250 -1.5775  0.7464
  482TMC3    H2 7175   4.660   0.722  13.887 -0.3200  1.2344  0.0459
  482TMC3    C7 7176   0.141   0.881  13.969 -0.3481  0.7958 -0.4088
  482TMC3    C8 7177   4.508   0.564  14.007 -0.3591  0.5599 -0.1561
  482TMC3    O1 7178   0.241   0.926  14.017  0.1229  0.4764  0.6425
  482TMC3    O2 7179   4.494   0.458  14.070 -0.0836 -0.2724 -0.3852
  483TMC3    C1 7180   3.209   3.611   1.602 -0.0907  0.4561 -0.1957
  483TMC3    C2 7181   3.207   3.744   1.556  0.7907  0.2865 -0.2426
  483TMC3    C3 7182   3.330   3.795   1.521  0.3139  0.0323  0.2091
  483TMC3    C4 7183   3.329   3.547   1.618 -0.0041 -0.3906  0.0575
  483TMC3    C5 7184   3.451   3.596   1.582  0.5592 -0.1782 -0.2477
  483TMC3    C6 7185   3.449   3.725   1.529 -0.3799  0.0613  0.0744
  483TMC3     C 7186   3.084   3.554   1.641 -0.4389  0.1969  0.3415
  483TMC3     O 7187   2.990   3.628   1.651  0.4180 -0.7521 -0.9039
  483TMC3     H 7188   3.115   3.801   1.547 -0.2152 -1.2467  0.2146
  483TMC3    H1 7189   3.330   3.454   1.674 -1.5882  0.6196  1.7635
  483TMC3    H2 7190   3.545   3.774   1.522  0.3695 -1.4970 -0.4490
  483TMC3    C7 7191   3.572   3.517   1.590  0.0973 -0.0135 -0.1716
  483TMC3    C8 7192   3.336   3.939   1.503 -0.0531 -1.4125  0.2697
  483TMC3    O1 7193   3.567   3.411   1.654  0.1595 -0.1818 -0.0856
  483TMC3    O2 7194   3.253   3.995   1.568 -0.2723 -0.1562 -0.1153
  484MPD2     C 7195   0.434   2.477  12.326 -0.0461  1.1931 -0.1878
  484MPD2    C1 7196   0.442   2.407  12.442 -0.0696  0.6724 -0.1833
  484MPD2    C2 7197   0.553   2.411  12.527 -0.7175 -0.8999 -0.4167
  484MPD2    C3 7198   0.662   2.483  12.479 -0.3870 -0.2799 -0.3407
  484MPD2    C4 7199   0.657   2.539  12.352 -0.1378  0.4764 -0.1908
  484MPD2    C5 7200   0.547   2.538  12.276 -0.2065  0.6594 -0.5074
  484MPD2     H 7201   0.552   2.354  12.619  0.2071 -0.0744  0.0997
  484MPD2    H1 7202   0.741   2.589  12.305  0.2054  1.5213  1.5542
  484MPD2    H2 7203   0.354   2.466  12.253  0.2059  1.8679 -0.5614
  484MPD2    H3 7204   0.554   2.592  12.182 -0.6711  0.1831 -0.8136
  484MPD2     N 7205   0.782   2.496  12.549  0.4170  0.3746 -0.1539
  484MPD2    H5 7206   0.864   2.519  12.493  2.6872 -2.3530  2.0148
  484MPD2    N1 7207   0.336   2.321  12.481 -0.2372  0.1833 -0.1855
  484MPD2    H7 7208   0.337   2.300  12.580 -1.7398 -2.1744 -0.6825
  485TMC3    C1 7209   0.950   2.436  12.708 -0.1604  0.6465  0.7887
  485TMC3    C2 7210   0.993   2.352  12.807  0.0954 -0.0408 -0.4764
  485TMC3    C3 7211   1.126   2.342  12.835 -0.5233  0.2794 -0.2761
  485TMC3    C4 7212   1.037   2.510  12.643  0.2542 -0.3225  0.1988
  485TMC3    C5 7213   1.169   2.494  12.662  0.2129 -0.3287  0.1889
  485TMC3    C6 7214   1.215   2.405  12.756 -0.2165  0.0417  0.3977
  485TMC3     C 7215   0.806   2.439  12.672 -0.0521  0.4304 -0.2271
  485TMC3     O 7216   0.731   2.371  12.741 -0.1671 -0.0656 -0.0143
  485TMC3     H 7217   0.916   2.291  12.853  0.4699  1.2492  1.8749
  485TMC3    H1 7218   1.012   2.561  12.551  2.0224  1.8846  0.9236
  485TMC3    H2 7219   1.322   2.396  12.771 -0.1192 -0.2099 -0.4501
  485TMC3    C7 7220   1.239   2.493  12.533  0.3275 -0.0954  1.3401
  485TMC3    C8 7221   1.169   2.206  12.839  0.0097 -0.0998  0.7978
  485TMC3    O1 7222   1.245   2.588  12.461 -0.3828  0.3764 -0.3742
  485TMC3    O2 7223   1.258   2.180  12.755 -0.2428 -0.3179  0.2379
  486MPD2     C 7224   2.718   1.166  13.147 -0.6829 -0.1935 -0.0710
  486MPD2    C1 7225   2.763   1.172  13.015 -0.6577 -0.4338 -0.8464
  486MPD2    C2 7226   2.718   1.284  12.946 -0.0932  0.3506  1.0958
  486MPD2    C3 7227   2.656   1.395  13.006  0.0423 -0.1803 -1.0104
  486MPD2    C4 7228   2.605   1.384  13.138 -0.0890 -0.6852 -0.4359
  486MPD2    C5 7229   2.638   1.264  13.204 -0.6181 -0.7022 -0.3055
  486MPD2     H 7230   2.730   1.286  12.838  2.3999 -1.3540  1.3731
  486MPD2    H1 7231   2.540   1.459  13.179  0.0547 -1.4266  1.1519
  486MPD2    H2 7232   2.744   1.076  13.201 -1.9834  0.1874  1.1889
  486MPD2    H3 7233   2.618   1.262  13.310  1.8863 -3.8415  0.0874
  486MPD2     N 7234   2.619   1.501  12.921  0.1915  0.0063 -0.7565
  486MPD2    H5 7235   2.642   1.499  12.822  0.7354  2.3874 -0.6745
  486MPD2    N1 7236   2.824   1.060  12.960  0.1515 -0.1206  0.7875
  486MPD2    H7 7237   2.853   0.985  13.022  1.3871 -0.5814 -0.3476
  487TMC3    C1 7238   2.894   0.907  12.790  0.7822  0.1702  0.2779
  487TMC3    C2 7239   2.807   0.816  12.737  0.9617  0.3617  0.1915
  487TMC3    C3 7240   2.827   0.686  12.766  0.2899 -0.0193 -0.0124
  487TMC3    C4 7241   2.994   0.865  12.873 -0.2158 -0.1234  0.3854
  487TMC3    C5 7242   3.011   0.733  12.897 -0.0169 -0.3761 -0.1862
  487TMC3    C6 7243   2.932   0.639  12.840  0.5257 -0.2976  0.2414
  487TMC3     C 7244   2.823   1.034  12.821 -0.0765  0.3480 -0.3972
  487TMC3     O 7245   2.748   1.081  12.739 -0.5361 -0.0727 -0.0436
  487TMC3     H 7246   2.715   0.855  12.695  1.7461  0.6867 -1.2210
  487TMC3    H1 7247   3.060   0.945  12.907  2.7018 -2.3663  0.0346
  487TMC3    H2 7248   2.918   0.552  12.903  0.0362  0.1550  0.7582
  487TMC3    C7 7249   3.093   0.698  13.010  0.3183  0.2490 -0.4738
  487TMC3    C8 7250   2.704   0.611  12.771 -0.2812  0.0232 -0.8219
  487TMC3    O1 7251   3.143   0.792  13.068 -0.2814 -0.0169 -0.4283
  487TMC3    O2 7252   2.601   0.677  12.790 -0.6023  0.3185  0.7879
  488MPD2     C 7253   2.846   2.294  16.456  0.3957  0.3357 -0.3777
  488MPD2    C1 7254   2.860   2.409  16.532  0.3075  0.4820 -0.4580
  488MPD2    C2 7255   2.826   2.399  16.663 -0.2760  0.3302 -0.5376
  488MPD2    C3 7256   2.774   2.292  16.718 -0.0223 -0.2515 -1.1238
  488MPD2    C4 7257   2.754   2.177  16.644  0.0939  0.1448  0.2136
  488MPD2    C5 7258   2.800   2.181  16.514 -0.1054  0.5786 -0.6077
  488MPD2     H 7259   2.841   2.481  16.733  1.6348  0.2829 -0.8817
  488MPD2    H1 7260   2.710   2.086  16.681 -0.9404  0.6085  0.1365
  488MPD2    H2 7261   2.878   2.293  16.352  1.8345 -1.3448  0.0841
  488MPD2    H3 7262   2.782   2.091  16.456 -3.8035  0.8500  0.0964
  488MPD2     N 7263   2.751   2.298  16.854  0.9739 -0.2980  0.0477
  488MPD2    H5 7264   2.772   2.386  16.901  1.6787 -0.1185 -0.5904
  488MPD2    N1 7265   2.896   2.534  16.488 -0.1597  0.3662  0.5462
  488MPD2    H7 7266   2.919   2.605  16.557  1.2808  0.0627  0.3631
  489TMC3    C1 7267   2.725   2.235  17.074  0.3097 -0.1145 -0.1127
  489TMC3    C2 7268   2.829   2.316  17.115 -0.2952 -0.2235 -0.0363
  489TMC3    C3 7269   2.837   2.343  17.250 -0.9614  0.1894  0.4143
  489TMC3    C4 7270   2.661   2.154  17.166  0.1445 -0.0462 -0.1656
  489TMC3    C5 7271   2.684   2.167  17.300 -0.2178  0.5988 -0.3836
  489TMC3    C6 7272   2.769   2.269  17.346 -0.8752 -0.2751  0.7502
  489TMC3     C 7273   2.722   2.188  16.934 -0.6321  0.4356 -0.4397
  489TMC3     O 7274   2.684   2.077  16.901 -0.3143  0.6048 -0.1435
  489TMC3     H 7275   2.898   2.369  17.049  0.3784 -1.1178 -0.0547
  489TMC3    H1 7276   2.600   2.077  17.120  0.8400 -2.9536  3.7075
  489TMC3    H2 7277   2.792   2.275  17.452  1.4817 -1.5683  0.3101
  489TMC3    C7 7278   2.655   2.054  17.396 -0.1693 -0.3148  0.3855
  489TMC3    C8 7279   2.920   2.462  17.286  0.2821  0.1332  0.3947
  489TMC3    O1 7280   2.714   2.055  17.503 -0.2883  0.0319  0.0382
  489TMC3    O2 7281   2.988   2.509  17.195  0.0490 -0.2765 -0.0405
  490MPD2     C 7282   3.577   2.154  17.227 -0.2814  0.3529 -0.2175
  490MPD2    C1 7283   3.653   2.048  17.194 -0.1173  0.0619 -0.5782
  490MPD2    C2 7284   3.787   2.072  17.171 -0.2939 -0.8518 -0.1935
  490MPD2    C3 7285   3.846   2.202  17.181  0.6324 -0.0654  0.7677
  490MPD2    C4 7286   3.764   2.302  17.206  0.4012 -0.2865 -0.2616
  490MPD2    C5 7287   3.631   2.282  17.221 -0.0485 -0.3001  0.1943
  490MPD2     H 7288   3.849   1.984  17.157 -1.1088 -1.0384 -2.6215
  490MPD2    H1 7289   3.812   2.400  17.209  1.9533 -0.9823 -2.5589
  490MPD2    H2 7290   3.479   2.143  17.272 -0.6752 -1.3231 -1.4367
  490MPD2    H3 7291   3.586   2.374  17.257  3.1950  1.0196  0.8291
  490MPD2     N 7292   3.983   2.218  17.171 -0.0082  0.5515  0.0392
  490MPD2    H5 7293   4.007   2.313  17.198  0.0845  0.3035  0.8409
  490MPD2    N1 7294   3.596   1.918  17.218  0.5363  0.3416 -0.2220
  490MPD2    H7 7295   3.494   1.918  17.221  0.5651  2.9872  0.5971
  491TMC3    C1 7296   3.585   1.690  17.250  0.4971 -0.0626 -0.7703
  491TMC3    C2 7297   3.624   1.599  17.350 -0.1564 -0.3413  0.6518
  491TMC3    C3 7298   3.540   1.486  17.367 -0.4602  0.8471 -0.0034
  491TMC3    C4 7299   3.471   1.683  17.177 -0.0458  0.1202 -0.0577
  491TMC3    C5 7300   3.391   1.577  17.204 -0.4288 -0.3216 -0.3763
  491TMC3    C6 7301   3.421   1.480  17.302  0.3965  0.5057  0.5975
  491TMC3     C 7302   3.666   1.807  17.238 -1.0034 -0.1794 -0.0749
  491TMC3     O 7303   3.784   1.798  17.270  0.6223  0.2001 -0.5413
  491TMC3     H 7304   3.707   1.613  17.417 -0.6376 -2.5105  1.6998
  491TMC3    H1 7305   3.444   1.757  17.103  2.5438 -0.3510 -1.4907
  491TMC3    H2 7306   3.358   1.398  17.336  0.8444  0.5376  1.5149
  491TMC3    C7 7307   3.267   1.544  17.144  0.1634 -0.0551 -0.0637
  491TMC3    C8 7308   3.548   1.420  17.497 -0.7161  0.2284  0.3741
  491TMC3    O1 7309   3.220   1.434  17.163 -0.5666  0.2981  0.5976
  491TMC3    O2 7310   3.448   1.379  17.550 -0.0100  0.1806  0.0157
  492MPD2     C 7311   3.792   2.557  11.229 -0.7654 -0.2080  0.0593
  492MPD2    C1 7312   3.728   2.447  11.170  0.2296  0.1113 -0.1473
  492MPD2    C2 7313   3.652   2.359  11.243  0.2032 -0.7204 -1.0011
  492MPD2    C3 7314   3.634   2.380  11.379 -0.1342  0.1322  0.3527
  492MPD2    C4 7315   3.689   2.487  11.441 -0.3257 -0.8510  0.2435
  492MPD2    C5 7316   3.772   2.568  11.367  0.2351  0.0883  0.0545
  492MPD2     H 7317   3.621   2.265  11.200  0.2708 -1.9427  1.5914
  492MPD2    H1 7318   3.683   2.497  11.549 -3.9547  0.6622 -0.0842
  492MPD2    H2 7319   3.862   2.622  11.180  1.7292 -2.8946  0.0231
  492MPD2    H3 7320   3.835   2.641  11.416  0.0920  0.0396  0.3129
  492MPD2     N 7321   3.557   2.291  11.458  0.5570  0.4389 -0.6743
  492MPD2    H5 7322   3.525   2.321  11.550  2.5524  0.3264  0.0736
  492MPD2    N1 7323   3.769   2.420  11.037  0.1729  0.2849 -0.1888
  492MPD2    H7 7324   3.841   2.478  10.996  1.1278 -0.4081  0.5086
  493TMC3    C1 7325   3.774   2.270  10.846 -0.4994  0.3267 -0.2627
  493TMC3    C2 7326   3.911   2.248  10.848 -0.0781 -0.3620  0.0855
  493TMC3    C3 7327   3.966   2.136  10.795 -0.0460  0.3362  0.0972
  493TMC3    C4 7328   3.693   2.183  10.773 -0.2862 -0.3087 -0.2769
  493TMC3    C5 7329   3.758   2.073  10.714  0.3496  0.5357 -0.0646
  493TMC3    C6 7330   3.894   2.043  10.728  0.8563  0.1008 -0.3148
  493TMC3     C 7331   3.701   2.326  10.961 -0.5579 -0.1429  0.0688
  493TMC3     O 7332   3.582   2.286  10.977 -1.0613  0.0890  0.1897
  493TMC3     H 7333   3.977   2.317  10.899 -1.3879  1.6218 -0.9395
  493TMC3    H1 7334   3.585   2.199  10.775  0.4101  4.2788  1.1704
  493TMC3    H2 7335   3.951   1.960  10.687  0.6666 -0.3765  0.3882
  493TMC3    C7 7336   3.674   1.983  10.633  0.3000  0.2393  0.3198
  493TMC3    C8 7337   4.110   2.141  10.754 -0.1498  0.6780  0.5430
  493TMC3    O1 7338   3.567   2.032  10.600 -0.0053 -0.0364  0.7183
  493TMC3    O2 7339   4.196   2.061  10.790  0.1854  0.5107  0.2589
  494TMC3    C1 7340   4.522   3.341   0.758  0.5026  0.4049 -0.0922
  494TMC3    C2 7341   4.546   3.206   0.757  0.5267  0.0631 -1.0113
  494TMC3    C3 7342   4.525   3.137   0.643  0.4178  0.2701  0.4808
  494TMC3    C4 7343   4.508   3.410   0.645  0.4472 -0.1107 -0.2784
  494TMC3    C5 7344   4.484   3.340   0.529 -0.0694  0.2565  0.1165
  494TMC3    C6 7345   4.490   3.204   0.524 -0.2656 -0.0266  0.5833
  494TMC3     C 7346   4.483   3.394   0.890 -0.4930 -0.3877 -0.2770
  494TMC3     O 7347   4.435   3.311   0.965 -0.5699 -0.0243  0.6440
  494TMC3     H 7348   4.543   3.151   0.850 -3.3599  0.5760 -0.8120
  494TMC3    H1 7349   4.503   3.519   0.642  2.8834  0.0204  0.5683
  494TMC3    H2 7350   4.483   3.159   0.426 -1.6430  1.1810  0.1171
  494TMC3    C7 7351   4.491   3.421   0.409  0.3165 -0.7755  0.4517
  494TMC3    C8 7352   4.526   2.986   0.645  0.3716  0.0866  0.5272
  494TMC3    O1 7353   4.563   3.522   0.423  0.4516 -0.4422  0.5902
  494TMC3    O2 7354   4.565   2.930   0.744  0.3713  0.2922 -0.0468
  495TMC3    C1 7355   3.251   1.053  14.860 -0.1344 -0.4275 -0.7888
  495TMC3    C2 7356   3.150   1.077  14.770  0.3835 -0.5490  0.0025
  495TMC3    C3 7357   3.051   1.166  14.803  0.6269  0.3779 -0.1465
  495TMC3    C4 7358   3.245   1.114  14.985 -0.5429  0.0448  0.0344
  495TMC3    C5 7359   3.137   1.196  15.013  0.4579 -0.5555 -0.6108
  495TMC3    C6 7360   3.040   1.229  14.923 -0.3519 -0.3943  0.1705
  495TMC3     C 7361   3.304   0.923  14.847 -0.4597  0.1649 -0.1111
  495TMC3     O 7362   3.419   0.912  14.881  0.5584  0.7143 -0.7927
  495TMC3     H 7363   3.150   1.032  14.671  0.5652 -2.0479  0.6829
  495TMC3    H1 7364   3.317   1.086  15.061 -1.2624  0.2215  0.7812
  495TMC3    H2 7365   2.959   1.297  14.949 -1.2642 -0.9818 -1.0984
  495TMC3    C7 7366   3.100   1.194  15.150 -0.0296 -0.2604 -0.3775
  495TMC3    C8 7367   2.935   1.182  14.714 -0.1515 -0.0507 -0.0329
  495TMC3    O1 7368   3.186   1.182  15.239  0.0508  0.3180  0.7287
  495TMC3    O2 7369   2.824   1.225  14.751 -0.1597  0.8254  0.2960
  496MPD2     C 7370   0.724   1.650  15.522  0.7621 -0.3145  0.0413
  496MPD2    C1 7371   0.664   1.527  15.535 -0.0529  0.3437 -0.4921
  496MPD2    C2 7372   0.549   1.511  15.608 -0.1701  0.7026  0.6536
  496MPD2    C3 7373   0.488   1.615  15.673 -0.1239 -0.2987 -0.2128
  496MPD2    C4 7374   0.545   1.736  15.652 -0.0654  0.3085 -0.3240
  496MPD2    C5 7375   0.662   1.758  15.579  0.2290 -0.3604 -0.0288
  496MPD2     H 7376   0.492   1.419  15.613 -0.5751  0.9474  0.5491
  496MPD2    H1 7377   0.504   1.822  15.703  0.2867 -0.8669  1.9573
  496MPD2    H2 7378   0.801   1.654  15.446 -0.1376 -2.2212 -0.9845
  496MPD2    H3 7379   0.697   1.859  15.560 -0.0755 -0.3891 -0.7083
  496MPD2     N 7380   0.381   1.610  15.769 -0.6111  0.0696 -0.3791
  496MPD2    H5 7381   0.352   1.702  15.801 -0.7241 -0.6856  1.6678
  496MPD2    N1 7382   0.728   1.425  15.467  0.0243 -0.6081  0.7356
  496MPD2    H7 7383   0.794   1.446  15.394  0.9676  0.1391  1.8008
  497TMC3    C1 7384   0.215   1.502  15.906 -0.4659  0.2764 -1.0524
  497TMC3    C2 7385   0.095   1.552  15.859  0.1874  0.2148  0.4998
  497TMC3    C3 7386   4.697   1.497  15.906  0.2809  0.8023  0.1917
  497TMC3    C4 7387   0.223   1.412  16.011 -0.4001 -0.0637  0.3950
  497TMC3    C5 7388   0.106   1.349  16.046  0.2272 -0.0812 -0.4364
  497TMC3    C6 7389   4.704   1.394  15.995 -0.0814 -0.1188 -0.0772
  497TMC3     C 7390   0.337   1.494  15.823 -0.3623  0.3605 -0.1978
  497TMC3     O 7391   0.392   1.389  15.808 -0.0325  0.1192 -0.5734
  497TMC3     H 7392   0.084   1.601  15.763  0.7768 -1.3600 -0.3890
  497TMC3    H1 7393   0.319   1.377  16.047 -0.7782 -0.0682  1.3926
  497TMC3    H2 7394   4.611   1.374  16.048  0.4753 -0.2653  0.8457
  497TMC3    C7 7395   0.101   1.297  16.175 -0.0702 -0.2689 -0.2191
  497TMC3    C8 7396   4.596   1.477  15.801  0.0940  0.4153 -0.4624
  497TMC3    O1 7397   4.712   1.249  16.202  0.4337  0.8534  0.5222
  497TMC3    O2 7398   4.558   1.571  15.733 -0.2169 -0.7204 -0.2132
  498MPD2     C 7399   1.282   0.927   8.921  0.1561 -0.1949  0.7307
  498MPD2    C1 7400   1.246   1.007   9.023 -0.1265  0.3457 -0.9602
  498MPD2    C2 7401   1.111   1.040   9.047  0.5073 -0.3109  0.0808
  498MPD2    C3 7402   1.008   0.983   8.975  0.2301  0.0413  0.6170
  498MPD2    C4 7403   1.048   0.900   8.872  0.6351  0.6856 -0.1145
  498MPD2    C5 7404   1.180   0.872   8.847 -0.0320  0.0231 -0.7085
  498MPD2     H 7405   1.079   1.107   9.126  4.0868 -0.0106  1.2448
  498MPD2    H1 7406   0.979   0.843   8.811 -0.3519  2.0231 -0.2726
  498MPD2    H2 7407   1.383   0.890   8.906  0.6599  1.8965 -1.1046
  498MPD2    H3 7408   1.200   0.787   8.783  1.7230  0.7440 -1.1219
  498MPD2     N 7409   0.873   1.015   9.011 -0.2260 -0.8533 -0.8502
  498MPD2    H5 7410   0.865   1.069   9.096 -0.9233 -1.0131 -0.8110
  498MPD2    N1 7411   1.347   1.068   9.113 -0.1468  0.0663 -0.0059
  498MPD2    H7 7412   1.308   1.123   9.189  0.2986 -0.0104  0.2754
  499TMC3    C1 7413   1.562   1.137   9.194 -0.4573 -0.3530 -0.3582
  499TMC3    C2 7414   1.682   1.107   9.251 -0.0562  0.8537 -0.3355
  499TMC3    C3 7415   1.737   1.186   9.338 -0.0570  0.2982  0.7603
  499TMC3    C4 7416   1.496   1.252   9.227 -1.1297 -0.1682  0.2450
  499TMC3    C5 7417   1.554   1.335   9.319 -0.0756 -0.1882 -0.1465
  499TMC3    C6 7418   1.676   1.301   9.386 -0.0619 -0.1061 -0.7105
  499TMC3     C 7419   1.485   1.042   9.109 -0.6540 -0.6026  0.4766
  499TMC3     O 7420   1.549   0.946   9.060  0.5563  0.1193 -0.0602
  499TMC3     H 7421   1.736   1.015   9.231 -0.2373  0.4206  1.1003
  499TMC3    H1 7422   1.416   1.282   9.161 -0.1243 -1.1006 -1.3930
  499TMC3    H2 7423   1.734   1.375   9.440 -2.2128  1.1139 -0.0680
  499TMC3    C7 7424   1.514   1.473   9.324  0.3389 -0.1859  0.0101
  499TMC3    C8 7425   1.864   1.145   9.389 -0.3339 -0.4127  0.1968
  499TMC3    O1 7426   1.588   1.548   9.388  0.0574  0.2742 -0.5651
  499TMC3    O2 7427   1.928   1.057   9.334  0.6946  0.1379  0.7502
  500MPD2     C 7428   3.029   3.424   9.679 -0.0005  0.2509  0.6118
  500MPD2    C1 7429   2.974   3.398   9.804 -0.1732  0.5711 -0.1696
  500MPD2    C2 7430   2.897   3.282   9.828 -0.1624  0.2116  0.4805
  500MPD2    C3 7431   2.867   3.191   9.726  0.3036  0.2812 -0.2425
  500MPD2    C4 7432   2.918   3.213   9.601 -0.4795  1.0731 -0.2240
  500MPD2    C5 7433   3.004   3.325   9.582 -0.6265 -0.1146 -0.1838
  500MPD2     H 7434   2.874   3.252   9.929  0.5542 -2.6439 -0.1927
  500MPD2    H1 7435   2.893   3.166   9.507  1.9212 -0.9708  0.1553
  500MPD2    H2 7436   3.100   3.501   9.651 -0.7780  0.9809  0.6744
  500MPD2    H3 7437   3.041   3.350   9.484  0.1507 -1.3450 -0.2064
  500MPD2     N 7438   2.767   3.082   9.747  0.1325  0.0066  0.3670
  500MPD2    H5 7439   2.731   3.072   9.841 -0.9157  3.0258  0.2918
  500MPD2    N1 7440   3.005   3.482   9.918  0.5887 -0.3712  0.0481
  500MPD2    H7 7441   2.971   3.451  10.008  1.0967 -1.2455 -0.0562
  501TMC3    C1 7442   3.064   3.667  10.024 -0.3110  0.1779 -0.2405
  501TMC3    C2 7443   3.079   3.807  10.038  0.0249 -0.2125  0.0124
  501TMC3    C3 7444   3.123   3.844  10.159 -0.4832  0.1643 -0.1253
  501TMC3    C4 7445   3.099   3.580  10.130 -0.5540  0.0723  0.1304
  501TMC3    C5 7446   3.144   3.633  10.252  0.4441  0.7229  0.5426
  501TMC3    C6 7447   3.140   3.770  10.273  0.0326 -0.1948  0.3007
  501TMC3     C 7448   3.036   3.611   9.896  0.5313  0.0493 -0.0656
  501TMC3     O 7449   3.033   3.682   9.796  0.0078  0.4171 -0.7939
  501TMC3     H 7450   3.091   3.873   9.953  1.5286  0.1573  0.5176
  501TMC3    H1 7451   3.104   3.472  10.121 -1.5935 -0.2224  3.0790
  501TMC3    H2 7452   3.174   3.821  10.363  1.6473 -0.1802 -0.3273
  501TMC3    C7 7453   3.254   3.562  10.314  0.0700  0.2735  0.1804
  501TMC3    C8 7454   3.205   3.962  10.173 -0.0189  0.1965 -0.1473
  501TMC3    O1 7455   3.314   3.482  10.249  0.0142  0.3775  0.1298
  501TMC3    O2 7456   3.309   3.951  10.242  0.6168  0.3306  0.3623
  502TMC3    C1 7457   2.547   1.769  14.988  0.1703 -0.5137  0.1284
  502TMC3    C2 7458   2.490   1.873  14.915 -0.2577 -0.2519  0.8617
  502TMC3    C3 7459   2.360   1.854  14.889 -0.9311 -0.4392  0.2922
  502TMC3    C4 7460   2.470   1.659  15.026  0.5677 -0.8761  0.0990
  502TMC3    C5 7461   2.334   1.649  15.001 -0.2617  0.0638 -0.0275
  502TMC3    C6 7462   2.278   1.756  14.944  0.3065 -0.3555  0.6571
  502TMC3     C 7463   2.681   1.794  15.055 -0.4084  0.4696  0.2236
  502TMC3     O 7464   2.753   1.878  15.004  0.5950 -0.5294  0.3099
  502TMC3     H 7465   2.546   1.960  14.883 -2.4090  0.6407 -0.5257
  502TMC3    H1 7466   2.523   1.575  15.069 -0.6570 -0.7903  1.7596
  502TMC3    H2 7467   2.173   1.762  14.917  0.4961 -1.5922 -0.4095
  502TMC3    C7 7468   2.260   1.571  15.098  0.0243  0.6427 -0.2431
  502TMC3    C8 7469   2.287   1.976  14.884  0.3970  0.3498 -0.0321
  502TMC3    O1 7470   2.324   1.494  15.167  0.1722 -0.7143  0.3946
  502TMC3    O2 7471   2.171   1.982  14.854  0.2257  0.3401  0.1584
  503MPD2     C 7472   4.513   2.453  17.075 -0.4770 -0.3523 -0.3412
  503MPD2    C1 7473   4.567   2.465  17.196 -0.0565  0.2549 -0.3528
  503MPD2    C2 7474   4.638   2.361  17.245  0.1744 -0.2094 -0.1173
  503MPD2    C3 7475   4.668   2.245  17.163  0.4253  0.5812 -0.1714
  503MPD2    C4 7476   4.610   2.234  17.039  0.1861 -0.4450  0.0327
  503MPD2    C5 7477   4.537   2.343  16.998 -0.1030 -0.5338  0.3852
  503MPD2     H 7478   4.675   2.361  17.346  1.4557  2.4206 -0.5918
  503MPD2    H1 7479   4.626   2.156  16.966 -1.4537 -0.6202 -0.1429
  503MPD2    H2 7480   4.448   2.527  17.029  0.5830  0.4779 -0.5167
  503MPD2    H3 7481   4.485   2.330  16.903 -1.6957 -0.7726  1.2982
  503MPD2     N 7482   0.046   2.156  17.214 -0.3341  0.7685  0.1830
  503MPD2    H5 7483   0.090   2.161  17.305 -0.4612  1.2665  0.2144
  503MPD2    N1 7484   4.546   2.579  17.273  0.1476  0.5994 -0.1089
  503MPD2    H7 7485   4.593   2.584  17.363 -2.3804  1.5820  1.1677
  504TMC3    C1 7486   0.209   1.992  17.213  0.4959 -0.2612 -0.2453
  504TMC3    C2 7487   0.166   1.914  17.322  0.3881  0.7406  0.5485
  504TMC3    C3 7488   0.257   1.820  17.371 -0.2202  0.0562  0.1009
  504TMC3    C4 7489   0.318   1.954  17.139  0.1775 -0.0480 -0.0165
  504TMC3    C5 7490   0.379   1.832  17.167 -0.5484  0.4754  0.5882
  504TMC3    C6 7491   0.359   1.777  17.293 -0.4246 -0.9622  0.4035
  504TMC3     C 7492   0.102   2.056  17.136 -0.1330  0.2797  0.6444
  504TMC3     O 7493   0.103   2.030  17.013 -0.2456 -0.2013 -0.1761
  504TMC3     H 7494   0.078   1.948  17.375  1.1917  2.4633  0.7770
  504TMC3    H1 7495   0.347   2.026  17.063  0.3504  1.9095  1.8940
  504TMC3    H2 7496   0.420   1.694  17.325 -1.9206 -1.8355  0.9947
  504TMC3    C7 7497   0.495   1.796  17.087  0.1102  0.1115  0.0598
  504TMC3    C8 7498   0.206   1.731  17.473  0.0198  0.2474 -0.0628
  504TMC3    O1 7499   0.553   1.877  17.015  0.1451  0.4378 -0.2293
  504TMC3    O2 7500   0.082   1.736  17.490  0.5557  0.1016  0.4785
  505MPD2     C 7501   4.348   1.410   9.387 -0.0987  0.4883 -0.2602
  505MPD2    C1 7502   4.338   1.306   9.474  0.3947  0.5765  0.2450
  505MPD2    C2 7503   4.409   1.314   9.591 -0.6558 -0.1179 -0.5483
  505MPD2    C3 7504   4.484   1.426   9.626  0.2970  0.4788  0.5984
  505MPD2    C4 7505   4.493   1.530   9.535 -0.0792 -0.4053 -0.0808
  505MPD2    C5 7506   4.414   1.525   9.423  0.4106 -0.3819 -0.1276
  505MPD2     H 7507   4.409   1.233   9.662  0.3467  0.9499  0.6802
  505MPD2    H1 7508   4.542   1.625   9.556  2.2899 -1.2326 -1.7872
  505MPD2    H2 7509   4.296   1.402   9.293 -0.3205  1.4407 -0.2182
  505MPD2    H3 7510   4.429   1.608   9.355  3.1359 -1.1748 -0.4868
  505MPD2     N 7511   4.553   1.430   9.756  0.6768 -1.0196 -0.3752
  505MPD2    H5 7512   4.536   1.347   9.813 -1.0962  0.7098  1.6130
  505MPD2    N1 7513   4.265   1.189   9.445  0.3672  0.5218 -0.6157
  505MPD2    H7 7514   4.211   1.202   9.360 -0.7213 -0.1530 -0.0143
  506TMC3    C1 7515   4.179   0.969   9.465  0.6776  0.0571 -0.3019
  506TMC3    C2 7516   4.220   0.936   9.340 -0.1320  0.4424 -1.0945
  506TMC3    C3 7517   4.245   0.808   9.303 -0.6513 -0.4455 -0.0808
  506TMC3    C4 7518   4.166   0.860   9.549  0.4517 -0.5858 -0.0073
  506TMC3    C5 7519   4.207   0.731   9.516 -0.8479  0.5720 -0.1944
  506TMC3    C6 7520   4.238   0.701   9.387  0.0143 -0.1155  0.0211
  506TMC3     C 7521   4.244   1.084   9.531 -0.0595 -0.8466 -0.3977
  506TMC3     O 7522   4.287   1.048   9.641 -0.6813  0.4738 -0.3064
  506TMC3     H 7523   4.255   1.013   9.272 -2.2667  1.0461 -1.5077
  506TMC3    H1 7524   4.116   0.865   9.645 -0.3986 -0.1800 -0.4709
  506TMC3    H2 7525   4.273   0.604   9.353  1.4471 -0.1392  1.5404
  506TMC3    C7 7526   4.294   0.666   9.609 -0.5780  0.5896  0.2169
  506TMC3    C8 7527   4.312   0.791   9.176 -0.1393 -0.5351 -0.2392
  506TMC3    O1 7528   4.342   0.559   9.579  0.6448  0.0939 -0.0098
  506TMC3    O2 7529   4.268   0.693   9.111 -0.4121 -0.0754 -0.4115
  507TMC3    C1 7530   1.051   2.231  14.992 -0.6939  0.0004  0.1022
  507TMC3    C2 7531   1.047   2.143  14.892 -0.8336  0.0760  0.4977
  507TMC3    C3 7532   1.140   2.151  14.791  0.4113 -0.6375 -0.2291
  507TMC3    C4 7533   1.131   2.336  14.995 -0.3710 -0.3241  0.0543
  507TMC3    C5 7534   1.213   2.357  14.885 -0.0820 -0.6690  0.0263
  507TMC3    C6 7535   1.221   2.263  14.785 -0.2610 -0.2416  0.4129
  507TMC3     C 7536   0.978   2.199  15.116  0.3224  0.2342  0.5679
  507TMC3     O 7537   1.017   2.268  15.210 -0.9817  0.3624  0.4825
  507TMC3     H 7538   0.979   2.059  14.889  1.6579 -2.0159  2.2416
  507TMC3    H1 7539   1.110   2.420  15.060 -1.5559 -1.7886  1.5534
  507TMC3    H2 7540   1.292   2.280  14.704  0.5816 -0.6554  1.0580
  507TMC3    C7 7541   1.213   2.497  14.826 -0.1734 -0.2268 -0.3623
  507TMC3    C8 7542   1.073   2.148  14.661 -0.1661 -0.5220 -0.2814
  507TMC3    O1 7543   1.225   2.502  14.703 -0.2111 -0.4510  0.3859
  507TMC3    O2 7544   0.994   2.055  14.638  0.1687  0.3247 -0.1823
  508MPD2     C 7545   1.604   4.314  16.276 -0.1673  0.0135  0.3988
  508MPD2    C1 7546   1.739   4.342  16.253  0.1037 -0.6108 -0.0374
  508MPD2    C2 7547   1.766   4.435  16.144  0.0288  0.0771  0.1589
  508MPD2    C3 7548   1.665   4.495  16.070  0.7202 -0.1749 -0.1925
  508MPD2    C4 7549   1.531   4.453  16.092 -0.5269 -0.8639 -0.3824
  508MPD2    C5 7550   1.502   4.362  16.195 -0.0748  0.0542  0.1355
  508MPD2     H 7551   1.868   4.462  16.116  0.0125  1.6608  1.6565
  508MPD2    H1 7552   1.448   4.491  16.033 -1.0365 -0.0984  0.8245
  508MPD2    H2 7553   1.573   4.239  16.348 -0.4782 -0.7808 -0.5523
  508MPD2    H3 7554   1.404   4.323  16.217  0.8767 -1.8186  1.0277
  508MPD2     N 7555   1.703   4.586  15.967  0.2547 -0.5898 -0.0358
  508MPD2    H5 7556   1.802   4.607  15.956 -0.2238 -0.2071 -3.8056
  508MPD2    N1 7557   1.830   4.279  16.337 -0.3873  0.1006  0.1273
  508MPD2    H7 7558   1.799   4.209  16.404 -0.2065 -0.9599 -0.8824
  509TMC3    C1 7559   1.629   0.278  15.739 -0.2926  0.3809  0.4244
  509TMC3    C2 7560   1.758   0.301  15.714  0.1343  0.2624  0.1723
  509TMC3    C3 7561   1.844   0.207  15.760 -0.4349 -0.2792  0.4261
  509TMC3    C4 7562   1.585   0.169  15.801  0.2790  0.0946  0.5545
  509TMC3    C5 7563   1.673   0.069  15.835  0.5873 -0.1030 -0.0880
  509TMC3    C6 7564   1.807   0.082  15.803 -0.2476 -0.0880  0.6172
  509TMC3     C 7565   1.535   0.383  15.710 -0.1377 -0.1087 -0.5110
  509TMC3     O 7566   1.450   0.402  15.792  0.1649 -0.1915 -0.1753
  509TMC3     H 7567   1.788   0.392  15.664  0.2520 -0.4552 -1.0408
  509TMC3    H1 7568   1.480   0.172  15.827  0.1055  0.6216 -0.2021
  509TMC3    H2 7569   1.886   0.010  15.824  0.9844  1.5989  1.7950
  509TMC3    C7 7570   1.615   4.666  15.895  0.8401 -0.8561 -0.1499
  509TMC3    C8 7571   1.984   0.226  15.714 -1.0378  0.1632  0.1237
  509TMC3    O1 7572   1.494   4.651  15.883  0.4729  0.2465 -0.0774
  509TMC3    O2 7573   2.058   0.131  15.695  0.9056 -0.2796 -0.1505
  510MPD2     C 7574   4.635   1.711  14.719 -0.1253  0.1819 -0.7925
  510MPD2    C1 7575   4.653   1.580  14.706 -0.3534 -0.4520 -0.9762
  510MPD2    C2 7576   0.038   1.541  14.624  1.2356  0.6160 -0.3233
  510MPD2    C3 7577   0.122   1.630  14.559  0.4606  0.0410  0.4700
  510MPD2    C4 7578   0.090   1.765  14.567 -0.3382  0.2683  0.2988
  510MPD2    C5 7579   0.001   1.800  14.655 -0.0296 -0.2820 -0.2703
  510MPD2     H 7580   0.056   1.435  14.610 -0.3340  0.1305  1.3082
  510MPD2    H1 7581   0.156   1.844  14.530 -0.2121  1.0285  2.1203
  510MPD2    H2 7582   4.572   1.756  14.794 -1.2214 -1.9202 -0.4694
  510MPD2    H3 7583   4.709   1.906  14.672  0.2980 -0.2116 -0.4917
  510MPD2     N 7584   0.225   1.581  14.479 -0.3233 -0.5004 -0.6348
  510MPD2    H5 7585   0.244   1.482  14.483 -0.8416 -0.5781  0.0125
  510MPD2    N1 7586   4.566   1.480  14.773 -0.2037 -0.1890 -0.2101
  510MPD2    H7 7587   4.570   1.384  14.741  0.8565  0.9917 -3.5879
  511TMC3    C1 7588   4.410   1.410  14.932 -0.4258  0.1058  0.0079
  511TMC3    C2 7589   4.340   1.437  15.045  0.0672 -0.3528 -0.2709
  511TMC3    C3 7590   4.235   1.353  15.082  0.2288  0.1283 -0.7765
  511TMC3    C4 7591   4.367   1.313  14.841 -0.5903 -0.0431 -0.0663
  511TMC3    C5 7592   4.261   1.236  14.880 -0.3552 -0.3855  0.6419
  511TMC3    C6 7593   4.195   1.253  14.997 -0.9746 -0.2618 -0.2720
  511TMC3     C 7594   4.497   1.514  14.884  0.6458  0.2486 -0.1553
  511TMC3     O 7595   4.504   1.616  14.947 -0.5502  0.7103 -0.2431
  511TMC3     H 7596   4.375   1.510  15.117  0.9628 -0.7716 -0.2770
  511TMC3    H1 7597   4.410   1.300  14.742 -1.0000 -2.2623  0.0434
  511TMC3    H2 7598   4.101   1.204  15.021 -0.8516 -0.5720 -0.4127
  511TMC3    C7 7599   4.229   1.116  14.802 -0.0462  0.9540  0.2946
  511TMC3    C8 7600   4.146   1.396  15.194  0.2815 -0.1368 -1.0574
  511TMC3    O1 7601   4.283   1.101  14.695  0.1736  0.0929 -0.3407
  511TMC3    O2 7602   4.141   1.515  15.219  0.1282 -0.5581  0.2138
  512TMC3    C1 7603   3.440   0.794  12.868 -0.2874 -0.1263  0.6999
  512TMC3    C2 7604   3.485   0.841  12.989  0.7016 -0.1199 -0.1476
  512TMC3    C3 7605   3.531   0.743  13.068 -0.3661 -0.2200 -0.3231
  512TMC3    C4 7606   3.425   0.664  12.836  0.5852  0.7043 -0.8059
  512TMC3    C5 7607   3.457   0.574  12.929  0.8247 -0.2946  0.0064
  512TMC3    C6 7608   3.517   0.609  13.046 -0.2443 -0.1790  0.8295
  512TMC3     C 7609   3.355   0.894  12.805  0.2149 -0.0901  0.1063
  512TMC3     O 7610   3.333   0.996  12.864 -0.2765  0.1400 -0.6170
  512TMC3     H 7611   3.503   0.945  13.013  2.5163 -1.1211  2.7390
  512TMC3    H1 7612   3.378   0.632  12.743 -2.0913 -0.0355  0.8192
  512TMC3    H2 7613   3.540   0.540  13.126  1.4206 -0.6713 -0.0839
  512TMC3    C7 7614   3.403   0.439  12.907 -0.3210  0.0835  0.1289
  512TMC3    C8 7615   3.545   0.775  13.210  0.3128  0.5351  0.8054
  512TMC3    O1 7616   3.317   0.433  12.822 -0.6742 -0.5484 -0.2282
  512TMC3    O2 7617   3.603   0.703  13.287  0.1564  0.4571 -0.1268
  513MPD2     C 7618   0.188   0.755  13.285 -0.3169 -0.5613 -0.1582
  513MPD2    C1 7619   0.304   0.825  13.258 -0.5005  0.1419 -0.7532
  513MPD2    C2 7620   0.390   0.848  13.368  0.1911 -0.7345  0.5228
  513MPD2    C3 7621   0.361   0.806  13.498  0.0660  0.6435  0.3160
  513MPD2    C4 7622   0.239   0.744  13.523  0.4638 -0.2600 -0.3362
  513MPD2    C5 7623   0.151   0.727  13.418 -0.4927 -0.2996  0.1790
  513MPD2     H 7624   0.485   0.898  13.353 -1.2122  1.5746 -0.6479
  513MPD2    H1 7625   0.205   0.720  13.623  2.9906  1.8576  1.0388
  513MPD2    H2 7626   0.117   0.755  13.203 -2.0392 -1.5237  1.3382
  513MPD2    H3 7627   0.056   0.685  13.448 -0.3708  0.1754  1.2125
  513MPD2     N 7628   0.457   0.844  13.602 -0.7438 -0.5198 -0.0386
  513MPD2    H5 7629   0.523   0.917  13.576 -0.1037 -1.3775 -0.8170
  513MPD2    N1 7630   0.331   0.864  13.120  0.2204  0.5169 -0.6917
  513MPD2    H7 7631   0.261   0.853  13.047  1.4460 -1.5369 -1.5516
  514TMC3    C1 7632   0.461   0.971  12.956 -0.1012  0.4035  0.0755
  514TMC3    C2 7633   0.421   0.874  12.870 -0.1014  0.2953 -0.0359
  514TMC3    C3 7634   0.517   0.832  12.782  0.0713 -0.5808  0.2624
  514TMC3    C4 7635   0.588   1.023  12.950  0.4541 -0.1667 -0.4035
  514TMC3    C5 7636   0.681   0.974  12.862 -0.0587 -0.0056  0.0084
  514TMC3    C6 7637   0.645   0.884  12.764  0.3231  0.0707  0.1122
  514TMC3     C 7638   0.421   0.962  13.091 -0.1633  0.6505 -0.5240
  514TMC3     O 7639   0.503   1.014  13.164  0.0009  0.4229  0.1196
  514TMC3     H 7640   0.325   0.822  12.874  0.0234  0.0781  0.1288
  514TMC3    H1 7641   0.622   1.109  13.005 -0.5734  0.4744 -0.7673
  514TMC3    H2 7642   0.717   0.825  12.708  0.4787  0.1245  0.2543
  514TMC3    C7 7643   0.808   0.963  12.930 -0.2234 -0.0730  0.6140
  514TMC3    C8 7644   0.474   0.729  12.692 -0.0842  0.3805  0.4233
  514TMC3    O1 7645   0.912   0.945  12.864 -0.0704  0.4519  0.3992
  514TMC3    O2 7646   0.379   0.656  12.725 -0.3096 -1.0788  0.2692
  515MPD2     C 7647   3.860   2.343  14.751 -0.2815  0.0721 -0.0851
  515MPD2    C1 7648   3.740   2.399  14.727  0.1184 -0.5384 -0.1653
  515MPD2    C2 7649   3.724   2.529  14.713  0.0745 -0.2000 -0.0592
  515MPD2    C3 7650   3.830   2.614  14.732  0.6644 -0.3965  0.3189
  515MPD2    C4 7651   3.957   2.560  14.760  1.0206  0.1073 -0.3443
  515MPD2    C5 7652   3.968   2.422  14.778  0.5188 -0.8498 -0.1021
  515MPD2     H 7653   3.626   2.564  14.683 -0.5216 -0.5276  1.5260
  515MPD2    H1 7654   4.044   2.624  14.770  0.7186  0.2226  1.4013
  515MPD2    H2 7655   3.869   2.239  14.782  0.0774 -0.1327 -0.8886
  515MPD2    H3 7656   4.057   2.380  14.822  1.0104  0.3774  0.0792
  515MPD2     N 7657   3.815   2.747  14.698  1.2311 -0.3780 -0.5324
  515MPD2    H5 7658   3.898   2.804  14.707  0.0617  1.2160  0.2601
  515MPD2    N1 7659   3.623   2.321  14.710  0.0554  0.5273 -0.1538
  515MPD2    H7 7660   3.539   2.369  14.679  0.6841  0.5033 -1.9181
  516TMC3    C1 7661   3.492   2.127  14.676  0.1348  0.0980  0.0298
  516TMC3    C2 7662   3.394   2.205  14.609  0.0202 -0.3440  0.2314
  516TMC3    C3 7663   3.266   2.150  14.585 -0.6106  0.4217 -0.4756
  516TMC3    C4 7664   3.468   2.000  14.717 -0.2237 -0.1917 -0.5834
  516TMC3    C5 7665   3.339   1.957  14.697 -0.5783 -0.8548  0.4968
  516TMC3    C6 7666   3.235   2.025  14.627 -0.0688  0.0776 -0.4061
  516TMC3     C 7667   3.621   2.182  14.716 -0.3344 -0.7320  0.2143
  516TMC3     O 7668   3.702   2.101  14.764 -0.1241  0.4108  0.4614
  516TMC3     H 7669   3.413   2.307  14.576 -0.1374 -0.0169  1.1486
  516TMC3    H1 7670   3.542   1.941  14.770 -0.9911  1.1381  1.9751
  516TMC3    H2 7671   3.138   1.985  14.599  0.9834 -2.8500  0.1641
  516TMC3    C7 7672   3.301   1.843  14.783 -1.0700 -0.1013 -0.3163
  516TMC3    C8 7673   3.151   2.224  14.529  0.0774 -0.5939 -0.3556
  516TMC3    O1 7674   3.375   1.824  14.879  0.1811 -0.1374  0.3650
  516TMC3    O2 7675   3.045   2.171  14.562  0.7411  0.5323 -0.0439
  517MPD2     C 7676   2.902   3.944   0.283 -0.8545  0.1110 -0.6162
  517MPD2    C1 7677   3.022   3.899   0.328  0.5331  0.2809  0.3450
  517MPD2    C2 7678   3.102   3.983   0.412  0.7733  0.0772 -0.5270
  517MPD2    C3 7679   3.056   4.110   0.449  0.0181 -0.2771  0.0077
  517MPD2    C4 7680   2.934   4.148   0.400  0.6065 -0.2154  0.0604
  517MPD2    C5 7681   2.854   4.065   0.322  0.4400  0.1843 -0.3325
  517MPD2     H 7682   3.197   3.947   0.450  0.3618 -0.4461  0.0280
  517MPD2    H1 7683   2.894   4.249   0.401 -2.5164 -1.3853 -3.5581
  517MPD2    H2 7684   2.836   3.884   0.221 -2.0629  1.0831 -0.2799
  517MPD2    H3 7685   2.759   4.098   0.281 -1.3373 -1.0463  2.7690
  517MPD2     N 7686   3.133   4.204   0.515 -0.1860 -0.1258 -0.3139
  517MPD2    H5 7687   3.098   4.299   0.514 -2.0197 -0.7633  2.6642
  517MPD2    N1 7688   3.085   3.776   0.299 -0.2035 -0.3482 -0.1150
  517MPD2    H7 7689   3.175   3.765   0.345 -0.8477 -0.6220  1.0770
  518TMC3    C1 7690   3.124   3.552   0.237 -0.0506 -0.4003  0.6631
  518TMC3    C2 7691   3.058   3.432   0.240 -0.3714 -0.1195 -0.5394
  518TMC3    C3 7692   3.138   3.321   0.228 -0.7642  0.3085 -0.2986
  518TMC3    C4 7693   3.246   3.567   0.185 -0.1429  1.0595  0.0720
  518TMC3    C5 7694   3.319   3.456   0.163  0.0649  0.4979 -0.7352
  518TMC3    C6 7695   3.267   3.329   0.184 -0.3513 -0.2069 -0.3154
  518TMC3     C 7696   3.030   3.665   0.237  0.7079  0.1216 -1.2570
  518TMC3     O 7697   2.927   3.655   0.173 -0.2746 -0.3482 -0.0310
  518TMC3     H 7698   2.955   3.433   0.275 -0.4748 -2.5721 -0.7694
  518TMC3    H1 7699   3.289   3.665   0.165 -1.4234  2.2667  3.3173
  518TMC3    H2 7700   3.330   3.243   0.168 -0.0731  0.0813 -0.7750
  518TMC3    C7 7701   3.449   3.477   0.107  0.2512 -1.3160  0.2927
  518TMC3    C8 7702   3.077   3.188   0.250  0.1965  0.0964 -0.3559
  518TMC3    O1 7703   3.511   3.579   0.130 -0.5278  0.3829 -0.1239
  518TMC3    O2 7704   2.975   3.188   0.315 -0.5802 -0.0254  0.2309
  519MPD2     C 7705   4.663   2.732  14.125  0.0465 -0.5954  0.7011
  519MPD2    C1 7706   4.571   2.648  14.058 -0.0211 -0.0799  0.5280
  519MPD2    C2 7707   4.623   2.554  13.976  0.0085 -0.2917 -0.2852
  519MPD2    C3 7708   0.042   2.529  13.979  0.2327 -0.7798  0.1775
  519MPD2    C4 7709   0.124   2.602  14.061  0.3191  0.0407 -0.3624
  519MPD2    C5 7710   0.074   2.711  14.126  1.2346  0.3959 -0.2481
  519MPD2     H 7711   4.556   2.498  13.913 -1.1339 -0.2191  0.8739
  519MPD2    H1 7712   0.220   2.560  14.087 -0.0504 -1.4333 -1.3841
  519MPD2    H2 7713   4.629   2.816  14.185  0.2264 -0.7125  0.9704
  519MPD2    H3 7714   0.142   2.778  14.177 -0.8555  2.4043 -0.1037
  519MPD2     N 7715   0.106   2.419  13.916 -0.2311 -0.0365  0.0684
  519MPD2    H5 7716   0.204   2.407  13.940  0.0560 -0.2404 -1.1836
  519MPD2    N1 7717   4.432   2.662  14.073 -0.2417 -0.1840 -0.4531
  519MPD2    H7 7718   4.401   2.744  14.123 -1.5296 -0.6220 -0.5315
  520TMC3    C1 7719   0.112   2.201  13.823  0.2836 -0.0360 -0.5423
  520TMC3    C2 7720   0.047   2.108  13.754 -1.2198  0.6409  0.4563
  520TMC3    C3 7721   0.085   1.984  13.764  0.6089 -0.6214 -0.2046
  520TMC3    C4 7722   0.215   2.174  13.911 -0.3186  0.8713  1.2235
  520TMC3    C5 7723   0.257   2.044  13.910  0.1373 -0.7977 -0.0101
  520TMC3    C6 7724   0.201   1.951  13.834 -0.1197  0.0984 -0.4114
  520TMC3     C 7725   0.042   2.318  13.852  0.4675  0.0180 -0.5116
  520TMC3     O 7726   4.658   2.331  13.795 -0.3050 -0.4989 -0.3214
  520TMC3     H 7727   4.689   2.140  13.685 -0.6651  1.4745  0.2166
  520TMC3    H1 7728   0.254   2.243  13.985 -1.2269  1.7101  0.9187
  520TMC3    H2 7729   0.227   1.847  13.845  1.3853  0.7876  2.6313
  520TMC3    C7 7730   0.385   2.015  13.968 -0.2684  0.0683 -0.0056
  520TMC3    C8 7731   0.005   1.873  13.715 -0.7757 -0.0593 -0.4306
  520TMC3    O1 7732   0.407   2.035  14.085 -0.4123  0.1132 -0.4550
  520TMC3    O2 7733   0.033   1.762  13.750  0.1367  0.6571  0.3284
  521MPD2     C 7734   0.972   0.529  17.352  0.2884 -0.0282 -0.3271
  521MPD2    C1 7735   0.911   0.405  17.312 -0.6845 -0.6856  0.2843
  521MPD2    C2 7736   0.992   0.296  17.284 -0.5398  0.9287  0.0828
  521MPD2    C3 7737   1.127   0.299  17.309 -0.2441 -0.3700 -0.9466
  521MPD2    C4 7738   1.182   0.412  17.378  0.2628 -0.4844  0.2615
  521MPD2    C5 7739   1.108   0.524  17.394 -0.3228  0.3461 -0.1111
  521MPD2     H 7740   0.951   0.204  17.245  0.6089 -0.1585  1.4362
  521MPD2    H1 7741   1.285   0.416  17.413  0.4311 -0.9562 -0.1643
  521MPD2    H2 7742   0.914   0.616  17.380 -1.4363 -1.5998  0.9800
  521MPD2    H3 7743   1.149   0.609  17.448  0.5966  0.5761 -1.1945
  521MPD2     N 7744   1.194   0.175  17.277  0.6754  0.6078  0.2922
  521MPD2    H5 7745   1.141   0.105  17.226  2.8761 -1.6683  1.1373
  521MPD2    N1 7746   0.774   0.400  17.294 -0.1427 -0.2830  0.1276
  521MPD2    H7 7747   0.715   0.481  17.310  0.0170 -0.2135  0.3646
  522TMC3    C1 7748   1.344   0.006  17.274  0.9016  0.2292  0.4416
  522TMC3    C2 7749   1.477   4.682  17.288  0.5176 -0.3362 -0.1204
  522TMC3    C3 7750   1.501   4.550  17.284 -0.4350 -0.1867  1.0223
  522TMC3    C4 7751   1.241   4.632  17.275 -0.3837 -0.7625 -0.1313
  522TMC3    C5 7752   1.279   4.498  17.285  0.2894 -0.0681  0.3469
  522TMC3    C6 7753   1.410   4.454  17.284  0.1363  0.1338 -0.3817
  522TMC3     C 7754   1.324   0.142  17.308 -0.0705 -0.4764 -0.1505
  522TMC3     O 7755   1.416   0.210  17.349 -0.3619 -0.2735  0.0244
  522TMC3     H 7756   1.552   0.040  17.281  0.1407 -0.2234 -3.2294
  522TMC3    H1 7757   1.140   4.651  17.309  0.0295  1.2116  0.0030
  522TMC3    H2 7758   1.450   4.354  17.267  2.0695  0.8515 -0.0799
  522TMC3    C7 7759   1.191   4.399  17.234  0.6307 -0.1863  0.4041
  522TMC3    C8 7760   1.643   4.518  17.292  0.0481  0.9359  0.4236
  522TMC3    O1 7761   1.238   4.287  17.222  0.1348  0.2055 -0.0781
  522TMC3    O2 7762   1.713   4.581  17.368  0.6542 -0.1091  0.7900
  523MPD2     C 7763   3.450   0.506  10.332 -0.1759  0.2928 -0.7577
  523MPD2    C1 7764   3.431   0.465  10.204  0.0308 -0.1970  0.0287
  523MPD2    C2 7765   3.382   0.554  10.112 -0.0626 -0.6836  0.5525
  523MPD2    C3 7766   3.358   0.688  10.153 -0.5151  0.4318 -0.6388
  523MPD2    C4 7767   3.385   0.723  10.279 -0.3501 -1.1414  0.3582
  523MPD2    C5 7768   3.423   0.630  10.371 -0.1150 -0.4065  0.3638
  523MPD2     H 7769   3.375   0.530  10.006  0.2580 -2.1856  0.8748
  523MPD2    H1 7770   3.377   0.823  10.318 -1.6957 -0.9172 -0.4974
  523MPD2    H2 7771   3.486   0.443  10.412  0.0127  0.4194 -0.7427
  523MPD2    H3 7772   3.430   0.646  10.477  0.0219 -1.3750  0.5031
  523MPD2     N 7773   3.291   0.769  10.059 -0.0545  0.0685 -0.0645
  523MPD2    H5 7774   3.256   0.728   9.973 -0.5815 -1.2335  0.7765
  523MPD2    N1 7775   3.452   0.326  10.181  0.4059 -0.6416  0.5208
  523MPD2    H7 7776   3.511   0.274  10.246  2.6105 -0.6573 -1.4645
  524TMC3    C1 7777   3.177   0.951   9.968 -0.2038  0.5386  0.2450
  524TMC3    C2 7778   3.227   1.063   9.906  0.9239  1.0441  0.2189
  524TMC3    C3 7779   3.141   1.157   9.863 -0.0926 -0.0353 -0.0773
  524TMC3    C4 7780   3.049   0.929   9.990 -0.8484  0.1721 -0.2123
  524TMC3    C5 7781   2.962   1.022   9.946 -0.4700 -0.4770  0.9068
  524TMC3    C6 7782   3.009   1.133   9.873 -0.0952  0.0157 -0.5247
  524TMC3     C 7783   3.259   0.905  10.077 -0.6700 -0.1922  0.0675
  524TMC3     O 7784   3.271   0.975  10.173 -0.3507  0.3037  0.7733
  524TMC3     H 7785   3.329   1.087   9.934  1.4788 -1.3056  0.2657
  524TMC3    H1 7786   3.011   0.850  10.055 -1.0262 -0.3526 -0.9533
  524TMC3    H2 7787   2.947   1.214   9.835  2.4445  1.5877 -1.3106
  524TMC3    C7 7788   2.831   1.038  10.007 -0.7154 -0.3554 -0.3667
  524TMC3    C8 7789   3.186   1.280   9.803 -0.3446 -0.3410 -0.2172
  524TMC3    O1 7790   2.803   0.978  10.111 -0.8148  0.4617  0.5389
  524TMC3    O2 7791   3.109   1.366   9.768 -0.8445  0.0265  0.4217
  525MPD2     C 7792   1.302   1.889  14.561 -0.4712 -0.0181 -0.0372
  525MPD2    C1 7793   1.419   1.907  14.633  0.3274  0.0683  0.7670
  525MPD2    C2 7794   1.504   2.017  14.601  0.3169  0.0018  0.4129
  525MPD2    C3 7795   1.467   2.108  14.505  0.7258  0.6085  0.0516
  525MPD2    C4 7796   1.349   2.093  14.438  0.4283 -0.4908  0.1051
  525MPD2    C5 7797   1.268   1.982  14.463  0.1364 -0.0068  0.5894
  525MPD2     H 7798   1.597   2.028  14.656  0.4056 -0.3715  0.3376
  525MPD2    H1 7799   1.315   2.171  14.371  0.1733 -0.0717  0.7282
  525MPD2    H2 7800   1.230   1.808  14.573 -1.2141  0.5117 -0.9337
  525MPD2    H3 7801   1.176   1.980  14.406  0.3666  0.8485  0.1949
  525MPD2     N 7802   1.538   2.232  14.490 -0.5627 -0.0342  0.0940
  525MPD2    H5 7803   1.492   2.312  14.447 -1.4954  0.0931  1.3596
  525MPD2    N1 7804   1.458   1.819  14.734 -0.0737  0.9048  0.4530
  525MPD2    H7 7805   1.546   1.832  14.781 -0.4272  1.8835  0.8471
  526TMC3    C1 7806   1.424   1.631  14.879  0.6584 -0.2592 -0.2237
  526TMC3    C2 7807   1.337   1.565  14.960 -0.1325  0.3057  0.7845
  526TMC3    C3 7808   1.383   1.465  15.037  0.3222  0.2281 -0.3560
  526TMC3    C4 7809   1.558   1.592  14.867  0.3054 -0.4036  0.7172
  526TMC3    C5 7810   1.587   1.488  14.943 -0.1766  0.4362 -0.3674
  526TMC3    C6 7811   1.504   1.419  15.032 -0.2429 -0.6525  0.0573
  526TMC3     C 7812   1.370   1.725  14.777  0.1871  0.8655 -0.1441
  526TMC3     O 7813   1.252   1.706  14.755  0.0589  0.0624  0.6220
  526TMC3     H 7814   1.233   1.591  14.978 -0.6577 -1.3404  0.1114
  526TMC3    H1 7815   1.623   1.626  14.788 -0.6040  3.3496  1.5423
  526TMC3    H2 7816   1.538   1.351  15.110 -2.7488 -0.8624  0.9510
  526TMC3    C7 7817   1.725   1.440  14.938  0.2222 -0.2661 -0.5277
  526TMC3    C8 7818   1.299   1.412  15.144  0.1913  0.4106  0.3181
  526TMC3    O1 7819   1.745   1.325  14.965  0.0875  0.7724 -0.0348
  526TMC3    O2 7820   1.231   1.492  15.207 -0.0029 -0.0356 -0.4643
  527MPD2     C 7821   4.445   3.547   1.877  0.0262  0.1993 -0.2737
  527MPD2    C1 7822   4.546   3.472   1.815 -0.3565 -0.4107 -0.8915
  527MPD2    C2 7823   4.587   3.494   1.685 -0.7498  0.0052 -0.6452
  527MPD2    C3 7824   4.546   3.614   1.628  0.5752 -0.0664 -0.8449
  527MPD2    C4 7825   4.445   3.685   1.680 -0.7984 -0.5697 -0.5194
  527MPD2    C5 7826   4.395   3.655   1.806  0.2217 -0.1482 -0.3877
  527MPD2     H 7827   4.669   3.434   1.650 -0.3287  0.8006 -1.0297
  527MPD2    H1 7828   4.407   3.777   1.636 -0.8049  0.6948  2.1396
  527MPD2    H2 7829   4.386   3.510   1.961  1.0712  1.2197  0.9122
  527MPD2    H3 7830   4.330   3.725   1.857 -0.4834 -1.4873  0.5423
  527MPD2     N 7831   4.608   3.650   1.501  0.8781 -0.6240  0.0394
  527MPD2    H5 7832   4.671   3.582   1.460 -0.4993 -2.1440  0.4232
  527MPD2    N1 7833   4.613   3.377   1.890 -0.3948  0.0897 -0.4033
  527MPD2    H7 7834   4.679   3.321   1.837 -0.2663 -1.0185  0.9458
  528TMC3    C1 7835   0.013   3.302   2.069  0.6948  0.1601  0.3553
  528TMC3    C2 7836   0.111   3.369   2.138  0.2421 -1.1965  0.4498
  528TMC3    C3 7837   0.239   3.326   2.136 -0.7683 -0.2799  0.3443
  528TMC3    C4 7838   0.046   3.186   2.005  0.1670 -0.0305  0.4337
  528TMC3    C5 7839   0.173   3.134   2.020 -0.9592  0.3971 -0.6648
  528TMC3    C6 7840   0.273   3.210   2.078  0.3623 -0.1541  0.1171
  528TMC3     C 7841   4.621   3.379   2.029 -0.8552 -0.2047 -0.6975
  528TMC3     O 7842   4.583   3.460   2.110 -0.1826 -0.5567  0.1354
  528TMC3     H 7843   0.081   3.466   2.175  2.7632  1.3028 -4.1029
  528TMC3    H1 7844   4.691   3.123   1.958  0.1979  1.0746 -1.0818
  528TMC3    H2 7845   0.374   3.172   2.087  0.7952  0.8469 -0.6640
  528TMC3    C7 7846   0.195   2.989   1.986 -1.1174  0.3478 -0.4054
  528TMC3    C8 7847   0.344   3.421   2.171  0.0951  0.0512  0.0621
  528TMC3    O1 7848   0.096   2.921   2.003 -0.1328 -0.5942  0.4250
  528TMC3    O2 7849   0.314   3.530   2.212  0.1999 -0.0096  0.0018
  529MPD2     C 7850   2.852   2.943   0.828 -0.3053 -0.2913 -0.2392
  529MPD2    C1 7851   2.745   2.876   0.766 -0.1147  0.2834 -0.2916
  529MPD2    C2 7852   2.710   2.903   0.633  0.8304  0.6157 -0.7017
  529MPD2    C3 7853   2.777   3.006   0.567 -0.3181  0.0922  0.3672
  529MPD2    C4 7854   2.876   3.080   0.632  0.0679  0.7863 -0.1988
  529MPD2    C5 7855   2.917   3.042   0.759 -0.2440  0.1829 -0.6737
  529MPD2     H 7856   2.634   2.842   0.586  0.8863 -1.8666  2.4081
  529MPD2    H1 7857   2.914   3.175   0.597  1.8352 -0.1064 -0.7033
  529MPD2    H2 7858   2.888   2.931   0.930  1.9593 -0.8919 -1.0994
  529MPD2    H3 7859   3.000   3.095   0.805  0.1424 -1.2425  0.2481
  529MPD2     N 7860   2.741   3.056   0.436  0.4509 -0.1448 -0.1954
  529MPD2    H5 7861   2.796   3.131   0.396 -2.3518  1.6024 -0.7759
  529MPD2    N1 7862   2.670   2.774   0.827  0.5362 -0.3681  0.7125
  529MPD2    H7 7863   2.602   2.727   0.768  1.5193  1.5906 -1.9541
  530TMC3    C1 7864   2.591   2.637   1.003  0.4386  1.3093 -0.1868
  530TMC3    C2 7865   2.597   2.610   1.135  0.0169  0.5340 -0.7379
  530TMC3    C3 7866   2.549   2.487   1.177  0.1305  0.0452 -0.3333
  530TMC3    C4 7867   2.544   2.547   0.908 -0.1713 -0.0164 -0.3793
  530TMC3    C5 7868   2.496   2.428   0.958  0.3226  0.3131 -0.0486
  530TMC3    C6 7869   2.499   2.394   1.091  0.6426  0.5885  0.0595
  530TMC3     C 7870   2.685   2.740   0.963  0.1329 -0.7684 -0.7265
  530TMC3     O 7871   2.762   2.784   1.048 -0.8166 -0.7174 -0.1503
  530TMC3     H 7872   2.648   2.680   1.201 -0.0594 -0.0613 -0.0559
  530TMC3    H1 7873   2.548   2.560   0.800  0.0666  0.2161 -0.3414
  530TMC3    H2 7874   2.445   2.314   1.139 -1.0266  3.2121  2.5009
  530TMC3    C7 7875   2.417   2.345   0.881 -0.1094 -1.1021 -0.2394
  530TMC3    C8 7876   2.588   2.451   1.312  0.3027 -0.1877 -0.4691
  530TMC3    O1 7877   2.370   2.389   0.776  0.2321  0.4951  0.4392
  530TMC3    O2 7878   2.578   2.543   1.393  0.2425 -0.1379  0.0016
  531MPD2     C 7879   1.096   0.996  13.361  0.0128 -0.2802  0.4176
  531MPD2    C1 7880   0.964   1.000  13.389 -0.3263 -0.3168 -1.3951
  531MPD2    C2 7881   0.873   0.987  13.292 -0.0256 -0.4381  0.6079
  531MPD2    C3 7882   0.905   0.974  13.160  0.5196 -0.3667  0.3462
  531MPD2    C4 7883   1.041   0.979  13.128  0.4359 -0.3805 -0.0930
  531MPD2    C5 7884   1.134   0.978  13.229 -0.0844 -0.7186 -0.0818
  531MPD2     H 7885   0.768   0.978  13.317  0.5507  3.4366  4.5025
  531MPD2    H1 7886   1.076   0.977  13.026  0.6140 -0.8721 -0.0200
  531MPD2    H2 7887   1.171   1.004  13.439  2.9506 -1.2812 -2.2760
  531MPD2    H3 7888   1.240   0.976  13.205  0.3130 -3.1421  1.8706
  531MPD2     N 7889   0.801   0.964  13.065 -0.4543  0.2936 -0.1555
  531MPD2    H5 7890   0.711   0.945  13.108 -1.1456  0.2944 -1.6112
  531MPD2    N1 7891   0.913   1.009  13.523 -0.3326 -0.2290 -0.0817
  531MPD2    H7 7892   0.972   0.990  13.604 -1.6044  1.0390  1.1476
  532TMC3    C1 7893   0.744   0.963  13.688  0.2664 -0.5647  0.1982
  532TMC3    C2 7894   0.610   0.969  13.725  0.1107 -0.7815 -0.2554
  532TMC3    C3 7895   0.567   0.859  13.802 -0.2736 -0.5108 -0.1779
  532TMC3    C4 7896   0.819   0.861  13.731 -0.4405 -0.0386  0.0661
  532TMC3    C5 7897   0.771   0.775  13.824  0.0751  0.2951  0.1640
  532TMC3    C6 7898   0.643   0.763  13.856  0.3881  0.5726 -0.4210
  532TMC3     C 7899   0.775   1.008  13.555 -0.2739 -0.4302  0.2193
  532TMC3     O 7900   0.681   1.056  13.493 -0.4694  0.3524  0.2075
  532TMC3     H 7901   0.550   1.058  13.709 -0.8306 -0.8154  2.9506
  532TMC3    H1 7902   0.925   0.864  13.708 -0.4095  1.9388  0.4686
  532TMC3    H2 7903   0.613   0.677  13.914 -0.7870  0.6721 -0.8800
  532TMC3    C7 7904   0.858   0.664  13.865  0.1188 -0.8433  0.7139
  532TMC3    C8 7905   0.451   0.802  13.734 -0.2671  0.3998  0.3006
  532TMC3    O1 7906   0.848   0.613  13.974 -0.0065  0.5005  0.7712
  532TMC3    O2 7907   0.367   0.729  13.786 -0.4096  0.1734 -0.2914
  533TMC3    C1 7908   1.707   2.388  14.544 -0.1717 -0.7635  0.6462
  533TMC3    C2 7909   1.841   2.404  14.587  0.3806  0.3357 -0.2569
  533TMC3    C3 7910   1.869   2.493  14.686  0.8052 -0.4056  0.5566
  533TMC3    C4 7911   1.606   2.448  14.616 -0.2404  0.4253 -0.1576
  533TMC3    C5 7912   1.637   2.527  14.725  0.5717  0.7947 -0.2516
  533TMC3    C6 7913   1.770   2.557  14.750 -0.4389 -0.5338  0.7258
  533TMC3     C 7914   1.670   2.249  14.518  0.0907  0.1885 -0.7058
  533TMC3     O 7915   1.754   2.165  14.539 -0.2177 -0.1756 -0.4900
  533TMC3     H 7916   1.919   2.340  14.547 -1.0865 -1.5458 -0.1002
  533TMC3    H1 7917   1.499   2.435  14.604 -0.0435 -0.3748 -0.9918
  533TMC3    H2 7918   1.795   2.614  14.839 -0.2165 -1.6839  1.3963
  533TMC3    C7 7919   1.554   2.482  14.830  0.4008 -0.1352  0.6387
  533TMC3    C8 7920   2.011   2.527  14.714  0.1656  0.0077 -0.9270
  533TMC3    O1 7921   1.519   2.363  14.828  0.4972  0.0767 -0.1342
  533TMC3    O2 7922   2.025   2.633  14.772 -0.1754 -0.6620 -0.3495
  534MPD2     C 7923   0.284   2.075   1.538  0.5931  0.2536 -0.2985
  534MPD2    C1 7924   0.200   2.184   1.526  0.6443 -0.1845 -0.0051
  534MPD2    C2 7925   0.080   2.162   1.458 -0.6021 -0.8461  0.4294
  534MPD2    C3 7926   0.033   2.041   1.410 -0.0142  0.0018  0.3137
  534MPD2    C4 7927   0.114   1.927   1.432  0.1724 -0.2189  0.0899
  534MPD2    C5 7928   0.237   1.946   1.501  0.1047  0.0370 -0.3085
  534MPD2     H 7929   0.029   2.247   1.413  2.2939  1.6909  1.9340
  534MPD2    H1 7930   0.091   1.826   1.402 -1.3624  0.7120 -1.8984
  534MPD2    H2 7931   0.375   2.082   1.596  1.3799 -2.4059 -1.2153
  534MPD2    H3 7932   0.306   1.862   1.513  0.6430  0.4346 -0.5950
  534MPD2     N 7933   4.629   2.036   1.344 -0.3378 -0.0781  0.6371
  534MPD2    H5 7934   4.601   1.952   1.293 -0.4913 -0.4204  1.2810
  534MPD2    N1 7935   0.229   2.322   1.536  0.0872 -0.2415  0.3706
  534MPD2    H7 7936   0.146   2.378   1.524 -0.0491 -0.4709  0.2515
  535TMC3    C1 7937   4.411   2.111   1.275  0.8534 -0.0008  0.0415
  535TMC3    C2 7938   4.343   1.993   1.270  0.4605 -0.3455 -0.0466
  535TMC3    C3 7939   4.241   1.988   1.176  0.2540 -0.0745  0.7856
  535TMC3    C4 7940   4.391   2.218   1.192  0.3989  0.0950  0.0168
  535TMC3    C5 7941   4.287   2.206   1.102 -0.0611 -0.0130  0.0607
  535TMC3    C6 7942   4.206   2.096   1.095  0.0670  0.6669  1.0523
  535TMC3     C 7943   4.528   2.129   1.355 -1.2814  0.1748  0.4540
  535TMC3     O 7944   4.524   2.228   1.427 -0.0074 -0.4167  0.0679
  535TMC3     H 7945   4.368   1.909   1.333 -1.8809  0.7189  2.2899
  535TMC3    H1 7946   4.461   2.300   1.203  0.6090 -0.2314  1.1175
  535TMC3    H2 7947   4.127   2.096   1.020  0.6156  0.3482  0.4697
  535TMC3    C7 7948   4.255   2.314   1.011 -0.2059  0.1995  0.1492
  535TMC3    C8 7949   4.134   1.888   1.189 -0.6036 -0.5956 -0.6144
  535TMC3    O1 7950   4.230   2.286   0.896 -0.5927  0.2159 -0.5007
  535TMC3    O2 7951   4.039   1.899   1.109  0.0164 -0.1698 -0.4407
  536MPD2     C 7952   3.260   1.479  16.290  0.1244  0.5850 -0.0849
  536MPD2    C1 7953   3.140   1.414  16.303 -0.4926  0.3317 -0.2947
  536MPD2    C2 7954   3.025   1.471  16.252  0.7537 -0.5181 -0.0382
  536MPD2    C3 7955   3.030   1.586  16.179 -1.0072  0.8626  0.1160
  536MPD2    C4 7956   3.154   1.648  16.159  0.2866 -0.1521  0.4822
  536MPD2    C5 7957   3.263   1.594  16.221 -0.1309 -0.1115  0.0760
  536MPD2     H 7958   2.927   1.428  16.267 -0.5816  2.9424  1.1446
  536MPD2    H1 7959   3.165   1.741  16.104  0.8219 -1.2417 -1.2540
  536MPD2    H2 7960   3.350   1.432  16.330  0.4172  0.7203 -0.5916
  536MPD2    H3 7961   3.356   1.648  16.215 -0.1434 -0.0184  0.7096
  536MPD2     N 7962   2.924   1.636  16.103 -0.1317 -0.5420 -0.4237
  536MPD2    H5 7963   2.952   1.703  16.033  2.5722 -2.0943 -0.8299
  536MPD2    N1 7964   3.130   1.295  16.384  0.1998 -0.1637 -0.1112
  536MPD2    H7 7965   3.209   1.276  16.445 -1.0330  0.7074  1.7375
  537TMC3    C1 7966   3.023   1.139  16.509  0.1491  0.0044 -0.0650
  537TMC3    C2 7967   3.023   1.214  16.616  0.5059 -0.7972  0.1891
  537TMC3    C3 7968   2.952   1.174  16.723  0.2174  0.2450 -0.6356
  537TMC3    C4 7969   2.944   1.021  16.506  0.0211 -0.2243  0.4758
  537TMC3    C5 7970   2.884   0.979  16.619  0.2104  0.0595  0.1800
  537TMC3    C6 7971   2.883   1.059  16.731  0.4161  0.0916  0.0643
  537TMC3     C 7972   3.019   1.214  16.391  0.3831 -1.0204 -0.1505
  537TMC3     O 7973   2.912   1.214  16.331 -0.1028  0.1225  1.0888
  537TMC3     H 7974   3.076   1.308  16.627  0.0448 -0.1186 -3.2026
  537TMC3    H1 7975   2.933   0.972  16.411 -1.6586  3.6594 -1.3577
  537TMC3    H2 7976   2.843   1.025  16.826 -3.2922  0.9931 -1.1925
  537TMC3    C7 7977   2.780   0.881  16.606 -0.0895 -0.1906  0.2635
  537TMC3    C8 7978   2.942   1.273  16.830 -0.1065  0.3291  0.4205
  537TMC3    O1 7979   2.729   0.867  16.492 -0.3065  0.2728  0.2597
  537TMC3    O2 7980   2.955   1.235  16.946  0.2099  0.1079 -0.5335
  538TMC3    C1 7981   3.912   0.304  11.065  0.7251  0.2254 -0.2966
  538TMC3    C2 7982   3.971   0.183  11.045 -0.1914  0.4761  0.0121
  538TMC3    C3 7983   3.982   0.142  10.915 -0.2773 -0.6011 -0.4548
  538TMC3    C4 7984   3.873   0.380  10.960 -0.1234 -0.3669  0.2082
  538TMC3    C5 7985   3.883   0.333  10.830  0.6760  0.1655  0.4510
  538TMC3    C6 7986   3.927   0.210  10.811  0.7949  0.8858  0.1422
  538TMC3     C 7987   3.855   0.336  11.196 -0.6388  0.2876 -0.1715
  538TMC3     O 7988   3.774   0.426  11.205  0.0256  0.1074  0.3629
  538TMC3     H 7989   4.026   0.124  11.117  0.1851 -1.2701 -1.7195
  538TMC3    H1 7990   3.821   0.472  10.985 -2.7182 -2.0793  1.0114
  538TMC3    H2 7991   3.930   0.168  10.711 -1.6108 -0.9718  0.8571
  538TMC3    C7 7992   3.764   0.359  10.749 -0.8090 -0.7627  0.7021
  538TMC3    C8 7993   4.077   0.035  10.891  0.2092 -0.0546  0.1099
  538TMC3    O1 7994   3.705   0.269  10.695 -0.2227  0.0710 -0.0933
  538TMC3    O2 7995   4.096   4.668  10.977 -0.3417  0.4823 -0.4590
  539MPD2     C 7996   3.452   4.243  11.996  0.3026 -0.3441 -0.0879
  539MPD2    C1 7997   3.454   4.279  11.865  0.6142  0.2080  0.4791
  539MPD2    C2 7998   3.396   4.400  11.828  0.1738 -0.2290  0.5829
  539MPD2    C3 7999   3.351   4.490  11.925  0.0944 -0.2212 -0.3570
  539MPD2    C4 8000   3.357   4.451  12.060  0.6862 -0.0380 -0.7172
  539MPD2    C5 8001   3.412   4.326  12.092 -0.2285 -0.2300 -0.5564
  539MPD2     H 8002   3.382   4.420  11.722  0.6573 -0.4297  0.4813
  539MPD2    H1 8003   3.324   4.518  12.138 -0.4549 -0.1996 -1.0548
  539MPD2    H2 8004   3.489   4.145  12.024 -1.1233 -0.3629  1.7293
  539MPD2    H3 8005   3.407   4.295  12.195  0.9795  1.6281  0.0634
  539MPD2     N 8006   3.294   4.621  11.901 -0.3262  0.6273  0.5141
  539MPD2    H5 8007   3.239   4.681  11.962  1.8396  2.6498  0.4741
  539MPD2    N1 8008   3.510   4.199  11.759  0.0742 -0.1886  0.1476
  539MPD2    H7 8009   3.506   4.235  11.664  2.4514  2.2380  0.9409
  540TMC3    C1 8010   3.230   0.077  11.749 -0.2409  0.4503  0.5292
  540TMC3    C2 8011   3.248   0.118  11.621  0.2099  0.6294 -0.5779
  540TMC3    C3 8012   3.205   0.240  11.582  0.3949  0.5499 -0.5066
  540TMC3    C4 8013   3.165   0.154  11.844 -0.2035  0.4336 -0.3212
  540TMC3    C5 8014   3.110   0.278  11.802  0.1842 -0.4269  0.8818
  540TMC3    C6 8015   3.125   0.312  11.669  0.1288  0.1888 -0.4742
  540TMC3     C 8016   3.308   4.674  11.780 -0.3435 -0.1546 -0.3001
  540TMC3     O 8017   3.403   4.659  11.703  0.5753 -0.3415 -0.3424
  540TMC3     H 8018   3.309   0.058  11.555 -1.9619 -4.1962  1.8111
  540TMC3    H1 8019   3.155   0.128  11.948  0.8368  0.8978 -0.1082
  540TMC3    H2 8020   3.076   0.398  11.624 -1.0969  0.8532  2.1163
  540TMC3    C7 8021   2.981   0.304  11.858 -0.1960 -0.0514  1.3157
  540TMC3    C8 8022   3.246   0.292  11.457 -0.0354  0.1780 -0.4709
  540TMC3    O1 8023   2.936   0.222  11.942 -0.2583  0.4541 -0.4465
  540TMC3    O2 8024   3.265   0.411  11.452 -0.0324  0.6732 -0.4746
  541MPD2     C 8025   1.685   0.831  13.154  0.8444 -0.2073  0.1794
  541MPD2    C1 8026   1.817   0.797  13.103 -0.3182  0.2819 -0.2422
  541MPD2    C2 8027   1.882   0.877  13.016  0.0606  0.4358  0.8304
  541MPD2    C3 8028   1.819   0.992  12.974 -0.1218 -0.2398  0.1073
  541MPD2    C4 8029   1.692   1.022  13.025  0.4805 -0.1261  0.0478
  541MPD2    C5 8030   1.628   0.947  13.115 -0.0669 -1.0630 -0.7403
  541MPD2     H 8031   1.977   0.847  12.973  0.1708  0.0881  1.3162
  541MPD2    H1 8032   1.645   1.109  12.982  0.9264  1.0973  2.0405
  541MPD2    H2 8033   1.632   0.767  13.223 -1.3364  0.2757 -1.0531
  541MPD2    H3 8034   1.531   0.976  13.154  1.1650  0.4917  1.1862
  541MPD2     N 8035   1.867   1.076  12.878  0.0866 -0.1100  0.9541
  541MPD2    H5 8036   1.820   1.161  12.848 -1.3709 -0.9272  0.9410
  541MPD2    N1 8037   1.865   0.674  13.148 -0.2694 -0.8819 -0.3086
  541MPD2    H7 8038   1.808   0.628  13.219  2.3797 -0.1558  2.2955
  542TMC3    C1 8039   2.007   1.175  12.722  0.1159 -0.7699 -0.1114
  542TMC3    C2 8040   2.078   1.156  12.609 -0.3139  0.5221 -0.2128
  542TMC3    C3 8041   2.093   1.253  12.511  0.3213  0.5358 -0.1066
  542TMC3    C4 8042   1.959   1.300  12.756  0.2724 -0.6509  0.4193
  542TMC3    C5 8043   1.979   1.397  12.650 -0.4042 -0.0115  0.0233
  542TMC3    C6 8044   2.034   1.371  12.529  0.2642  0.2572 -0.2900
  542TMC3     C 8045   1.981   1.058  12.811  0.1861 -0.2471  0.3255
  542TMC3     O 8046   2.065   0.974  12.818  0.6055  0.4942  0.2789
  542TMC3     H 8047   2.109   1.056  12.581 -0.1900  0.1304  1.3170
  542TMC3    H1 8048   1.924   1.334  12.853 -1.2162  1.5283 -0.8815
  542TMC3    H2 8049   2.054   1.448  12.455 -0.4144 -0.7460 -1.5204
  542TMC3    C7 8050   1.922   1.525  12.674 -0.0982 -0.0416 -0.1539
  542TMC3    C8 8051   2.163   1.232  12.388 -0.3224  0.0922 -0.2305
  542TMC3    O1 8052   1.819   1.526  12.738 -0.3591 -0.3439 -0.2333
  542TMC3    O2 8053   2.134   1.300  12.289 -0.8163 -0.0237  0.6303
  543TMC3    C1 8054   1.197   1.684  17.165  0.0786 -0.8446  0.3164
  543TMC3    C2 8055   1.219   1.545  17.158 -0.4352  0.1116 -0.7191
  543TMC3    C3 8056   1.126   1.458  17.199  0.3780  0.0235  0.3634
  543TMC3    C4 8057   1.077   1.734  17.211  0.0930  0.0987  0.2801
  543TMC3    C5 8058   0.980   1.641  17.256 -0.6674 -0.6115  0.7184
  543TMC3    C6 8059   1.005   1.502  17.254  0.2419  0.5606  0.6944
  543TMC3     C 8060   1.264   1.749  17.055 -0.6515  0.4806  0.7737
  543TMC3     O 8061   1.338   1.687  16.980 -0.1251 -1.0349  1.0109
  543TMC3     H 8062   1.321   1.515  17.136 -0.4075 -0.3826  0.0333
  543TMC3    H1 8063   1.064   1.838  17.240  1.4404 -0.3308  2.4077
  543TMC3    H2 8064   0.931   1.428  17.285  2.4022 -3.1530 -3.0204
  543TMC3    C7 8065   0.866   1.675  17.352 -0.3804 -0.0059  0.8406
  543TMC3    C8 8066   1.139   1.331  17.128 -0.3882  0.0255 -0.1129
  543TMC3    O1 8067   0.839   1.588  17.435 -0.2494  0.4407 -0.2863
  543TMC3    O2 8068   1.254   1.308  17.088 -0.5605 -0.0641 -0.6588
  544MPD2     C 8069   0.976   0.880  16.939 -0.1887  0.0567 -0.5946
  544MPD2    C1 8070   1.093   0.955  16.913 -0.0470  0.0781 -0.4221
  544MPD2    C2 8071   1.106   1.078  16.966  0.0867 -0.3984 -0.3863
  544MPD2    C3 8072   1.013   1.126  17.061 -0.6003  0.1547  0.4754
  544MPD2    C4 8073   0.901   1.049  17.093 -0.6767  0.0051 -0.2333
  544MPD2    C5 8074   0.893   0.923  17.038 -0.1342 -0.2793  0.2382
  544MPD2     H 8075   1.203   1.127  16.958 -1.9344  3.8550  0.9091
  544MPD2    H1 8076   0.831   1.066  17.173 -0.5452  0.1432 -0.1490
  544MPD2    H2 8077   0.954   0.778  16.910  0.8047 -0.0721 -0.8854
  544MPD2    H3 8078   0.816   0.854  17.069  0.4101  0.4440  3.2129
  544MPD2     N 8079   1.028   1.250  17.125  0.3567  0.1208 -0.0909
  544MPD2    H5 8080   0.962   1.257  17.202  0.9987  1.7601  0.3269
  544MPD2    N1 8081   1.200   0.894  16.844  0.2362  0.5747  0.0158
  544MPD2    H7 8082   1.177   0.806  16.799 -1.0518 -0.2457  2.2684
  545TMC3    C1 8083   1.421   0.856  16.747 -0.2983 -0.1577 -0.3474
  545TMC3    C2 8084   1.523   0.919  16.683 -0.5622 -0.0077 -0.0676
  545TMC3    C3 8085   1.614   0.830  16.623  0.2394  0.0975 -1.5557
  545TMC3    C4 8086   1.407   0.724  16.779 -0.2899 -0.4094 -0.4924
  545TMC3    C5 8087   1.508   0.655  16.736 -0.4894  0.3546  0.5068
  545TMC3    C6 8088   1.611   0.699  16.663  0.0669 -0.3109 -0.1030
  545TMC3     C 8089   1.325   0.944  16.816 -0.2008  0.6930  0.3372
  545TMC3     O 8090   1.367   1.061  16.830 -0.3637  0.7064 -0.0149
  545TMC3     H 8091   1.530   1.027  16.676 -0.2629  0.1961  3.2874
  545TMC3    H1 8092   1.331   0.683  16.844 -1.8506  1.2742 -1.2463
  545TMC3    H2 8093   1.683   0.627  16.624  1.7435 -0.2479  2.8773
  545TMC3    C7 8094   1.536   0.531  16.810 -0.2538  0.8499 -0.5157
  545TMC3    C8 8095   1.732   0.886  16.551  0.3752  0.4129  0.4031
  545TMC3    O1 8096   1.442   0.453  16.824  0.2515 -0.4328  0.9394
  545TMC3    O2 8097   1.744   1.010  16.558  0.1664  0.2384 -0.2055
  546MPD2     C 8098   3.142   1.664  17.464 -1.4311  0.4396 -0.5073
  546MPD2    C1 8099   3.066   1.746  17.375 -0.3025  0.0311  0.4005
  546MPD2    C2 8100   3.097   1.880  17.367 -0.3341  0.4824 -0.1021
  546MPD2    C3 8101   3.192   1.933  17.452  0.3605  0.7129  0.1249
  546MPD2    C4 8102   3.245   1.853  17.548  0.5931  0.5272 -0.0409
  546MPD2    C5 8103   3.226   1.722  17.552  0.3580 -0.4008 -0.5559
  546MPD2     H 8104   3.035   1.948  17.310 -0.3257 -0.6388 -1.4282
  546MPD2    H1 8105   3.327   1.891  17.609  1.9675 -1.6121 -0.5534
  546MPD2    H2 8106   3.114   1.561  17.483 -1.3076 -0.1323 -3.4022
  546MPD2    H3 8107   3.278   1.660  17.624 -0.5009 -0.3509  0.1073
  546MPD2     N 8108   3.222   2.070  17.452  0.3889  0.5830 -0.3565
  546MPD2    H5 8109   3.279   2.102  17.530  1.3970  0.6277 -1.1046
  546MPD2    N1 8110   2.964   1.695  17.293 -0.4183 -0.4935  0.5071
  546MPD2    H7 8111   2.950   1.595  17.296 -4.0546 -0.0206 -0.5677
  547TMC3    C1 8112   2.799   1.662  17.124  0.5720 -0.3992  0.8293
  547TMC3    C2 8113   2.682   1.717  17.068 -0.4909  0.4265 -0.5236
  547TMC3    C3 8114   2.578   1.627  17.043 -0.0399  0.0941  0.4182
  547TMC3    C4 8115   2.820   1.523  17.140 -0.8901 -0.0366  1.2959
  547TMC3    C5 8116   2.704   1.442  17.109 -0.4199  0.8076 -0.5522
  547TMC3    C6 8117   2.586   1.494  17.069 -0.6051 -0.1542  0.5804
  547TMC3     C 8118   2.885   1.754  17.198  0.6058 -0.2220  0.4375
  547TMC3     O 8119   2.868   1.871  17.178  0.1382 -0.2467 -0.4446
  547TMC3     H 8120   2.677   1.825  17.060 -0.3039  0.3319 -1.9032
  547TMC3    H1 8121   2.921   1.496  17.168 -0.1973  0.6636 -0.5340
  547TMC3    H2 8122   2.499   1.433  17.048 -0.6549  0.5329 -1.2105
  547TMC3    C7 8123   2.691   1.305  17.159  0.1574 -0.3018 -0.4414
  547TMC3    C8 8124   2.452   1.691  17.002 -0.9350 -0.3623  0.6765
  547TMC3    O1 8125   2.587   1.269  17.213 -0.4914 -0.3145  0.1741
  547TMC3    O2 8126   2.460   1.783  16.914 -0.1327 -0.1974  0.3374
  548MPD2     C 8127   2.897   3.113  12.336  0.5560 -0.6802  0.5319
  548MPD2    C1 8128   2.875   2.982  12.373  0.3428  0.5780 -0.0062
  548MPD2    C2 8129   2.926   2.884  12.294  0.0596  0.3022 -0.1412
  548MPD2    C3 8130   3.000   2.910  12.181  0.0750 -0.5942  0.5073
  548MPD2    C4 8131   3.026   3.042  12.143  0.0010  0.5581 -0.2220
  548MPD2    C5 8132   2.968   3.138  12.217  0.5921  0.4359  0.0307
  548MPD2     H 8133   2.898   2.782  12.316  1.7988 -0.2654 -0.5615
  548MPD2    H1 8134   3.092   3.081  12.066  2.0265 -0.3815  1.0094
  548MPD2    H2 8135   2.861   3.199  12.390 -0.2222 -0.1002 -0.9094
  548MPD2    H3 8136   2.975   3.244  12.194 -0.1908  0.3957 -0.3743
  548MPD2     N 8137   3.048   2.802  12.107  0.1537  0.0936  0.3242
  548MPD2    H5 8138   3.015   2.711  12.136 -1.7875  0.9170  0.7391
  548MPD2    N1 8139   2.778   2.969  12.473  0.4230  0.5129  0.0460
  548MPD2    H7 8140   2.735   3.058  12.495 -1.9293 -1.4399  3.2050
  549TMC3    C1 8141   2.614   2.874  12.613  0.0702  0.6195  0.1716
  549TMC3    C2 8142   2.537   2.989  12.600 -0.2897  0.0911  0.5779
  549TMC3    C3 8143   2.410   2.989  12.657 -0.3453 -0.2767  0.2893
  549TMC3    C4 8144   2.573   2.772  12.686 -0.0302 -0.3486  0.6530
  549TMC3    C5 8145   2.439   2.770  12.728  0.1910  0.2462 -0.2688
  549TMC3    C6 8146   2.351   2.876  12.717  0.4781 -0.7044 -0.2418
  549TMC3     C 8147   2.725   2.857  12.518 -0.3271 -0.0905  0.5636
  549TMC3     O 8148   2.766   2.745  12.496 -0.4290  0.7277  0.0836
  549TMC3     H 8149   2.565   3.070  12.533 -1.6600 -0.2674 -0.4375
  549TMC3    H1 8150   2.646   2.702  12.724 -0.4643 -0.8123  0.6283
  549TMC3    H2 8151   2.255   2.882  12.768 -0.3220  0.0728 -1.8321
  549TMC3    C7 8152   2.406   2.681  12.839 -0.3618  0.2567  0.5106
  549TMC3    C8 8153   2.319   3.090  12.627  0.1422  0.4442 -0.2614
  549TMC3    O1 8154   2.305   2.710  12.905  0.3311  0.4445  0.8594
  549TMC3    O2 8155   2.205   3.052  12.634 -0.4876  0.3035 -0.0441
  550TMC3    C1 8156   1.730   0.815  12.063 -0.0437 -0.0694  0.2570
  550TMC3    C2 8157   1.677   0.822  12.189  1.1257  0.4320 -0.0240
  550TMC3    C3 8158   1.605   0.932  12.220 -0.0151  0.0890  0.6567
  550TMC3    C4 8159   1.713   0.916  11.977  0.1933 -0.0541  0.1400
  550TMC3    C5 8160   1.646   1.027  12.022 -0.0411 -0.0151 -0.0896
  550TMC3    C6 8161   1.588   1.039  12.142  0.3551 -0.1586 -0.2482
  550TMC3     C 8162   1.768   0.687  12.018 -0.1527 -0.5242  0.3821
  550TMC3     O 8163   1.826   0.610  12.096 -0.7115  0.0541 -0.0609
  550TMC3     H 8164   1.686   0.734  12.251  1.5851  0.6784  0.2540
  550TMC3    H1 8165   1.737   0.917  11.871  2.6168  0.2041  0.6983
  550TMC3    H2 8166   1.539   1.129  12.177 -0.0890 -0.3643 -0.3353
  550TMC3    C7 8167   1.588   1.101  11.917  0.1070  0.5729 -0.4693
  550TMC3    C8 8168   1.525   0.942  12.344  0.6819  0.2097  0.2159
  550TMC3    O1 8169   1.646   1.165  11.831  0.1077  0.1052  0.0459
  550TMC3    O2 8170   1.521   1.054  12.393  0.3727  0.2080 -0.4983
  551TMC3    C1 8171   3.731   3.424  13.281  0.1898  0.4777  0.3798
  551TMC3    C2 8172   3.845   3.462  13.223 -0.2435 -0.0129  0.6965
  551TMC3    C3 8173   3.935   3.528  13.303  1.0832 -0.9320 -0.1615
  551TMC3    C4 8174   3.695   3.468  13.405 -0.3436  0.3046 -0.0185
  551TMC3    C5 8175   3.784   3.542  13.476  0.1095 -0.6873 -0.9137
  551TMC3    C6 8176   3.915   3.571  13.427  0.1743 -0.3904  0.1057
  551TMC3     C 8177   3.642   3.346  13.195 -1.0623  0.7613  0.7806
  551TMC3     O 8178   3.650   3.342  13.079 -0.1852  0.2357 -0.0107
  551TMC3     H 8179   3.872   3.434  13.122  0.6198  0.9296  0.6584
  551TMC3    H1 8180   3.596   3.452  13.446 -0.6032  0.7878 -0.4470
  551TMC3    H2 8181   3.978   3.644  13.477  0.2732  0.7990 -1.7794
  551TMC3    C7 8182   3.721   3.613  13.587 -0.0717 -0.0234 -0.5486
  551TMC3    C8 8183   4.058   3.558  13.232 -0.0274 -0.1791 -0.5044
  551TMC3    O1 8184   3.602   3.612  13.602  0.4059 -0.4139  0.3433
  551TMC3    O2 8185   4.113   3.471  13.163 -0.3251  0.4651  0.3026
  552MPD2     C 8186   0.643   0.313  14.209 -0.4871  0.0540 -0.3124
  552MPD2    C1 8187   0.758   0.329  14.130 -0.2152  0.3384 -0.6276
  552MPD2    C2 8188   0.883   0.320  14.189  0.0766  0.3247  0.2324
  552MPD2    C3 8189   0.902   0.291  14.325  0.3951  0.2903  0.3729
  552MPD2    C4 8190   0.789   0.284  14.404  0.6862  0.5825  0.5255
  552MPD2    C5 8191   0.664   0.298  14.346  0.0671 -0.3443 -0.3911
  552MPD2     H 8192   0.972   0.346  14.132 -0.1891  1.1438  0.1962
  552MPD2    H1 8193   0.808   0.250  14.505 -0.0545  0.2667  0.5590
  552MPD2    H2 8194   0.542   0.299  14.171 -1.3586 -1.3821  2.5205
  552MPD2    H3 8195   0.576   0.294  14.409 -1.2358  0.4553 -2.1762
  552MPD2     N 8196   1.030   0.275  14.387  0.0738 -0.5791 -0.4368
  552MPD2    H5 8197   1.037   0.269  14.488  1.2817  1.8116 -0.3526
  552MPD2    N1 8198   0.749   0.340  13.988 -0.1153  0.5130  1.3979
  552MPD2    H7 8199   0.836   0.345  13.936 -1.7341 -0.7348 -1.4227
  553TMC3    C1 8200   0.663   0.363  13.764  0.3770 -0.3109 -0.7618
  553TMC3    C2 8201   0.616   0.460  13.680 -0.8388 -0.4359  0.4313
  553TMC3    C3 8202   0.641   0.451  13.549  0.2806  0.2700 -0.2175
  553TMC3    C4 8203   0.750   0.266  13.714  0.0140 -0.3939 -0.0625
  553TMC3    C5 8204   0.785   0.275  13.577 -0.2630 -0.6741  0.5934
  553TMC3    C6 8205   0.725   0.359  13.495 -0.3845  0.4819 -0.0596
  553TMC3     C 8206   0.640   0.364  13.907  0.3153  0.2778 -0.1392
  553TMC3     O 8207   0.526   0.393  13.943 -0.2960 -0.1576 -0.3157
  553TMC3     H 8208   0.548   0.537  13.717  0.2158  1.6194 -1.8674
  553TMC3    H1 8209   0.783   0.189  13.783  0.8468  0.4678  0.4972
  553TMC3    H2 8210   0.761   0.370  13.394  1.0742  0.2270  0.4301
  553TMC3    C7 8211   0.918   0.229  13.538  0.3659 -1.1074 -0.1827
  553TMC3    C8 8212   0.670   0.572  13.486 -0.2470 -0.0745 -0.0332
  553TMC3    O1 8213   0.934   0.217  13.417 -0.4003  0.0317  0.1910
  553TMC3    O2 8214   0.775   0.626  13.525 -0.0948  0.2866 -0.0888
  554TMC3    C1 8215   2.351   4.512  11.768  0.6231 -0.0759  0.2960
  554TMC3    C2 8216   2.281   4.465  11.655 -0.4262 -0.2469  0.5883
  554TMC3    C3 8217   2.329   4.515  11.539  0.0090 -0.4121 -0.5750
  554TMC3    C4 8218   2.459   4.595  11.764 -0.4526  0.2908 -0.5141
  554TMC3    C5 8219   2.490   4.645  11.644  0.0301 -0.1786  0.4097
  554TMC3    C6 8220   2.429   4.609  11.526 -0.0855  0.1769  0.5055
  554TMC3     C 8221   2.337   4.421  11.885  0.7310  0.4753 -0.0952
  554TMC3     O 8222   2.226   4.373  11.896  0.4200 -0.0685 -0.3222
  554TMC3     H 8223   2.209   4.386  11.672 -2.4893  1.2994 -0.9232
  554TMC3    H1 8224   2.497   4.636  11.856 -0.8062 -2.4137  0.8370
  554TMC3    H2 8225   2.459   4.645  11.428  0.8718  0.2192  0.8169
  554TMC3    C7 8226   2.602   0.017  11.638  0.2938 -0.1692 -0.5780
  554TMC3    C8 8227   2.279   4.473  11.412  0.2737 -0.3835  0.6346
  554TMC3    O1 8228   2.622   0.069  11.746 -0.8292 -0.0740  0.2981
  554TMC3    O2 8229   2.325   4.518  11.307 -0.3135 -0.1653  0.2276
  555TMC3    C1 8230   1.900   3.423  15.142 -0.2384 -0.7425 -0.5309
  555TMC3    C2 8231   1.934   3.518  15.232 -1.0205  0.5892 -0.0596
  555TMC3    C3 8232   1.950   3.478  15.359  0.0632 -0.5449  0.6324
  555TMC3    C4 8233   1.863   3.296  15.168  0.3982 -0.8781  0.0131
  555TMC3    C5 8234   1.890   3.260  15.302  0.4606 -0.8769 -0.2183
  555TMC3    C6 8235   1.923   3.351  15.396 -0.1047 -0.0562 -0.3282
  555TMC3     C 8236   1.916   3.466  15.005 -0.2002 -0.5865  0.0992
  555TMC3     O 8237   1.904   3.368  14.930 -0.0792 -0.1653 -0.8830
  555TMC3     H 8238   1.994   3.603  15.201 -1.6756  0.4899 -1.6054
  555TMC3    H1 8239   1.820   3.228  15.095 -0.3401 -0.7905  0.3670
  555TMC3    H2 8240   1.929   3.325  15.501 -2.9274  0.0112 -0.1447
  555TMC3    C7 8241   1.874   3.119  15.337  0.8009  0.0416 -0.5245
  555TMC3    C8 8242   1.945   3.595  15.449 -0.5384  0.1301 -0.6251
  555TMC3    O1 8243   1.841   3.092  15.452  0.5074 -0.6693  0.1516
  555TMC3    O2 8244   1.867   3.682  15.416 -0.5948 -0.6435 -0.1072
  556MPD2     C 8245   0.138   0.647  10.316  0.3805  0.2389  0.2723
  556MPD2    C1 8246   0.035   0.597  10.396 -0.4302 -0.2785 -0.1875
  556MPD2    C2 8247   4.697   0.481  10.353 -0.1709  0.5086 -0.0489
  556MPD2    C3 8248   4.707   0.428  10.231  0.6627 -0.2266 -0.9419
  556MPD2    C4 8249   0.066   0.494  10.146  0.4123 -0.2949  0.0921
  556MPD2    C5 8250   0.144   0.600  10.187 -0.0171  1.3066  0.7283
  556MPD2     H 8251   4.622   0.435  10.417  0.0368  1.0684  0.5936
  556MPD2    H1 8252   0.069   0.474  10.039 -3.0410  0.8713 -0.2394
  556MPD2    H2 8253   0.207   0.728  10.338 -0.4988  1.2101 -0.5366
  556MPD2    H3 8254   0.218   0.647  10.124 -1.1944 -0.2092 -1.7766
  556MPD2     N 8255   4.633   0.313  10.196  0.4343 -0.1726 -0.0877
  556MPD2    H5 8256   4.576   0.276  10.272  2.0395  2.9024  2.6199
  556MPD2    N1 8257   4.713   0.657  10.517 -0.0027  0.0930 -0.1838
  556MPD2    H7 8258   4.622   0.623  10.548  0.9266 -1.2453  1.0430
  557TMC3    C1 8259   4.599   0.109  10.091  0.2358  0.0460  0.7157
  557TMC3    C2 8260   4.522   0.061   9.989 -0.1176  0.2353  0.5121
  557TMC3    C3 8261   4.474   4.653   9.991 -0.1565 -0.9675  0.3875
  557TMC3    C4 8262   4.607   0.043  10.209  0.2731  0.0513 -0.5501
  557TMC3    C5 8263   4.550   4.637  10.207 -0.1107 -0.2058  0.2598
  557TMC3    C6 8264   4.487   4.574  10.099  0.2207 -0.3612  0.0593
  557TMC3     C 8265   4.652   0.241  10.080  0.1231  0.0369 -0.1071
  557TMC3     O 8266   4.681   0.274   9.966  0.0834 -0.0059 -0.5178
  557TMC3     H 8267   4.494   0.122   9.904 -1.2146  2.1878  2.2849
  557TMC3    H1 8268   4.652   0.084  10.298  2.4678 -0.2429 -1.5196
  557TMC3    H2 8269   4.453   4.472  10.097  2.5185 -1.1472  0.8452
  557TMC3    C7 8270   4.510   4.593  10.338 -0.0848  1.2103  0.4214
  557TMC3    C8 8271   4.383   4.610   9.887 -0.2908  0.3036 -0.3028
  557TMC3    O1 8272   4.518   4.471  10.349  0.1616 -0.1435  0.7287
  557TMC3    O2 8273   4.328   4.703   9.829 -0.0337 -0.4353  0.5093
  558TMC3    C1 8274   2.606   2.912   9.707 -0.5068  0.5497  0.7840
  558TMC3    C2 8275   2.523   2.965   9.803  0.2815  0.6571 -0.0958
  558TMC3    C3 8276   2.392   2.934   9.791  0.0672  0.2555 -0.5590
  558TMC3    C4 8277   2.559   2.819   9.615 -0.1656 -0.0538 -0.3654
  558TMC3    C5 8278   2.425   2.787   9.618 -0.0594  0.5072 -0.1630
  558TMC3    C6 8279   2.337   2.842   9.707  0.2803  0.5536 -0.1750
  558TMC3     C 8280   2.708   3.003   9.651 -0.3545 -0.5464 -0.7196
  558TMC3     O 8281   2.728   3.005   9.530  0.5794 -0.3999  0.4508
  558TMC3     H 8282   2.549   3.046   9.870 -0.1546  1.4479 -0.8788
  558TMC3    H1 8283   2.625   2.773   9.543  0.6019 -3.8318  2.7803
  558TMC3    H2 8284   2.229   2.829   9.704  0.2894  1.0216 -3.1535
  558TMC3    C7 8285   2.389   2.693   9.511 -0.4703  0.0440  0.1552
  558TMC3    C8 8286   2.302   3.017   9.873 -0.0528  0.6473 -0.1695
  558TMC3    O1 8287   2.468   2.670   9.423 -0.2715 -0.1413  0.0948
  558TMC3    O2 8288   2.213   3.085   9.822  1.1509 -0.6165  0.5597
  559MPD2     C 8289   2.329   3.916  10.606  0.0059  0.6866 -0.2302
  559MPD2    C1 8290   2.301   3.807  10.692 -0.2518  0.1418 -0.3696
  559MPD2    C2 8291   2.385   3.785  10.802  0.2416 -0.0492  0.7992
  559MPD2    C3 8292   2.491   3.872  10.828  0.5417  0.1946 -0.3165
  559MPD2    C4 8293   2.523   3.972  10.737  0.0081 -0.0978 -0.3954
  559MPD2    C5 8294   2.438   3.990  10.626  0.5485 -0.4548  1.1542
  559MPD2     H 8295   2.360   3.716  10.881 -3.7211 -1.3560 -1.5917
  559MPD2    H1 8296   2.617   4.026  10.742  0.2560 -0.4298 -1.3679
  559MPD2    H2 8297   2.264   3.937  10.523  0.0906  0.2630 -0.4011
  559MPD2    H3 8298   2.467   4.064  10.552 -3.0697 -1.9459 -1.8077
  559MPD2     N 8299   2.556   3.852  10.953 -0.3814 -0.1621 -0.5462
  559MPD2    H5 8300   2.514   3.784  11.017  0.8826 -0.1816  0.2619
  559MPD2    N1 8301   2.188   3.723  10.664 -0.6838 -0.4611 -0.2165
  559MPD2    H7 8302   2.124   3.752  10.591 -1.3352  3.6781  2.0071
  560TMC3    C1 8303   2.725   3.884  11.120 -0.2737 -0.1631  1.1762
  560TMC3    C2 8304   2.667   3.771  11.173 -0.0393 -0.7690  0.1292
  560TMC3    C3 8305   2.737   3.718  11.280  0.2423 -0.5288 -0.7671
  560TMC3    C4 8306   2.834   3.952  11.163 -0.3236  1.2105 -0.7938
  560TMC3    C5 8307   2.883   3.903  11.281  0.3264  0.5916 -0.4756
  560TMC3    C6 8308   2.851   3.783  11.329  0.3086  0.2526  0.2345
  560TMC3     C 8309   2.673   3.918  10.991  0.2386 -0.2922 -0.3885
  560TMC3     O 8310   2.744   3.990  10.922  0.3276  0.5516 -0.4424
  560TMC3     H 8311   2.588   3.709  11.131  0.8164 -1.1689 -0.9008
  560TMC3    H1 8312   2.872   4.040  11.112 -2.8413  3.6776  1.5660
  560TMC3    H2 8313   2.901   3.742  11.416  0.1780  3.2450  1.7238
  560TMC3    C7 8314   2.973   3.982  11.363 -0.7592 -0.0184  0.6177
  560TMC3    C8 8315   2.706   3.578  11.298 -0.2777  0.7458  0.2036
  560TMC3    O1 8316   2.982   3.952  11.480 -0.8005  0.6034 -0.8190
  560TMC3    O2 8317   2.590   3.539  11.282  0.2520  0.5418  0.1239
  561TMC3    C1 8318   0.269   2.462  11.446  0.0206 -0.4850  1.3495
  561TMC3    C2 8319   0.181   2.427  11.546  0.0945 -0.4000 -0.6753
  561TMC3    C3 8320   0.093   2.528  11.588 -0.6755  0.4083  0.5069
  561TMC3    C4 8321   0.290   2.585  11.406  0.3373 -0.1104  0.8161
  561TMC3    C5 8322   0.199   2.681  11.439 -0.0638  0.0001  0.1523
  561TMC3    C6 8323   0.098   2.651  11.527  0.5077 -0.5556 -0.0405
  561TMC3     C 8324   0.371   2.368  11.420 -0.3648 -0.3347 -0.0132
  561TMC3     O 8325   0.416   2.300  11.509 -0.0795 -0.2759 -1.0494
  561TMC3     H 8326   0.184   2.324  11.579 -0.7239 -0.6614 -1.4209
  561TMC3    H1 8327   0.360   2.614  11.328 -1.4585  0.8215 -0.4526
  561TMC3    H2 8328   0.028   2.727  11.560  1.4313  0.1512  0.2898
  561TMC3    C7 8329   0.211   2.818  11.391  0.3124  0.0654  0.3508
  561TMC3    C8 8330   0.023   2.512  11.711 -0.1552 -0.0326  0.5398
  561TMC3    O1 8331   0.107   2.883  11.391  0.1680  0.2864  0.1343
  561TMC3    O2 8332   0.026   2.397  11.750 -0.2574  0.3278 -0.1737
  562TMC3    C1 8333   1.616   3.905  16.271  0.8705 -0.0885 -0.5240
  562TMC3    C2 8334   1.510   3.986  16.265 -0.6292  0.4399 -0.0302
  562TMC3    C3 8335   1.445   3.989  16.144  0.6802 -0.8005  0.1886
  562TMC3    C4 8336   1.674   3.845  16.163 -0.3062  0.0200  0.4895
  562TMC3    C5 8337   1.606   3.855  16.042  0.2956  0.2550  0.5092
  562TMC3    C6 8338   1.490   3.926  16.032 -0.1746 -0.0452 -0.3505
  562TMC3     C 8339   1.693   3.908  16.394  0.9401 -0.1704 -0.1837
  562TMC3     O 8340   1.719   4.018  16.444  0.5478 -0.3753 -0.9211
  562TMC3     H 8341   1.483   4.049  16.348  2.3264  0.3371  1.0247
  562TMC3    H1 8342   1.766   3.789  16.169 -0.7000 -0.5930  0.7725
  562TMC3    H2 8343   1.428   3.919  15.943  0.5335 -2.2502 -0.6779
  562TMC3    C7 8344   1.624   3.754  15.939 -0.1165  0.4132  0.2680
  562TMC3    C8 8345   1.311   4.048  16.147  0.6773  0.1481  0.0263
  562TMC3    O1 8346   1.592   3.793  15.827 -0.0772  0.0110  0.0212
  562TMC3    O2 8347   1.246   4.024  16.251  0.6126 -0.4339  0.7052
  563MPD2     C 8348   3.764   0.272  15.834 -0.2837  0.0701 -0.2240
  563MPD2    C1 8349   3.769   0.359  15.938 -0.4354  0.1256  0.3385
  563MPD2    C2 8350   3.887   0.366  16.010  0.2462  0.2729  0.1068
  563MPD2    C3 8351   3.990   0.275  15.991  0.5449  0.1911  0.0746
  563MPD2    C4 8352   3.976   0.184  15.890 -0.7737 -0.1986  0.1092
  563MPD2    C5 8353   3.872   0.190  15.808 -0.0238 -0.3778  0.4136
  563MPD2     H 8354   3.909   0.437  16.089 -2.2677  1.7867 -0.5413
  563MPD2    H1 8355   4.056   0.116  15.864 -1.3169 -0.0117 -2.0667
  563MPD2    H2 8356   3.679   0.281  15.767  0.5807  5.0433 -0.6736
  563MPD2    H3 8357   3.865   0.116  15.729  1.2130  0.7438 -0.7431
  563MPD2     N 8358   4.092   0.277  16.085 -0.5142  0.1965 -0.2024
  563MPD2    H5 8359   4.089   0.350  16.156  0.3726  1.1169 -1.1148
  563MPD2    N1 8360   3.664   0.448  15.956  0.7271 -0.1808 -0.4545
  563MPD2    H7 8361   3.574   0.431  15.912  0.1773 -0.1321  0.6358
  564TMC3    C1 8362   3.578   0.492  16.162  0.2561 -0.2589  0.2593
  564TMC3    C2 8363   3.473   0.415  16.119  0.4898  0.0247  1.1167
  564TMC3    C3 8364   3.444   0.306  16.199 -0.3215 -0.2484  0.1381
  564TMC3    C4 8365   3.650   0.459  16.275  0.3745 -0.3019  0.1704
  564TMC3    C5 8366   3.635   0.339  16.342  0.9240 -0.8873 -0.8619
  564TMC3    C6 8367   3.529   0.266  16.306 -0.5938 -0.4785 -0.3994
  564TMC3     C 8368   3.662   0.546  16.054  0.2232  1.0412 -0.9807
  564TMC3     O 8369   3.761   0.605  16.098  0.7263 -0.0297  0.6655
  564TMC3     H 8370   3.404   0.454  16.045  0.7955 -2.1075 -0.2857
  564TMC3    H1 8371   3.745   0.507  16.297 -0.1158  0.2546  1.0710
  564TMC3    H2 8372   3.506   0.173  16.358 -2.0277  1.6223  2.7401
  564TMC3    C7 8373   3.757   0.261  16.357 -0.4025  0.4450 -0.6792
  564TMC3    C8 8374   3.385   0.191  16.139 -1.2417 -0.0209 -0.0697
  564TMC3    O1 8375   3.839   0.294  16.440 -0.0548  0.1035 -0.3928
  564TMC3    O2 8376   3.349   0.107  16.218 -0.0268 -0.2533 -0.7393
  565TMC3    C1 8377   4.087   1.974   9.995 -0.6483 -0.3794  0.5631
  565TMC3    C2 8378   4.090   1.842  10.024  0.7099 -0.0990  0.7012
  565TMC3    C3 8379   4.002   1.761   9.958  0.3761 -0.0624 -0.2762
  565TMC3    C4 8380   4.006   2.026   9.895 -0.6130  1.0514  0.2658
  565TMC3    C5 8381   3.944   1.938   9.816  0.1584  0.2740 -0.5351
  565TMC3    C6 8382   3.934   1.802   9.848  0.2888 -0.1638 -0.0974
  565TMC3     C 8383   4.206   2.051  10.037 -0.8164  0.6081 -0.7186
  565TMC3     O 8384   4.249   2.142   9.966  0.3694  0.6482  0.0798
  565TMC3     H 8385   4.154   1.808  10.105  0.0182 -2.4051  0.2906
  565TMC3    H1 8386   4.014   2.130   9.867 -0.9100  0.8536 -0.5711
  565TMC3    H2 8387   3.886   1.739   9.773 -0.8117  0.6633 -0.0789
  565TMC3    C7 8388   3.865   1.973   9.694 -0.4396 -0.3603 -0.2197
  565TMC3    C8 8389   3.970   1.633  10.015 -0.2369 -0.1160  0.0125
  565TMC3    O1 8390   3.821   1.888   9.621 -0.0862  0.2796 -0.4119
  565TMC3    O2 8391   4.038   1.611  10.115 -0.1705 -0.7205  0.0534
  566MPD2     C 8392   0.892   3.828  14.369 -0.2346 -0.1474 -0.7035
  566MPD2    C1 8393   1.015   3.833  14.301 -0.3824  0.1620  0.5273
  566MPD2    C2 8394   1.059   3.719  14.240  0.3230 -0.1191 -0.4135
  566MPD2    C3 8395   0.979   3.603  14.242 -0.2581 -0.8680 -0.4948
  566MPD2    C4 8396   0.861   3.599  14.315 -0.6010  1.1567 -0.1567
  566MPD2    C5 8397   0.816   3.714  14.373 -0.4728  0.1230  0.4060
  566MPD2     H 8398   1.153   3.733  14.188 -0.6981 -0.6362 -2.3947
  566MPD2    H1 8399   0.800   3.510  14.327 -0.2191  1.2129  2.0877
  566MPD2    H2 8400   0.851   3.913  14.421  1.0334  0.2693 -0.3800
  566MPD2    H3 8401   0.722   3.722  14.427 -0.8862  1.4954 -0.4970
  566MPD2     N 8402   1.011   3.486  14.177  0.1874 -0.0699 -0.0891
  566MPD2    H5 8403   0.954   3.403  14.188  1.5135 -0.7560  1.4715
  566MPD2    N1 8404   1.079   3.958  14.268 -0.1959 -0.1876  0.2914
  566MPD2    H7 8405   1.168   3.964  14.220 -0.5105  1.1578 -0.1118
  567TMC3    C1 8406   1.123   4.186  14.279 -0.3314  0.1744  0.5919
  567TMC3    C2 8407   1.120   4.240  14.148  0.7500 -0.3466 -0.5576
  567TMC3    C3 8408   1.228   4.308  14.111 -0.4838  0.0148  0.7185
  567TMC3    C4 8409   1.232   4.187  14.360 -0.1056  0.4021 -0.5482
  567TMC3    C5 8410   1.346   4.245  14.312  0.4806  0.1580 -0.1975
  567TMC3    C6 8411   1.340   4.305  14.187 -0.3058 -0.1838  0.2390
  567TMC3     C 8412   1.031   4.077  14.313  0.0084  0.1746 -0.6419
  567TMC3     O 8413   0.929   4.118  14.368  0.2814 -0.0227  0.2637
  567TMC3     H 8414   1.028   4.239  14.090  0.1217 -0.1134  0.4349
  567TMC3    H1 8415   1.220   4.149  14.461  0.3860  0.0072 -0.6375
  567TMC3    H2 8416   1.431   4.348  14.146 -2.1615  2.8807 -0.6982
  567TMC3    C7 8417   1.467   4.169  14.340  0.2617  0.3530 -0.0314
  567TMC3    C8 8418   1.228   4.362  13.980  0.1302 -0.0337 -0.4318
  567TMC3    O1 8419   1.571   4.204  14.284 -0.5435  0.3104  0.2679
  567TMC3    O2 8420   1.300   4.457  13.954 -0.4765 -0.0856 -0.2073
  568MPD2     C 8421   3.260   3.612  16.613 -0.3773  0.5896 -0.5799
  568MPD2    C1 8422   3.384   3.650  16.671 -0.4611 -0.3773 -0.7236
  568MPD2    C2 8423   3.436   3.767  16.623  0.0702 -0.5752 -0.0660
  568MPD2    C3 8424   3.381   3.834  16.513  0.1383 -0.3093  0.0081
  568MPD2    C4 8425   3.263   3.779  16.449  0.4041 -0.0273  0.8120
  568MPD2    C5 8426   3.202   3.672  16.507  0.0896 -0.1607  0.0065
  568MPD2     H 8427   3.528   3.802  16.670 -1.1038  0.6706  1.3157
  568MPD2    H1 8428   3.212   3.824  16.365  1.2356 -0.2346  0.1915
  568MPD2    H2 8429   3.206   3.527  16.654  1.9685 -0.3619  0.5335
  568MPD2    H3 8430   3.101   3.647  16.477  0.3663 -0.6516 -0.5166
  568MPD2     N 8431   3.442   3.954  16.464 -0.0484  0.6514  0.0724
  568MPD2    H5 8432   3.529   3.978  16.510 -0.1762 -0.2406  0.7886
  568MPD2    N1 8433   3.427   3.578  16.783 -0.2194 -0.2888 -0.2228
  568MPD2    H7 8434   3.371   3.498  16.809 -2.5182  0.6644 -2.2857
  569TMC3    C1 8435   3.510   4.124  16.317  0.6096 -0.0679 -0.5292
  569TMC3    C2 8436   3.559   4.213  16.405 -0.6093 -0.0399 -0.1410
  569TMC3    C3 8437   3.647   4.312  16.360  0.1142  0.2770 -0.3536
  569TMC3    C4 8438   3.530   4.131  16.185  0.3785 -0.7241  0.5502
  569TMC3    C5 8439   3.599   4.238  16.138  0.4763  0.1868 -0.4225
  569TMC3    C6 8440   3.666   4.327  16.225 -0.3833  0.3749 -0.0424
  569TMC3     C 8441   3.407   4.028  16.359 -0.1593  0.4198  0.6109
  569TMC3     O 8442   3.327   4.004  16.265  0.6596 -0.5358  0.4086
  569TMC3     H 8443   3.537   4.205  16.511 -1.5319  0.9500 -0.2609
  569TMC3    H1 8444   3.486   4.060  16.116 -0.4631 -0.8666  1.2286
  569TMC3    H2 8445   3.724   4.410  16.187  0.5893  0.2560  1.1777
  569TMC3    C7 8446   3.557   4.291  16.012 -0.3956  0.0676 -0.8478
  569TMC3    C8 8447   3.608   4.441  16.413  0.7869 -0.3472 -0.0477
  569TMC3    O1 8448   3.551   4.223  15.907 -0.2715  0.2759 -0.1132
  569TMC3    O2 8449   3.532   4.515  16.353  0.4984  0.0204  0.1444
  570TMC3    C1 8450   2.990   2.709  16.363  0.0460 -0.1194 -0.3876
  570TMC3    C2 8451   3.078   2.742  16.270  1.0610  0.6263 -0.4110
  570TMC3    C3 8452   3.090   2.878  16.251 -0.3720 -0.3092 -0.1100
  570TMC3    C4 8453   2.918   2.794  16.442  0.4315 -0.9158  0.4804
  570TMC3    C5 8454   2.938   2.923  16.412  0.5816  0.1551  0.5970
  570TMC3    C6 8455   3.033   2.968  16.328  0.0149 -0.2534 -0.2055
  570TMC3     C 8456   2.950   2.568  16.365  0.3068 -0.7426  0.2890
  570TMC3     O 8457   2.964   2.494  16.268  0.0074 -0.0473  0.0422
  570TMC3     H 8458   3.128   2.661  16.218  0.3770 -1.1112  1.6171
  570TMC3    H1 8459   2.839   2.762  16.509  0.6112  0.6676  1.4298
  570TMC3    H2 8460   3.051   3.074  16.313 -2.0678  0.2152  0.6080
  570TMC3    C7 8461   2.880   3.010  16.508  1.0220  1.2795  0.5418
  570TMC3    C8 8462   3.186   2.926  16.152  0.1853  0.1635  0.0356
  570TMC3    O1 8463   2.875   2.964  16.622  0.7894  0.4114 -0.1780
  570TMC3    O2 8464   3.199   3.049  16.151  0.0858 -0.0082 -0.1614
  571MPD2     C 8465   1.414   3.784  17.013 -0.8579 -0.2810  0.4934
  571MPD2    C1 8466   1.356   3.710  17.112  0.3348  0.1866 -0.6560
  571MPD2    C2 8467   1.286   3.768  17.216  0.0692 -0.3960  0.5526
  571MPD2    C3 8468   1.281   3.906  17.225  0.6699 -0.6292 -0.2866
  571MPD2    C4 8469   1.349   3.980  17.119 -0.4011  0.0056 -0.5103
  571MPD2    C5 8470   1.414   3.916  17.018 -0.5663 -0.4603 -0.7859
  571MPD2     H 8471   1.227   3.710  17.287 -1.5677 -0.3841 -0.8035
  571MPD2    H1 8472   1.349   4.089  17.117 -0.9826  0.0324  0.9699
  571MPD2    H2 8473   1.451   3.733  16.925 -0.6198 -0.0507  0.4588
  571MPD2    H3 8474   1.465   3.978  16.945 -1.4319  0.2669 -0.7597
  571MPD2     N 8475   1.214   3.973  17.323  1.0807  0.0961  0.2752
  571MPD2    H5 8476   1.205   4.074  17.319 -0.6601 -0.0720 -0.4041
  571MPD2    N1 8477   1.356   3.574  17.092  0.2331 -0.0352  0.2686
  571MPD2    H7 8478   1.398   3.546  17.004  0.0543 -0.7676  0.4160
  572TMC3    C1 8479   1.097   4.005  17.528  0.3468  0.0744 -0.3564
  572TMC3    C2 8480   1.024   3.937  17.621  0.6603  0.4236 -0.5474
  572TMC3    C3 8481   0.936   4.011   0.013  0.5138 -0.3621  0.1424
  572TMC3    C4 8482   1.083   4.138  17.506 -0.1973  0.3459 -0.1050
  572TMC3    C5 8483   0.994   4.208  17.580 -0.3181 -0.5038  0.4612
  572TMC3    C6 8484   0.915   4.145  17.674 -0.1957 -0.2002 -0.3079
  572TMC3     C 8485   1.182   3.920  17.445 -0.7499 -0.1263  0.3261
  572TMC3     O 8486   1.228   3.815  17.489 -0.3836 -0.1760 -0.4502
  572TMC3     H 8487   1.021   3.829  17.615 -2.2111  0.4259  0.7960
  572TMC3    H1 8488   1.150   4.185  17.435  1.0076 -2.0804 -0.6073
  572TMC3    H2 8489   0.829   4.203   0.022 -1.1940 -1.5524 -0.5500
  572TMC3    C7 8490   0.990   4.352  17.581 -0.2751 -0.3911  0.1510
  572TMC3    C8 8491   0.849   3.943   0.105  0.4498  0.7677 -0.2792
  572TMC3    O1 8492   0.883   4.408  17.611  0.4368 -0.3857  0.4943
  572TMC3    O2 8493   0.843   3.824   0.086  0.1453  0.2264  0.5900
  573MPD2     C 8494   1.960   0.203   0.506  0.5865 -0.4606 -0.2997
  573MPD2    C1 8495   2.046   0.299   0.496 -0.3824 -0.0648  0.5267
  573MPD2    C2 8496   2.104   0.324   0.370  0.5104  0.2879  0.0233
  573MPD2    C3 8497   2.045   0.265   0.256  0.6798 -0.1558  0.1950
  573MPD2    C4 8498   1.938   0.173   0.274 -0.4464  0.4191  1.1107
  573MPD2    C5 8499   1.901   0.144   0.399  0.4347 -0.1932 -0.5374
  573MPD2     H 8500   2.194   0.382   0.363  1.2166 -0.5938  1.7887
  573MPD2    H1 8501   1.882   0.123   0.197 -0.0425  1.9942 -0.2061
  573MPD2    H2 8502   1.917   0.174   0.601 -1.9506  1.0204 -0.9926
  573MPD2    H3 8503   1.811   0.085   0.417  1.7448 -1.7614  0.8501
  573MPD2     N 8504   2.088   0.287   0.121  0.7830  0.0417  0.1087
  573MPD2    H5 8505   2.021   0.242   0.060  0.3185  1.0698 -0.1422
  573MPD2    N1 8506   2.096   0.370   0.611 -0.6570  0.1639  0.6805
  573MPD2    H7 8507   2.048   0.349   0.697 -0.7203  2.3858  1.2077
  574TMC3    C1 8508   2.183   0.386  17.615 -0.3095 -0.7648  0.5593
  574TMC3    C2 8509   2.100   0.308  17.536 -0.2905 -0.8449  0.6238
  574TMC3    C3 8510   2.111   0.334  17.404 -0.2063 -0.5540  0.2962
  574TMC3    C4 8511   2.273   0.480  17.568 -0.3380  0.2837  0.1693
  574TMC3    C5 8512   2.272   0.505  17.433  0.4800 -0.4084 -0.4535
  574TMC3    C6 8513   2.198   0.430  17.350 -0.1023 -0.0772 -0.5406
  574TMC3     C 8514   2.195   0.366   0.075  0.0478  0.5128 -0.4783
  574TMC3     O 8515   2.292   0.413   0.137  0.3295  0.6422  0.1955
  574TMC3     H 8516   2.046   0.224  17.578 -2.3530 -1.3101 -2.9605
  574TMC3    H1 8517   2.320   0.551  17.635  1.1376  0.3646 -0.9581
  574TMC3    H2 8518   2.186   0.459  17.246 -1.3015  0.1138 -0.3554
  574TMC3    C7 8519   2.366   0.603  17.392 -0.0729  0.2618  0.0505
  574TMC3    C8 8520   1.996   0.285  17.327 -0.1874  0.0199  0.2828
  574TMC3    O1 8521   2.446   0.648  17.471  0.0512 -0.3184 -0.2619
  574TMC3    O2 8522   1.921   0.209  17.390  0.2812  0.7151 -0.3883
  575TMC3    C1 8523   4.348   0.969  10.275 -0.1940 -0.9819 -0.3826
  575TMC3    C2 8524   4.312   0.841  10.238 -0.4891  0.1813 -0.2079
  575TMC3    C3 8525   4.188   0.817  10.192 -0.8048 -0.2028 -0.0952
  575TMC3    C4 8526   4.252   1.068  10.274  0.0787  0.0675  0.1464
  575TMC3    C5 8527   4.128   1.040  10.233 -0.4405  0.2885 -0.1858
  575TMC3    C6 8528   4.096   0.918  10.185 -0.6938  0.1608  0.4550
  575TMC3     C 8529   4.482   0.987  10.323 -0.4046 -0.1283 -0.1377
  575TMC3     O 8530   4.540   0.899  10.379  0.2779  0.4204  0.2724
  575TMC3     H 8531   4.386   0.761  10.242  0.6082  1.1830 -0.3694
  575TMC3    H1 8532   4.285   1.164  10.313  0.8582 -0.3664  0.5465
  575TMC3    H2 8533   4.003   0.888  10.138 -0.9135  0.0446  0.9610
  575TMC3    C7 8534   4.055   1.160  10.202  0.2558  0.7840 -0.2873
  575TMC3    C8 8535   4.172   0.698  10.109 -0.5669  0.2744 -0.1768
  575TMC3    O1 8536   4.112   1.263  10.221  0.3099 -0.5465 -0.3099
  575TMC3    O2 8537   4.233   0.609  10.163  0.2409  0.8346 -0.4699
  576MPD2     C 8538   3.830   3.305  12.514  0.9861  0.3670  0.0279
  576MPD2    C1 8539   3.941   3.383  12.506 -0.8763  0.5580 -0.4014
  576MPD2    C2 8540   3.949   3.495  12.584 -0.3656  0.3537 -0.2743
  576MPD2    C3 8541   3.857   3.521  12.679  0.5180  0.6333  0.0234
  576MPD2    C4 8542   3.750   3.433  12.692  0.5297 -0.0191 -0.8086
  576MPD2    C5 8543   3.740   3.325  12.614  0.0159  0.8761  0.1147
  576MPD2     H 8544   4.039   3.553  12.567 -1.1136  1.4295 -0.6174
  576MPD2    H1 8545   3.672   3.440  12.767 -0.3793  0.6910 -1.8137
  576MPD2    H2 8546   3.813   3.218  12.452  0.2257 -0.0654  0.8387
  576MPD2    H3 8547   3.654   3.258  12.617  1.2797 -0.7926 -0.8804
  576MPD2     N 8548   3.877   3.633  12.753  0.0574  0.4318  0.5499
  576MPD2    H5 8549   3.954   3.696  12.733 -0.6739  0.7128 -1.3777
  576MPD2    N1 8550   4.050   3.348  12.413 -0.1248  1.2187 -0.3254
  576MPD2    H7 8551   4.119   3.419  12.391  1.6433 -0.3097  0.2996
  577TMC3    C1 8552   4.155   3.201  12.254  0.0490  0.0155  0.1281
  577TMC3    C2 8553   4.241   3.098  12.286 -1.0155 -0.3040 -0.2761
  577TMC3    C3 8554   4.328   3.065  12.184  0.0138 -1.0565  0.2232
  577TMC3    C4 8555   4.160   3.272  12.139  0.0019 -0.2374 -0.0499
  577TMC3    C5 8556   4.241   3.229  12.035 -0.2703  0.6882  0.5475
  577TMC3    C6 8557   4.333   3.127  12.058 -0.8635 -0.5779 -0.1217
  577TMC3     C 8558   4.055   3.222  12.353 -0.3179  0.2166  0.3714
  577TMC3     O 8559   4.006   3.114  12.389  0.0259  0.0159 -0.1558
  577TMC3     H 8560   4.236   3.052  12.384 -0.7885 -3.5897 -1.7939
  577TMC3    H1 8561   4.081   3.341  12.115 -0.9101 -0.3487  2.5897
  577TMC3    H2 8562   4.394   3.101  11.973 -1.9247 -1.1472 -0.7130
  577TMC3    C7 8563   4.189   3.214  11.903  0.4375  0.3802  0.2000
  577TMC3    C8 8564   4.381   2.930  12.198  0.6771  0.4276 -0.6210
  577TMC3    O1 8565   4.210   3.112  11.844  0.0664 -0.2138 -0.0698
  577TMC3    O2 8566   4.330   2.854  12.280 -0.0414 -0.8051 -0.5501
  578MPD2     C 8567   3.015   2.258   1.690 -0.2976 -0.3111 -0.3928
  578MPD2    C1 8568   3.002   2.262   1.554  0.1405  0.0680 -0.0278
  578MPD2    C2 8569   3.048   2.149   1.489  0.5241 -0.3770  0.5221
  578MPD2    C3 8570   3.109   2.044   1.557  0.3610 -0.6079 -0.0567
  578MPD2    C4 8571   3.117   2.044   1.690  0.3674  0.3949  0.2181
  578MPD2    C5 8572   3.070   2.152   1.758  0.7813 -0.0704  0.4450
  578MPD2     H 8573   3.050   2.158   1.381 -1.0607  0.2667  0.5360
  578MPD2    H1 8574   3.158   1.963   1.749  0.6475  0.9925  0.8408
  578MPD2    H2 8575   2.985   2.341   1.753  0.9838  0.3207 -0.6128
  578MPD2    H3 8576   3.073   2.147   1.866  0.4783 -1.6403  0.3952
  578MPD2     N 8577   3.169   1.936   1.484 -0.2511 -0.4597  0.0209
  578MPD2    H5 8578   3.148   1.941   1.385  0.4671  0.7977 -0.0641
  578MPD2    N1 8579   2.952   2.378   1.492 -0.3921  0.3473  1.0299
  578MPD2    H7 8580   2.926   2.457   1.550  1.2848  1.2036  0.5957
  579TMC3    C1 8581   3.331   1.792   1.419  0.4307 -0.2868  0.9182
  579TMC3    C2 8582   3.410   1.686   1.451 -0.5694 -0.4311  0.1963
  579TMC3    C3 8583   3.499   1.645   1.356  0.1860  0.1146  0.2179
  579TMC3    C4 8584   3.313   1.834   1.290  0.5633 -0.8936  0.5515
  579TMC3    C5 8585   3.402   1.788   1.197 -0.6990  0.2032  0.0488
  579TMC3    C6 8586   3.499   1.695   1.228  0.4129  0.1445  0.7576
  579TMC3     C 8587   3.261   1.854   1.529 -0.3234 -0.1394  0.7530
  579TMC3     O 8588   3.293   1.819   1.642  0.1215 -0.7695 -0.0820
  579TMC3     H 8589   3.416   1.642   1.550 -1.0880  3.1807  1.8468
  579TMC3    H1 8590   3.270   1.932   1.275  0.5957 -1.1614 -1.3445
  579TMC3    H2 8591   3.541   1.637   1.147  1.0548  0.5224  0.8264
  579TMC3    C7 8592   3.388   1.837   1.060 -0.5897  0.6062 -0.4881
  579TMC3    C8 8593   3.620   1.578   1.401  0.4420 -0.6660 -0.6575
  579TMC3    O1 8594   3.492   1.825   0.994  0.3771  0.3324  0.7396
  579TMC3    O2 8595   3.622   1.507   1.498 -0.5306 -0.2021 -0.4039
  580TMC3    C1 8596   2.145   2.673  12.219 -0.3310  0.3059  1.1911
  580TMC3    C2 8597   2.234   2.780  12.242 -0.6345  0.0828  0.4312
  580TMC3    C3 8598   2.365   2.763  12.298  0.2119  0.2697 -0.4887
  580TMC3    C4 8599   2.182   2.548  12.256  0.2450  0.2947 -0.4009
  580TMC3    C5 8600   2.312   2.529  12.306 -0.7380 -0.7387 -0.5304
  580TMC3    C6 8601   2.400   2.637  12.326 -0.7240  0.0287 -0.5049
  580TMC3     C 8602   2.021   2.696  12.150 -0.2445  0.0377  0.3992
  580TMC3     O 8603   1.929   2.616  12.158  0.4860 -0.1158  0.2396
  580TMC3     H 8604   2.199   2.877  12.210 -0.5309  0.1133  0.4079
  580TMC3    H1 8605   2.112   2.465  12.257 -1.5665  1.8262  0.4271
  580TMC3    H2 8606   2.481   2.610  12.393 -1.4590 -0.4940  0.1818
  580TMC3    C7 8607   2.350   2.390  12.352 -0.2501 -0.6555 -0.7001
  580TMC3    C8 8608   2.466   2.862  12.278 -0.2186 -0.3344 -0.1703
  580TMC3    O1 8609   2.430   2.388  12.446  0.1360 -0.0817 -0.3276
  580TMC3    O2 8610   2.439   2.979  12.299  1.1842  1.4961 -0.0818
  581MPD2     C 8611   4.548   2.108  14.792  0.1934 -0.4187 -0.4058
  581MPD2    C1 8612   4.421   2.080  14.827  0.2125  0.1406  0.2959
  581MPD2    C2 8613   4.316   2.146  14.757 -0.9260  0.3033  0.0597
  581MPD2    C3 8614   4.344   2.259  14.678  0.1170  0.1007  0.2382
  581MPD2    C4 8615   4.472   2.283  14.644  0.0042  0.0609  0.8328
  581MPD2    C5 8616   4.568   2.215  14.707  0.1240 -0.0222 -0.3700
  581MPD2     H 8617   4.213   2.121  14.779 -1.0813 -1.2700 -2.3719
  581MPD2    H1 8618   4.511   2.368  14.590  0.2097 -0.9138 -0.5435
  581MPD2    H2 8619   4.636   2.056  14.830  2.9749  3.0629 -2.0398
  581MPD2    H3 8620   4.672   2.244  14.699  0.1506  0.7434  2.5967
  581MPD2     N 8621   4.232   2.322  14.612  0.4662 -0.1680  0.4822
  581MPD2    H5 8622   4.147   2.269  14.618  0.1257  0.4121  0.8258
  581MPD2    N1 8623   4.403   1.980  14.917 -0.2134  0.3467  0.2647
  581MPD2    H7 8624   4.478   1.986  14.985  0.8029  0.5032 -0.8641
  582TMC3    C1 8625   4.283   1.852  15.057 -0.0670  0.8244 -0.4351
  582TMC3    C2 8626   4.392   1.832  15.137 -0.4967  0.4039  0.2181
  582TMC3    C3 8627   4.366   1.805  15.265  0.8297 -0.7532 -1.6258
  582TMC3    C4 8628   4.158   1.828  15.107 -0.5152 -0.1803  0.6809
  582TMC3    C5 8629   4.141   1.808  15.238 -0.1382  0.0122 -0.1673
  582TMC3    C6 8630   4.245   1.811  15.326  1.0002 -0.0150  0.0062
  582TMC3     C 8631   4.295   1.905  14.927 -0.0815 -0.6767  0.7813
  582TMC3     O 8632   4.199   1.891  14.850 -0.3625 -0.2544 -0.3158
  582TMC3     H 8633   4.485   1.876  15.104 -1.1786  0.4162 -1.6902
  582TMC3    H1 8634   4.077   1.841  15.037 -1.7792 -1.0935  1.9936
  582TMC3    H2 8635   4.237   1.786  15.431  0.8098  5.2079  1.1930
  582TMC3    C7 8636   4.033   1.887  15.282 -0.6663 -0.0056 -0.2076
  582TMC3    C8 8637   4.471   1.816  15.358  0.1689  0.2872  0.1575
  582TMC3    O1 8638   3.923   1.861  15.238  0.0725 -1.1590 -0.3910
  582TMC3    O2 8639   4.445   1.820  15.478  0.1526 -0.4089  0.2415
  583MPD2     C 8640   0.247   3.444  16.973  0.5439  0.0932  0.7054
  583MPD2    C1 8641   0.215   3.573  16.912  1.1200 -0.2350  0.0622
  583MPD2    C2 8642   0.207   3.687  16.992  0.2852 -0.5077 -0.0530
  583MPD2    C3 8643   0.228   3.675  17.131 -1.0228 -0.5259  0.8173
  583MPD2    C4 8644   0.257   3.549  17.185 -0.0394  0.0760  1.1443
  583MPD2    C5 8645   0.263   3.438  17.110  0.3608  0.3458  0.4528
  583MPD2     H 8646   0.202   3.786  16.947 -1.6264 -0.4961  0.2088
  583MPD2    H1 8647   0.261   3.525  17.291 -1.8485 -0.7233  1.0361
  583MPD2    H2 8648   0.243   3.354  16.913  2.0084  0.1170  0.5751
  583MPD2    H3 8649   0.283   3.340  17.154 -2.0351 -0.2456  0.2731
  583MPD2     N 8650   0.197   3.784  17.219  0.2485 -0.3618 -1.0580
  583MPD2    H5 8651   0.128   3.852  17.188  0.9202  0.9234  0.2639
  583MPD2    N1 8652   0.217   3.587  16.770  0.2175 -0.8088 -0.0364
  583MPD2    H7 8653   0.193   3.676  16.729  1.2988 -0.5345 -0.0623
  584TMC3    C1 8654   0.160   3.867  17.422 -0.3433 -0.1074  0.2834
  584TMC3    C2 8655   0.219   3.986  17.473  0.1304  0.2205  0.8903
  584TMC3    C3 8656   0.181   4.027  17.594  0.3619 -0.7863  0.2279
  584TMC3    C4 8657   0.078   3.787  17.504  0.3045  0.2821  0.1691
  584TMC3    C5 8658   0.044   3.839  17.628  0.0306  0.0134  0.3554
  584TMC3    C6 8659   0.095   3.958  17.676  0.0971 -0.8356  0.9018
  584TMC3     C 8660   0.250   3.792  17.341  0.3456  0.1370  0.3350
  584TMC3     O 8661   0.361   3.752  17.375 -0.0593 -0.2228 -0.0409
  584TMC3     H 8662   0.293   4.039  17.415 -0.6214 -1.5192 -1.6533
  584TMC3    H1 8663   0.064   3.683  17.477 -0.3398  0.6711 -1.0162
  584TMC3    H2 8664   0.071   3.987   0.095 -2.5450 -1.1032  0.3442
  584TMC3    C7 8665   4.664   3.777   0.042 -0.9549  0.2985  0.3535
  584TMC3    C8 8666   0.202   4.167  17.632 -0.5135  0.3278  0.2763
  584TMC3    O1 8667   4.671   3.803   0.162  0.6609 -0.3199 -0.0924
  584TMC3    O2 8668   0.175   4.178   0.069  0.2321 -0.2285 -0.2494
  585MPD2     C 8669   4.272   2.260   0.296  0.1561 -0.2741 -0.0643
  585MPD2    C1 8670   4.273   2.376   0.217  0.4369 -0.2158 -0.0124
  585MPD2    C2 8671   4.304   2.359   0.087  0.3283  0.1510  0.0728
  585MPD2    C3 8672   4.335   2.235   0.035  0.2107 -0.1841 -0.4705
  585MPD2    C4 8673   4.334   2.124   0.115  0.0902  0.8426  0.5718
  585MPD2    C5 8674   4.306   2.138   0.249  0.2444 -0.0038  0.0324
  585MPD2     H 8675   4.313   2.445   0.021  1.4190  0.9306  1.2397
  585MPD2    H1 8676   4.361   2.026   0.078 -0.6634  1.0910 -0.6207
  585MPD2    H2 8677   4.271   2.268   0.404 -2.3763  2.0746 -0.2645
  585MPD2    H3 8678   4.319   2.051   0.312 -0.6568  0.1519  0.4207
  585MPD2     N 8679   4.345   2.211  17.581  0.0634 -0.1892 -0.2183
  585MPD2    H5 8680   4.359   2.115  17.552  2.0979  0.7228 -2.2343
  585MPD2    N1 8681   4.227   2.499   0.270  0.8301  0.0891  0.2050
  585MPD2    H7 8682   4.202   2.495   0.368  1.0528  0.2296  0.2669
  586TMC3    C1 8683   4.341   2.243  17.363  0.4163 -0.1393 -0.1621
  586TMC3    C2 8684   4.420   2.136  17.345  0.5750 -0.0609 -0.1386
  586TMC3    C3 8685   4.403   2.065  17.232 -0.1890  0.4085 -0.3542
  586TMC3    C4 8686   4.235   2.263  17.281 -0.1685 -0.5124 -0.5493
  586TMC3    C5 8687   4.213   2.175  17.174 -0.3774 -0.2787 -1.0623
  586TMC3    C6 8688   4.304   2.080  17.143  0.6655 -1.1257  0.5190
  586TMC3     C 8689   4.343   2.311  17.486 -0.1964 -0.4030  0.2970
  586TMC3     O 8690   4.353   2.432  17.482 -0.3569  0.5308  0.2347
  586TMC3     H 8691   4.502   2.104  17.409  2.1196 -0.9116 -2.5444
  586TMC3    H1 8692   4.161   2.341  17.298  0.6447 -0.3284  2.1565
  586TMC3    H2 8693   4.295   2.005  17.065  0.3809 -0.7794  0.2212
  586TMC3    C7 8694   4.077   2.127  17.143  0.8485 -0.0711 -0.8006
  586TMC3    C8 8695   4.482   1.939  17.228  1.0914  0.8624  0.3798
  586TMC3    O1 8696   4.057   2.013  17.108 -0.5276  0.1696  0.1390
  586TMC3    O2 8697   4.526   1.907  17.339 -0.4893  0.2169  0.4121
  587TMC3    C1 8698   1.720   0.954  16.153  0.5962  0.0844 -0.1353
  587TMC3    C2 8699   1.707   1.086  16.156 -0.0351  0.2637  0.2988
  587TMC3    C3 8700   1.812   1.155  16.106  0.1360  0.0459  0.3903
  587TMC3    C4 8701   1.824   0.880  16.098  0.7994 -0.1199  0.0285
  587TMC3    C5 8702   1.924   0.957  16.049 -0.3191  0.2618 -0.0701
  587TMC3    C6 8703   1.915   1.094  16.047 -0.1021  0.0108  0.5912
  587TMC3     C 8704   1.619   0.875  16.223  0.7308  0.1013  0.0584
  587TMC3     O 8705   1.613   0.758  16.195  0.1550 -0.2771 -0.2517
  587TMC3     H 8706   1.608   1.131  16.162 -1.0181 -1.9895  1.0782
  587TMC3    H1 8707   1.829   0.773  16.108 -1.3056 -0.1745  0.5016
  587TMC3    H2 8708   1.995   1.152  16.003 -0.6005  0.5012  0.3396
  587TMC3    C7 8709   2.010   0.885  15.957 -0.3039 -0.7079 -0.4147
  587TMC3    C8 8710   1.800   1.294  16.067 -0.0978 -0.4251  0.0992
  587TMC3    O1 8711   1.974   0.772  15.927 -0.1905 -0.5596  0.3896
  587TMC3    O2 8712   1.858   1.337  15.973 -0.2208  0.2734  0.1353
  588TMC3    C1 8713   3.827   3.951   9.822  0.1179  0.2333 -0.1903
  588TMC3    C2 8714   3.774   3.824   9.829 -0.1732  0.1975  0.5820
  588TMC3    C3 8715   3.850   3.736   9.903 -0.4621 -0.1817 -0.0140
  588TMC3    C4 8716   3.934   4.003   9.895  0.4926 -0.4101  0.3051
  588TMC3    C5 8717   3.978   3.909   9.988 -0.4687  0.8146 -0.1757
  588TMC3    C6 8718   3.957   3.779   9.983 -0.4281  0.2378  0.1102
  588TMC3     C 8719   3.774   4.043   9.726 -0.2633 -0.1666  0.3355
  588TMC3     O 8720   3.721   4.008   9.624  0.1663 -0.6042  0.0470
  588TMC3     H 8721   3.693   3.786   9.768  1.3822  0.6622 -1.7650
  588TMC3    H1 8722   3.982   4.098   9.874 -1.7932  0.2530 -1.9872
  588TMC3    H2 8723   4.004   3.717  10.058 -1.1323 -0.2696  0.1341
  588TMC3    C7 8724   4.063   3.963  10.094 -0.2892  0.0898 -0.5440
  588TMC3    C8 8725   3.805   3.598   9.912  1.2164  0.6482 -0.3771
  588TMC3    O1 8726   4.137   3.892  10.160 -0.6566 -0.2730 -0.3148
  588TMC3    O2 8727   3.700   3.577   9.856 -0.0265  0.2770  0.1265
  589TMC3    C1 8728   2.905   0.964   1.175  0.4404  0.5701 -0.3103
  589TMC3    C2 8729   2.943   0.889   1.282 -0.0005 -0.8157 -0.3762
  589TMC3    C3 8730   2.946   0.754   1.276  0.5546 -0.1194 -0.3862
  589TMC3    C4 8731   2.875   0.903   1.055 -0.1932 -0.3347  0.4495
  589TMC3    C5 8732   2.882   0.766   1.051 -0.3939  0.2157 -0.2594
  589TMC3    C6 8733   2.916   0.693   1.156 -0.4203 -0.4022  1.2887
  589TMC3     C 8734   2.858   1.106   1.190  0.4244  0.1180 -0.5395
  589TMC3     O 8735   2.863   1.182   1.095  0.2203  0.0427  0.1112
  589TMC3     H 8736   2.968   0.935   1.377 -1.0812  1.6867 -1.2927
  589TMC3    H1 8737   2.834   0.956   0.969 -0.8749 -0.6942  0.5576
  589TMC3    H2 8738   2.931   0.586   1.147  3.2101  0.1555  0.3051
  589TMC3    C7 8739   2.861   0.696   0.927 -0.1088  0.4332 -0.1066
  589TMC3    C8 8740   3.042   0.692   1.375 -0.4143 -0.2421  0.1939
  589TMC3    O1 8741   2.884   0.579   0.944  0.1426 -0.1005  0.1147
  589TMC3    O2 8742   3.024   0.730   1.490 -0.5091 -0.1204  0.4355
  590MPD2     C 8743   2.603   4.061  16.788 -0.3612  0.0802  0.6294
  590MPD2    C1 8744   2.564   4.159  16.702  0.0784  0.6072  0.2426
  590MPD2    C2 8745   2.653   4.260  16.665 -0.3789 -0.3019  0.0514
  590MPD2    C3 8746   2.785   4.248  16.700  0.5853 -0.9732  0.7884
  590MPD2    C4 8747   2.825   4.151  16.782 -0.5497  0.1444 -0.8360
  590MPD2    C5 8748   2.739   4.049  16.820 -0.4248  0.7345  0.6703
  590MPD2     H 8749   2.621   4.346  16.607  3.0642  1.1757  0.3483
  590MPD2    H1 8750   2.930   4.142  16.810 -0.9679  1.0110  1.0106
  590MPD2    H2 8751   2.532   3.987  16.825  1.2138 -2.8107 -2.1471
  590MPD2    H3 8752   2.771   3.968  16.883  2.3236  0.1340 -1.4914
  590MPD2     N 8753   2.871   4.345  16.642 -0.0823 -0.4854 -0.4370
  590MPD2    H5 8754   2.829   4.415  16.582 -1.4603  0.0605  1.1651
  590MPD2    N1 8755   2.426   4.158  16.666 -0.7194 -0.1913  0.2236
  590MPD2    H7 8756   2.367   4.087  16.707 -1.9894 -0.1498 -1.4964
  591TMC3    C1 8757   3.078   4.447  16.560  0.9962  0.6638  0.5790
  591TMC3    C2 8758   3.189   4.422  16.485  0.2211  0.2352 -0.1080
  591TMC3    C3 8759   3.235   4.522  16.403 -0.0721 -0.0996 -0.1501
  591TMC3    C4 8760   3.008   4.557  16.547 -0.0306 -0.5323 -1.1100
  591TMC3    C5 8761   3.053   4.661  16.470  0.0728  0.1013 -0.2536
  591TMC3    C6 8762   3.174   4.647  16.410  0.1057 -0.3438 -0.0846
  591TMC3     C 8763   3.015   4.338  16.640  0.6012  0.2242 -0.4023
  591TMC3     O 8764   3.088   4.243  16.668  0.1130 -0.8074 -0.2608
  591TMC3     H 8765   3.239   4.326  16.476  2.4545  1.4260 -0.3746
  591TMC3    H1 8766   2.929   4.576  16.620  0.9089 -0.5046 -0.1027
  591TMC3    H2 8767   3.217   0.020  16.373  0.7203 -0.8173 -0.5567
  591TMC3    C7 8768   2.951   0.028  16.416  0.2811  1.0795 -0.0897
  591TMC3    C8 8769   3.246   4.475  16.267 -0.6844  0.3723 -0.0772
  591TMC3    O1 8770   2.841   0.003  16.458 -0.3296  0.1720  0.1280
  591TMC3    O2 8771   3.225   4.352  16.259  0.1690 -0.1121  0.3568
  592MPD2     C 8772   2.931   2.197  10.969 -0.5051  0.1924 -0.5371
  592MPD2    C1 8773   2.994   2.197  11.089  0.4852  0.4603 -0.6251
  592MPD2    C2 8774   2.945   2.117  11.185  0.4052  0.2583  0.3694
  592MPD2    C3 8775   2.844   2.024  11.167 -0.0465 -0.0243 -0.7707
  592MPD2    C4 8776   2.792   2.009  11.039 -0.7310 -0.4621 -0.2510
  592MPD2    C5 8777   2.837   2.094  10.944 -0.6081 -0.2751 -0.1124
  592MPD2     H 8778   2.978   2.129  11.287 -1.4098 -0.7234  1.0635
  592MPD2    H1 8779   2.722   1.937  10.998 -2.0734 -0.3770  1.8845
  592MPD2    H2 8780   2.964   2.268  10.894 -0.1545  0.9494  0.3361
  592MPD2    H3 8781   2.798   2.080  10.844 -0.7171  1.0337 -0.2604
  592MPD2     N 8782   2.802   1.959  11.283 -0.3801  0.2529  0.1558
  592MPD2    H5 8783   2.839   1.990  11.372 -0.2133 -1.8144  0.8191
  592MPD2    N1 8784   3.095   2.292  11.106  0.2423  0.0447  0.7472
  592MPD2    H7 8785   3.120   2.352  11.028 -0.5758 -3.9724 -2.6100
  593TMC3    C1 8786   3.257   2.426  11.230  0.2258 -0.0122  0.3801
  593TMC3    C2 8787   3.287   2.503  11.348 -0.7058 -0.5108  0.4321
  593TMC3    C3 8788   3.375   2.604  11.343  0.6728  0.1684  0.1613
  593TMC3    C4 8789   3.323   2.453  11.111  0.0225  0.7692  0.0214
  593TMC3    C5 8790   3.408   2.562  11.113 -0.3561 -0.4060  0.9516
  593TMC3    C6 8791   3.445   2.635  11.227  0.5269  0.0302 -0.1189
  593TMC3     C 8792   3.155   2.319  11.229  0.1148  0.3185 -0.1400
  593TMC3     O 8793   3.128   2.277  11.342 -0.1109  0.3274  0.3130
  593TMC3     H 8794   3.233   2.498  11.442 -1.3819 -2.0126 -0.0418
  593TMC3    H1 8795   3.303   2.410  11.014  0.7708 -0.9802  0.6370
  593TMC3    H2 8796   3.515   2.718  11.229 -2.2926  2.4656 -4.0134
  593TMC3    C7 8797   3.483   2.605  10.995  0.0303  0.2959  0.3463
  593TMC3    C8 8798   3.354   2.704  11.439  0.1651 -0.2030 -0.1908
  593TMC3    O1 8799   3.579   2.683  11.014  1.0164  0.1791  0.4637
  593TMC3    O2 8800   3.241   2.734  11.467 -0.0938 -0.0944 -0.0728
  594MPD2     C 8801   1.761   0.498  14.101 -0.3185 -0.3054  0.2857
  594MPD2    C1 8802   1.740   0.480  14.236 -0.1127 -0.2155  0.8831
  594MPD2    C2 8803   1.821   0.552  14.315  0.3403 -0.8470  0.3748
  594MPD2    C3 8804   1.925   0.636  14.264  0.3894  0.4326  0.1693
  594MPD2    C4 8805   1.952   0.639  14.129  0.5231  0.0033  0.0661
  594MPD2    C5 8806   1.868   0.565  14.054 -0.0552  0.5554  0.1074
  594MPD2     H 8807   1.812   0.541  14.422 -0.9782  0.2655  0.3708
  594MPD2    H1 8808   2.028   0.694  14.075 -0.4762 -0.7084 -2.0692
  594MPD2    H2 8809   1.720   0.432  14.026  2.1596  0.0118 -1.3517
  594MPD2    H3 8810   1.887   0.560  13.947  2.8890 -0.5517  0.6933
  594MPD2     N 8811   1.997   0.704  14.359  0.1547  0.1459  0.1972
  594MPD2    H5 8812   1.969   0.708  14.456  1.0113  0.3675  0.4367
  594MPD2    N1 8813   1.642   0.382  14.279 -0.1586  0.6253 -0.0446
  594MPD2    H7 8814   1.584   0.336  14.210 -0.0213 -0.6321  0.6802
  595TMC3    C1 8815   2.335   0.936  14.562 -0.3462 -0.8938 -0.7811
  595TMC3    C2 8816   2.300   0.861  14.449 -0.3486  0.6712 -0.4742
  595TMC3    C3 8817   2.162   0.840  14.432  0.0833  0.4790  0.6176
  595TMC3    C4 8818   2.245   0.984  14.654  0.2033  0.3231  0.2539
  595TMC3    C5 8819   2.113   0.975  14.628 -0.1564  0.0067  0.7834
  595TMC3    C6 8820   2.072   0.912  14.512 -0.1359  0.6488  0.0817
  595TMC3     C 8821   2.466   0.988  14.570  0.5073  0.8225 -0.0251
  595TMC3     O 8822   2.498   1.051  14.672  0.4172 -0.1914  0.6789
  595TMC3     H 8823   2.372   0.805  14.390  0.7345  0.0973  1.4145
  595TMC3    H1 8824   2.277   1.048  14.735  2.0239  0.5740 -0.6486
  595TMC3    H2 8825   1.969   0.927  14.484 -0.0637 -1.2852 -1.1777
  595TMC3    C7 8826   2.035   1.087  14.670  0.5957  0.1740  0.8023
  595TMC3    C8 8827   2.110   0.776  14.319  0.3087 -0.9497  0.5626
  595TMC3    O1 8828   1.915   1.064  14.684 -0.3986 -0.2943  0.2744
  595TMC3    O2 8829   2.198   0.768  14.230  0.5119  0.7111  0.3986
  596MPD2     C 8830   0.875   3.192  16.743 -0.3107  0.3434  0.0417
  596MPD2    C1 8831   0.938   3.305  16.686 -0.0169 -0.1231 -0.3885
  596MPD2    C2 8832   0.959   3.304  16.549 -0.4592 -0.3430 -0.1518
  596MPD2    C3 8833   0.902   3.210  16.471 -0.5102 -0.6657  0.1791
  596MPD2    C4 8834   0.847   3.101  16.530 -0.1086 -0.3906  0.4781
  596MPD2    C5 8835   0.841   3.088  16.661  0.7007 -0.3888 -0.2379
  596MPD2     H 8836   1.017   3.385  16.506 -1.7856  0.3398 -0.6521
  596MPD2    H1 8837   0.803   3.033  16.457  0.5814  0.0468 -0.3347
  596MPD2    H2 8838   0.834   3.186  16.843 -0.9963 -1.6932 -0.3459
  596MPD2    H3 8839   0.784   3.006  16.703 -0.0296  0.3091  0.1130
  596MPD2     N 8840   0.894   3.224  16.333  0.3275  0.1404  0.4869
  596MPD2    H5 8841   0.862   3.145  16.278 -0.5477  1.1629 -0.4873
  596MPD2    N1 8842   0.978   3.423  16.762  0.3262 -0.2013 -0.0012
  596MPD2    H7 8843   1.010   3.502  16.706 -1.3766 -0.5553 -1.4493
  597TMC3    C1 8844   1.039   3.557  16.936  0.0897 -0.2432 -0.7250
  597TMC3    C2 8845   1.096   3.633  16.841 -0.2368 -0.8510  0.0131
  597TMC3    C3 8846   1.096   3.768  16.868  1.0745 -0.0984  0.4858
  597TMC3    C4 8847   0.975   3.612  17.048  0.2468  0.1402 -0.6164
  597TMC3    C5 8848   0.968   3.747  17.060 -0.0934 -0.2028 -0.0656
  597TMC3    C6 8849   1.031   3.828  16.971  0.2220  0.2007 -0.5873
  597TMC3     C 8850   0.988   3.431  16.895 -0.5767 -0.2455 -0.2168
  597TMC3     O 8851   0.950   3.355  16.984  0.6300  0.0548  1.1913
  597TMC3     H 8852   1.142   3.598  16.749 -0.1707  2.3207 -1.1328
  597TMC3    H1 8853   0.917   3.552  17.117 -1.2475 -0.6728 -2.5636
  597TMC3    H2 8854   1.037   3.935  16.985 -1.5026  0.0423  1.4225
  597TMC3    C7 8855   0.893   3.808  17.180  0.5690 -0.2651  0.9766
  597TMC3    C8 8856   1.178   3.852  16.774  0.0976 -0.7756  0.6806
  597TMC3    O1 8857   0.876   3.725  17.272 -0.4759  0.1737  0.0128
  597TMC3    O2 8858   1.278   3.811  16.720  0.1273 -0.2046  0.1399
  598TMC3    C1 8859   3.874   0.374  15.284  0.1497  0.2796  0.3129
  598TMC3    C2 8860   3.770   0.292  15.286 -0.9736  0.2992 -0.1385
  598TMC3    C3 8861   3.686   0.287  15.179 -0.0291 -0.4304  1.0195
  598TMC3    C4 8862   3.905   0.454  15.170 -0.1052 -0.1275 -0.0823
  598TMC3    C5 8863   3.820   0.436  15.061  0.2262  0.3849 -0.0342
  598TMC3    C6 8864   3.713   0.350  15.066 -0.2339  0.0337  0.2879
  598TMC3     C 8865   3.884   0.445  15.412  0.5845 -0.0347  0.1742
  598TMC3     O 8866   3.805   0.420  15.500 -0.5327 -0.3006  0.5900
  598TMC3     H 8867   3.754   0.233  15.375 -1.4109  0.0365 -0.3970
  598TMC3    H1 8868   3.973   0.537  15.185  1.1245 -0.9742 -1.0323
  598TMC3    H2 8869   3.631   0.367  14.998  0.2442 -0.2818 -0.3714
  598TMC3    C7 8870   3.824   0.523  14.942  0.4272 -0.4644 -0.6112
  598TMC3    C8 8871   3.579   0.193  15.173 -0.7599 -0.3998  0.6599
  598TMC3    O1 8872   3.739   0.504  14.859 -0.2383 -0.6409  0.1199
  598TMC3    O2 8873   3.545   0.180  15.058 -0.1704 -0.6983  0.2467
  599MPD2     C 8874   3.958   2.618  15.789  0.1171 -0.0501  1.1540
  599MPD2    C1 8875   3.916   2.490  15.818 -0.5256 -0.0933  0.2062
  599MPD2    C2 8876   3.807   2.479  15.896 -0.5857  0.3576 -0.2656
  599MPD2    C3 8877   3.739   2.591  15.944 -0.8786  0.2211  0.2521
  599MPD2    C4 8878   3.775   2.714  15.913  0.2234  0.7959 -0.2034
  599MPD2    C5 8879   3.891   2.728  15.837 -0.4236 -0.3659  0.3706
  599MPD2     H 8880   3.769   2.382  15.926  0.4234  0.3882  1.1196
  599MPD2    H1 8881   3.726   2.801  15.954  0.4113  0.0232  1.7009
  599MPD2    H2 8882   4.054   2.631  15.740 -0.1182 -1.1098  0.4091
  599MPD2    H3 8883   3.907   2.834  15.824 -1.4610 -0.0247  1.9365
  599MPD2     N 8884   3.621   2.588  16.034  0.8083 -0.3536 -0.3816
  599MPD2    H5 8885   3.588   2.675  16.073  0.7376 -0.5839  0.0745
  599MPD2    N1 8886   4.004   2.381  15.787 -0.4184  0.0031  0.1051
  599MPD2    H7 8887   4.092   2.399  15.740 -0.7363  0.4495 -0.3278
  600TMC3    C1 8888   3.446   2.490  16.157  0.2404 -0.3547  0.3784
  600TMC3    C2 8889   3.347   2.396  16.165 -0.4319  0.1258  0.3305
  600TMC3    C3 8890   3.269   2.395  16.274 -0.5050 -0.2805 -0.2020
  600TMC3    C4 8891   3.468   2.594  16.246  0.1968  0.2860  0.0010
  600TMC3    C5 8892   3.388   2.582  16.360 -0.1906  0.1751 -0.7247
  600TMC3    C6 8893   3.298   2.480  16.376  0.1263 -0.1277  0.0485
  600TMC3     C 8894   3.547   2.474  16.055 -0.2788 -0.1839  0.0663
  600TMC3     O 8895   3.556   2.366  16.002  0.7087  0.0591  0.1665
  600TMC3     H 8896   3.344   2.317  16.091  0.3674 -2.0045  2.5745
  600TMC3    H1 8897   3.552   2.663  16.248 -0.3186  0.9610 -1.9484
  600TMC3    H2 8898   3.246   2.454  16.467  1.1595 -0.1208  0.6442
  600TMC3    C7 8899   3.372   2.693  16.451 -0.3727 -0.8900  0.1628
  600TMC3    C8 8900   3.217   2.270  16.316 -0.4283 -0.2135  0.0893
  600TMC3    O1 8901   3.301   2.682  16.547  0.3149  0.6252  0.6380
  600TMC3    O2 8902   3.223   2.248  16.431 -0.5482  0.1148  0.1814
  601MPD2     C 8903   1.224   0.092  17.639  0.3961 -0.3364  0.0308
  601MPD2    C1 8904   1.092   0.064  17.633  0.2551  0.1343 -0.0337
  601MPD2    C2 8905   1.051   4.656  17.606  0.2394  0.0296  0.0493
  601MPD2    C3 8906   1.148   4.552  17.610  0.4617  0.4523  0.4688
  601MPD2    C4 8907   1.284   4.586  17.634 -0.7107  0.0571 -0.0163
  601MPD2    C5 8908   1.317   4.717  17.648 -0.5270  0.2052 -0.6968
  601MPD2     H 8909   0.945   4.648  17.585  0.0951  0.5440  0.5886
  601MPD2    H1 8910   1.358   4.508  17.645 -0.9915 -0.0520  1.1802
  601MPD2    H2 8911   1.258   0.194  17.650  0.8152 -0.2706 -1.9442
  601MPD2    H3 8912   1.419   0.026  17.670  0.2215 -3.9945  1.2515
  601MPD2     N 8913   1.120   4.415  17.583 -0.3441 -0.6549  0.1340
  601MPD2    H5 8914   1.201   4.355  17.593  1.4899  1.8754  0.3359
  601MPD2    N1 8915   0.995   0.165  17.641  0.3369  0.6128  0.5230
  601MPD2    H7 8916   0.900   0.130  17.632  0.2704  0.9627 -0.1661
  602TMC3    C1 8917   0.898   0.385   0.003  0.2329  0.2277 -0.1189
  602TMC3    C2 8918   0.913   0.510   0.051 -0.5968  0.0924  0.0004
  602TMC3    C3 8919   0.804   0.591   0.074  0.2332  0.0547 -0.3912
  602TMC3    C4 8920   0.781   0.348  17.621  0.5479  0.0062  0.2199
  602TMC3    C5 8921   0.679   0.437  17.634 -0.8138 -1.1110 -0.2179
  602TMC3    C6 8922   0.684   0.559   0.024 -0.0455  0.0250  0.1386
  602TMC3     C 8923   1.011   0.293  17.674 -0.1906  0.2988 -0.6090
  602TMC3     O 8924   1.112   0.329   0.057  0.4861 -0.4479  0.2056
  602TMC3     H 8925   1.009   0.554   0.074 -0.2865 -1.7809  2.3428
  602TMC3    H1 8926   0.768   0.253  17.570 -1.4153 -0.3432  1.3983
  602TMC3    H2 8927   0.593   0.615   0.041  0.4047  0.9524 -0.5516
  602TMC3    C7 8928   0.547   0.402  17.582  0.5416 -0.8942  0.2952
  602TMC3    C8 8929   0.838   0.726   0.085 -0.1784 -0.0627 -0.0324
  602TMC3    O1 8930   0.497   0.291  17.595 -0.1373  0.6519 -0.3304
  602TMC3    O2 8931   0.950   0.751   0.123 -0.9677  0.0477 -0.1507
  603TMC3    C1 8932   4.045   1.344  10.595 -0.1489  0.2543  0.8925
  603TMC3    C2 8933   4.062   1.314  10.726  0.2879  0.1954 -0.6275
  603TMC3    C3 8934   4.094   1.426  10.802  0.3653  0.3754  0.6462
  603TMC3    C4 8935   4.055   1.467  10.538  0.4448 -0.0218  0.8857
  603TMC3    C5 8936   4.104   1.565  10.610 -0.4318 -0.5033 -0.4177
  603TMC3    C6 8937   4.133   1.546  10.741 -0.2630 -0.6237  0.2597
  603TMC3     C 8938   3.963   1.249  10.523  0.2412 -0.4231  0.2570
  603TMC3     O 8939   3.869   1.292  10.456 -0.1081  0.0030 -0.0442
  603TMC3     H 8940   4.069   1.214  10.767  0.3150  0.5698  0.2772
  603TMC3    H1 8941   4.036   1.476  10.432  2.7701 -0.2502  0.4510
  603TMC3    H2 8942   4.154   1.635  10.799 -0.5820  0.0808 -0.6888
  603TMC3    C7 8943   4.086   1.705  10.555 -0.0805  0.0277  0.5527
  603TMC3    C8 8944   4.074   1.409  10.947 -0.1242  0.9663  0.0098
  603TMC3    O1 8945   4.138   1.795  10.621 -0.3048  0.6160 -0.0052
  603TMC3    O2 8946   4.047   1.295  10.981 -0.3603  0.2889 -0.3319
  604MPD2     C 8947   4.688   4.121  16.408 -0.4802 -0.0510 -0.1400
  604MPD2    C1 8948   4.631   4.242  16.377  0.2245  0.0190  0.6411
  604MPD2    C2 8949   4.665   4.306  16.263 -0.2012  0.4203 -0.6403
  604MPD2    C3 8950   0.041   4.256  16.177  0.1750 -0.5412  0.7825
  604MPD2    C4 8951   0.106   4.141  16.217 -0.1238  0.5005 -0.2614
  604MPD2    C5 8952   0.062   4.068  16.330 -0.0714 -0.1969  0.0916
  604MPD2     H 8953   4.624   4.401  16.231  0.8282  0.8772 -0.6005
  604MPD2    H1 8954   0.189   4.091  16.170 -1.8688 -1.0755 -1.6740
  604MPD2    H2 8955   4.646   4.057  16.485 -1.1688  0.7525  0.1483
  604MPD2    H3 8956   0.093   3.966  16.353  0.7114 -0.1355 -0.6612
  604MPD2     N 8957   0.079   4.315  16.060  0.0293  0.7129 -0.2244
  604MPD2    H5 8958   0.022   4.386  16.016 -2.6701 -0.9420  0.5768
  604MPD2    N1 8959   4.519   4.303  16.446  0.5324 -0.3361 -0.2731
  604MPD2    H7 8960   4.485   4.390  16.407  0.9811  0.0163  0.1225
  605TMC3    C1 8961   4.382   4.365  16.628  0.3074  0.6882 -0.0833
  605TMC3    C2 8962   4.459   4.453  16.705  0.2845 -0.8156 -0.7179
  605TMC3    C3 8963   4.413   4.580  16.734 -0.5263  0.2564 -0.3541
  605TMC3    C4 8964   4.277   4.410  16.557 -0.1891  0.6385  0.1751
  605TMC3    C5 8965   4.240   4.536  16.593 -0.2029  0.5589 -0.3474
  605TMC3    C6 8966   4.305   4.632  16.668 -0.6550  0.1710 -0.0037
  605TMC3     C 8967   4.458   4.258  16.560 -0.5297 -0.2132  0.6624
  605TMC3     O 8968   4.486   4.170  16.641  0.4736  0.0145 -0.0484
  605TMC3     H 8969   4.558   4.416  16.731  0.2612 -0.4960 -0.1887
  605TMC3    H1 8970   4.238   4.337  16.488 -0.1355  2.0224 -1.3196
  605TMC3    H2 8971   4.270   0.010  16.697  0.7971 -0.0413  2.4230
  605TMC3    C7 8972   4.126   4.594  16.523  0.3206  0.0210 -0.1603
  605TMC3    C8 8973   4.515   4.671  16.793 -0.5204 -1.2214  0.5510
  605TMC3    O1 8974   4.104   4.708  16.561 -0.6594 -0.2997 -0.1657
  605TMC3    O2 8975   4.609   4.620  16.852 -0.1163 -0.2571  0.2042
  606TMC3    C1 8976   1.824   3.317  17.118  0.2978  0.8744 -0.2852
  606TMC3    C2 8977   1.943   3.266  17.168 -1.0270 -0.0614  0.2493
  606TMC3    C3 8978   1.971   3.130  17.147 -0.0123 -0.2511  0.1080
  606TMC3    C4 8979   1.728   3.236  17.064  0.2667  0.1335 -0.1874
  606TMC3    C5 8980   1.751   3.103  17.073  0.6393  0.7113  0.0894
  606TMC3    C6 8981   1.869   3.042  17.110  1.0310  0.5027  0.2699
  606TMC3     C 8982   1.804   3.461  17.103  0.1680 -0.4671 -0.4249
  606TMC3     O 8983   1.695   3.488  17.054 -0.1190 -0.3884  0.7890
  606TMC3     H 8984   2.020   3.325  17.217 -0.0083 -0.6898 -0.6217
  606TMC3    H1 8985   1.628   3.267  17.034  0.8364  1.8558 -0.3238
  606TMC3    H2 8986   1.884   2.936  17.094 -0.3670 -0.1430  3.2174
  606TMC3    C7 8987   1.662   3.027  16.987  0.9308  0.5596 -0.6760
  606TMC3    C8 8988   2.056   3.074  17.252  0.9537  0.5667 -0.1559
  606TMC3    O1 8989   1.598   3.083  16.896  0.1083  0.4233 -0.5003
  606TMC3    O2 8990   2.153   3.134  17.291 -0.3379 -0.0357 -0.0264
  607MPD2     C 8991   3.001   1.611  11.544  0.7135 -0.2389 -0.4533
  607MPD2    C1 8992   3.053   1.679  11.656  0.0962  0.4512  0.7057
  607MPD2    C2 8993   3.055   1.623  11.782  0.6155 -0.5785  0.4127
  607MPD2    C3 8994   2.999   1.496  11.797 -0.2099  0.1331 -0.6965
  607MPD2    C4 8995   2.943   1.429  11.688 -0.6348  0.9438 -0.4242
  607MPD2    C5 8996   2.953   1.485  11.563 -0.5897 -0.0125 -0.6423
  607MPD2     H 8997   3.101   1.668  11.869 -0.2927  0.3969  0.3859
  607MPD2    H1 8998   2.898   1.331  11.676  1.1055  0.1953 -0.8668
  607MPD2    H2 8999   3.000   1.655  11.445  0.9482 -2.6628 -1.5310
  607MPD2    H3 9000   2.922   1.432  11.473  0.6510 -0.4608 -0.8058
  607MPD2     N 9001   3.002   1.441  11.924  0.5575  0.1435 -0.1563
  607MPD2    H5 9002   3.042   1.507  11.989 -3.3466  2.0249  0.3664
  607MPD2    N1 9003   3.124   1.802  11.649  0.7109  0.0686 -0.2684
  607MPD2    H7 9004   3.156   1.831  11.741 -0.2719 -1.5813  0.6066
  608TMC3    C1 9005   3.243   1.987  11.573 -0.5204 -0.4290  0.3322
  608TMC3    C2 9006   3.254   2.017  11.701  0.0805  0.0224 -0.0808
  608TMC3    C3 9007   3.348   2.111  11.745 -0.2010  0.1980 -0.3523
  608TMC3    C4 9008   3.332   2.034  11.481 -0.3813 -0.4179  0.5295
  608TMC3    C5 9009   3.434   2.114  11.526  0.3593  0.7376 -0.1053
  608TMC3    C6 9010   3.440   2.159  11.655 -0.6012 -0.3604 -0.7163
  608TMC3     C 9011   3.164   1.867  11.538 -0.1136 -0.1215 -0.2085
  608TMC3     O 9012   3.161   1.825  11.422  0.5430 -0.4002 -0.1692
  608TMC3     H 9013   3.168   2.000  11.764  0.6967 -2.2307  0.1639
  608TMC3    H1 9014   3.320   2.002  11.378 -0.1673  0.4986  0.2205
  608TMC3    H2 9015   3.524   2.220  11.684 -1.5503 -0.2480  1.7261
  608TMC3    C7 9016   3.521   2.160  11.424  0.5227  0.1884  0.4140
  608TMC3    C8 9017   3.390   2.122  11.888 -0.6837  0.9497 -0.1438
  608TMC3    O1 9018   3.542   2.100  11.321 -0.2789  0.2211 -0.2804
  608TMC3    O2 9019   3.466   2.208  11.927 -0.6780  0.2473 -0.6402
  609TMC3    C1 9020   2.080   0.062   9.398 -0.0957  0.0240 -0.2515
  609TMC3    C2 9021   2.097   0.042   9.263 -0.6955  0.3305  0.2907
  609TMC3    C3 9022   2.197   4.677   9.224 -0.1804  0.3751 -0.4352
  609TMC3    C4 9023   2.144   4.707   9.488  0.1018  0.8669 -0.3373
  609TMC3    C5 9024   2.254   4.634   9.453  0.5247 -0.4089  0.5205
  609TMC3    C6 9025   2.275   4.608   9.322  0.0990 -0.0916  0.4977
  609TMC3     C 9026   1.966   0.151   9.433 -0.1948  0.1128 -0.1856
  609TMC3     O 9027   1.883   0.159   9.347 -0.9189 -0.2912  0.0808
  609TMC3     H 9028   2.041   0.090   9.183 -0.3183  1.4496  0.7005
  609TMC3    H1 9029   2.121   4.715   9.594  3.7824 -0.3886  0.5600
  609TMC3    H2 9030   2.349   4.532   9.298  0.5513  0.1784  1.0324
  609TMC3    C7 9031   2.289   4.540   9.550 -0.3992 -0.0989 -0.1882
  609TMC3    C8 9032   2.228   4.675   9.080  0.4787 -0.1368 -0.1436
  609TMC3    O1 9033   2.329   4.586   9.656 -0.3986 -0.2808 -0.1513
  609TMC3    O2 9034   2.170   0.034   9.007  0.3878 -0.3493  0.6787
  610TMC3    C1 9035   3.569   1.215  12.639  0.1534 -0.2877  0.1386
  610TMC3    C2 9036   3.632   1.224  12.516  0.5080  1.1449 -0.2632
  610TMC3    C3 9037   3.766   1.194  12.514 -0.0828  0.3975  0.2109
  610TMC3    C4 9038   3.632   1.187  12.754  0.4788  0.1156 -0.4170
  610TMC3    C5 9039   3.770   1.175  12.751  0.4894  0.4090 -0.5491
  610TMC3    C6 9040   3.837   1.173  12.632 -0.6152 -0.1707  0.1385
  610TMC3     C 9041   3.439   1.286  12.644 -0.6495 -0.2653 -0.1156
  610TMC3     O 9042   3.419   1.369  12.559 -0.0677  0.3445  0.1463
  610TMC3     H 9043   3.571   1.236  12.427  0.1378  0.0967 -0.1454
  610TMC3    H1 9044   3.571   1.195  12.843 -0.8876 -2.7290 -1.1199
  610TMC3    H2 9045   3.946   1.178  12.628 -0.5860 -0.8253  0.1075
  610TMC3    C7 9046   3.855   1.140  12.864  0.0402  0.5382 -0.3737
  610TMC3    C8 9047   3.839   1.227  12.396  0.4272 -0.3277 -0.0448
  610TMC3    O1 9048   3.971   1.161  12.837  0.6792 -0.5411  0.5715
  610TMC3    O2 9049   3.953   1.178  12.393 -0.3015 -0.1159 -0.3705
  611MPD2     C 9050   3.142   1.287  10.229  0.1046 -0.9183 -0.3754
  611MPD2    C1 9051   3.055   1.379  10.174  0.1409 -0.4672 -0.0558
  611MPD2    C2 9052   3.114   1.493  10.114  0.2752 -0.2988 -0.6440
  611MPD2    C3 9053   3.249   1.506  10.095 -0.0137 -0.8224  0.0558
  611MPD2    C4 9054   3.329   1.405  10.150  0.8232 -0.2841  1.0728
  611MPD2    C5 9055   3.278   1.298  10.219  0.3149  0.1356  0.3246
  611MPD2     H 9056   3.056   1.580  10.085  1.4814  0.6550 -0.1362
  611MPD2    H1 9057   3.436   1.419  10.142  0.7662 -0.4668 -0.0193
  611MPD2    H2 9058   3.099   1.204  10.283  1.0563 -0.6840  0.7498
  611MPD2    H3 9059   3.341   1.222  10.266 -2.3889 -1.2307  1.7638
  611MPD2     N 9060   3.314   1.617  10.038 -0.2485 -0.4025  0.0306
  611MPD2    H5 9061   3.414   1.607  10.050 -0.0030  1.2406 -0.6927
  611MPD2    N1 9062   2.921   1.379  10.209  0.3569  0.0659 -0.3762
  611MPD2    H7 9063   2.894   1.304  10.272 -0.6124 -1.9873 -3.2323
  612TMC3    C1 9064   3.338   1.827   9.933 -0.2265 -0.2713 -0.2863
  612TMC3    C2 9065   3.445   1.864  10.013  1.1354  0.6817 -0.0382
  612TMC3    C3 9066   3.512   1.979   9.984 -0.5073  0.2092 -0.1199
  612TMC3    C4 9067   3.290   1.916   9.837 -0.5562 -0.4014  0.8262
  612TMC3    C5 9068   3.365   2.029   9.816  0.0512  0.2577  0.1256
  612TMC3    C6 9069   3.465   2.073   9.898 -0.5305 -0.3801  0.0672
  612TMC3     C 9070   3.250   1.717   9.965 -0.3865  0.2962  0.3132
  612TMC3     O 9071   3.131   1.736   9.942  0.1895  0.1572  0.0509
  612TMC3     H 9072   3.451   1.811  10.108  2.6663 -0.2044 -0.6206
  612TMC3    H1 9073   3.201   1.891   9.780 -0.3533 -1.4635  0.9860
  612TMC3    H2 9074   3.516   2.166   9.877  2.9243 -2.1471  0.4457
  612TMC3    C7 9075   3.307   2.115   9.710 -0.2163 -0.1889 -0.1578
  612TMC3    C8 9076   3.626   2.019  10.064  0.2561 -0.1398  0.5008
  612TMC3    O1 9077   3.242   2.069   9.622  0.6315  0.4274 -0.5023
  612TMC3    O2 9078   3.646   2.139  10.066 -0.7828 -0.5259  0.0416
  613MPD2     C 9079   2.478   3.360  16.633  0.6251  0.5926  0.1462
  613MPD2    C1 9080   2.398   3.401  16.527  0.9539  1.3006  0.9506
  613MPD2    C2 9081   2.302   3.312  16.476  0.0533 -0.9292 -0.5005
  613MPD2    C3 9082   2.279   3.196  16.540  0.5530 -0.3900  0.5506
  613MPD2    C4 9083   2.356   3.157  16.647  0.0608 -0.0110 -0.2578
  613MPD2    C5 9084   2.452   3.242  16.698  0.3055  0.0425 -0.2163
  613MPD2     H 9085   2.257   3.335  16.381  1.0841  0.8659 -0.5634
  613MPD2    H1 9086   2.324   3.071  16.704 -1.6948 -0.3294 -1.7147
  613MPD2    H2 9087   2.564   3.421  16.657  1.7476 -0.7551 -0.5420
  613MPD2    H3 9088   2.510   3.201  16.780  0.2266  2.6626  1.1612
  613MPD2     N 9089   2.196   3.098  16.482  0.0354 -0.4236 -0.1613
  613MPD2    H5 9090   2.212   3.000  16.502  2.1563 -0.4045 -1.7992
  613MPD2    N1 9091   2.425   3.519  16.461  0.2210 -0.4296  0.0154
  613MPD2    H7 9092   2.504   3.578  16.485  1.3740 -1.9625  0.0287
  614TMC3    C1 9093   2.452   3.652  16.266  0.4827  0.6617 -0.5262
  614TMC3    C2 9094   2.581   3.614  16.253 -0.7947 -0.0337  0.2146
  614TMC3    C3 9095   2.642   3.598  16.127 -0.2088  0.2807  0.3364
  614TMC3    C4 9096   2.392   3.704  16.157  0.9445 -0.4633 -0.5297
  614TMC3    C5 9097   2.461   3.708  16.036 -0.2310  0.5908 -0.6007
  614TMC3    C6 9098   2.592   3.660  16.024  0.4161  0.3300 -0.4296
  614TMC3     C 9099   2.362   3.570  16.349 -0.6704 -0.4618 -0.4837
  614TMC3     O 9100   2.258   3.527  16.296 -0.5717  0.3087 -0.0100
  614TMC3     H 9101   2.626   3.567  16.340  0.5645 -2.3375 -1.7150
  614TMC3    H1 9102   2.285   3.719  16.164  1.3392  1.3382  1.5139
  614TMC3    H2 9103   2.646   3.650  15.930  0.8259  0.1651 -0.1736
  614TMC3    C7 9104   2.385   3.717  15.910 -0.5744 -0.0158  0.0953
  614TMC3    C8 9105   2.655   3.457  16.104 -0.0692  0.3691 -0.2357
  614TMC3    O1 9106   2.428   3.660  15.813  0.0114  0.1587 -0.0918
  614TMC3    O2 9107   2.634   3.378  16.194 -0.0569 -0.7707  0.3329
  615MPD2     C 9108   1.356   4.668  16.404 -0.5894  0.1151 -0.4403
  615MPD2    C1 9109   1.428   4.719  16.299 -0.0284  0.3340 -0.5277
  615MPD2    C2 9110   1.363   0.022  16.179 -0.0283 -0.2538  0.3487
  615MPD2    C3 9111   1.233   4.689  16.161  0.6069  0.2291  0.0333
  615MPD2    C4 9112   1.167   4.623  16.263  0.5632  0.6189 -0.1964
  615MPD2    C5 9113   1.223   4.621  16.387 -0.3736 -0.6233  0.5385
  615MPD2     H 9114   1.411   0.071  16.096 -0.4653 -0.1001  0.1873
  615MPD2    H1 9115   1.064   4.590  16.256  0.0771  1.8362  0.9516
  615MPD2    H2 9116   1.394   4.662  16.506 -1.6719  0.6736 -0.0137
  615MPD2    H3 9117   1.174   4.579  16.474 -2.1657 -0.1406 -0.2373
  615MPD2     N 9118   1.191   4.705  16.030  0.4394 -0.3980 -0.1107
  615MPD2    H5 9119   1.264   0.018  15.967  0.3499 -0.8348 -0.4355
  615MPD2    N1 9120   1.571   0.015  16.307 -0.5951 -1.1295 -0.2300
  615MPD2    H7 9121   1.619   0.069  16.235 -0.3439  0.4902  1.1356
  616TMC3    C1 9122   1.788   4.675  16.385 -0.3174 -0.5441  0.2063
  616TMC3    C2 9123   1.842   0.011  16.272 -0.3316  0.3823 -0.0767
  616TMC3    C3 9124   1.978   0.007  16.254  0.7024 -1.2529  0.0612
  616TMC3    C4 9125   1.865   4.616  16.483  0.2734 -0.2416  0.0130
  616TMC3    C5 9126   2.005   4.621  16.468 -0.0818  0.1014 -0.5982
  616TMC3    C6 9127   2.059   4.670  16.356  0.5746 -0.3694 -0.3198
  616TMC3     C 9128   1.648   4.683  16.411 -0.2706  0.5944 -0.1349
  616TMC3     O 9129   1.622   4.646  16.524  0.0880  0.2256 -0.1647
  616TMC3     H 9130   1.784   0.040  16.185 -1.0673  0.5039  0.4545
  616TMC3    H1 9131   1.830   4.586  16.581 -2.6828 -0.2399 -1.0283
  616TMC3    H2 9132   2.167   4.669  16.357  0.5726 -0.4669 -0.2218
  616TMC3    C7 9133   2.092   4.597  16.579 -0.1212  0.0584 -0.7252
  616TMC3    C8 9134   2.030   0.105  16.166  0.1621 -0.5868  0.7369
  616TMC3    O1 9135   2.209   4.576  16.552  0.2051  0.2280  0.1222
  616TMC3    O2 9136   1.957   0.154  16.082  0.4055 -0.2940 -0.0859
  617MPD2     C 9137   4.472   3.342  13.649 -1.7552 -0.0544 -0.2677
  617MPD2    C1 9138   4.430   3.241  13.727  0.0226 -0.6302 -0.3866
  617MPD2    C2 9139   4.298   3.198  13.712 -0.2115  0.4288 -0.5063
  617MPD2    C3 9140   4.215   3.254  13.619 -0.2604  0.7238  0.2700
  617MPD2    C4 9141   4.262   3.353  13.533  0.7252  0.3461  0.1742
  617MPD2    C5 9142   4.394   3.389  13.546 -0.9659 -0.0994 -0.2761
  617MPD2     H 9143   4.263   3.111  13.765  0.3436  0.8859  0.6045
  617MPD2    H1 9144   4.207   3.382  13.444 -1.5499 -0.9414  1.1729
  617MPD2    H2 9145   4.572   3.383  13.646 -2.2983  1.3785  1.3960
  617MPD2    H3 9146   4.436   3.458  13.474  0.5238  0.9128  1.5670
  617MPD2     N 9147   4.092   3.191  13.609  0.1351 -0.6931 -0.3135
  617MPD2    H5 9148   4.069   3.130  13.687 -0.3141  0.7662  0.6994
  617MPD2    N1 9149   4.523   3.179  13.822 -0.2775 -0.1889  0.0716
  617MPD2    H7 9150   4.616   3.220  13.834  0.6894 -2.4553  0.2526
  618TMC3    C1 9151   4.618   3.013  13.953  0.0974 -0.0770  0.1877
  618TMC3    C2 9152   4.693   2.933  13.869 -0.3889  0.4721 -0.3365
  618TMC3    C3 9153   0.109   2.922  13.878  0.0037  0.3215 -0.0640
  618TMC3    C4 9154   4.686   3.099  14.037  0.2816 -0.2411  0.0748
  618TMC3    C5 9155   0.100   3.089  14.051  0.2313 -0.3314 -0.0268
  618TMC3    C6 9156   0.172   2.996  13.973  0.1165 -0.6495 -0.1830
  618TMC3     C 9157   4.496   3.061  13.884  0.0283 -0.6110 -0.3222
  618TMC3     O 9158   4.410   2.978  13.868  0.4423 -0.3044 -0.3097
  618TMC3     H 9159   4.647   2.880  13.786 -0.1664 -0.8084  0.3555
  618TMC3    H1 9160   4.624   3.171  14.090 -0.8795 -0.3850 -1.0657
  618TMC3    H2 9161   0.277   2.977  13.992 -0.2966 -1.9946  0.6729
  618TMC3    C7 9162   0.168   3.151  14.165 -0.3722  0.5730 -0.4233
  618TMC3    C8 9163   0.187   2.899  13.753 -0.7352  0.3759  0.2265
  618TMC3    O1 9164   0.106   3.170  14.265 -0.0842 -0.1202 -0.3074
  618TMC3    O2 9165   0.121   2.873  13.650  0.3265 -0.3616 -0.0437
  619MPD2     C 9166   1.265   4.647  13.125 -0.1376  0.4573  0.4358
  619MPD2    C1 9167   1.173   0.032  13.123  0.1403 -0.6059  0.5416
  619MPD2    C2 9168   1.040   0.011  13.138  0.6739  0.2274 -0.6119
  619MPD2    C3 9169   0.997   4.614  13.195  0.4086  0.2358 -0.3908
  619MPD2    C4 9170   1.093   4.509  13.218 -0.0899  0.1378  0.1873
  619MPD2    C5 9171   1.217   4.531  13.170 -0.1094 -0.1680  0.4976
  619MPD2     H 9172   0.973   0.092  13.110  1.4181  0.5832 -1.3730
  619MPD2    H1 9173   1.069   4.410  13.255  0.2958 -0.3953 -0.9630
  619MPD2    H2 9174   1.373   4.653  13.114 -0.0602 -0.0313  0.9220
  619MPD2    H3 9175   1.288   4.449  13.176 -1.5732 -1.3754  1.3227
  619MPD2     N 9176   0.864   4.586  13.238 -0.0487 -0.3034  0.0043
  619MPD2    H5 9177   0.844   4.502  13.290  0.5513 -0.8335 -0.6195
  619MPD2    N1 9178   1.212   0.168  13.107 -0.1933 -0.0554 -0.4052
  619MPD2    H7 9179   1.139   0.237  13.120 -0.9934 -1.1325  0.8244
  620TMC3    C1 9180   1.346   0.357  13.111  0.0087  0.7070 -0.3480
  620TMC3    C2 9181   1.298   0.436  13.010  0.6017  0.1693 -1.0378
  620TMC3    C3 9182   1.257   0.564  13.048 -0.0109 -0.1578  0.3678
  620TMC3    C4 9183   1.357   0.409  13.237 -0.2957  0.4422  1.2934
  620TMC3    C5 9184   1.329   0.539  13.268  0.0121  0.3029  0.2532
  620TMC3    C6 9185   1.285   0.617  13.171  0.6142  0.5290 -0.0847
  620TMC3     C 9186   1.341   0.215  13.085  0.5763 -0.1698  0.2333
  620TMC3     O 9187   1.437   0.153  13.051  0.4450  0.2230  0.4220
  620TMC3     H 9188   1.273   0.385  12.918  1.7466  1.7907 -2.2431
  620TMC3    H1 9189   1.394   0.350  13.320 -0.2687 -1.5829 -0.1608
  620TMC3    H2 9190   1.243   0.716  13.185  1.5236  0.7915  0.7103
  620TMC3    C7 9191   1.248   0.554  13.386 -1.1840 -0.8546  0.7781
  620TMC3    C8 9192   1.125   0.593  12.995 -0.1727 -0.2453 -0.7331
  620TMC3    O1 9193   1.148   0.612  13.353 -0.3996 -0.7279  0.5463
  620TMC3    O2 9194   1.097   0.545  12.888 -0.1972 -0.1789 -0.0353
  621MPD2     C 9195   1.033   0.141  10.066 -0.1160 -0.3157  0.1421
  621MPD2    C1 9196   1.161   0.082  10.065  0.5246  0.3117 -0.1738
  621MPD2    C2 9197   1.267   0.148  10.009 -0.4703  0.1933 -0.1210
  621MPD2    C3 9198   1.244   0.277   9.970 -0.9038 -0.4033  0.5345
  621MPD2    C4 9199   1.120   0.329   9.952 -0.8546  0.1490  0.0444
  621MPD2    C5 9200   1.011   0.262  10.004  0.1343  0.3137 -0.0911
  621MPD2     H 9201   1.365   0.101  10.007 -0.7281 -0.3330 -0.3700
  621MPD2    H1 9202   1.094   0.424   9.908  0.3800 -0.4666 -1.9544
  621MPD2    H2 9203   0.942   0.098  10.108  1.7278 -2.1079  2.3055
  621MPD2    H3 9204   0.912   0.306  10.004 -0.6629 -1.4817  1.7091
  621MPD2     N 9205   1.357   0.350   9.943  0.5605 -0.2287  0.5290
  621MPD2    H5 9206   1.449   0.308   9.945  1.0546  0.6942 -2.3741
  621MPD2    N1 9207   1.189   4.672  10.108  0.3813  0.7127  0.2437
  621MPD2    H7 9208   1.285   4.641  10.098  0.1836 -0.3728  1.6475
  622TMC3    C1 9209   1.182   4.468  10.215  0.2735 -0.3293 -0.3335
  622TMC3    C2 9210   1.127   4.419  10.328  0.6822  0.6949  0.5277
  622TMC3    C3 9211   1.132   4.284  10.348 -0.5756  0.3967 -0.0095
  622TMC3    C4 9212   1.224   4.381  10.117  0.3555  0.1483  0.2042
  622TMC3    C5 9213   1.228   4.246  10.132  0.4213 -0.0249  0.2457
  622TMC3    C6 9214   1.183   4.194  10.251 -0.1619 -0.6143 -0.0535
  622TMC3     C 9215   1.107   4.590  10.177  0.3427  0.1757 -0.6190
  622TMC3     O 9216   1.002   4.607  10.237  1.1017 -0.1909  0.0343
  622TMC3     H 9217   1.108   4.498  10.400 -3.4731  1.0917 -0.9960
  622TMC3    H1 9218   1.258   4.428  10.024  3.0007 -0.0097  1.0800
  622TMC3    H2 9219   1.170   4.087  10.256 -0.6317 -0.5938 -0.7654
  622TMC3    C7 9220   1.225   4.155  10.016 -0.4617  0.2681 -0.1888
  622TMC3    C8 9221   1.003   4.252  10.406 -0.0167  0.1494  0.1538
  622TMC3    O1 9222   1.252   4.041  10.044 -0.1225 -0.8027  0.6435
  622TMC3    O2 9223   0.981   4.136  10.441  0.4982 -0.0110  1.0501
  623MPD2     C 9224   0.107   4.691  16.133 -0.1657 -0.3107  0.5916
  623MPD2    C1 9225   0.047   4.712  16.248 -0.1130  0.8466 -0.1622
  623MPD2    C2 9226   0.120   4.705  16.360  0.2291 -0.0118  0.8057
  623MPD2    C3 9227   0.245   4.662  16.358 -0.4196 -0.3854 -0.2779
  623MPD2    C4 9228   0.312   4.624  16.239 -0.0458  0.0214 -0.2170
  623MPD2    C5 9229   0.241   4.646  16.125  0.6677  0.5552  0.0946
  623MPD2     H 9230   0.078   0.013  16.457  1.0359  1.4692  0.7333
  623MPD2    H1 9231   0.417   4.606  16.220  0.5473  0.3536  2.7596
  623MPD2    H2 9232   0.062   4.716  16.038 -0.9217  0.1667  1.0705
  623MPD2    H3 9233   0.284   4.622  16.029 -1.2725 -0.9275 -0.4078
  623MPD2     N 9234   0.310   4.674  16.485 -0.2211 -0.7193 -0.4023
  623MPD2    H5 9235   0.258   4.699  16.568 -2.4472 -2.8622 -1.1249
  623MPD2    N1 9236   4.627   0.025  16.257 -0.3245 -0.3594  0.0810
  623MPD2    H7 9237   4.581   0.047  16.170 -0.5804  0.6440  0.4782
  624TMC3    C1 9238   0.559   4.687  16.837 -0.1285  0.1289 -0.4495
  624TMC3    C2 9239   0.468   0.053  16.902 -0.0042 -0.7015  0.8203
  624TMC3    C3 9240   0.374   0.111  16.828 -0.1596 -0.2009 -0.4570
  624TMC3    C4 9241   0.569   4.683  16.703 -0.4772  0.5932 -0.1450
  624TMC3    C5 9242   0.475   0.035  16.631 -0.5628 -0.3741  0.4018
  624TMC3    C6 9243   0.374   0.106  16.687 -0.1456 -0.2272  0.2831
  624TMC3     C 9244   0.650   4.619  16.925 -0.0531 -0.6828 -0.4909
  624TMC3     O 9245   0.679   4.678  17.031 -0.4125 -0.2375  0.1728
  624TMC3     H 9246   0.461   0.043  17.009  0.0311  0.4842  0.9410
  624TMC3    H1 9247   0.643   4.619  16.656 -1.6515 -1.0025  0.1746
  624TMC3    H2 9248   0.311   0.173  16.629 -0.4216  0.4709  1.3764
  624TMC3    C7 9249   0.447   4.689  16.503  0.7035 -0.5470 -0.3133
  624TMC3    C8 9250   0.262   0.159  16.891  0.0478  0.4436 -0.2842
  624TMC3    O1 9251   0.549   4.668  16.438 -0.5521 -0.1328  0.1582
  624TMC3    O2 9252   0.231   0.100  16.996  0.3434  0.0688 -0.8421
  625MPD2     C 9253   0.858   1.140   0.834 -0.6125  0.2426 -0.8382
  625MPD2    C1 9254   0.920   1.249   0.773  0.0279 -0.0681  0.3775
  625MPD2    C2 9255   1.053   1.251   0.769 -0.1747  0.2560  0.2251
  625MPD2    C3 9256   1.128   1.146   0.812 -0.2313  0.7389 -0.4715
  625MPD2    C4 9257   1.066   1.028   0.862  0.1767  0.0301  0.2050
  625MPD2    C5 9258   0.928   1.030   0.874 -0.1685 -0.1855 -0.3055
  625MPD2     H 9259   1.113   1.329   0.724  0.9175 -0.6958  0.0536
  625MPD2    H1 9260   1.115   0.937   0.894  0.2161 -0.8137 -2.2376
  625MPD2    H2 9261   0.750   1.134   0.840 -0.6978  1.1155 -1.4553
  625MPD2    H3 9262   0.889   0.944   0.926 -2.4527  1.1418  0.1780
  625MPD2     N 9263   1.268   1.159   0.792  0.2010  0.4526 -0.4158
  625MPD2    H5 9264   1.296   1.238   0.735  0.0712 -0.2420 -1.4374
  625MPD2    N1 9265   0.851   1.353   0.709  0.6267  0.7649  0.8730
  625MPD2    H7 9266   0.906   1.427   0.667  1.3441  0.3783  1.1329
  626TMC3    C1 9267   0.671   1.480   0.640 -0.1084 -0.1531 -0.2903
  626TMC3    C2 9268   0.594   1.475   0.524 -0.4868 -0.2218  0.1388
  626TMC3    C3 9269   0.531   1.594   0.501  0.1993  0.9365 -0.4644
  626TMC3    C4 9270   0.667   1.588   0.724 -0.8646  0.2005  0.8615
  626TMC3    C5 9271   0.604   1.703   0.691 -0.4782  0.4591 -0.2155
  626TMC3    C6 9272   0.530   1.703   0.576 -0.0958 -0.6840  0.1237
  626TMC3     C 9273   0.716   1.355   0.680 -0.2419 -0.1413  0.0727
  626TMC3     O 9274   0.639   1.261   0.666 -0.7554 -0.4644  0.2143
  626TMC3     H 9275   0.596   1.393   0.453  0.6382 -0.7354  0.7658
  626TMC3    H1 9276   0.714   1.579   0.822  0.6993 -0.0397  0.0918
  626TMC3    H2 9277   0.488   1.796   0.539 -0.1351 -0.4394  0.7726
  626TMC3    C7 9278   0.555   1.768   0.814  0.9645  0.4252 -0.7523
  626TMC3    C8 9279   0.490   1.612   0.362 -0.3814  0.0367  0.7490
  626TMC3    O1 9280   0.617   1.750   0.917 -0.0535  0.5092 -0.2428
  626TMC3    O2 9281   0.531   1.708   0.301  0.2521  0.0797  0.5802
  627MPD2     C 9282   3.641   2.102  14.247 -0.5141 -0.6846 -0.4685
  627MPD2    C1 9283   3.712   2.097  14.362  0.6070  0.2050  0.8729
  627MPD2    C2 9284   3.704   1.985  14.445  0.0091 -0.9805 -0.2862
  627MPD2    C3 9285   3.615   1.882  14.415  0.2687  0.1296 -0.1686
  627MPD2    C4 9286   3.542   1.893  14.301  0.4999 -0.2723  0.2943
  627MPD2    C5 9287   3.569   1.994  14.210 -0.5683  0.0271  0.0219
  627MPD2     H 9288   3.759   1.992  14.539 -1.2890  0.4635  0.3766
  627MPD2    H1 9289   3.466   1.822  14.270 -0.6704  1.2641 -0.2945
  627MPD2    H2 9290   3.634   2.189  14.183  1.6636  0.7438  1.2006
  627MPD2    H3 9291   3.512   2.001  14.118 -0.9102  0.6622  0.2755
  627MPD2     N 9292   3.609   1.779  14.514 -0.4832  0.0734  0.0163
  627MPD2    H5 9293   3.681   1.778  14.585  1.8989  0.0544 -2.3770
  627MPD2    N1 9294   3.802   2.196  14.403 -0.0248 -0.1728  0.4289
  627MPD2    H7 9295   3.857   2.183  14.488 -0.6335 -1.3264  0.6433
  628TMC3    C1 9296   3.903   2.408  14.403 -0.1419  1.0761  0.0374
  628TMC3    C2 9297   4.030   2.363  14.436  1.4173  0.1194 -0.2269
  628TMC3    C3 9298   4.125   2.458  14.454  0.4361 -0.0189 -0.0551
  628TMC3    C4 9299   3.873   2.548  14.394  0.2427 -0.6041  0.3485
  628TMC3    C5 9300   3.975   2.633  14.413  0.5238  0.2561  0.7340
  628TMC3    C6 9301   4.103   2.588  14.426 -0.0783 -0.4551 -0.2493
  628TMC3     C 9302   3.792   2.325  14.355  0.2944  0.2461 -0.1833
  628TMC3     O 9303   3.727   2.374  14.261  0.7558  0.3709  0.0450
  628TMC3     H 9304   4.049   2.257  14.426 -1.9927 -0.5065  0.0105
  628TMC3    H1 9305   3.772   2.581  14.376  0.1087 -2.1299 -1.6773
  628TMC3    H2 9306   4.172   2.666  14.453 -0.2691 -0.4504  0.2286
  628TMC3    C7 9307   3.955   2.777  14.381  0.0680  0.3806  0.8875
  628TMC3    C8 9308   4.241   2.431  14.531 -0.0984  0.0217  0.1492
  628TMC3    O1 9309   4.033   2.853  14.437  0.3795  0.5893 -0.4585
  628TMC3    O2 9310   4.343   2.498  14.512 -0.2914  0.2162  0.3736
  629MPD2     C 9311   2.328   0.517  16.106  0.7896  0.0571 -0.7019
  629MPD2    C1 9312   2.390   0.427  16.190 -0.0783 -0.1680  0.4496
  629MPD2    C2 9313   2.337   0.305  16.207  0.2382  0.0059  0.6207
  629MPD2    C3 9314   2.217   0.263  16.150 -0.1733 -0.4006 -0.3992
  629MPD2    C4 9315   2.158   0.346  16.056 -0.2360  0.1837 -0.3250
  629MPD2    C5 9316   2.212   0.478  16.042 -0.0145  0.2231  0.2191
  629MPD2     H 9317   2.394   0.220  16.242 -0.8896 -0.9646  0.0741
  629MPD2    H1 9318   2.071   0.327  15.994 -0.1376 -0.1450 -0.3624
  629MPD2    H2 9319   2.379   0.605  16.069  2.1418 -1.0268 -1.4001
  629MPD2    H3 9320   2.172   0.544  15.966  2.1647  0.5251 -0.6534
  629MPD2     N 9321   2.154   0.148  16.202 -0.6435 -0.8234 -0.3874
  629MPD2    H5 9322   2.204   0.100  16.276  0.1408 -2.6853 -2.1010
  629MPD2    N1 9323   2.522   0.454  16.240 -0.2062  0.0010 -0.7873
  629MPD2    H7 9324   2.570   0.538  16.207 -1.0485  1.1288  0.8732
  630TMC3    C1 9325   2.711   0.426  16.390  0.6437  0.8468  0.3396
  630TMC3    C2 9326   2.778   0.534  16.340 -0.1383  0.2738  0.1496
  630TMC3    C3 9327   2.875   0.592  16.419  0.0823 -0.6765 -0.9290
  630TMC3    C4 9328   2.762   0.373  16.506  0.3484 -0.1331 -0.1881
  630TMC3    C5 9329   2.850   0.435  16.591  0.9038 -0.1505 -0.2139
  630TMC3    C6 9330   2.918   0.543  16.540  0.2370  0.0150  0.1510
  630TMC3     C 9331   2.581   0.381  16.345  0.4376 -0.6605 -0.5034
  630TMC3     O 9332   2.529   0.302  16.421  0.1105  0.2673 -0.0185
  630TMC3     H 9333   2.748   0.570  16.243 -0.8855  0.3120  0.3995
  630TMC3    H1 9334   2.705   0.292  16.550 -0.2792  0.3469 -0.1094
  630TMC3    H2 9335   2.995   0.594  16.596 -0.2871  1.7718 -0.7057
  630TMC3    C7 9336   2.888   0.373  16.715  0.3591  0.0553 -0.1196
  630TMC3    C8 9337   2.963   0.694  16.357  0.1767  0.1477  0.0457
  630TMC3    O1 9338   2.820   0.276  16.755  0.1550 -0.1499  0.2432
  630TMC3    O2 9339   3.063   0.724  16.419  0.2667  0.1055  0.5950
  631MPD2     C 9340   0.552   0.685  15.678 -0.0575 -0.4427 -0.2630
  631MPD2    C1 9341   0.665   0.689  15.599  0.2818  0.6687  0.4956
  631MPD2    C2 9342   0.746   0.574  15.593 -0.2977 -0.5484 -0.0305
  631MPD2    C3 9343   0.700   0.454  15.651  0.0436 -0.6836 -0.8876
  631MPD2    C4 9344   0.584   0.458  15.725  0.0510  0.4374  0.3934
  631MPD2    C5 9345   0.513   0.571  15.744  0.2044  0.0930  0.4738
  631MPD2     H 9346   0.838   0.568  15.536 -0.6280 -1.1592 -0.5050
  631MPD2    H1 9347   0.540   0.374  15.777  1.5651 -0.7922 -0.3132
  631MPD2    H2 9348   0.496   0.777  15.695  1.9991  0.1114  3.2969
  631MPD2    H3 9349   0.419   0.573  15.799 -1.2736 -0.3640 -2.0491
  631MPD2     N 9350   0.786   0.343  15.648  0.0924 -0.1197 -0.2109
  631MPD2    H5 9351   0.875   0.348  15.600 -1.0645  1.6503 -2.1567
  631MPD2    N1 9352   0.699   0.808  15.534 -0.0697 -0.2699  0.5693
  631MPD2    H7 9353   0.643   0.892  15.539 -0.7424 -0.6534 -0.5641
  632TMC3    C1 9354   0.809   0.955  15.392  0.2057 -0.2568  0.1882
  632TMC3    C2 9355   0.765   1.064  15.470 -0.1961 -0.6307  0.7599
  632TMC3    C3 9356   0.756   1.188  15.413 -0.0139  0.3366 -0.3787
  632TMC3    C4 9357   0.833   0.972  15.261 -0.0943 -0.2510 -0.4248
  632TMC3    C5 9358   0.796   1.093  15.212 -0.0762 -0.9961  0.1307
  632TMC3    C6 9359   0.764   1.207  15.279 -0.5211  0.1531  0.1208
  632TMC3     C 9360   0.797   0.819  15.441 -0.8376 -0.8879  0.5735
  632TMC3     O 9361   0.864   0.737  15.380 -0.0964  0.0849  0.0770
  632TMC3     H 9362   0.780   1.055  15.576 -0.1908  0.5027  0.8598
  632TMC3    H1 9363   0.857   0.886  15.199  1.1549 -0.1187 -0.1074
  632TMC3    H2 9364   0.735   1.299  15.230 -0.0147  0.9133  1.2516
  632TMC3    C7 9365   0.812   1.106  15.074  0.3383  1.4232 -0.1820
  632TMC3    C8 9366   0.700   1.289  15.502 -0.1983 -0.4844  0.1946
  632TMC3    O1 9367   0.723   1.157  15.004 -0.0888 -0.2658  0.7284
  632TMC3    O2 9368   0.637   1.242  15.597 -0.1274 -0.0240 -0.0540
  633MPD2     C 9369   0.788   3.165  17.436 -0.0568 -0.4503  0.3913
  633MPD2    C1 9370   0.774   3.110  17.311  0.7065 -0.7011  0.5150
  633MPD2    C2 9371   0.812   2.978  17.301 -0.4499 -0.2522  0.5324
  633MPD2    C3 9372   0.864   2.907  17.410  0.5146  0.1308 -0.0147
  633MPD2    C4 9373   0.886   2.971  17.527 -0.3065 -0.1552 -0.5981
  633MPD2    C5 9374   0.851   3.100  17.540  0.2326 -0.3976 -0.9536
  633MPD2     H 9375   0.793   2.908  17.221 -2.0412 -1.2381  1.7778
  633MPD2    H1 9376   0.931   2.916  17.609  0.2258  1.6880  0.3550
  633MPD2    H2 9377   0.764   3.270  17.450 -0.3470 -0.6554  1.4276
  633MPD2    H3 9378   0.880   3.156  17.628 -3.0191 -4.5861  2.7573
  633MPD2     N 9379   0.912   2.775  17.396 -0.0155 -1.0068  0.2812
  633MPD2    H5 9380   0.970   2.732  17.467 -0.9714 -1.2650  0.9075
  633MPD2    N1 9381   0.727   3.174  17.194 -0.4678 -0.2081 -0.1644
  633MPD2    H7 9382   0.726   3.114  17.112 -1.6125  1.2604 -1.2305
  634TMC3    C1 9383   0.621   3.325  17.067  0.2729 -0.3416  0.6535
  634TMC3    C2 9384   0.571   3.220  16.989 -0.1453  0.2992  0.0504
  634TMC3    C3 9385   0.523   3.243  16.860  0.2837 -0.6954  0.5712
  634TMC3    C4 9386   0.634   3.449  17.007  0.4675  0.1771  0.3472
  634TMC3    C5 9387   0.584   3.472  16.883 -0.0507  0.0471 -0.1835
  634TMC3    C6 9388   0.526   3.370  16.809 -0.3366  0.2056 -0.2768
  634TMC3     C 9389   0.690   3.301  17.188  0.3436 -0.0611  0.0526
  634TMC3     O 9390   0.702   3.389  17.271  0.2006  0.1679 -0.0763
  634TMC3     H 9391   0.561   3.117  17.023  1.4285  0.3983  0.8090
  634TMC3    H1 9392   0.680   3.529  17.064  1.8208 -2.3617  2.8027
  634TMC3    H2 9393   0.497   3.398  16.708  1.6655 -1.4528 -1.2908
  634TMC3    C7 9394   0.573   3.608  16.838 -0.1758 -0.5663 -0.2179
  634TMC3    C8 9395   0.503   3.127  16.777  0.1774 -0.0610  0.1168
  634TMC3    O1 9396   0.583   3.624  16.717  0.2845 -0.2820  0.3733
  634TMC3    O2 9397   0.557   3.024  16.813 -0.4312 -0.2601 -0.1530
  635TMC3    C1 9398   1.344   3.343  17.147  0.0416  0.5338 -0.0383
  635TMC3    C2 9399   1.306   3.309  17.017  0.5448  0.4566  0.0803
  635TMC3    C3 9400   1.295   3.176  16.993 -0.3397  0.5138  0.0490
  635TMC3    C4 9401   1.375   3.251  17.246  0.2949  0.6680  0.5488
  635TMC3    C5 9402   1.368   3.121  17.213  1.0700 -0.1006  0.2308
  635TMC3    C6 9403   1.331   3.084  17.086  0.6711  0.3171  0.5929
  635TMC3     C 9404   1.322   3.479  17.192 -0.5813 -0.5641 -0.0364
  635TMC3     O 9405   1.309   3.496  17.312 -0.1033 -0.0782 -0.4593
  635TMC3     H 9406   1.276   3.386  16.946 -0.8807 -0.4620 -0.3238
  635TMC3    H1 9407   1.399   3.278  17.349  2.4960  1.8521 -0.2662
  635TMC3    H2 9408   1.320   2.978  17.066  0.8716  0.5265 -0.6434
  635TMC3    C7 9409   1.368   3.020  17.320 -0.6746  0.3414  0.6771
  635TMC3    C8 9410   1.261   3.133  16.854 -0.0419  0.6543 -0.1943
  635TMC3    O1 9411   1.309   2.919  17.297 -0.2854 -0.2436 -0.4699
  635TMC3    O2 9412   1.275   3.219  16.771  0.4297 -0.1403 -0.3852
  636MPD2     C 9413   1.725   3.523  15.782 -0.5229  0.8152  0.2642
  636MPD2    C1 9414   1.725   3.523  15.917 -0.7988  0.3257  0.1314
  636MPD2    C2 9415   1.780   3.417  15.983  0.3345  0.2309 -0.3796
  636MPD2    C3 9416   1.835   3.307  15.919  0.4783 -0.1803 -0.2983
  636MPD2    C4 9417   1.834   3.306  15.783  1.2703  0.1388 -0.3375
  636MPD2    C5 9418   1.779   3.420  15.717  0.3306  0.2054  0.5794
  636MPD2     H 9419   1.802   3.416  16.089 -2.7714 -3.0318  0.2294
  636MPD2    H1 9420   1.870   3.223  15.724  0.6897 -0.4294  0.1006
  636MPD2    H2 9421   1.681   3.602  15.722  0.5804  2.3378  1.4699
  636MPD2    H3 9422   1.763   3.429  15.610 -0.9429  0.1264  0.7604
  636MPD2     N 9423   1.909   3.214  15.998  0.6271  0.8931 -0.3072
  636MPD2    H5 9424   1.911   3.241  16.096 -2.3972 -3.1889  0.8915
  636MPD2    N1 9425   1.674   3.630  15.994  0.5385  0.4640  0.1264
  636MPD2    H7 9426   1.686   3.614  16.093 -0.2249 -0.8168  0.0135
  637TMC3    C1 9427   2.039   3.024  16.056 -0.9154 -0.4871  0.0666
  637TMC3    C2 9428   2.014   3.046  16.189  0.3213 -0.5217 -0.4783
  637TMC3    C3 9429   2.100   3.009  16.283  0.1498 -0.2904  0.5559
  637TMC3    C4 9430   2.157   2.975  16.013  0.5556  0.1029 -0.1151
  637TMC3    C5 9431   2.246   2.940  16.112 -0.1798 -0.0369 -0.2226
  637TMC3    C6 9432   2.211   2.944  16.247 -0.9499  0.3982 -0.1773
  637TMC3     C 9433   1.962   3.094  15.957  1.0179  0.6170 -0.1977
  637TMC3     O 9434   1.975   3.051  15.845 -0.2768 -0.0728 -0.0300
  637TMC3     H 9435   1.924   3.104  16.210 -0.7150 -1.5927 -1.9756
  637TMC3    H1 9436   2.174   2.989  15.907  0.5603 -0.3338 -0.1719
  637TMC3    H2 9437   2.279   2.925  16.329 -1.4351  0.2707  0.1930
  637TMC3    C7 9438   2.378   2.995  16.098 -0.0085  0.2787 -0.6564
  637TMC3    C8 9439   2.104   3.121  16.374 -0.7234  0.9461 -0.2043
  637TMC3    O1 9440   2.442   3.034  16.194  0.0717  0.3035 -0.2169
  637TMC3    O2 9441   2.058   3.230  16.334  0.2403  0.1033  0.4467
  638MPD2     C 9442   1.504   2.630  15.170  0.5682  0.1286  0.1712
  638MPD2    C1 9443   1.518   2.531  15.072 -0.2762  0.1370 -0.3837
  638MPD2    C2 9444   1.476   2.399  15.111  0.7449  0.1505 -0.0951
  638MPD2    C3 9445   1.423   2.373  15.236  0.2408  0.5805  0.7566
  638MPD2    C4 9446   1.401   2.473  15.333 -0.0932  0.8570  0.3308
  638MPD2    C5 9447   1.438   2.604  15.288 -0.0009  0.1235  0.4823
  638MPD2     H 9448   1.473   2.314  15.043 -0.5019 -1.8205  2.4173
  638MPD2    H1 9449   1.362   2.461  15.434 -3.3181  0.3377 -0.9751
  638MPD2    H2 9450   1.538   2.729  15.145 -0.1301  0.8202  1.9811
  638MPD2    H3 9451   1.423   2.689  15.353  1.0225  1.3043 -0.8189
  638MPD2     N 9452   1.409   2.239  15.264 -0.4385  0.0101  0.4425
  638MPD2    H5 9453   1.430   2.175  15.188 -0.8221 -0.6055  0.8577
  638MPD2    N1 9454   1.569   2.567  14.940 -0.2786 -0.8248  0.8468
  638MPD2    H7 9455   1.601   2.663  14.930 -0.4915 -0.8937 -0.4204
  639TMC3    C1 9456   1.405   2.034  15.374 -0.3950  0.5441  0.7088
  639TMC3    C2 9457   1.302   1.942  15.390  0.6483 -0.0582  0.8199
  639TMC3    C3 9458   1.313   1.827  15.328 -0.0424 -0.9283 -0.1396
  639TMC3    C4 9459   1.530   2.002  15.328 -0.6708 -0.9731 -0.6793
  639TMC3    C5 9460   1.549   1.870  15.295  0.3416  0.4003 -0.2864
  639TMC3    C6 9461   1.440   1.782  15.290 -0.3432 -0.3226 -0.3564
  639TMC3     C 9462   1.371   2.177  15.380 -0.4627 -0.0501 -0.4062
  639TMC3     O 9463   1.322   2.225  15.483 -0.8791 -0.3378  0.1330
  639TMC3     H 9464   1.206   1.989  15.408  0.0964 -0.1330 -1.9904
  639TMC3    H1 9465   1.615   2.068  15.315  0.0016 -1.5044  1.0204
  639TMC3    H2 9466   1.453   1.695  15.225 -1.5276 -0.6861 -0.1016
  639TMC3    C7 9467   1.684   1.827  15.270  0.2452 -0.0747 -0.2622
  639TMC3    C8 9468   1.237   1.827  15.208 -0.6779 -0.6396 -0.4386
  639TMC3    O1 9469   1.769   1.912  15.236 -0.0322 -0.0458  0.5061
  639TMC3    O2 9470   1.308   1.832  15.106 -0.2753  0.1353 -0.2807
  640MPD2     C 9471   2.432   0.749  10.200 -0.3048  0.3528 -0.5756
  640MPD2    C1 9472   2.437   0.747  10.065  0.5812  0.9632 -0.2004
  640MPD2    C2 9473   2.343   0.814   9.989  0.4119 -0.0466 -0.2046
  640MPD2    C3 9474   2.250   0.891  10.047  0.0432 -0.4882 -0.6996
  640MPD2    C4 9475   2.262   0.899  10.183  0.0287  0.0092  0.2462
  640MPD2    C5 9476   2.348   0.838  10.266 -0.0614  0.7162  0.4103
  640MPD2     H 9477   2.336   0.801   9.882 -1.5318  0.0572 -0.0770
  640MPD2    H1 9478   2.201   0.975  10.233 -0.5995  0.0331 -0.5488
  640MPD2    H2 9479   2.509   0.689  10.247 -1.5394 -2.1342 -1.7782
  640MPD2    H3 9480   2.337   0.840  10.374 -2.0572 -2.0126  0.2808
  640MPD2     N 9481   2.142   0.948   9.981 -0.3048  0.3682 -0.6861
  640MPD2    H5 9482   2.129   0.922   9.883  0.7396 -2.1047 -0.1739
  640MPD2    N1 9483   2.538   0.667  10.015  0.2300  0.0239  0.1120
  640MPD2    H7 9484   2.579   0.607  10.086 -0.2244 -0.8198 -0.3256
  641TMC3    C1 9485   2.711   0.601   9.868  0.0767  0.3111  0.0988
  641TMC3    C2 9486   2.729   0.499   9.961  0.6107  0.0485 -0.2616
  641TMC3    C3 9487   2.858   0.456   9.980  0.2773  0.0907 -0.1776
  641TMC3    C4 9488   2.816   0.667   9.806 -0.1120  0.2041 -0.0253
  641TMC3    C5 9489   2.943   0.630   9.844  0.2443  0.6920  0.0628
  641TMC3    C6 9490   2.964   0.528   9.935 -0.0819  0.0485  0.8319
  641TMC3     C 9491   2.600   0.690   9.895 -0.6287  0.6975  0.2015
  641TMC3     O 9492   2.585   0.781   9.810 -0.1083 -0.0716 -0.1406
  641TMC3     H 9493   2.649   0.433   9.990 -0.4883  1.0015 -1.1123
  641TMC3    H1 9494   2.799   0.759   9.752  0.3474 -1.3898 -2.8822
  641TMC3    H2 9495   3.064   0.491   9.952 -0.7823 -1.7226  1.1890
  641TMC3    C7 9496   3.059   0.688   9.787  0.1132 -0.0231  0.4145
  641TMC3    C8 9497   2.866   0.339  10.063  0.4052 -0.2299 -0.6671
  641TMC3    O1 9498   3.166   0.661   9.838  0.3654  1.0106 -0.9300
  641TMC3    O2 9499   2.768   0.265  10.067 -0.0114  0.0273 -0.2299
  642TMC3    C1 9500   3.171   2.695  11.929 -0.3658 -0.4301 -0.5462
  642TMC3    C2 9501   3.291   2.695  11.862 -0.7231 -0.6633 -0.6578
  642TMC3    C3 9502   3.320   2.587  11.790  0.8031 -0.5487  0.3662
  642TMC3    C4 9503   3.073   2.598  11.917 -0.7650 -0.2652  0.6303
  642TMC3    C5 9504   3.099   2.507  11.816 -0.4232 -0.1239 -0.2081
  642TMC3    C6 9505   3.221   2.493  11.751 -0.5750 -0.0210 -0.8079
  642TMC3     C 9506   3.131   2.823  12.001  0.2278 -0.6968  0.5841
  642TMC3     O 9507   3.164   2.924  11.942 -0.0135 -0.0839 -0.0759
  642TMC3     H 9508   3.361   2.776  11.881 -0.5334 -0.7919 -0.8122
  642TMC3    H1 9509   2.978   2.594  11.968 -1.8975 -1.0944 -1.5472
  642TMC3    H2 9510   3.224   2.409  11.683  1.5460  0.7467 -1.6373
  642TMC3    C7 9511   3.031   2.384  11.807  0.3642  0.5903 -0.4696
  642TMC3    C8 9512   3.452   2.547  11.770  0.3718 -0.7554  0.1774
  642TMC3    O1 9513   2.977   2.358  11.702 -0.5484  0.5324  0.2545
  642TMC3    O2 9514   3.471   2.466  11.685 -0.7533 -0.4710 -0.0768
  643TMC3    C1 9515   2.529   1.017   0.279  0.0082 -0.3486  0.4986
  643TMC3    C2 9516   2.389   1.014   0.266  0.0303 -0.1761 -0.2508
  643TMC3    C3 9517   2.331   0.958   0.158  0.2199  1.0015  0.0152
  643TMC3    C4 9518   2.604   0.983   0.170  0.4259 -0.6217  0.2041
  643TMC3    C5 9519   2.542   0.933   0.061  1.1217 -0.2570 -0.4392
  643TMC3    C6 9520   2.405   0.909   0.057  1.0386  0.3251  0.2181
  643TMC3     C 9521   2.578   1.123   0.361  0.4084  0.0259 -0.1065
  643TMC3     O 9522   2.505   1.219   0.384  0.1631 -0.2374  0.0503
  643TMC3     H 9523   2.338   1.062   0.349 -0.7955 -0.3372 -0.6646
  643TMC3    H1 9524   2.701   1.031   0.164 -0.0689  0.3450 -0.0570
  643TMC3    H2 9525   2.347   0.893  17.649  0.9450 -0.1099  0.3575
  643TMC3    C7 9526   2.586   0.998  17.620 -0.3216 -0.3660 -0.0257
  643TMC3    C8 9527   2.209   1.030   0.112 -0.1309 -0.5243 -0.0429
  643TMC3    O1 9528   2.531   1.107  17.605  0.1606 -0.4232 -0.3838
  643TMC3    O2 9529   2.137   0.982   0.020  0.1363 -0.1469  0.4020
  644MPD2     C 9530   2.163   1.444   9.348  0.0107 -0.2713  0.0625
  644MPD2    C1 9531   2.109   1.566   9.388  0.0039 -0.7936  0.4007
  644MPD2    C2 9532   1.992   1.619   9.326  0.1486 -0.3743 -0.9373
  644MPD2    C3 9533   1.930   1.553   9.219 -0.0408 -0.6420  0.0531
  644MPD2    C4 9534   1.992   1.437   9.166 -0.0418  0.7077 -0.3485
  644MPD2    C5 9535   2.106   1.386   9.238 -0.2817 -0.2958  0.0119
  644MPD2     H 9536   1.940   1.701   9.373  1.6239 -0.6177  1.1137
  644MPD2    H1 9537   1.944   1.380   9.088 -2.2252  0.7656  0.9693
  644MPD2    H2 9538   2.249   1.397   9.395  0.0773 -1.5290 -1.3002
  644MPD2    H3 9539   2.156   1.297   9.202 -0.8280 -0.3648 -0.5697
  644MPD2     N 9540   1.821   1.619   9.153 -0.9912  0.1054  0.0648
  644MPD2    H5 9541   1.789   1.710   9.187 -1.2558 -0.9547  2.6293
  644MPD2    N1 9542   2.164   1.613   9.510  0.2981  0.1649  0.4552
  644MPD2    H7 9543   2.234   1.563   9.564  0.8744  0.6786  0.1928
  645TMC3    C1 9544   1.616   1.650   9.020  0.1760  0.0498  0.5610
  645TMC3    C2 9545   1.612   1.781   9.053  0.3849 -0.6066 -0.3595
  645TMC3    C3 9546   1.504   1.851   9.012 -0.0793  0.1655 -0.3388
  645TMC3    C4 9547   1.518   1.589   8.946 -0.5847 -0.6777  0.2797
  645TMC3    C5 9548   1.403   1.664   8.914  0.0040  0.0685 -0.2441
  645TMC3    C6 9549   1.389   1.793   8.960 -0.0239  0.0731  0.0613
  645TMC3     C 9550   1.736   1.567   9.057  0.0965  0.0223 -0.5395
  645TMC3     O 9551   1.742   1.456   9.003 -0.4309 -0.7917 -0.0708
  645TMC3     H 9552   1.700   1.830   9.095  2.0202 -2.7266 -1.3230
  645TMC3    H1 9553   1.530   1.490   8.903 -2.4741 -0.1348 -1.5063
  645TMC3    H2 9554   1.298   1.851   8.970 -1.3148 -1.7407 -1.1822
  645TMC3    C7 9555   1.281   1.588   8.889  0.1360  0.8951 -0.0606
  645TMC3    C8 9556   1.517   1.998   8.994  0.3813  0.0953 -0.3834
  645TMC3    O1 9557   1.284   1.469   8.914  0.2517  0.0053 -0.3964
  645TMC3    O2 9558   1.614   2.051   9.051 -0.2772  0.2596  0.4495
  646MPD2     C 9559   1.642   1.275  14.613  0.2447  0.4950 -0.5720
  646MPD2    C1 9560   1.550   1.223  14.705  0.2562  0.2143 -0.4256
  646MPD2    C2 9561   1.421   1.282  14.708 -0.6007  0.1481  1.0890
  646MPD2    C3 9562   1.390   1.380  14.615 -0.2709 -0.0085 -0.4216
  646MPD2    C4 9563   1.487   1.437  14.546  0.0948 -0.2708  0.7015
  646MPD2    C5 9564   1.611   1.394  14.550 -0.2751 -0.3253 -1.2616
  646MPD2     H 9565   1.336   1.244  14.763 -3.5960  3.9066 -0.9990
  646MPD2    H1 9566   1.466   1.520  14.480  0.7302 -0.1358  0.6720
  646MPD2    H2 9567   1.742   1.235  14.601 -0.9402 -2.1784 -1.4599
  646MPD2    H3 9568   1.684   1.440  14.484 -2.7053  2.7540 -1.8446
  646MPD2     N 9569   1.254   1.422  14.601  0.0281 -0.1321 -0.0974
  646MPD2    H5 9570   1.181   1.410  14.670 -0.4322 -1.2240 -0.7737
  646MPD2    N1 9571   1.602   1.123  14.789  0.0330 -0.4578 -0.2780
  646MPD2    H7 9572   1.696   1.093  14.765  1.2505  2.4990  0.8341
  647TMC3    C1 9573   1.611   0.968  14.960 -0.4774  0.4373 -0.8457
  647TMC3    C2 9574   1.546   0.861  15.012  0.3883  1.0398 -0.0919
  647TMC3    C3 9575   1.613   0.748  15.024 -0.1505  0.2302 -0.6825
  647TMC3    C4 9576   1.753   0.971  14.947  0.1006  0.2956  0.5526
  647TMC3    C5 9577   1.820   0.851  14.978  0.2921  0.1602 -0.0311
  647TMC3    C6 9578   1.748   0.738  15.013 -0.1101 -0.6771  0.2876
  647TMC3     C 9579   1.535   1.072  14.895  0.6771 -0.0208  0.8466
  647TMC3     O 9580   1.437   1.113  14.954  0.0280  0.2245  0.5811
  647TMC3     H 9581   1.438   0.871  15.001  0.1916 -0.1306  0.8445
  647TMC3    H1 9582   1.812   1.059  14.923  0.6014  0.3828  2.1128
  647TMC3    H2 9583   1.796   0.649  15.052 -2.9848 -2.5569 -0.5000
  647TMC3    C7 9584   1.964   0.839  14.991 -0.2823  0.1911 -0.3385
  647TMC3    C8 9585   1.555   0.666  15.121 -0.2228  1.0007 -0.7942
  647TMC3    O1 9586   2.008   0.724  14.997 -0.0628  0.3916 -0.2819
  647TMC3    O2 9587   1.591   0.548  15.126  0.2039 -0.0412 -0.9592
  648TMC3    C1 9588   0.898   3.322  16.111 -0.0455 -0.2156 -0.8218
  648TMC3    C2 9589   0.933   3.206  16.052  0.5620  0.5590 -0.0221
  648TMC3    C3 9590   0.914   3.193  15.914 -0.2079 -0.3809 -0.4421
  648TMC3    C4 9591   0.848   3.427  16.048  0.3138  0.1325  0.0274
  648TMC3    C5 9592   0.832   3.414  15.908  0.5677  0.1687  0.3495
  648TMC3    C6 9593   0.854   3.297  15.849  0.2713  0.0244  0.1262
  648TMC3     C 9594   0.915   3.342  16.259  0.8648  0.1097 -0.2605
  648TMC3     O 9595   0.958   3.451  16.296  0.5722  0.0011  0.1915
  648TMC3     H 9596   0.977   3.126  16.110 -1.3719  0.1205  0.8510
  648TMC3    H1 9597   0.815   3.513  16.106 -2.6168 -0.7058 -0.3827
  648TMC3    H2 9598   0.816   3.286  15.748  0.6486  1.7222 -0.1958
  648TMC3    C7 9599   0.759   3.511  15.828  0.1084  0.1406  0.5244
  648TMC3    C8 9600   0.889   3.055  15.876 -0.3822  0.2673  0.3135
  648TMC3    O1 9601   0.717   3.478  15.717 -0.4766  0.0987  0.2341
  648TMC3    O2 9602   0.779   3.031  15.827  0.0360  0.3450  0.3097
  649TMC3    C1 9603   4.650   0.119  12.785 -0.6182  0.1136  0.5961
  649TMC3    C2 9604   0.060   0.133  12.765 -0.0256  0.0928 -0.0583
  649TMC3    C3 9605   0.145   0.081  12.855  0.3531  0.7938 -0.8125
  649TMC3    C4 9606   4.592   0.078  12.898 -0.5240  0.2486 -0.0542
  649TMC3    C5 9607   4.675   0.026  12.997  0.2110  0.7067 -0.0087
  649TMC3    C6 9608   0.092   0.026  12.976  0.2004  0.0931 -0.4577
  649TMC3     C 9609   4.557   0.151  12.679 -0.0473 -0.8412  0.1348
  649TMC3     O 9610   4.440   0.174  12.708  0.2175  0.2901 -0.3855
  649TMC3     H 9611   0.099   0.171  12.672  0.5254 -0.9296 -0.2546
  649TMC3    H1 9612   4.487   0.049  12.896 -0.5014  0.3326 -1.9635
  649TMC3    H2 9613   0.159   0.010  13.059 -1.4045 -0.5923  0.7025
  649TMC3    C7 9614   4.624   4.711  13.129 -0.0966  0.0970  0.1820
  649TMC3    C8 9615   0.287   0.089  12.840 -0.8235  0.6299 -0.1522
  649TMC3    O1 9616   4.508   0.020  13.150  0.5965 -0.3041 -0.2276
  649TMC3    O2 9617   0.341   0.179  12.778 -0.2148  0.0073  0.0651
  650TMC3    C1 9618   2.603   1.723  12.848 -0.1038  0.3541  0.3110
  650TMC3    C2 9619   2.637   1.844  12.891 -0.2370 -0.5445  0.4326
  650TMC3    C3 9620   2.666   1.945  12.802 -0.2930  0.3908 -0.0519
  650TMC3    C4 9621   2.595   1.690  12.712  0.0814  0.0489  0.0847
  650TMC3    C5 9622   2.643   1.785  12.623  0.8838 -0.3055 -0.1880
  650TMC3    C6 9623   2.672   1.913  12.665 -0.6715  0.3308 -0.3470
  650TMC3     C 9624   2.585   1.623  12.957 -0.5704 -0.3325 -0.1276
  650TMC3     O 9625   2.577   1.661  13.071  0.2968  0.2651 -0.0900
  650TMC3     H 9626   2.637   1.857  12.999  0.3556 -1.2612  0.5238
  650TMC3    H1 9627   2.552   1.596  12.681  0.7555  0.1323 -1.1209
  650TMC3    H2 9628   2.695   1.998  12.602  2.2816 -1.2110 -1.3343
  650TMC3    C7 9629   2.572   1.784  12.495  0.0656 -0.4294 -0.0899
  650TMC3    C8 9630   2.591   2.066  12.822 -0.2745  0.2717  0.2834
  650TMC3    O1 9631   2.565   1.683  12.422  0.4167 -0.8611  0.2434
  650TMC3    O2 9632   2.541   2.122  12.725  0.3823 -0.0147 -0.0191
  651MPD2     C 9633   1.563   3.006  11.196  0.3071  0.0395 -0.4528
  651MPD2    C1 9634   1.491   3.114  11.152  0.5790  0.2998 -0.0940
  651MPD2    C2 9635   1.548   3.196  11.053 -0.1033  0.1388 -0.1098
  651MPD2    C3 9636   1.677   3.166  11.003 -0.7581 -0.0876  0.0289
  651MPD2    C4 9637   1.745   3.059  11.054 -0.0537 -0.0345  0.2932
  651MPD2    C5 9638   1.684   2.973  11.144  0.4954 -0.0933  0.1616
  651MPD2     H 9639   1.488   3.279  11.016 -2.0851 -1.7430 -1.0987
  651MPD2    H1 9640   1.841   3.022  11.018 -0.2407 -1.3994  1.1870
  651MPD2    H2 9641   1.513   2.929  11.253 -1.1387  0.7740 -0.7380
  651MPD2    H3 9642   1.717   2.873  11.170 -0.5355 -0.9751 -1.8250
  651MPD2     N 9643   1.731   3.262  10.920 -0.0819 -0.1780 -0.4820
  651MPD2    H5 9644   1.666   3.318  10.866  1.0124  0.3637 -1.2278
  651MPD2    N1 9645   1.367   3.154  11.201  1.0456 -0.0673 -0.3075
  651MPD2    H7 9646   1.348   3.250  11.173  0.8813  0.6815  2.4676
  652TMC3    C1 9647   2.021   3.557  10.713 -0.7078 -0.5324  0.9597
  652TMC3    C2 9648   2.006   3.428  10.757  0.2299 -0.9651  0.1167
  652TMC3    C3 9649   1.878   3.380  10.773  0.7995  0.8727 -0.2546
  652TMC3    C4 9650   1.920   3.636  10.670 -0.3766  0.5902 -0.0658
  652TMC3    C5 9651   1.796   3.592  10.707 -0.4402  0.2764  1.0890
  652TMC3    C6 9652   1.771   3.461  10.740  0.1279 -0.0561 -0.2273
  652TMC3     C 9653   2.154   3.615  10.739  0.8844  0.3449  0.1627
  652TMC3     O 9654   2.223   3.552  10.820 -0.1236  0.0486  0.2107
  652TMC3     H 9655   2.091   3.367  10.785 -1.4831 -1.8089  3.4348
  652TMC3    H1 9656   1.933   3.733  10.624  1.0133  0.9985  1.1753
  652TMC3    H2 9657   1.667   3.429  10.745  0.4774 -0.7442  2.5119
  652TMC3    C7 9658   1.689   3.680  10.676  0.4858  0.4600 -0.3291
  652TMC3    C8 9659   1.859   3.282  10.883 -0.0583  0.1377 -0.2135
  652TMC3    O1 9660   1.575   3.632  10.663  1.0893  0.3071  0.4928
  652TMC3    O2 9661   1.970   3.237  10.923  0.4399 -0.3844  0.2880
  653MPD2     C 9662   0.452   3.328  17.516  0.5567 -0.4938 -0.0333
  653MPD2    C1 9663   0.339   3.377  17.581  0.3042  0.5069 -0.3204
  653MPD2    C2 9664   0.221   3.305  17.566  0.3669  0.1711 -0.0029
  653MPD2    C3 9665   0.206   3.195  17.482  0.2368 -0.6416  0.3243
  653MPD2    C4 9666   0.318   3.153  17.421 -0.0012 -0.1576  1.0983
  653MPD2    C5 9667   0.437   3.222  17.438  0.8451  0.3870 -0.1706
  653MPD2     H 9668   0.137   3.341  17.624  1.2972  1.3978  0.5872
  653MPD2    H1 9669   0.319   3.065  17.359  3.3256 -0.7220  1.9629
  653MPD2    H2 9670   0.550   3.371  17.532  1.1045 -1.6350 -0.3758
  653MPD2    H3 9671   0.527   3.191  17.386  1.1948  3.1641 -1.2479
  653MPD2     N 9672   0.082   3.131  17.460  0.1412  0.2336  0.3708
  653MPD2    H5 9673   4.719   3.174  17.499  1.0278  0.4627  1.9828
  653MPD2    N1 9674   0.353   3.500  17.657 -0.3529  0.2929  0.2422
  653MPD2    H7 9675   0.439   3.552  17.657  0.3176 -0.8091  0.4559
  654TMC3    C1 9676   4.642   2.977  17.371 -0.1812  0.3598 -0.2324
  654TMC3    C2 9677   4.546   3.079  17.383 -0.4621  0.6490  1.2197
  654TMC3    C3 9678   4.419   3.036  17.356  0.6554  0.2026 -0.9329
  654TMC3    C4 9679   4.612   2.845  17.344 -0.1989 -0.0858 -0.2229
  654TMC3    C5 9680   4.483   2.806  17.331 -0.2238  0.3645 -0.5852
  654TMC3    C6 9681   4.391   2.907  17.319 -0.0238  0.3128 -0.4451
  654TMC3     C 9682   0.060   3.018  17.376  0.3038 -0.9281  0.4361
  654TMC3     O 9683   0.142   2.949  17.325  0.2555 -0.2797 -0.2127
  654TMC3     H 9684   4.571   3.183  17.398  1.2290  0.5183 -0.6942
  654TMC3    H1 9685   4.701   2.783  17.336  0.5675  1.3953 -3.1676
  654TMC3    H2 9686   4.288   2.885  17.295 -0.1268 -1.4557  1.6407
  654TMC3    C7 9687   4.458   2.684  17.251 -0.2537  0.4585  0.4559
  654TMC3    C8 9688   4.310   3.133  17.333  0.1840  0.0247  0.3910
  654TMC3    O1 9689   4.368   2.683  17.165 -0.2667 -0.1769  0.1702
  654TMC3    O2 9690   4.200   3.082  17.316 -0.3953 -0.0713  0.3048
  655MPD2     C 9691   1.485   3.350  15.666  0.5552  0.8637 -0.3821
  655MPD2    C1 9692   1.429   3.456  15.596  0.2762 -0.5571 -0.4105
  655MPD2    C2 9693   1.444   3.454  15.456 -0.3439  0.0816  0.0080
  655MPD2    C3 9694   1.508   3.353  15.388 -0.6184 -0.5574 -0.5854
  655MPD2    C4 9695   1.547   3.247  15.459 -0.5031 -0.4529  0.5494
  655MPD2    C5 9696   1.541   3.248  15.589  0.5972  0.0082 -0.3868
  655MPD2     H 9697   1.396   3.536  15.404 -3.1445  0.0123  2.4377
  655MPD2    H1 9698   1.580   3.161  15.403 -0.6611  0.1327 -0.4528
  655MPD2    H2 9699   1.481   3.338  15.773  0.8569 -1.7111 -0.6554
  655MPD2    H3 9700   1.561   3.154  15.640 -3.2110  0.2057  1.4235
  655MPD2     N 9701   1.512   3.342  15.244 -0.0442 -0.4985 -0.0326
  655MPD2    H5 9702   1.496   3.251  15.200 -1.4127 -0.4433  0.3493
  655MPD2    N1 9703   1.371   3.569  15.655  0.0454  0.3200  0.7849
  655MPD2    H7 9704   1.366   3.654  15.600 -1.1463  0.0516  0.4701
  656TMC3    C1 9705   1.257   3.685  15.829  0.0276  0.1150 -0.3193
  656TMC3    C2 9706   1.203   3.693  15.958  0.9448  0.8099 -0.0288
  656TMC3    C3 9707   1.127   3.798  15.999  0.2274 -0.1732  0.6493
  656TMC3    C4 9708   1.231   3.787  15.742  0.2881  1.1646 -0.4744
  656TMC3    C5 9709   1.141   3.881  15.788 -0.2110  0.0585  0.3708
  656TMC3    C6 9710   1.092   3.896  15.914  0.1615 -0.6653 -0.1781
  656TMC3     C 9711   1.323   3.565  15.785  0.0442  0.3272  0.2891
  656TMC3     O 9712   1.322   3.467  15.859  0.7184 -0.8001  0.0277
  656TMC3     H 9713   1.205   3.599  16.013 -1.5840 -0.1209 -1.5408
  656TMC3    H1 9714   1.266   3.780  15.639 -0.0306  2.8433 -0.6913
  656TMC3    H2 9715   1.017   3.968  15.945  0.1834 -0.5931 -0.2926
  656TMC3    C7 9716   1.088   3.979  15.694 -0.5734 -0.4768 -0.8062
  656TMC3    C8 9717   1.034   3.768  16.096 -0.2914  0.6731 -0.4832
  656TMC3    O1 9718   1.150   3.978  15.590 -0.6546  0.2974  0.5357
  656TMC3    O2 9719   0.941   3.698  16.057  0.4479  0.1474 -0.1188
  657TMC3    C1 9720   0.354   3.227  15.475 -0.2766 -0.2773 -0.4736
  657TMC3    C2 9721   0.434   3.223  15.587  0.2326  0.2119 -0.1662
  657TMC3    C3 9722   0.439   3.332  15.667  0.4033 -0.5750  0.5862
  657TMC3    C4 9723   0.287   3.336  15.431  0.5075 -0.0017  0.0161
  657TMC3    C5 9724   0.283   3.440  15.524  0.3007 -0.4172 -0.4194
  657TMC3    C6 9725   0.346   3.433  15.641 -0.5890  0.5837 -1.4252
  657TMC3     C 9726   0.313   3.100  15.411 -0.0957 -0.5198 -0.5829
  657TMC3     O 9727   0.196   3.080  15.378 -0.8358 -0.0302  0.1608
  657TMC3     H 9728   0.486   3.129  15.605  1.6681  0.9556 -0.4642
  657TMC3    H1 9729   0.214   3.344  15.351 -1.0593  0.4033  1.4580
  657TMC3    H2 9730   0.346   3.527  15.696  0.6533 -1.3606  1.9202
  657TMC3    C7 9731   0.159   3.522  15.513 -0.6978  0.1215  1.0786
  657TMC3    C8 9732   0.460   3.323  15.809  0.3674  0.7560  0.5333
  657TMC3    O1 9733   0.106   3.527  15.403 -0.3283  0.6386  0.3901
  657TMC3    O2 9734   0.442   3.428  15.870  0.2105  0.4591 -0.4130
  658MPD2     C 9735   1.712   3.754  14.507  0.0692  0.9489  0.6899
  658MPD2    C1 9736   1.600   3.769  14.590  0.6600 -0.0433 -0.2513
  658MPD2    C2 9737   1.519   3.877  14.564 -0.6680  0.4930  0.0404
  658MPD2    C3 9738   1.547   3.963  14.458  1.1292 -0.7377 -0.1199
  658MPD2    C4 9739   1.651   3.939  14.373  0.2285 -0.5784 -0.4340
  658MPD2    C5 9740   1.728   3.829  14.398  0.2519  0.6866  0.4471
  658MPD2     H 9741   1.434   3.891  14.630  0.0661  1.4291  0.7948
  658MPD2    H1 9742   1.675   4.004  14.290 -0.8421  0.9182  0.4325
  658MPD2    H2 9743   1.796   3.692  14.537 -1.7283 -1.8953 -0.2293
  658MPD2    H3 9744   1.816   3.815  14.336  1.1321  2.0856  1.3751
  658MPD2     N 9745   1.445   4.066  14.427 -0.5050 -0.3209 -0.2202
  658MPD2    H5 9746   1.360   4.070  14.482 -1.2060 -0.6117 -1.2686
  658MPD2    N1 9747   1.569   3.666  14.680 -0.8063 -0.1235  0.3046
  658MPD2    H7 9748   1.641   3.597  14.701  0.3321  1.4633  1.6733
  659TMC3    C1 9749   1.449   3.524  14.818  0.2826  1.1897  0.0601
  659TMC3    C2 9750   1.513   3.522  14.937  0.0118  0.0040  0.1869
  659TMC3    C3 9751   1.480   3.421  15.026 -0.2256  0.3966  0.7912
  659TMC3    C4 9752   1.349   3.439  14.781 -0.0906  0.6304 -0.0997
  659TMC3    C5 9753   1.319   3.339  14.871 -0.1939  0.5092 -0.5422
  659TMC3    C6 9754   1.389   3.326  14.989  1.1133 -0.6309  0.9007
  659TMC3     C 9755   1.455   3.656  14.755 -0.4631 -0.0782 -0.5591
  659TMC3     O 9756   1.345   3.709  14.760  0.3803 -0.3400  0.0515
  659TMC3     H 9757   1.584   3.598  14.969  0.4371 -0.6988  0.9248
  659TMC3    H1 9758   1.314   3.443  14.678 -2.5309 -2.7165  0.6027
  659TMC3    H2 9759   1.364   3.238  15.047  3.2233 -2.1710 -0.5233
  659TMC3    C7 9760   1.183   3.305  14.879  0.1446  0.8619 -0.0027
  659TMC3    C8 9761   1.496   3.452  15.164 -0.0308  0.6037  0.6963
  659TMC3    O1 9762   1.151   3.233  14.971  0.2603  0.2332 -0.1620
  659TMC3    O2 9763   1.518   3.570  15.184 -0.8735 -0.0961  0.7267
  660MPD2     C 9764   4.230   2.635  12.513  0.4502 -0.1650  0.0316
  660MPD2    C1 9765   4.102   2.690  12.485 -0.2243 -0.0281  0.2250
  660MPD2    C2 9766   4.002   2.686  12.580  0.1723 -0.0455  0.2531
  660MPD2    C3 9767   4.019   2.625  12.705  0.0489  0.5976  0.1557
  660MPD2    C4 9768   4.149   2.583  12.736 -0.9879  0.2425 -0.2172
  660MPD2    C5 9769   4.246   2.587  12.639  0.2471 -0.3619 -0.1237
  660MPD2     H 9770   3.914   2.738  12.546  1.1264  1.1665 -0.3983
  660MPD2    H1 9771   4.170   2.518  12.820  0.9307 -0.6690 -1.4001
  660MPD2    H2 9772   4.312   2.633  12.441  0.6117  0.0208  0.2101
  660MPD2    H3 9773   4.334   2.527  12.664 -0.5039 -0.7397  1.5936
  660MPD2     N 9774   3.913   2.590  12.791 -0.3292 -0.3331  0.7215
  660MPD2    H5 9775   3.938   2.546  12.879 -0.1604 -0.4722  0.6047
  660MPD2    N1 9776   4.084   2.751  12.350 -0.6818  0.9510 -0.3430
  660MPD2    H7 9777   4.172   2.767  12.302  0.4396 -0.1141  1.3800
  661TMC3    C1 9778   4.010   2.872  12.162 -0.0453  0.1567  0.0047
  661TMC3    C2 9779   4.087   2.797  12.077  0.8446 -0.3663 -0.5488
  661TMC3    C3 9780   4.090   2.834  11.947  0.2566 -0.0957 -0.6512
  661TMC3    C4 9781   3.928   2.964  12.116  0.1761 -0.0513  0.2434
  661TMC3    C5 9782   3.921   2.989  11.977 -0.4658 -0.3446 -0.1324
  661TMC3    C6 9783   4.002   2.922  11.887 -0.3234  0.2686  0.2964
  661TMC3     C 9784   3.983   2.823  12.295  0.1770  0.4549  0.4786
  661TMC3     O 9785   3.870   2.829  12.342  0.0289  0.1245 -0.2941
  661TMC3     H 9786   4.157   2.722  12.112 -0.2004 -0.0367  2.2552
  661TMC3    H1 9787   3.869   3.022  12.186 -0.7495 -1.2896  0.4920
  661TMC3    H2 9788   4.011   2.951  11.783  0.9434  1.4695  0.7404
  661TMC3    C7 9789   3.789   3.024  11.941  0.0335  0.3892 -1.1167
  661TMC3    C8 9790   4.174   2.749  11.868  0.3725 -0.2820  0.8102
  661TMC3    O1 9791   3.716   3.076  12.023  0.3512 -0.0162  0.7763
  661TMC3    O2 9792   4.168   2.628  11.883  0.1944 -0.3344  0.2282
  662MPD2     C 9793   4.561   1.473  17.034  0.0074 -0.1831 -0.1764
  662MPD2    C1 9794   4.566   1.516  17.161 -0.3976 -0.6311 -0.6589
  662MPD2    C2 9795   4.551   1.656  17.180  0.4070  0.8281  0.2798
  662MPD2    C3 9796   4.535   1.750  17.076  0.0917  0.2143 -0.0063
  662MPD2    C4 9797   4.524   1.704  16.951 -0.4046 -0.2614  0.2149
  662MPD2    C5 9798   4.546   1.565  16.935 -0.3614 -0.7131 -0.4199
  662MPD2     H 9799   4.554   1.690  17.283  0.4671  1.2058  0.1533
  662MPD2    H1 9800   4.501   1.765  16.864  2.2175  1.0892  0.4511
  662MPD2    H2 9801   4.566   1.369  17.006  1.9332 -0.1567  0.1149
  662MPD2    H3 9802   4.540   1.526  16.834  2.2805  1.7176 -1.5196
  662MPD2     N 9803   4.500   1.879  17.101 -0.0533 -0.5223 -0.8643
  662MPD2    H5 9804   4.485   1.927  17.013 -1.8490  0.0113 -0.2816
  662MPD2    N1 9805   4.569   1.432  17.271  0.3113  0.1330  0.2889
  662MPD2    H7 9806   4.548   1.475  17.360  0.6969  0.6492  0.1336
  663TMC3    C1 9807   4.599   1.263  17.400 -0.5323  0.3939  0.3350
  663TMC3    C2 9808   4.599   1.352  17.506  0.2408 -0.1425 -0.3072
  663TMC3    C3 9809   4.566   1.304  17.633  0.1587  0.6302  0.0494
  663TMC3    C4 9810   4.580   1.130  17.414 -0.0281 -0.0843 -0.0651
  663TMC3    C5 9811   4.558   1.086  17.535  0.3080 -0.0205 -0.0165
  663TMC3    C6 9812   4.558   1.167  17.643 -0.6611 -0.1392 -0.0372
  663TMC3     C 9813   4.612   1.306  17.268  0.4621 -0.3096  0.1592
  663TMC3     O 9814   4.643   1.235  17.171 -0.5227  0.4577  0.3236
  663TMC3     H 9815   4.588   1.460  17.505  1.6310  0.0119  0.8108
  663TMC3    H1 9816   4.577   1.070  17.324  0.2056  2.2014 -1.5897
  663TMC3    H2 9817   4.493   1.131   0.040  2.0600 -2.2059  1.2656
  663TMC3    C7 9818   4.581   0.943  17.558 -0.3422 -1.0602  0.2586
  663TMC3    C8 9819   4.477   1.394   0.033  0.2695 -0.6280  0.9275
  663TMC3    O1 9820   4.602   0.870  17.466 -0.0043 -0.5375  0.8782
  663TMC3    O2 9821   4.404   1.468  17.656  0.5406 -0.2254 -0.2527
  664MPD2     C 9822   2.170   4.700  17.388 -0.8458 -0.0513 -0.0144
  664MPD2    C1 9823   2.284   0.006  17.457  0.5650  0.0901  0.1562
  664MPD2    C2 9824   2.294   4.686  17.587  0.2464 -0.6351  0.3904
  664MPD2    C3 9825   2.193   4.614  17.649  1.2872  0.4401 -0.2647
  664MPD2    C4 9826   2.072   4.597  17.577 -0.0803  0.5209  1.2787
  664MPD2    C5 9827   2.064   4.632  17.444  0.1029  0.1940  0.2892
  664MPD2     H 9828   2.389   4.693  17.639 -0.3920  2.9795  1.0696
  664MPD2    H1 9829   1.986   4.546  17.617  0.4666  1.2604  3.4129
  664MPD2    H2 9830   2.167   4.714  17.281  1.0341  2.4870  0.2535
  664MPD2    H3 9831   1.985   4.607  17.374  0.4116 -1.9050  0.7011
  664MPD2     N 9832   2.217   4.571   0.100  0.2268  0.2546  0.1393
  664MPD2    H5 9833   2.309   4.590   0.140  1.8871 -4.0897 -1.6675
  664MPD2    N1 9834   2.389   0.087  17.400 -0.0526 -0.3392  0.8448
  664MPD2    H7 9835   2.474   0.102  17.455  0.5372  1.0741 -0.4573
  665TMC3    C1 9836   2.166   4.513   0.324  0.1132 -0.1305  0.0466
  665TMC3    C2 9837   2.066   4.525   0.417  0.4056 -0.1978 -0.8287
  665TMC3    C3 9838   2.101   4.578   0.536 -0.3594 -0.2103  0.1392
  665TMC3    C4 9839   2.294   4.549   0.352 -0.1148  0.4544  0.0232
  665TMC3    C5 9840   2.320   4.596   0.472 -0.0263  0.4214 -0.6287
  665TMC3    C6 9841   2.226   4.606   0.571  0.3534  0.0335  0.5277
  665TMC3     C 9842   2.120   4.522   0.188  0.2669  0.3807  0.2747
  665TMC3     O 9843   2.004   4.487   0.163 -0.2045 -0.0426  0.4413
  665TMC3     H 9844   1.965   4.501   0.385  1.5615 -2.7738 -2.5942
  665TMC3    H1 9845   2.369   4.538   0.275  1.5748 -0.6274  1.8473
  665TMC3    H2 9846   2.251   4.661   0.661 -0.8950  1.0551  0.2440
  665TMC3    C7 9847   2.402   4.720   0.470 -0.8874  0.0560  0.0962
  665TMC3    C8 9848   2.004   4.588   0.641 -0.2005  0.0538  0.1363
  665TMC3    O1 9849   2.401   0.051   0.356 -0.2391  0.0984 -0.4684
  665TMC3    O2 9850   2.052   4.625   0.748 -0.3335 -0.1930  0.1268
  666TMC3    C1 9851   1.485   0.542   9.963  0.8641  0.1572  0.1807
  666TMC3    C2 9852   1.592   0.464   9.995 -0.0860  0.5493  0.2468
  666TMC3    C3 9853   1.699   0.518  10.063  0.9641 -1.0675 -0.5339
  666TMC3    C4 9854   1.483   0.670  10.006 -0.1805 -0.8356 -0.4998
  666TMC3    C5 9855   1.594   0.729  10.055 -0.5232  0.3966  0.3147
  666TMC3    C6 9856   1.702   0.654  10.093  0.0242  0.0442 -0.5349
  666TMC3     C 9857   1.359   0.489   9.939 -0.3048  0.8551  0.5478
  666TMC3     O 9858   1.266   0.567   9.939 -0.6688 -0.3219 -0.1794
  666TMC3     H 9859   1.602   0.358   9.978 -3.0989  0.2318  0.4849
  666TMC3    H1 9860   1.408   0.738   9.968  1.0788 -0.1806 -1.7952
  666TMC3    H2 9861   1.794   0.699  10.129 -0.8900  3.0399 -1.9357
  666TMC3    C7 9862   1.590   0.875  10.082  0.4481  0.0368 -0.1607
  666TMC3    C8 9863   1.765   0.426  10.153 -0.1054  0.1534 -0.7204
  666TMC3    O1 9864   1.504   0.939  10.023 -0.3924  0.0251 -0.3470
  666TMC3    O2 9865   1.708   0.319  10.172  0.6834 -0.2172 -0.7709
  667MPD2     C 9866   2.960   0.075  14.795 -0.0968 -0.0176  0.1314
  667MPD2    C1 9867   2.881   0.151  14.881 -0.1804  0.3463  0.0705
  667MPD2    C2 9868   2.755   0.177  14.836 -0.1499 -0.4197  0.3593
  667MPD2    C3 9869   2.707   0.140  14.710  0.4249  0.2205  0.3509
  667MPD2    C4 9870   2.788   0.067  14.627 -0.1704  0.6998 -0.2098
  667MPD2    C5 9871   2.919   0.042  14.670 -0.0705  0.5430 -0.2768
  667MPD2     H 9872   2.692   0.237  14.901  0.8880  0.5696  0.4442
  667MPD2    H1 9873   2.757   0.032  14.529  0.0648 -1.0571  0.3351
  667MPD2    H2 9874   3.062   0.058  14.826  0.0198 -0.4864 -0.4994
  667MPD2    H3 9875   2.995   4.719  14.606  0.7675  0.5571  0.7065
  667MPD2     N 9876   2.580   0.160  14.657  0.0836  0.2563 -0.2456
  667MPD2    H5 9877   2.557   0.114  14.569  1.3084 -0.6641 -0.0778
  667MPD2    N1 9878   2.930   0.211  14.996 -0.2138  0.0699  0.0892
  667MPD2    H7 9879   2.864   0.271  15.044 -1.7023 -2.9292  1.7899
  668TMC3    C1 9880   3.077   0.291  15.154 -0.1881  0.3672  0.5927
  668TMC3    C2 9881   3.195   0.370  15.171  0.2681 -0.0282  0.3208
  668TMC3    C3 9882   3.223   0.391  15.306  0.2256  0.0120  0.0094
  668TMC3    C4 9883   3.002   0.232  15.253 -0.7506 -0.9131  0.0066
  668TMC3    C5 9884   3.044   0.257  15.381  0.1104 -0.5012  0.0142
  668TMC3    C6 9885   3.156   0.335  15.412 -0.3105  0.5079 -0.2831
  668TMC3     C 9886   3.066   0.226  15.030  0.0700 -0.2183  0.0401
  668TMC3     O 9887   3.163   0.158  14.996 -0.4805  0.1533  0.4412
  668TMC3     H 9888   3.249   0.417  15.090  0.1187 -0.8882 -0.2839
  668TMC3    H1 9889   2.917   0.169  15.227  0.0260 -1.7692 -0.4556
  668TMC3    H2 9890   3.203   0.342  15.509 -1.7888 -0.3319  0.4926
  668TMC3    C7 9891   2.996   0.185  15.498  0.3651 -1.1101 -0.1349
  668TMC3    C8 9892   3.332   0.483  15.331  0.5928  0.6350  0.5490
  668TMC3    O1 9893   3.032   0.224  15.609  0.0681  0.3801  0.2217
  668TMC3    O2 9894   3.368   0.475  15.448 -0.1300  0.4133 -0.7111
  669TMC3    C1 9895   1.367   0.151  14.599 -0.3839 -0.4624  0.4146
  669TMC3    C2 9896   1.253   0.186  14.530  0.2477  0.8047  0.4799
  669TMC3    C3 9897   1.271   0.252  14.407 -0.5411 -0.3511  0.3699
  669TMC3    C4 9898   1.486   0.209  14.564  0.0497  0.0252 -0.3750
  669TMC3    C5 9899   1.497   0.273  14.444 -0.1547 -0.6348 -0.7078
  669TMC3    C6 9900   1.391   0.299  14.367 -0.2543  0.9983 -0.7035
  669TMC3     C 9901   1.352   0.083  14.723 -0.0561  0.3313  0.1040
  669TMC3     O 9902   1.243   0.070  14.770  0.2482  0.2258 -0.0899
  669TMC3     H 9903   1.161   0.136  14.555  1.9662 -1.8121  1.5640
  669TMC3    H1 9904   1.563   0.222  14.639  0.2821  0.2016 -0.6430
  669TMC3    H2 9905   1.403   0.346  14.270 -0.5193 -0.8584 -1.6221
  669TMC3    C7 9906   1.625   0.341  14.413 -0.3350  0.2078 -0.4975
  669TMC3    C8 9907   1.151   0.276  14.318 -0.5681  1.0602  0.1384
  669TMC3    O1 9908   1.701   0.363  14.508  0.2009  0.1251 -0.4361
  669TMC3    O2 9909   1.170   0.305  14.201  0.6929 -1.0939  0.4728
  670MPD2     C 9910   4.300   2.959  13.314  0.1351 -0.7309 -0.1555
  670MPD2    C1 9911   4.381   2.986  13.422  0.1328 -0.0961 -0.2041
  670MPD2    C2 9912   4.335   2.952  13.549 -0.4680  0.4279 -0.1702
  670MPD2    C3 9913   4.218   2.881  13.566 -0.0754  0.3798  0.5640
  670MPD2    C4 9914   4.135   2.849  13.461 -0.1455  0.3950 -0.1323
  670MPD2    C5 9915   4.179   2.888  13.337 -0.2082  0.2139 -0.2772
  670MPD2     H 9916   4.405   2.959  13.631 -0.3705 -2.0426 -0.0284
  670MPD2    H1 9917   4.040   2.798  13.470 -0.6939  1.1052 -2.0768
  670MPD2    H2 9918   4.329   2.988  13.214  0.6528  1.3702  0.5954
  670MPD2    H3 9919   4.123   2.854  13.251  0.7582  1.6174 -1.4463
  670MPD2     N 9920   4.190   2.834  13.698  0.2666  0.4450  0.0761
  670MPD2    H5 9921   4.260   2.861  13.766 -1.3380  1.6328  1.2392
  670MPD2    N1 9922   4.508   3.045  13.416 -0.3422  0.3821 -0.3570
  670MPD2    H7 9923   4.554   3.058  13.506  3.2567 -2.1015 -1.8174
  671TMC3    C1 9924   4.068   2.712  13.876 -0.2372  0.5844  0.1405
  671TMC3    C2 9925   4.173   2.729  13.961 -0.3793  0.0121 -0.1876
  671TMC3    C3 9926   4.198   2.630  14.053 -0.3349 -0.0102 -0.2856
  671TMC3    C4 9927   3.962   2.635  13.908 -0.1664  0.4146 -0.3674
  671TMC3    C5 9928   3.980   2.544  14.010 -0.2796  0.2242 -0.3254
  671TMC3    C6 9929   4.100   2.537  14.077 -0.2657  0.1696 -0.6380
  671TMC3     C 9930   4.077   2.756  13.734 -0.0616  0.4571  0.3197
  671TMC3     O 9931   3.988   2.717  13.660 -0.6871 -0.2114  0.4425
  671TMC3     H 9932   4.257   2.789  13.927 -0.1203 -0.7102 -0.8237
  671TMC3    H1 9933   3.877   2.633  13.840  0.5439 -0.3343 -1.2256
  671TMC3    H2 9934   4.121   2.453  14.143 -2.4853  1.3775  1.6056
  671TMC3    C7 9935   3.905   2.421  13.981  0.9304  0.2232 -1.0731
  671TMC3    C8 9936   4.333   2.574  14.038 -0.4924  0.3364  0.1493
  671TMC3    O1 9937   3.799   2.440  13.922 -0.6040 -0.2600  0.5582
  671TMC3    O2 9938   4.343   2.457  14.003  0.4655 -0.2823  0.0233
  672MPD2     C 9939   0.050   2.563   1.238  0.0391  0.1999  0.3161
  672MPD2    C1 9940   0.163   2.520   1.171  0.2149  0.1764  0.2421
  672MPD2    C2 9941   0.282   2.586   1.184 -1.0183  0.3433  0.1622
  672MPD2    C3 9942   0.277   2.705   1.265 -0.2907  0.2410  0.2949
  672MPD2    C4 9943   0.159   2.749   1.325 -0.1020  0.0704  0.2675
  672MPD2    C5 9944   0.044   2.677   1.315 -0.0705 -0.3974  0.1974
  672MPD2     H 9945   0.363   2.546   1.123 -1.5842 -1.7597  0.8118
  672MPD2    H1 9946   0.162   2.842   1.381  0.0596  0.0061  0.3641
  672MPD2    H2 9947   4.677   2.507   1.237  1.8315 -2.7643 -0.0970
  672MPD2    H3 9948   4.664   2.696   1.352  0.3302  0.9643  0.5632
  672MPD2     N 9949   0.394   2.788   1.276  0.3046  0.2433  0.0707
  672MPD2    H5 9950   0.395   2.878   1.321  0.2337 -0.7835  2.1408
  672MPD2    N1 9951   0.156   2.406   1.081 -0.1471 -0.1451 -0.0094
  672MPD2    H7 9952   0.249   2.392   1.044 -0.7914 -2.8965 -0.5501
  673TMC3    C1 9953   0.058   2.281   0.909  0.4819  0.3528  0.6488
  673TMC3    C2 9954   0.179   2.221   0.877 -0.3843  0.1536  0.4235
  673TMC3    C3 9955   0.200   2.181   0.749 -0.6201 -1.2097  0.2699
  673TMC3    C4 9956   4.674   2.295   0.820  0.0317  0.2918 -1.0201
  673TMC3    C5 9957   4.700   2.250   0.693  0.0140  0.6505 -0.5499
  673TMC3    C6 9958   0.099   2.195   0.659  0.2453  0.4045 -0.3227
  673TMC3     C 9959   0.042   2.337   1.043 -0.3876  0.6977 -0.1377
  673TMC3     O 9960   4.643   2.361   1.058 -0.3951  0.3784 -0.3380
  673TMC3     H 9961   0.247   2.209   0.960  0.8104 -1.9705 -0.8659
  673TMC3    H1 9962   4.578   2.339   0.846  0.7171  2.2487 -1.7769
  673TMC3    H2 9963   0.115   2.168   0.555  1.3155  1.5435 -0.4522
  673TMC3    C7 9964   4.650   2.318   0.578  0.9622 -0.1391  0.4402
  673TMC3    C8 9965   0.331   2.141   0.699 -0.2475  0.3048 -0.0692
  673TMC3    O1 9966   4.675   2.273   0.468  0.9304 -0.3450  0.1965
  673TMC3    O2 9967   0.329   2.080   0.590 -0.5617 -0.0098 -0.2249
  674MPD2     C 9968   0.016   2.986   0.080  0.3660 -0.0448 -0.5424
  674MPD2    C1 9969   4.677   2.864   0.056 -0.1979  0.0557 -0.0660
  674MPD2    C2 9970   4.537   2.860   0.053  1.5478  0.1501  0.3966
  674MPD2    C3 9971   4.458   2.976   0.083  0.3735 -0.1567  0.3832
  674MPD2    C4 9972   4.525   3.096   0.093  0.7789 -0.6942  0.2105
  674MPD2    C5 9973   4.661   3.101   0.091  0.1951  0.5665 -0.8433
  674MPD2     H 9974   4.485   2.766   0.036  1.9616  0.1441 -0.8750
  674MPD2    H1 9975   4.473   3.190   0.105  1.0636 -0.2524 -2.0942
  674MPD2    H2 9976   0.124   2.995   0.084  0.2856  0.4526  0.5182
  674MPD2    H3 9977   4.713   3.194   0.108  2.3168 -0.9797  1.0863
  674MPD2     N 9978   4.327   2.961   0.110  0.7040 -0.1198  0.1575
  674MPD2    H5 9979   4.281   2.872   0.092 -0.9429  0.9801 -0.9644
  674MPD2    N1 9980   0.042   2.754   0.045 -0.1419 -0.0573 -0.0748
  674MPD2    H7 9981   0.135   2.766   0.084 -0.2457 -1.4867  0.6304
  675TMC3    C1 9982   0.099   2.544   0.093  0.2344  0.4031 -0.0724
  675TMC3    C2 9983   0.090   2.412   0.063 -0.2772 -0.6217 -0.1168
  675TMC3    C3 9984   0.143   2.316   0.142  0.2987  0.2253  0.3697
  675TMC3    C4 9985   0.156   2.582   0.215  0.7485 -0.0686  0.2442
  675TMC3    C5 9986   0.194   2.477   0.299 -0.1640  0.1886 -0.0103
  675TMC3    C6 9987   0.199   2.343   0.260  0.4446  0.1998 -1.0934
  675TMC3     C 9988   0.003   2.625   0.025  0.2740  0.2603 -0.5038
  675TMC3     O 9989   4.631   2.569  17.644  0.4099 -0.2545  0.5726
  675TMC3     H 9990   0.023   2.377  17.666 -0.2688 -0.8572 -0.0189
  675TMC3    H1 9991   0.137   2.680   0.256 -0.4137 -0.0279 -0.4023
  675TMC3    H2 9992   0.224   2.266   0.332 -0.1556 -0.5715 -1.7157
  675TMC3    C7 9993   0.240   2.504   0.436  0.4756  0.0663  0.2822
  675TMC3    C8 9994   0.089   2.184   0.118  0.0199  0.2612 -0.3411
  675TMC3    O1 9995   0.326   2.427   0.474  0.2518 -0.5361 -0.2691
  675TMC3    O2 9996   0.107   2.147   0.004  0.8253  0.4531 -0.3876
  676MPD2     C 9997   2.175   1.648  10.906  0.0329  0.2363  0.3761
  676MPD2    C1 9998   2.142   1.629  11.040  0.6750  0.2794  0.4125
  676MPD2    C2 9999   2.126   1.499  11.086 -0.5151  0.0458 -0.3562
  676MPD2    C310000   2.153   1.384  11.009  0.6091  0.2818 -0.7292
  676MPD2    C410001   2.195   1.409  10.874 -0.5563 -0.0547  0.4137
  676MPD2    C510002   2.196   1.540  10.825  0.1536  0.4693  0.2181
  676MPD2     H10003   2.102   1.482  11.191 -1.0726  1.2878 -0.2766
  676MPD2    H110004   2.216   1.335  10.798 -2.0760 -0.0562 -0.0191
  676MPD2    H210005   2.177   1.743  10.853  0.3737 -1.5215 -2.6876
  676MPD2    H310006   2.228   1.561  10.724 -0.3835  0.9654  0.1546
  676MPD2     N10007   2.158   1.256  11.067  0.6887 -0.7666 -0.7794
  676MPD2    H510008   2.123   1.247  11.162  2.5029 -1.9805 -0.2308
  676MPD2    N110009   2.119   1.736  11.127  0.0266  0.4976  0.1922
  676MPD2    H710010   2.074   1.710  11.215  1.4746  0.2535  0.8531
  677TMC3    C110011   2.069   1.928  11.231 -0.1331  0.6185  0.0347
  677TMC3    C210012   1.960   1.854  11.278  0.3532 -0.5031 -0.2808
  677TMC3    C310013   1.936   1.849  11.414 -0.1939  0.0649  0.5328
  677TMC3    C410014   2.147   1.993  11.320 -0.2352 -0.2299 -0.1162
  677TMC3    C510015   2.112   1.992  11.455 -0.2901 -1.0852  0.0969
  677TMC3    C610016   2.002   1.925  11.503 -0.2099  0.0043  0.8449
  677TMC3     C10017   2.130   1.872  11.112 -0.4581  0.0143  0.2338
  677TMC3     O10018   2.210   1.934  11.043  0.1077 -0.5299  0.5458
  677TMC3     H10019   1.895   1.810  11.204  0.1688 -1.2701  0.3353
  677TMC3    H110020   2.237   2.041  11.283  0.3683 -0.5178  0.9905
  677TMC3    H210021   1.978   1.911  11.608 -0.1502  0.2457  0.8909
  677TMC3    C710022   2.208   2.009  11.557 -0.0699  0.5846 -0.3980
  677TMC3    C810023   1.825   1.770  11.457 -0.3134  0.7787 -0.0265
  677TMC3    O110024   2.188   1.977  11.675  0.3998  0.4356 -0.7150
  677TMC3    O210025   1.727   1.756  11.387 -0.6732  0.1547 -0.2606
  678MPD2     C10026   3.409   0.360   1.484  0.0910  0.1679 -0.2519
  678MPD2    C110027   3.377   0.354   1.352  0.3239 -0.2713 -0.7864
  678MPD2    C210028   3.266   0.418   1.306 -0.5764  0.2068  0.2038
  678MPD2    C310029   3.208   0.516   1.383  0.2256 -0.1800  0.4122
  678MPD2    C410030   3.252   0.538   1.518  0.0909  1.1700 -0.0256
  678MPD2    C510031   3.339   0.443   1.572 -0.6277  0.0478  0.3911
  678MPD2     H10032   3.243   0.415   1.200  0.1916  0.5889  0.0260
  678MPD2    H110033   3.203   0.614   1.577 -1.8718 -0.5986  0.6129
  678MPD2    H210034   3.481   0.293   1.529 -0.2754 -1.0334 -1.4646
  678MPD2    H310035   3.373   0.456   1.674 -0.8857 -0.7740  0.5811
  678MPD2     N10036   3.116   0.595   1.312 -0.4025  0.1028 -0.4953
  678MPD2    H510037   3.114   0.582   1.211 -0.0861 -0.3858 -0.4346
  678MPD2    N110038   3.442   0.269   1.257  0.1687  0.3234 -0.1808
  678MPD2    H710039   3.398   0.279   1.166 -1.0065  1.6403  0.5333
  679TMC3    C110040   3.740   4.689   1.067  0.6498  1.2790  0.5160
  679TMC3    C210041   3.643   4.716   1.157 -0.0466 -0.1129 -1.0416
  679TMC3    C310042   3.595   0.126   1.151  0.3210  0.0536 -0.0069
  679TMC3    C410043   3.792   0.066   0.988  0.4382  0.0734 -0.0140
  679TMC3    C510044   3.733   0.189   0.979 -0.5293  0.0207 -0.2267
  679TMC3    C610045   3.633   0.222   1.066  0.4510 -0.9833 -0.5708
  679TMC3     C10046   3.830   4.580   1.096  0.2664  0.0799  0.7178
  679TMC3     O10047   3.938   4.575   1.041  0.1853  0.1144  0.4394
  679TMC3     H10048   3.609   4.644   1.231 -1.6239  1.4463 -0.2643
  679TMC3    H110049   3.883   0.045   0.933 -0.8628 -2.0536 -1.3963
  679TMC3    H210050   3.597   0.324   1.073 -0.7345 -1.4791  0.6496
  679TMC3    C710051   3.799   0.295   0.926 -1.0908 -0.5001  0.5388
  679TMC3    C810052   3.539   0.175   1.277 -0.3657  0.5673  0.0242
  679TMC3    O110053   3.758   0.407   0.953 -0.1112 -0.8558 -0.5925
  679TMC3    O210054   3.591   0.142   1.380  0.5476 -0.0669  0.0621
  680MPD2     C10055   4.108   0.455  13.721 -0.0735  0.8268 -0.4748
  680MPD2    C110056   4.208   0.370  13.767  0.5162 -0.3144  0.7274
  680MPD2    C210057   4.316   0.425  13.829  0.1464 -0.0947 -0.0041
  680MPD2    C310058   4.328   0.565  13.846 -0.3492 -1.0066  0.5516
  680MPD2    C410059   4.231   0.645  13.790  0.1041 -0.3983  0.0988
  680MPD2    C510060   4.122   0.590  13.725  0.4307  0.7575 -0.4024
  680MPD2     H10061   4.396   0.362  13.865  0.5705  0.3514 -0.1498
  680MPD2    H110062   4.233   0.753  13.799 -0.1486 -0.4029  0.2153
  680MPD2    H210063   4.025   0.418  13.664  2.3377 -1.2899 -2.6040
  680MPD2    H310064   4.045   0.652  13.678 -1.2820 -2.4078 -1.7899
  680MPD2     N10065   4.441   0.620  13.901  0.2581 -0.2700  0.1694
  680MPD2    H510066   4.449   0.721  13.904 -1.5324 -0.1995  2.2899
  680MPD2    N110067   4.193   0.232  13.768  0.0157 -0.1649 -0.1367
  680MPD2    H710068   4.274   0.182  13.801 -0.9454 -0.6958  1.4321
  681TMC3    C110069   4.104   0.026  13.733  0.1150 -0.9120 -0.0277
  681TMC3    C210070   4.001   4.663  13.776  0.6711  0.2867 -0.0409
  681TMC3    C310071   4.039   4.536  13.817  1.0263 -0.1075 -0.0105
  681TMC3    C410072   4.237   4.701  13.716 -0.8008  0.1906 -0.2121
  681TMC3    C510073   4.260   4.568  13.737  0.1390  0.2223 -0.2828
  681TMC3    C610074   4.170   4.483  13.792 -0.4649 -0.2508  0.0008
  681TMC3     C10075   4.081   0.166  13.730  0.5216  0.2133  0.0419
  681TMC3     O10076   3.970   0.203  13.698  0.2199 -0.2764 -0.1176
  681TMC3     H10077   3.903   4.701  13.803  0.9007  0.0497  1.1396
  681TMC3    H110078   4.310   0.054  13.683 -2.4818  0.8899 -2.3766
  681TMC3    H210079   4.176   4.382  13.831 -1.2019 -0.0858  0.5671
  681TMC3    C710080   4.386   4.499  13.692 -0.0946  0.3451 -0.1832
  681TMC3    C810081   3.957   4.479  13.923 -0.3505 -0.5990  0.7490
  681TMC3    O110082   4.432   4.409  13.766 -0.2031  0.1526  0.1348
  681TMC3    O210083   3.836   4.469  13.908  0.0298 -0.0854 -0.2239
  682MPD2     C10084   1.305   1.867  10.830  0.0779 -0.4934 -0.1527
  682MPD2    C110085   1.267   1.731  10.800  0.0545 -1.2957 -0.0441
  682MPD2    C210086   1.235   1.642  10.898 -0.7929 -0.3708 -0.1423
  682MPD2    C310087   1.247   1.672  11.032  0.2270 -0.3044  0.0731
  682MPD2    C410088   1.266   1.807  11.065 -0.4266  0.2179 -0.4853
  682MPD2    C510089   1.289   1.900  10.962  0.2671 -0.5912 -0.0368
  682MPD2     H10090   1.206   1.543  10.864  0.3341 -1.0318  0.8174
  682MPD2    H110091   1.251   1.842  11.167 -1.3637 -0.6360 -0.3349
  682MPD2    H210092   1.321   1.941  10.753 -1.1657  0.1341  0.1901
  682MPD2    H310093   1.299   2.005  10.988  0.2629 -0.5441 -0.2202
  682MPD2     N10094   1.208   1.580  11.131  0.0199  0.0288  0.4965
  682MPD2    H510095   1.186   1.632  11.215  1.0417 -0.0072  0.7791
  682MPD2    N110096   1.269   1.676  10.668  0.5674  0.2049  0.4630
  682MPD2    H710097   1.255   1.576  10.669  1.5931  0.0603  0.1173
  683TMC3    C110098   0.983   1.418  11.410  0.7008 -0.1503  0.3308
  683TMC3    C210099   0.904   1.310  11.379 -0.5686 -0.3058 -0.3709
  683TMC3    C310100   0.962   1.226  11.289  0.2269 -0.1466  0.3365
  683TMC3    C410101   1.088   1.456  11.333 -0.0415  0.0503  0.2693
  683TMC3    C510102   1.123   1.382  11.231 -0.1265  0.3168  0.5946
  683TMC3    C610103   1.074   1.259  11.213 -0.2058  0.1545 -0.0522
  683TMC3     C10104   0.994   1.460  11.555 -0.4909 -0.2482  1.2006
  683TMC3     O10105   1.075   1.549  11.596 -0.2042 -0.2642  0.2813
  683TMC3     H10106   0.816   1.274  11.431  0.0148 -0.2685  0.6475
  683TMC3    H110107   1.139   1.548  11.361 -1.6434  0.3357  2.2158
  683TMC3    H210108   1.112   1.194  11.134  0.1159  1.1438 -0.7067
  683TMC3    C710109   1.185   1.446  11.117 -0.0960  0.3070 -0.2342
  683TMC3    C810110   0.883   1.112  11.250  0.5498  0.8898  0.9186
  683TMC3    O110111   1.206   1.378  11.016  0.1114 -0.4799 -0.0422
  683TMC3    O210112   0.769   1.124  11.210  0.0342  0.1351  0.5066
  684MPD2     C10113   4.208   0.519  16.757  0.4632 -0.0645 -0.4740
  684MPD2    C110114   4.223   0.542  16.621 -0.0615  0.2994 -0.0664
  684MPD2    C210115   4.242   0.667  16.569 -0.3852 -0.1437  1.0144
  684MPD2    C310116   4.251   0.779  16.656 -0.1495  0.5869 -0.3136
  684MPD2    C410117   4.240   0.756  16.792  0.1397 -0.5534  0.1187
  684MPD2    C510118   4.211   0.632  16.837  0.2704  0.0904 -0.2976
  684MPD2     H10119   4.259   0.667  16.462  1.0014  0.7664  1.2342
  684MPD2    H110120   4.240   0.838  16.863 -3.9951 -0.2916 -0.1916
  684MPD2    H210121   4.188   0.424  16.804  0.9098  0.4875  0.8492
  684MPD2    H310122   4.189   0.614  16.941  0.0990 -0.2786 -0.3988
  684MPD2     N10123   4.266   0.915  16.607 -0.0198 -0.0084 -0.6691
  684MPD2    H510124   4.264   0.990  16.676 -0.9565 -0.8758  0.2534
  684MPD2    N110125   4.220   0.433  16.529 -0.5868 -0.3012  0.0249
  684MPD2    H710126   4.238   0.451  16.430 -0.1678 -2.0864 -0.2247
  685TMC3    C110127   4.267   0.220  16.455 -0.7903  0.6904  0.3346
  685TMC3    C210128   4.207   0.238  16.332 -0.0207  0.2236  0.8352
  685TMC3    C310129   4.255   0.171  16.225 -0.0417  0.2902 -0.0504
  685TMC3    C410130   4.379   0.146  16.471  0.2093  0.5211  1.0214
  685TMC3    C510131   4.421   0.076  16.363 -0.4442  0.0834 -0.1812
  685TMC3    C610132   4.364   0.093  16.240 -0.2181  0.3790 -0.0399
  685TMC3     C10133   4.221   0.303  16.566 -0.1836 -0.2195  0.3883
  685TMC3     O10134   4.221   0.255  16.679  0.0074 -0.2114 -0.3016
  685TMC3     H10135   4.115   0.295  16.336 -1.4727 -2.0801  0.3785
  685TMC3    H110136   4.442   0.148  16.559 -4.3645 -2.0842  4.3335
  685TMC3    H210137   4.394   0.018  16.168  1.1327  1.7571 -0.9280
  685TMC3    C710138   4.551   0.019  16.373  0.3485  0.1035  0.2488
  685TMC3    C810139   4.197   0.183  16.090 -0.2510  0.3180  0.2747
  685TMC3    O110140   4.571   4.687  16.481  0.5552 -0.5045  0.6283
  685TMC3    O210141   4.233   0.103  16.007 -0.0041 -0.1367 -0.7982
  686MPD2     C10142   1.079   0.613  15.732 -0.3768 -0.6458 -0.8771
  686MPD2    C110143   1.100   0.497  15.803 -0.0584  0.4807  0.2160
  686MPD2    C210144   1.163   0.401  15.734  0.6514  0.1115  0.0145
  686MPD2    C310145   1.180   0.397  15.603 -1.2753  0.5406  0.3086
  686MPD2    C410146   1.158   0.508  15.525 -0.3651 -0.9713 -0.4972
  686MPD2    C510147   1.107   0.615  15.596 -0.1726 -0.9915  0.2768
  686MPD2     H10148   1.179   0.316  15.798 -0.7692  0.4854  0.8750
  686MPD2    H110149   1.150   0.495  15.418 -0.1903  2.8927 -0.9667
  686MPD2    H210150   1.014   0.693  15.768 -0.1596 -1.1596  0.6379
  686MPD2    H310151   1.064   0.697  15.539  0.9259  0.7261  1.8911
  686MPD2     N10152   1.233   0.285  15.539  0.0867 -0.2459  0.2164
  686MPD2    H510153   1.273   0.298  15.446 -0.4964 -1.2380 -0.1736
  686MPD2    N110154   1.063   0.487  15.942 -0.0911 -0.0905  0.3451
  686MPD2    H710155   1.005   0.567  15.968  1.0984  1.8191 -2.9010
  687TMC3    C110156   1.119   0.105  15.668  0.3511  0.0175  0.3550
  687TMC3    C210157   0.998   0.160  15.637  0.5909  0.2507  0.1793
  687TMC3    C310158   0.895   0.134  15.717 -0.2264  0.3839  0.4218
  687TMC3    C410159   1.148   0.019  15.768  0.2000  0.1210  0.2940
  687TMC3    C510160   1.043   4.709  15.846 -0.5906 -0.5166  0.0292
  687TMC3    C610161   0.925   0.054  15.826 -0.4555 -0.1077  0.2002
  687TMC3     C10162   1.228   0.149  15.587 -0.4713 -0.3173  0.3460
  687TMC3     O10163   1.306   0.060  15.547 -0.6178 -0.1826  0.4771
  687TMC3     H10164   0.993   0.232  15.556  0.1271  0.4864  0.4157
  687TMC3    H110165   1.246   4.694  15.782  0.5269  0.5751 -0.5556
  687TMC3    H210166   0.845   0.022  15.892 -1.0592 -1.5869 -1.2158
  687TMC3    C710167   1.064   4.684  15.990 -0.3079 -0.0283  0.2462
  687TMC3    C810168   0.776   0.224  15.723  0.0865  0.7982  0.0246
  687TMC3    O110169   0.965   4.672  16.062  0.4313 -0.0014 -0.0611
  687TMC3    O210170   0.687   0.189  15.798  0.1017 -0.1733  0.0478
  688MPD2     C10171   0.590   4.120  17.451 -0.5400 -0.0894 -0.6395
  688MPD2    C110172   0.628   3.989  17.474  0.2371 -0.0234  0.1281
  688MPD2    C210173   0.713   3.930  17.384  0.3245  0.1708  0.1812
  688MPD2    C310174   0.764   3.997  17.274  0.0906  0.3193 -0.1424
  688MPD2    C410175   0.729   4.130  17.258  0.7386 -0.7521  0.2186
  688MPD2    C510176   0.643   4.187  17.343 -0.5598  0.8391  0.0365
  688MPD2     H10177   0.735   3.825  17.394  0.1270  0.1739  0.6318
  688MPD2    H110178   0.754   4.191  17.172  0.2347 -0.2889  0.3972
  688MPD2    H210179   0.537   4.188  17.517  1.4475 -2.0896  3.0212
  688MPD2    H310180   0.607   4.285  17.315 -1.1695  0.4027 -0.7261
  688MPD2     N10181   0.835   3.931  17.164 -1.3845  0.4293 -0.0109
  688MPD2    H510182   0.870   3.984  17.085  0.2660 -0.8787 -0.1423
  688MPD2    N110183   0.572   3.913  17.581  0.6303  0.0249 -0.1749
  688MPD2    H710184   0.593   3.814  17.586 -0.9622 -0.2819  0.4076
  689TMC3    C110185   0.427   3.867   0.084 -0.1438  0.3924  0.5766
  689TMC3    C210186   0.393   3.902   0.212 -0.5743 -0.5101 -0.0759
  689TMC3    C310187   0.320   3.818   0.287 -0.3308 -0.3658  0.3934
  689TMC3    C410188   0.376   3.755   0.025 -0.2035 -0.5159 -0.1587
  689TMC3    C510189   0.290   3.683   0.105 -0.5740  0.0982  0.1150
  689TMC3    C610190   0.258   3.711   0.231 -0.3688  0.3625  0.0804
  689TMC3     C10191   0.491   3.966   0.003  0.1800 -0.6133  0.4127
  689TMC3     O10192   0.491   4.080   0.046  0.4023  0.0956 -0.1071
  689TMC3     H10193   0.446   3.988   0.250 -0.0242 -1.2635  0.8690
  689TMC3    H110194   0.393   3.739  17.601  0.1963  3.7174 -0.7472
  689TMC3    H210195   0.199   3.643   0.292  1.1604 -1.6118 -0.6659
  689TMC3    C710196   0.249   3.560   0.047 -0.4351 -0.0346  0.0701
  689TMC3    C810197   0.282   3.856   0.426 -0.2609 -0.6782 -0.2110
  689TMC3    O110198   0.135   3.513   0.078 -0.3204  0.6347  0.5034
  689TMC3    O210199   0.220   3.761   0.478 -0.0857 -0.1736 -0.1987
  690MPD2     C10200   2.521   1.275  15.875  0.1794 -0.0154  0.8421
  690MPD2    C110201   2.531   1.263  15.737  0.5285 -0.0948 -0.4077
  690MPD2    C210202   2.657   1.285  15.682  0.1070 -0.1858  0.2117
  690MPD2    C310203   2.768   1.315  15.756 -0.1703 -0.7180  0.2631
  690MPD2    C410204   2.761   1.318  15.894  0.4089 -0.5347  0.7459
  690MPD2    C510205   2.635   1.300  15.954  0.0469  0.2252  0.5381
  690MPD2     H10206   2.666   1.289  15.574  0.9238  0.9130  0.3357
  690MPD2    H110207   2.845   1.341  15.958  0.2123 -1.5051  1.3542
  690MPD2    H210208   2.429   1.254  15.928 -0.0344  1.2219  0.9611
  690MPD2    H310209   2.634   1.309  16.062 -0.1622  1.0834  0.4681
  690MPD2     N10210   2.884   1.349  15.677 -0.3185 -0.0910 -0.2069
  690MPD2    H510211   2.877   1.358  15.576  1.5101 -1.3266 -0.4492
  690MPD2    N110212   2.429   1.230  15.652 -0.9726  0.0634 -0.1650
  690MPD2    H710213   2.451   1.231  15.553  2.6391 -0.0751  0.6093
  691TMC3    C110214   2.227   1.140  15.582 -0.3565 -0.0381 -0.2571
  691TMC3    C210215   2.098   1.122  15.617 -0.3582 -0.4145  0.6087
  691TMC3    C310216   2.021   1.035  15.553  0.5364  0.2950 -0.0660
  691TMC3    C410217   2.288   1.064  15.485  0.3198 -0.2344  0.5183
  691TMC3    C510218   2.211   0.965  15.422 -0.6271 -0.6812 -0.6295
  691TMC3    C610219   2.076   0.961  15.454  0.0129  0.0377  0.5982
  691TMC3     C10220   2.307   1.194  15.691 -0.3669 -0.7102  0.3402
  691TMC3     O10221   2.252   1.216  15.796  0.6359  0.7167  0.2220
  691TMC3     H10222   2.060   1.176  15.702  2.3898  2.7012 -0.1115
  691TMC3    H110223   2.390   1.079  15.453  0.8796 -2.9723  1.0312
  691TMC3    H210224   2.018   0.889  15.398 -0.5387  1.9580 -1.3013
  691TMC3    C710225   2.265   0.836  15.440  0.4990 -0.3891 -0.8676
  691TMC3    C810226   1.920   0.965  15.616 -0.6812 -0.5893 -0.2440
  691TMC3    O110227   2.388   0.822  15.435 -0.3375 -0.4335  0.1187
  691TMC3    O210228   1.936   0.840  15.611  0.1079  0.0003  0.5383
  692TMC3    C110229   4.094   2.160  15.762  0.2576 -0.0605 -0.1818
  692TMC3    C210230   4.206   2.208  15.819 -0.5867  0.4689 -0.0098
  692TMC3    C310231   4.291   2.111  15.876 -0.1420  0.8394 -0.1807
  692TMC3    C410232   4.062   2.028  15.770  0.4369 -0.9232 -0.5750
  692TMC3    C510233   4.133   1.942  15.845 -0.1876  0.1497  0.8977
  692TMC3    C610234   4.246   1.987  15.905  0.1828  0.1320 -0.6812
  692TMC3     C10235   3.977   2.247  15.801 -0.0221 -1.0360  0.9102
  692TMC3     O10236   3.875   2.187  15.833 -0.3010 -0.0439 -0.0004
  692TMC3     H10237   4.257   2.296  15.782 -2.2667  2.3751  2.2607
  692TMC3    H110238   3.972   1.988  15.724 -0.7155 -2.0077  2.6170
  692TMC3    H210239   4.318   1.917  15.946  0.6487  0.9492 -0.0897
  692TMC3    C710240   4.130   1.794  15.818  0.0230 -0.0628  0.0370
  692TMC3    C810241   4.369   2.165  15.984 -0.1852 -0.0043  0.1228
  692TMC3    O110242   4.084   1.756  15.711  0.3824  0.2193  0.7126
  692TMC3    O210243   4.442   2.093  16.052 -0.1280 -0.4391 -0.5683
  693MPD2     C10244   3.333   0.646  10.731 -0.7526 -0.3068  0.3245
  693MPD2    C110245   3.354   0.515  10.698 -0.1211  0.7178 -0.5941
  693MPD2    C210246   3.484   0.463  10.701  0.2563 -0.0929  0.2892
  693MPD2    C310247   3.589   0.535  10.748  0.6522  0.1189  0.0785
  693MPD2    C410248   3.564   0.668  10.764 -0.3304  1.1204 -0.4293
  693MPD2    C510249   3.440   0.725  10.749 -0.3151 -0.3853 -0.6126
  693MPD2     H10250   3.480   0.356  10.687 -1.4043 -0.1582  1.2243
  693MPD2    H110251   3.643   0.740  10.785  0.8985  0.5070 -2.9423
  693MPD2    H210252   3.238   0.697  10.720  0.2192  0.8789 -2.4856
  693MPD2    H310253   3.438   0.832  10.764 -1.1200 -0.5885  0.7395
  693MPD2     N10254   3.719   0.489  10.766 -0.0100 -0.0611  0.3752
  693MPD2    H510255   3.783   0.557  10.805 -0.2847 -0.6976  1.9462
  693MPD2    N110256   3.242   0.435  10.687 -0.4623 -0.5494 -0.1341
  693MPD2    H710257   3.152   0.477  10.709 -0.1431  0.9168 -1.5984
  694TMC3    C110258   3.096   0.255  10.720  0.3022 -0.5206 -0.1360
  694TMC3    C210259   3.031   0.153  10.664  0.4641  0.0844  0.1562
  694TMC3    C310260   2.926   0.098  10.742 -0.2884 -0.7366  0.1176
  694TMC3    C410261   3.088   0.294  10.855 -0.7201 -0.0719 -0.1015
  694TMC3    C510262   2.988   0.235  10.927 -0.1150  0.6517  0.4050
  694TMC3    C610263   2.900   0.143  10.872  0.4213  0.8063  0.4846
  694TMC3     C10264   3.223   0.303  10.662  0.4337 -0.2048  0.0414
  694TMC3     O10265   3.302   0.224  10.616 -0.2251 -0.1351 -0.0094
  694TMC3     H10266   3.046   0.125  10.561  1.6695  2.4189 -0.3091
  694TMC3    H110267   3.155   0.360  10.910  1.8475 -1.7560 -1.2234
  694TMC3    H210268   2.816   0.105  10.928  0.7469  0.9780  1.1043
  694TMC3    C710269   2.958   0.288  11.064 -0.8802 -0.7652  0.0689
  694TMC3    C810270   2.805   0.042  10.679 -0.7278 -0.0133  0.0211
  694TMC3    O110271   3.005   0.394  11.094  0.2233 -0.3834  0.3670
  694TMC3    O210272   2.717   4.706  10.746  0.1367  0.3458  0.5447
  695MPD2     C10273   4.539   1.698  13.575 -0.7106  0.1276 -0.1380
  695MPD2    C110274   4.533   1.835  13.567 -0.1515  0.1518 -0.1337
  695MPD2    C210275   4.419   1.899  13.507  0.5925  0.6378  0.7970
  695MPD2    C310276   4.312   1.829  13.462 -0.2678 -0.1490  0.1605
  695MPD2    C410277   4.327   1.687  13.476 -0.6429  0.7420 -0.3280
  695MPD2    C510278   4.445   1.629  13.518  0.1424 -0.5885  0.6662
  695MPD2     H10279   4.419   2.008  13.500 -2.1519  0.7656  2.9841
  695MPD2    H110280   4.247   1.622  13.443  0.2397 -0.8398  0.6755
  695MPD2    H210281   4.618   1.641  13.621 -0.5148 -1.3225 -2.2619
  695MPD2    H310282   4.449   1.521  13.529 -2.2585 -0.7838 -0.3802
  695MPD2     N10283   4.197   1.903  13.428 -0.1106 -0.3423 -0.2402
  695MPD2    H510284   4.208   2.002  13.408 -0.8257 -0.2831 -0.3286
  695MPD2    N110285   4.631   1.921  13.629  1.1254  0.0884  0.3715
  695MPD2    H710286   4.629   2.019  13.605 -1.0939 -0.5164 -1.8602
  696TMC3    C110287   3.983   1.945  13.377  0.9637 -1.0057  0.6966
  696TMC3    C210288   3.875   1.949  13.454 -0.3244  0.2530  0.3336
  696TMC3    C310289   3.817   2.068  13.485  0.3919 -0.4434 -0.1588
  696TMC3    C410290   4.034   2.065  13.333 -0.1980  0.0625  0.3705
  696TMC3    C510291   3.971   2.190  13.357 -1.0132 -0.3984  0.1740
  696TMC3    C610292   3.852   2.183  13.429  0.0726 -0.3218 -0.1083
  696TMC3     C10293   4.079   1.842  13.400 -0.6976  0.4713  0.0966
  696TMC3     O10294   4.040   1.727  13.433 -0.5418 -0.6946 -0.0958
  696TMC3     H10295   3.850   1.853  13.498 -1.4794 -0.1144 -1.1345
  696TMC3    H110296   4.120   2.064  13.267 -1.0288  1.7185 -0.7368
  696TMC3    H210297   3.797   2.272  13.457  2.7377  1.6111 -0.9680
  696TMC3    C710298   4.024   2.304  13.294  0.4976  0.6341  0.6559
  696TMC3    C810299   3.771   2.085  13.621  0.6307  1.2378 -0.6505
  696TMC3    O110300   4.117   2.280  13.213 -0.5282 -0.1702  0.1931
  696TMC3    O210301   3.699   2.178  13.655 -0.0758 -0.2557  0.4817
  697MPD2     C10302   3.859   3.909  16.087 -0.3127 -1.1326 -0.6980
  697MPD2    C110303   3.901   3.877  15.961  0.7672 -0.1102  0.3139
  697MPD2    C210304   3.948   3.960  15.863 -0.2687  0.3243 -0.8048
  697MPD2    C310305   3.963   4.092  15.900 -0.1976 -0.0259 -0.0272
  697MPD2    C410306   3.920   4.136  16.023 -0.4501 -0.3830 -0.7486
  697MPD2    C510307   3.881   4.039  16.117 -0.1827  0.5383 -0.1746
  697MPD2     H10308   3.986   3.924  15.768  0.6499 -2.0268  0.4483
  697MPD2    H110309   3.926   4.240  16.051  2.3653 -0.2465 -1.8685
  697MPD2    H210310   3.802   3.853  16.160 -0.7726  0.4829  0.1929
  697MPD2    H310311   3.841   4.079  16.210  1.1759  1.0254  0.2015
  697MPD2     N10312   4.021   4.174  15.793  0.7174 -0.4558 -0.7576
  697MPD2    H510313   4.050   4.128  15.707 -1.4271 -1.8543 -0.7317
  697MPD2    N110314   3.880   3.738  15.917 -0.5812 -0.4148  0.7243
  697MPD2    H710315   3.874   3.708  15.821 -1.3657 -0.8762  0.9187
  698TMC3    C110316   4.137   4.345  15.689  0.7536  0.2512  0.2512
  698TMC3    C210317   4.259   4.409  15.703  0.7233  0.1750 -0.4619
  698TMC3    C310318   4.313   4.446  15.584  0.4891 -0.2050  0.3829
  698TMC3    C410319   4.075   4.330  15.566 -0.3913  0.1350 -0.2470
  698TMC3    C510320   4.137   4.369  15.454  0.1976 -0.1133  0.2979
  698TMC3    C610321   4.262   4.430  15.458 -0.1476 -0.2758  0.9602
  698TMC3     C10322   4.073   4.302  15.806 -0.1008 -0.3645 -0.4818
  698TMC3     O10323   4.096   4.371  15.904  0.7825  0.1027 -0.6720
  698TMC3     H10324   4.314   4.418  15.795 -1.8130 -0.0152  1.0639
  698TMC3    H110325   3.985   4.269  15.558 -1.1142  1.3389 -1.2028
  698TMC3    H210326   4.319   4.454  15.369  1.8235 -2.2735  1.6645
  698TMC3    C710327   4.082   4.342  15.321 -0.0876  0.0590  0.3325
  698TMC3    C810328   4.461   4.462  15.585  0.2507 -0.1749  1.1458
  698TMC3    O110329   3.964   4.336  15.313  0.0409  0.3151 -0.1268
  698TMC3    O210330   4.527   4.397  15.667  0.1516 -0.5168 -0.0965
  699TMC3    C110331   3.707   2.596  12.907 -0.1477 -0.0816  0.3641
  699TMC3    C210332   3.725   2.468  12.954  0.6753 -0.1471 -0.2142
  699TMC3    C310333   3.648   2.434  13.061  0.2334  0.0604  0.0702
  699TMC3    C410334   3.619   2.686  12.960 -0.3582 -0.4161  0.0374
  699TMC3    C510335   3.549   2.652  13.074  0.2981 -0.0247  1.0588
  699TMC3    C610336   3.567   2.524  13.123  0.7789  0.8384  0.0192
  699TMC3     C10337   3.786   2.630  12.784 -0.4193 -0.3340 -0.1873
  699TMC3     O10338   3.728   2.702  12.706  0.3938  0.0797 -0.3216
  699TMC3     H10339   3.806   2.407  12.915  0.7576  0.7419 -1.4258
  699TMC3    H110340   3.582   2.765  12.896  0.4714  1.0451  1.3820
  699TMC3    H210341   3.510   2.497  13.211 -1.0529  0.6249 -1.2409
  699TMC3    C710342   3.425   2.719  13.104  0.3295 -0.0083  0.0574
  699TMC3    C810343   3.656   2.304  13.129  0.0073  0.0636 -0.2035
  699TMC3    O110344   3.352   2.732  13.008 -0.0309  0.2638  0.8664
  699TMC3    O210345   3.637   2.305  13.250 -0.2641 -0.2973  0.2918
  700TMC3    C110346   2.820   4.052  17.509 -0.3546  0.0289 -0.2047
  700TMC3    C210347   2.795   3.916  17.505 -0.1338 -0.0023 -0.5538
  700TMC3    C310348   2.886   3.834  17.573  0.0909 -0.1947 -1.1923
  700TMC3    C410349   2.914   4.112  17.595  0.2532 -0.0010  1.8173
  700TMC3    C510350   3.009   4.031  17.650 -0.3731 -0.4950  0.6743
  700TMC3    C610351   3.003   3.891  17.634  1.0529 -0.1129  0.0668
  700TMC3     C10352   2.773   4.125  17.394  0.5823  0.2989 -0.3680
  700TMC3     O10353   2.674   4.081  17.336  0.2553  0.5161 -0.4240
  700TMC3     H10354   2.713   3.873  17.449 -1.0915  0.6906  0.3075
  700TMC3    H110355   2.917   4.216  17.623 -2.2297  0.7711 -0.7930
  700TMC3    H210356   3.070   3.826   0.009  2.0425 -0.3745 -1.3926
  700TMC3    C710357   3.127   4.088   0.034  0.1528  0.2557  0.1190
  700TMC3    C810358   2.898   3.702  17.514  0.0605  0.2039  0.0920
  700TMC3    O110359   3.121   4.207   0.059  0.2698 -0.5249 -0.0153
  700TMC3    O210360   2.869   3.696  17.394  0.0949  0.2700  0.7000
  701TMC3    C110361   2.979   2.943  15.845 -0.2991 -1.4393  0.0728
  701TMC3    C210362   3.067   2.890  15.756 -0.1660 -0.0979 -0.5982
  701TMC3    C310363   3.179   2.969  15.724 -0.0043  0.2446 -0.7164
  701TMC3    C410364   2.998   3.064  15.911 -0.4150 -0.0142 -0.1117
  701TMC3    C510365   3.106   3.143  15.875  0.0135  0.9431  0.7225
  701TMC3    C610366   3.194   3.100  15.778 -0.5938 -0.5783  0.0400
  701TMC3     C10367   2.864   2.863  15.869 -0.2968 -0.4834  0.2138
  701TMC3     O10368   2.812   2.865  15.978  0.1238 -0.1964  0.5782
  701TMC3     H10369   3.067   2.783  15.738 -1.0278  0.2346 -2.5382
  701TMC3    H110370   2.920   3.106  15.974 -1.1513 -0.8403 -0.4581
  701TMC3    H210371   3.289   3.150  15.767 -0.7460 -0.3047 -0.0408
  701TMC3    C710372   3.094   3.285  15.886 -0.3843 -0.3364 -0.1040
  701TMC3    C810373   3.246   2.954  15.597 -0.2304  0.5516 -0.6755
  701TMC3    O110374   3.159   3.349  15.809 -0.4486  0.3991 -0.2049
  701TMC3    O210375   3.337   3.029  15.573 -0.4411  0.2688 -0.2479
  702MPD2     C10376   2.523   0.728  10.650  0.2739  0.3462 -0.1566
  702MPD2    C110377   2.475   0.847  10.702 -0.9528  0.2678 -0.1457
  702MPD2    C210378   2.493   0.970  10.641 -0.8581 -0.2318 -0.0668
  702MPD2    C310379   2.563   0.978  10.514  0.9648  1.0110 -0.1771
  702MPD2    C410380   2.611   0.860  10.464  0.3767  0.0422 -0.0192
  702MPD2    C510381   2.579   0.742  10.524 -0.1602 -0.8773 -0.4671
  702MPD2     H10382   2.458   1.058  10.693 -1.7160 -1.0017  0.6749
  702MPD2    H110383   2.660   0.862  10.367 -0.5331  0.6977 -0.4783
  702MPD2    H210384   2.511   0.631  10.696  0.2578  0.3254 -0.2041
  702MPD2    H310385   2.614   0.646  10.487  0.4723 -0.6778 -0.3895
  702MPD2     N10386   2.591   1.096  10.441  0.0969 -0.2661  0.3507
  702MPD2    H510387   2.645   1.088  10.356  0.9479  1.1649  0.7610
  702MPD2    N110388   2.409   0.855  10.821 -0.2691 -0.0727 -0.3377
  702MPD2    H710389   2.370   0.945  10.848 -0.7658 -0.3087 -0.2623
  703TMC3    C110390   2.563   1.328  10.389  0.2715 -0.2758  0.1071
  703TMC3    C210391   2.465   1.425  10.369  0.5006 -0.1145  0.3246
  703TMC3    C310392   2.491   1.531  10.290 -0.3355  0.3776  0.5536
  703TMC3    C410393   2.674   1.327  10.311 -0.3592  0.0616  0.7044
  703TMC3    C510394   2.699   1.442  10.242 -0.8864 -0.6591  0.4336
  703TMC3    C610395   2.614   1.549  10.232  0.1665 -0.4771  0.0395
  703TMC3     C10396   2.529   1.214  10.483 -0.5277  0.0450  0.0059
  703TMC3     O10397   2.447   1.245  10.569  0.6444 -0.2193 -0.7670
  703TMC3     H10398   2.374   1.402  10.424 -0.8283  1.4232 -1.2364
  703TMC3    H110399   2.747   1.247  10.310  0.0860  0.4976 -0.9743
  703TMC3    H210400   2.636   1.641  10.179  3.4267 -0.5042  1.3332
  703TMC3    C710401   2.825   1.469  10.172  0.1715  0.1326  0.0721
  703TMC3    C810402   2.410   1.654  10.320  0.7465 -0.4257 -0.2489
  703TMC3    O110403   2.833   1.568  10.100  0.2646 -0.0602 -0.9027
  703TMC3    O210404   2.465   1.759  10.294  0.5656  0.5068 -0.4178
  704TMC3    C110405   4.577   3.598  12.212  0.4453  0.3349  0.4080
  704TMC3    C210406   4.689   3.672  12.193  0.2311 -0.6747 -0.1223
  704TMC3    C310407   0.032   3.714  12.306  0.5460 -0.0700 -0.3508
  704TMC3    C410408   4.537   3.550  12.330  0.3403 -0.3432  0.3122
  704TMC3    C510409   4.611   3.577  12.437 -0.3834  0.2364 -0.3196
  704TMC3    C610410   4.718   3.664  12.430 -0.3917  0.5908  0.1593
  704TMC3     C10411   4.527   3.513  12.108 -0.1874  0.8573 -0.0503
  704TMC3     O10412   4.408   3.487  12.095 -0.4745  0.0050  0.3664
  704TMC3     H10413   0.005   3.703  12.095 -0.0084  0.5222  0.1687
  704TMC3    H110414   4.460   3.474  12.326  1.3010 -1.2861 -0.0560
  704TMC3    H210415   0.064   3.678  12.515  0.1507  0.0762 -0.1851
  704TMC3    C710416   4.664   3.453  12.497 -0.1234 -0.3963  0.4074
  704TMC3    C810417   0.174   3.743  12.291  0.3288 -0.4043 -0.2759
  704TMC3    O110418   0.066   3.437  12.511  0.4043  1.0427 -0.0461
  704TMC3    O210419   0.218   3.728  12.177 -0.2891 -0.3874  0.2513
  705MPD2     C10420   4.570   1.796  16.489 -0.2628  0.1482  0.4152
  705MPD2    C110421   4.527   1.911  16.421 -0.1396 -0.3848  0.3324
  705MPD2    C210422   4.401   1.962  16.445  1.1253  0.2802 -0.0446
  705MPD2    C310423   4.324   1.907  16.553 -0.5850  0.4528  0.8337
  705MPD2    C410424   4.371   1.796  16.623  0.4540 -0.0131 -0.0256
  705MPD2    C510425   4.492   1.737  16.591 -0.0711  0.8323  0.0301
  705MPD2     H10426   4.370   2.037  16.373  2.6175  0.3046 -0.6474
  705MPD2    H110427   4.315   1.745  16.701  2.2890  1.9456  2.5823
  705MPD2    H210428   4.676   1.772  16.485 -0.1139  1.3355 -2.5570
  705MPD2    H310429   4.529   1.673  16.670 -0.5647 -1.2020 -1.3608
  705MPD2     N10430   4.210   1.965  16.611 -0.2067 -0.3218  1.0367
  705MPD2    H510431   4.159   1.922  16.687  2.3190 -4.4929  0.3597
  705MPD2    N110432   4.608   1.985  16.329  0.7613 -1.0808 -0.5531
  705MPD2    H710433   4.573   2.069  16.283  0.4073 -1.9187 -1.7902
  706TMC3    C110434   0.130   2.017  15.953  0.4235 -0.3759  0.5318
  706TMC3    C210435   0.080   2.142  15.933 -0.1120  0.1766 -0.0576
  706TMC3    C310436   0.037   2.217  16.033 -0.5535  0.0767  0.7187
  706TMC3    C410437   0.133   1.961  16.076  0.5778 -0.2460 -0.3021
  706TMC3    C510438   0.066   2.031  16.179 -0.1721  0.7493  0.5617
  706TMC3    C610439   0.025   2.161  16.160 -0.2470  0.2533 -0.4131
  706TMC3     C10440   0.167   1.941  15.838 -0.4504  0.1591  0.2334
  706TMC3     O10441   0.263   1.865  15.857 -0.5720 -0.4850  0.4796
  706TMC3     H10442   0.091   2.188  15.836  0.6990  1.7819  0.7940
  706TMC3    H110443   0.183   1.866  16.092  1.3510  0.3363  0.7323
  706TMC3    H210444   4.693   2.213  16.239 -1.4813 -1.0507 -0.3694
  706TMC3    C710445   0.014   1.943  16.283 -1.1360 -0.2510  0.6457
  706TMC3    C810446   4.713   2.348  16.003 -0.2532  0.6410  0.3518
  706TMC3    O110447   0.088   1.853  16.316  0.2866  0.3728  0.7165
  706TMC3    O210448   4.681   2.377  15.889  0.1693  0.6122 -0.3087
  707TMC3    C110449   1.419   1.013   1.234  0.6324 -0.5461 -0.8156
  707TMC3    C210450   1.372   0.884   1.275 -0.0367  0.5705 -0.9154
  707TMC3    C310451   1.249   0.873   1.329  0.2667  0.1728 -0.2059
  707TMC3    C410452   1.330   1.108   1.234 -0.0906 -1.0610  0.2631
  707TMC3    C510453   1.213   1.100   1.297  0.2457 -0.1367  0.8590
  707TMC3    C610454   1.164   0.979   1.341 -0.2992 -0.3355  0.2817
  707TMC3     C10455   1.546   0.995   1.158  0.4528  0.2258  0.3074
  707TMC3     O10456   1.594   0.882   1.161 -0.1271  0.3763  0.0670
  707TMC3     H10457   1.441   0.800   1.286  1.1409  1.7045  0.3609
  707TMC3    H110458   1.369   1.205   1.203 -1.8664  0.0009  1.3486
  707TMC3    H210459   1.063   0.969   1.378 -0.6847  1.1373 -0.3707
  707TMC3    C710460   1.118   1.207   1.287  0.5457  0.5063 -0.2925
  707TMC3    C810461   1.224   0.754   1.415  0.2469 -0.2140 -0.2854
  707TMC3    O110462   1.030   1.209   1.369 -0.3137  0.5412 -0.3035
  707TMC3    O210463   1.134   0.752   1.501  0.6340 -0.0840  0.6590
  708MPD2     C10464   3.503   0.349  14.011 -0.2936  0.4342  0.2685
  708MPD2    C110465   3.388   0.436  14.025 -0.1734 -0.5415 -0.3308
  708MPD2    C210466   3.277   0.378  14.084  0.1427 -0.1108  0.4608
  708MPD2    C310467   3.269   0.251  14.137 -0.0130  0.7420  0.0826
  708MPD2    C410468   3.380   0.170  14.121  0.3553  0.3580  0.6959
  708MPD2    C510469   3.492   0.217  14.060 -0.6436  0.3753 -0.3774
  708MPD2     H10470   3.197   0.446  14.110 -0.6489 -0.7216 -0.3469
  708MPD2    H110471   3.382   0.067  14.153 -2.6071  0.7397  2.0990
  708MPD2    H210472   3.595   0.366  13.957  0.2841  0.1252  1.1676
  708MPD2    H310473   3.580   0.153  14.056 -1.5508 -1.0647  2.7115
  708MPD2     N10474   3.153   0.206  14.210  0.4595  0.4020  0.7530
  708MPD2    H510475   3.175   0.126  14.269 -1.5193 -1.3270 -0.8418
  708MPD2    N110476   3.375   0.564  13.980  0.1196 -0.2046 -0.3543
  708MPD2    H710477   3.285   0.609  13.995 -0.3679 -1.1129 -0.5815
  709TMC3    C110478   3.411   0.747  13.846 -0.4633 -0.4298  0.1684
  709TMC3    C210479   3.397   0.738  13.714 -0.0035  0.2548 -0.0662
  709TMC3    C310480   3.280   0.789  13.665  0.8009 -0.0993  0.0573
  709TMC3    C410481   3.319   0.804  13.928 -0.5456  0.4915  0.5173
  709TMC3    C510482   3.197   0.849  13.881 -0.4623 -0.1699 -0.2302
  709TMC3    C610483   3.181   0.838  13.745  0.0747 -0.6772  0.3163
  709TMC3     C10484   3.473   0.629  13.904 -0.1363 -1.0127 -0.2037
  709TMC3     O10485   3.580   0.586  13.859  0.4822 -0.1120  0.2365
  709TMC3     H10486   3.479   0.721  13.646 -1.4910 -1.3288 -1.4534
  709TMC3    H110487   3.332   0.809  14.036  2.1297 -1.2846  0.2804
  709TMC3    H210488   3.084   0.862  13.704  0.6168  1.1084  0.0988
  709TMC3    C710489   3.088   0.789  13.957 -0.3119  0.7707 -0.0113
  709TMC3    C810490   3.229   0.733  13.543 -0.2399  0.3013  0.1498
  709TMC3    O110491   3.128   0.704  14.034 -0.2598  0.3938 -0.1776
  709TMC3    O210492   3.125   0.779  13.497 -0.3528 -0.5475  0.0457
  710TMC3    C110493   3.932   1.132   0.811  0.5103 -0.2843  0.4524
  710TMC3    C210494   4.027   1.179   0.731  0.2191 -0.2399 -0.2544
  710TMC3    C310495   4.134   1.102   0.696 -0.7577 -0.0051 -0.3136
  710TMC3    C410496   3.916   0.997   0.828 -0.2859 -0.2237 -0.2938
  710TMC3    C510497   4.020   0.914   0.781 -1.1985 -0.1290  0.5150
  710TMC3    C610498   4.128   0.967   0.716  0.7460 -0.0134 -0.1402
  710TMC3     C10499   3.814   1.214   0.847  0.7081  0.6376 -0.3660
  710TMC3     O10500   3.820   1.334   0.816 -0.7780  0.4182  0.3608
  710TMC3     H10501   4.024   1.282   0.698  0.4199  0.8327  3.0147
  710TMC3    H110502   3.828   0.952   0.872  0.7309 -0.9558  0.9776
  710TMC3    H210503   4.205   0.900   0.678  1.8414  0.4681  1.2274
  710TMC3    C710504   3.997   0.774   0.792 -0.1591  0.3332 -0.4417
  710TMC3    C810505   4.203   1.149   0.573 -0.7575 -0.1726  0.2530
  710TMC3    O110506   3.893   0.743   0.850  0.5822 -0.1404 -0.2498
  710TMC3    O210507   4.262   1.061   0.512 -0.0013  0.2548  0.5832
  711TMC3    C110508   3.721   2.961  14.676 -0.3031  0.5872 -0.2562
  711TMC3    C210509   3.646   3.015  14.775 -0.3294  0.3240 -0.0763
  711TMC3    C310510   3.705   3.097  14.863 -0.1290 -0.5505  0.0541
  711TMC3    C410511   3.847   3.011  14.647 -0.9024  0.0894 -0.5490
  711TMC3    C510512   3.908   3.099  14.734 -0.0990 -0.1240 -0.3470
  711TMC3    C610513   3.831   3.153  14.831 -0.5567 -0.1226 -0.6075
  711TMC3     C10514   3.701   2.818  14.658  0.3134 -0.7060  0.0944
  711TMC3     O10515   3.589   2.776  14.649 -0.0896  0.2400  0.1907
  711TMC3     H10516   3.549   2.978  14.807 -0.1563 -1.7105 -1.9651
  711TMC3    H110517   3.913   2.947  14.590 -0.6389  0.3485 -0.5331
  711TMC3    H210518   3.877   3.219  14.904 -0.5275 -0.7089 -0.0936
  711TMC3    C710519   4.010   3.038  14.805 -0.3118 -0.2525 -0.5164
  711TMC3    C810520   3.659   3.087  15.001  1.0704 -0.8073  0.7789
  711TMC3    O110521   3.985   3.022  14.922 -0.5016  0.4099  0.6962
  711TMC3    O210522   3.537   3.088  15.011 -0.1462  0.6794 -0.0703
  712MPD2     C10523   0.622   4.122  13.925 -0.3508 -0.8336 -0.1478
  712MPD2    C110524   0.519   4.102  13.834 -0.2173  0.0353  0.1102
  712MPD2    C210525   0.498   4.202  13.744  0.8442 -0.2445  0.0683
  712MPD2    C310526   0.589   4.310  13.735 -0.3235  0.1073  0.6209
  712MPD2    C410527   0.690   4.323  13.825 -0.3083 -0.2353 -0.1130
  712MPD2    C510528   0.713   4.226  13.912 -0.1158 -0.0397 -0.1360
  712MPD2     H10529   0.424   4.183  13.668  1.3706  1.1193 -0.7881
  712MPD2    H110530   0.753   4.411  13.824  1.0635 -1.2317 -2.3911
  712MPD2    H210531   0.646   4.040  13.991  0.6338 -1.6812 -1.5745
  712MPD2    H310532   0.797   4.231  13.981  0.3616 -0.5975 -0.6748
  712MPD2     N10533   0.592   4.408  13.631 -0.5477  0.5955  0.4307
  712MPD2    H510534   0.668   4.474  13.636  1.4026 -1.6018 -0.2316
  712MPD2    N110535   0.452   3.976  13.824  1.0939  0.1650 -0.6611
  712MPD2    H710536   0.363   3.979  13.775  0.5613  0.3953  0.3032
  713TMC3    C110537   0.502   4.521  13.439  0.4103  0.1611 -0.1814
  713TMC3    C210538   0.628   4.545  13.395  0.2351 -1.2430  0.2035
  713TMC3    C310539   0.640   4.635  13.290  0.6334  0.8219  0.0418
  713TMC3    C410540   0.390   4.585  13.403  0.4713  0.2087 -0.0801
  713TMC3    C510541   0.411   4.686  13.307 -0.5202  0.7774 -0.5063
  713TMC3    C610542   0.531   4.703  13.244 -0.9888  0.2366  0.0843
  713TMC3     C10543   0.483   4.425  13.549 -0.2520 -0.2265 -0.5285
  713TMC3     O10544   0.368   4.395  13.571  0.0028 -0.2419 -0.1718
  713TMC3     H10545   0.717   4.491  13.426  0.6831 -0.3413  0.4954
  713TMC3    H110546   0.299   4.576  13.460  1.6079  0.7847  1.8191
  713TMC3    H210547   0.545   0.040  13.152  1.1943 -1.1906 -0.4655
  713TMC3    C710548   0.306   0.065  13.267  0.3811  0.1214 -0.3159
  713TMC3    C810549   0.766   4.678  13.237 -0.5277  0.2003 -0.9181
  713TMC3    O110550   0.195   0.046  13.316  0.4169  0.1171  0.4421
  713TMC3    O210551   0.765   0.076  13.203  0.0269 -0.2168 -0.3497
  714MPD2     C10552   2.672   2.128   1.703 -0.4442  0.5559 -0.0423
  714MPD2    C110553   2.700   2.056   1.587 -0.3934 -0.7031 -0.5339
  714MPD2    C210554   2.684   2.118   1.463 -0.3115 -0.8550 -0.4597
  714MPD2    C310555   2.642   2.251   1.459  0.0987  0.2247  0.3803
  714MPD2    C410556   2.617   2.320   1.578  0.4864 -0.1285  0.4638
  714MPD2    C510557   2.629   2.256   1.697 -0.2438 -1.1061 -0.7529
  714MPD2     H10558   2.717   2.068   1.373  0.4079 -2.2475  0.5900
  714MPD2    H110559   2.588   2.424   1.579 -0.0749 -0.2970  1.7035
  714MPD2    H210560   2.695   2.090   1.801 -0.5737  0.8262  0.0925
  714MPD2    H310561   2.617   2.309   1.791 -0.8298  0.7122 -1.8362
  714MPD2     N10562   2.620   2.314   1.337 -0.0762  0.4906  0.4556
  714MPD2    H510563   2.616   2.253   1.256 -2.9090  0.3981  0.6696
  714MPD2    N110564   2.760   1.926   1.607  0.1987  0.2820 -0.0614
  714MPD2    H710565   2.792   1.903   1.700 -0.2510 -2.4005 -0.5830
  715TMC3    C110566   2.892   1.743   1.563  0.6517  0.1282  0.4614
  715TMC3    C210567   2.970   1.663   1.482  0.0932  0.0736  0.3280
  715TMC3    C310568   3.032   1.550   1.531  0.0936 -0.5918  0.3660
  715TMC3    C410569   2.872   1.712   1.694 -0.1017 -0.5729  0.2753
  715TMC3    C510570   2.932   1.593   1.737  0.1433 -0.6665  0.3074
  715TMC3    C610571   3.008   1.516   1.659  0.3211  0.2347  0.1525
  715TMC3     C10572   2.810   1.848   1.504 -0.1966  0.5642 -0.2178
  715TMC3     O10573   2.791   1.850   1.385 -0.4367 -0.9624 -0.6526
  715TMC3     H10574   2.987   1.694   1.380  2.0411 -3.2494 -0.3844
  715TMC3    H110575   2.794   1.753   1.756 -2.2255 -0.5858 -2.3709
  715TMC3    H210576   3.075   1.451   1.715  1.8686 -0.0186 -1.9749
  715TMC3    C710577   2.882   1.525   1.861  0.4692  0.0391 -0.2603
  715TMC3    C810578   3.091   1.455   1.447 -0.3552  0.4164 -0.5038
  715TMC3    O110579   2.920   1.413   1.884 -0.4530 -0.4567 -0.1943
  715TMC3    O210580   3.134   1.490   1.338 -0.2946 -0.0557  0.3995
  716MPD2     C10581   3.131   0.200  10.278  0.6381  0.4019 -0.4613
  716MPD2    C110582   3.032   0.201  10.187  0.2217 -0.4005 -0.3760
  716MPD2    C210583   2.984   0.080  10.138  0.3452  0.4031  0.5637
  716MPD2    C310584   3.016   4.673  10.200 -0.3782 -0.4554 -0.3481
  716MPD2    C410585   3.095   4.683  10.308 -0.7592 -0.3571 -0.8223
  716MPD2    C510586   3.157   0.080  10.337 -0.0109  0.3490  0.2722
  716MPD2     H10587   2.911   0.075  10.058  2.0053 -3.1057 -0.7407
  716MPD2    H110588   3.123   4.598  10.369 -0.2142  0.7663  0.4719
  716MPD2    H210589   3.167   0.293  10.320  1.4343  0.5202 -1.4080
  716MPD2    H310590   3.231   0.084  10.416 -0.4223 -0.8120  0.7198
  716MPD2     N10591   2.944   4.558  10.162  0.3924  0.6990 -0.2605
  716MPD2    H510592   2.908   4.557  10.067  0.0195 -0.4225 -0.1086
  716MPD2    N110593   2.988   0.325  10.133  0.3837  0.3852 -0.0315
  716MPD2    H710594   3.030   0.414  10.158  0.9533  0.2859 -0.6325
  717TMC3    C110595   2.833   4.353  10.184  0.2366 -0.1283  0.7773
  717TMC3    C210596   2.740   4.385  10.084  0.2201  0.3530  0.5083
  717TMC3    C310597   2.679   4.283  10.019 -0.1489  0.1635  0.1022
  717TMC3    C410598   2.841   4.227  10.233  0.0868  0.1006  0.2127
  717TMC3    C510599   2.762   4.133  10.174 -0.0488 -0.6261 -0.2237
  717TMC3    C610600   2.689   4.148  10.056  1.2840  0.6029  0.6769
  717TMC3     C10601   2.930   4.448  10.244 -0.6300  0.3502 -0.2823
  717TMC3     O10602   2.960   4.418  10.359  0.1005 -0.4436  0.4499
  717TMC3     H10603   2.734   4.488  10.050  2.3545  0.3361  0.1270
  717TMC3    H110604   2.914   4.207  10.310  0.7527 -0.1509 -0.4877
  717TMC3    H210605   2.632   4.066  10.013  2.1864 -0.1824  0.9847
  717TMC3    C710606   2.767   3.994  10.210 -0.3727  0.1928 -0.3859
  717TMC3    C810607   2.587   4.315   9.917 -0.2269 -0.2154  0.3070
  717TMC3    O110608   2.771   3.917  10.116 -0.8725 -0.0060  0.5444
  717TMC3    O210609   2.544   4.429   9.905  0.1196 -0.1508  0.2797
  718MPD2     C10610   2.046   3.691  13.224  0.7492 -0.2659  0.4787
  718MPD2    C110611   2.026   3.798  13.142 -0.0019  0.2774  0.2647
  718MPD2    C210612   1.906   3.802  13.076 -0.8753  0.7035 -0.1348
  718MPD2    C310613   1.811   3.704  13.089  1.0458  0.6841 -0.5019
  718MPD2    C410614   1.847   3.588  13.151  0.5328 -0.0032  0.3213
  718MPD2    C510615   1.969   3.579  13.214  0.5722  0.0971 -1.0076
  718MPD2     H10616   1.887   3.889  13.014 -1.7244  0.4126 -0.2843
  718MPD2    H110617   1.784   3.500  13.160  2.2415 -1.2199  0.3896
  718MPD2    H210618   2.131   3.679  13.290  1.0804 -1.1174 -0.1051
  718MPD2    H310619   2.000   3.486  13.261 -0.1767  1.0217  1.3143
  718MPD2     N10620   1.680   3.742  13.048  0.1839 -0.4793 -0.5960
  718MPD2    H510621   1.669   3.832  13.003  1.5682 -0.5366 -1.0373
  718MPD2    N110622   2.112   3.910  13.135 -0.0257  0.0350  0.3275
  718MPD2    H710623   2.190   3.915  13.199  1.0672  0.0015 -0.9889
  719TMC3    C110624   2.204   4.114  13.066  0.4985  0.1178  0.5054
  719TMC3    C210625   2.145   4.169  13.181 -0.2395 -0.3683  0.3974
  719TMC3    C310626   2.120   4.306  13.174 -0.3814 -0.9569  0.6003
  719TMC3    C410627   2.233   4.195  12.959 -0.6296 -0.8178 -0.3574
  719TMC3    C510628   2.216   4.325  12.967 -0.0073 -0.4003  0.4052
  719TMC3    C610629   2.163   4.385  13.073 -0.3943  0.7068 -0.3086
  719TMC3     C10630   2.126   4.002  13.028 -0.1820 -0.5468  0.1964
  719TMC3     O10631   2.064   3.994  12.920 -0.2412 -0.1539 -0.2342
  719TMC3     H10632   2.108   4.113  13.266  0.8372 -4.1149 -1.5822
  719TMC3    H110633   2.261   4.140  12.870  4.3647  0.5007  0.4344
  719TMC3    H210634   2.164   4.494  13.078  0.2301  0.6177  1.6013
  719TMC3    C710635   2.247   4.406  12.852  0.0029 -0.2533  0.6446
  719TMC3    C810636   1.984   4.322  13.217 -0.5779 -1.0964 -0.0602
  719TMC3    O110637   2.194   4.520  12.840  0.2042 -0.3082 -0.1357
  719TMC3    O210638   1.940   4.258  13.312 -0.0871  0.7386 -0.4294
  720MPD2     C10639   4.666   1.274  13.999 -0.0809  0.7019 -0.2856
  720MPD2    C110640   0.056   1.309  13.921 -0.1439  0.1968  0.5540
  720MPD2    C210641   0.181   1.289  13.980  0.7381  0.2904  0.9209
  720MPD2    C310642   0.204   1.216  14.100 -0.3402  0.0563  0.0191
  720MPD2    C410643   0.089   1.170  14.166  0.2661  0.2009 -0.4332
  720MPD2    C510644   4.680   1.217  14.125 -0.0244 -0.6462  0.1678
  720MPD2     H10645   0.264   1.317  13.916  0.5490  1.0916  1.0341
  720MPD2    H110646   0.087   1.104  14.252 -0.8065  0.4837 -0.2417
  720MPD2    H210647   4.567   1.295  13.961  0.7145  1.1130 -2.1043
  720MPD2    H310648   4.592   1.200  14.185  1.4890 -0.1565  2.5097
  720MPD2     N10649   0.334   1.184  14.142 -0.3727  0.1613 -0.1726
  720MPD2    H510650   0.416   1.224  14.097  0.1666 -0.1522  0.5246
  720MPD2    N110651   0.034   1.352  13.787  0.0631 -0.3461  0.3641
  720MPD2    H710652   4.663   1.339  13.743 -0.4225 -0.0730  1.2955
  721TMC3    C110653   0.507   1.100  14.265 -0.2190 -0.7499 -0.3997
  721TMC3    C210654   0.550   1.061  14.389  0.3427 -0.2908 -0.0898
  721TMC3    C310655   0.684   1.056  14.408 -0.1871  0.5964  0.2683
  721TMC3    C410656   0.589   1.087  14.153 -0.0036  0.2692  0.3640
  721TMC3    C510657   0.723   1.081  14.184  0.3763 -0.4971  0.4694
  721TMC3    C610658   0.780   1.072  14.307  0.1153 -1.0538 -0.4025
  721TMC3     C10659   0.364   1.108  14.251 -0.1377 -0.4594 -0.4509
  721TMC3     O10660   0.290   1.056  14.335  0.2299 -0.3533 -0.2410
  721TMC3     H10661   0.486   1.073  14.475  0.0860  0.8975 -0.4522
  721TMC3    H110662   0.547   1.102  14.054 -0.4513 -0.4704  0.4431
  721TMC3    H210663   0.889   1.067  14.312  0.1796  1.4169  0.4549
  721TMC3    C710664   0.812   1.085  14.070  0.3556 -0.0144 -0.8000
  721TMC3    C810665   0.720   1.031  14.548  0.0212 -0.0221 -0.2230
  721TMC3    O110666   0.775   1.153  13.972  0.4858 -0.1324 -0.5066
  721TMC3    O210667   0.640   1.046  14.639  0.0510 -0.1488  0.4595
  722MPD2     C10668   4.228   4.649  13.359 -0.7056 -0.4035 -0.4026
  722MPD2    C110669   4.132   0.028  13.371  0.2081  0.3915  0.2733
  722MPD2    C210670   4.005   4.716  13.413 -0.5192  0.8757  0.4461
  722MPD2    C310671   3.972   4.588  13.446 -0.2027  0.2633  0.6712
  722MPD2    C410672   4.070   4.494  13.439  0.7401 -0.0797  0.6376
  722MPD2    C510673   4.201   4.525  13.393 -0.4517 -1.2056 -0.6314
  722MPD2     H10674   3.936   0.079  13.428  1.1222  2.3557 -0.1076
  722MPD2    H110675   4.049   4.391  13.463  0.4625 -0.2474 -0.3169
  722MPD2    H210676   4.324   4.682  13.322 -1.6337 -2.3301 -4.5124
  722MPD2    H310677   4.273   4.444  13.383 -0.8248 -1.9025  2.3575
  722MPD2     N10678   3.838   4.569  13.480  0.6163  0.4139  0.4856
  722MPD2    H510679   3.774   4.648  13.478  1.2787  0.9164 -0.2849
  722MPD2    N110680   4.161   0.164  13.356  0.4604 -0.0180  0.4498
  722MPD2    H710681   4.083   0.228  13.350 -0.4300 -1.2133 -0.6579
  723TMC3    C110682   3.654   4.423  13.505 -0.7320  0.4417 -0.1544
  723TMC3    C210683   3.618   4.293  13.529  0.4349 -0.0652 -0.3082
  723TMC3    C310684   3.505   4.234  13.475  0.3929 -0.2360  0.1036
  723TMC3    C410685   3.592   4.494  13.403 -0.1505  1.1619  0.0937
  723TMC3    C510686   3.484   4.426  13.342  0.2111  0.1223 -0.0338
  723TMC3    C610687   3.437   4.300  13.376  0.3788  0.0092 -0.2783
  723TMC3     C10688   3.790   4.448  13.530 -0.9163  0.1816  0.8280
  723TMC3     O10689   3.854   4.359  13.581  0.1414 -0.4529 -0.3820
  723TMC3     H10690   3.670   4.231  13.602 -1.4055 -0.2685  0.8493
  723TMC3    H110691   3.614   4.600  13.406 -2.0289  1.5593 -0.3590
  723TMC3    H210692   3.338   4.264  13.351 -1.1845  2.4795  2.2621
  723TMC3    C710693   3.417   4.488  13.234 -0.2741  0.2255 -0.4288
  723TMC3    C810694   3.506   4.089  13.481 -0.0339  0.3434  0.6255
  723TMC3    O110695   3.314   4.439  13.194 -0.6132  0.8595  0.2835
  723TMC3    O210696   3.553   4.025  13.572 -0.0594 -0.0974  0.2324
  724TMC3    C110697   3.764   3.505   9.182  0.6505  0.3503 -0.3412
  724TMC3    C210698   3.723   3.395   9.257 -0.1139  0.5674 -0.4863
  724TMC3    C310699   3.826   3.315   9.303  0.1252 -0.2650 -0.1439
  724TMC3    C410700   3.896   3.531   9.163 -0.5019 -0.0627 -1.0161
  724TMC3    C510701   3.987   3.441   9.205 -0.1595 -0.7174  0.1053
  724TMC3    C610702   3.956   3.330   9.274 -0.4199  0.2509 -0.3465
  724TMC3     C10703   3.671   3.605   9.141  0.0090  0.0524 -0.5027
  724TMC3     O10704   3.729   3.712   9.145  0.1399  0.2309  0.2340
  724TMC3     H10705   3.622   3.394   9.296  0.6144 -3.0254  1.3118
  724TMC3    H110706   3.929   3.602   9.088  0.2911  0.0592 -0.5483
  724TMC3    H210707   4.037   3.271   9.313 -1.3939 -0.5252  0.4896
  724TMC3    C710708   4.131   3.483   9.203 -0.6375  0.6083 -0.8074
  724TMC3    C810709   3.794   3.232   9.427 -0.5073  0.2433 -0.4933
  724TMC3    O110710   4.211   3.388   9.199 -0.5240 -0.2021  0.3536
  724TMC3    O210711   3.687   3.172   9.428 -0.2120 -0.0145 -0.2883
  725TMC3    C110712   1.177   1.341  13.055 -0.0425 -0.4192  0.0753
  725TMC3    C210713   1.040   1.359  13.015  0.0504  0.0168  0.1564
  725TMC3    C310714   0.989   1.295  12.905 -0.5251  0.2939  0.0546
  725TMC3    C410715   1.257   1.265  12.974 -0.0447  0.7112  0.2374
  725TMC3    C510716   1.200   1.197  12.870  0.3926  0.6041 -0.3144
  725TMC3    C610717   1.066   1.213  12.837  0.3362  0.3012  0.1090
  725TMC3     C10718   1.234   1.441  13.145  0.3765  0.2859 -0.5126
  725TMC3     O10719   1.348   1.479  13.125  0.0655 -0.3021  0.3060
  725TMC3     H10720   0.976   1.420  13.078  0.9182  0.0834  0.9608
  725TMC3    H110721   1.364   1.253  12.990  0.7361  2.4770 -3.7206
  725TMC3    H210722   1.024   1.154  12.756 -0.2562 -0.2389  0.8103
  725TMC3    C710723   1.283   1.100  12.803  0.9506 -0.1137  0.4469
  725TMC3    C810724   0.845   1.303  12.883  0.2451 -0.3287 -0.1825
  725TMC3    O110725   1.403   1.121  12.791  0.2962 -0.3657 -0.3240
  725TMC3    O210726   0.775   1.317  12.987  0.3073 -0.8026  0.4892
  726MPD2     C10727   3.280   3.178   9.844  0.0144 -0.1251  0.0287
  726MPD2    C110728   3.294   3.245   9.964 -0.0644 -0.0758 -0.3717
  726MPD2    C210729   3.254   3.191  10.087  0.0307  0.1488 -0.2169
  726MPD2    C310730   3.173   3.081  10.086 -0.4413  0.1864  0.0747
  726MPD2    C410731   3.161   3.016   9.971 -0.7347 -0.1450 -0.7963
  726MPD2    C510732   3.215   3.060   9.851  0.7353  0.1266 -0.1277
  726MPD2     H10733   3.270   3.251  10.176  0.5727  1.8859 -1.4962
  726MPD2    H110734   3.103   2.926   9.955 -0.8407 -0.0888 -0.7271
  726MPD2    H210735   3.305   3.219   9.746 -1.0165 -1.8616 -0.9595
  726MPD2    H310736   3.206   3.002   9.760 -2.0132  0.5142 -0.0858
  726MPD2     N10737   3.108   3.029  10.198  0.0500 -0.3367  0.2802
  726MPD2    H510738   3.061   2.939  10.189  0.4578 -0.7072  1.7732
  726MPD2    N110739   3.353   3.372   9.983 -0.4130 -0.2109 -0.1139
  726MPD2    H710740   3.361   3.405  10.079  3.1092  1.2819 -0.9368
  727TMC3    C110741   3.414   3.589   9.926  0.6553  0.4070 -0.0834
  727TMC3    C210742   3.484   3.619  10.040  0.3117 -0.2978 -0.2030
  727TMC3    C310743   3.513   3.751  10.056 -0.1529  0.9614 -0.1212
  727TMC3    C410744   3.364   3.685   9.838 -0.2839 -0.0702  0.1339
  727TMC3    C510745   3.392   3.817   9.867 -0.2960  0.0057 -0.5047
  727TMC3    C610746   3.462   3.854   9.981  0.3672  0.2947  0.9374
  727TMC3     C10747   3.390   3.451   9.886 -0.5623 -0.4788 -0.6502
  727TMC3     O10748   3.362   3.436   9.768 -0.5838  0.3943 -0.5529
  727TMC3     H10749   3.518   3.542  10.108  0.2658 -1.3541 -1.3663
  727TMC3    H110750   3.316   3.654   9.746 -1.8923  1.3757  0.4797
  727TMC3    H210751   3.495   3.957   9.990 -0.2331  0.3004  2.9702
  727TMC3    C710752   3.339   3.926   9.792 -0.0698 -0.1740  0.4072
  727TMC3    C810753   3.610   3.797  10.153 -0.7011 -0.1722 -0.4701
  727TMC3    O110754   3.400   4.033   9.797 -0.1360 -0.2123  0.1246
  727TMC3    O210755   3.695   3.713  10.182 -0.4044 -0.1996  0.5528
  728TMC3    C110756   3.097   1.421  15.624 -0.5182  0.1215  0.1569
  728TMC3    C210757   3.158   1.534  15.664  0.2932  0.1767  0.1378
  728TMC3    C310758   3.195   1.626  15.566  0.2534  0.1123  0.2042
  728TMC3    C410759   3.075   1.392  15.491 -0.4394 -0.5591 -0.2070
  728TMC3    C510760   3.127   1.475  15.396  0.0341 -0.0969 -0.0055
  728TMC3    C610761   3.191   1.593  15.434 -0.4428 -0.5034 -0.0772
  728TMC3     C10762   3.015   1.363  15.727 -0.2468  0.5329  0.1525
  728TMC3     O10763   3.065   1.337  15.835 -0.3738  0.3693 -0.3828
  728TMC3     H10764   3.144   1.559  15.769  2.5328  0.1040  0.4600
  728TMC3    H110765   3.017   1.309  15.452  0.1950 -1.0562 -0.1049
  728TMC3    H210766   3.233   1.662  15.362  0.5230 -0.2647  0.7101
  728TMC3    C710767   3.040   1.490  15.284  0.3277 -0.2585 -0.5070
  728TMC3    C810768   3.239   1.755  15.607  0.0934  0.2197  0.7210
  728TMC3    O110769   2.920   1.469  15.301  0.7574 -0.4879  0.5309
  728TMC3    O210770   3.261   1.843  15.523 -0.1864 -0.6184 -0.8055
  729MPD2     C10771   0.333   2.270  16.903  0.5523 -0.7406  0.3366
  729MPD2    C110772   0.457   2.241  16.848 -0.2764  0.0580 -0.1693
  729MPD2    C210773   0.568   2.241  16.930 -0.1726  0.1067  0.0323
  729MPD2    C310774   0.560   2.302  17.057 -0.4730 -0.3913  0.2334
  729MPD2    C410775   0.440   2.346  17.103 -0.8357 -0.3875  0.4198
  729MPD2    C510776   0.326   2.320  17.034  0.5654 -0.4637 -0.4153
  729MPD2     H10777   0.662   2.194  16.907  0.8616  1.7864  0.8360
  729MPD2    H110778   0.420   2.391  17.200  2.3049  1.6883  0.0617
  729MPD2    H210779   0.242   2.241  16.853 -0.3609 -2.0598  2.7961
  729MPD2    H310780   0.234   2.334  17.090 -0.6482  1.4452 -2.8599
  729MPD2     N10781   0.669   2.324  17.146  0.3794 -0.0516 -0.2297
  729MPD2    H510782   0.644   2.368  17.233  5.1511  1.4040  0.3810
  729MPD2    N110783   0.477   2.240  16.706 -0.0568  0.2634  0.6530
  729MPD2    H710784   0.400   2.264  16.644 -1.5353 -0.0656  2.4040
  730TMC3    C110785   0.900   2.346  17.208 -0.1270  0.5563 -0.6977
  730TMC3    C210786   1.019   2.355  17.138 -0.0715 -0.1024  0.0573
  730TMC3    C310787   1.093   2.470  17.151 -0.4008 -0.2258  0.0130
  730TMC3    C410788   0.854   2.453  17.277  0.4837 -0.0000  0.1291
  730TMC3    C510789   0.937   2.559  17.298 -0.1346 -0.2270  0.2449
  730TMC3    C610790   1.050   2.574  17.227  0.1488  0.5034 -0.4051
  730TMC3     C10791   0.799   2.274  17.130 -0.2337 -0.0503  0.1180
  730TMC3     O10792   0.850   2.214  17.037 -0.0811 -0.0496  0.1589
  730TMC3     H10793   1.055   2.271  17.080  0.0583 -2.1924  3.1619
  730TMC3    H110794   0.753   2.468  17.315  0.3348 -1.6603  0.3643
  730TMC3    H210795   1.081   2.677  17.212  1.1538  0.2174 -0.2323
  730TMC3    C710796   0.863   2.684  17.302  0.1653  0.5161 -0.1686
  730TMC3    C810797   1.199   2.496  17.056 -0.4532  0.5905  0.3661
  730TMC3    O110798   0.768   2.701  17.225 -0.1268  0.1182  0.7165
  730TMC3    O210799   1.208   2.429  16.955  0.2763 -0.1075 -0.5196
  731MPD2     C10800   0.450   0.567  12.200 -0.1029  0.6530  0.0860
  731MPD2    C110801   0.525   0.683  12.209 -0.6694  0.1784 -0.1879
  731MPD2    C210802   0.546   0.743  12.331 -0.7348 -0.0147 -0.2044
  731MPD2    C310803   0.511   0.688  12.449 -0.7167 -0.6876 -0.5668
  731MPD2    C410804   0.455   0.563  12.445 -0.2907 -0.5781 -0.4437
  731MPD2    C510805   0.417   0.511  12.323  0.8196  0.2632  0.0199
  731MPD2     H10806   0.575   0.848  12.334  0.2462 -0.2483 -1.8829
  731MPD2    H110807   0.443   0.505  12.536 -0.4016 -1.3831 -0.9677
  731MPD2    H210808   0.426   0.522  12.104  1.7311 -2.0153  0.8882
  731MPD2    H310809   0.362   0.417  12.316  1.0399 -0.0745  2.9883
  731MPD2     N10810   0.521   0.768  12.566  0.4419  0.0088 -0.5636
  731MPD2    H510811   0.554   0.863  12.557  0.0098  0.3738  1.8233
  731MPD2    N110812   0.560   0.735  12.085 -0.1247  0.3914 -0.2147
  731MPD2    H710813   0.538   0.682  12.002  1.6439 -1.0484  0.2383
  732TMC3    C110814   0.663   0.886  11.927  0.4011  0.3101 -0.0268
  732TMC3    C210815   0.553   0.875  11.843 -0.2504 -0.0310  0.6754
  732TMC3    C310816   0.565   0.924  11.716  0.4935  0.0538 -0.1001
  732TMC3    C410817   0.781   0.938  11.877  0.0204  0.0882  0.5498
  732TMC3    C510818   0.798   0.954  11.742  0.4511 -0.5947 -0.0032
  732TMC3    C610819   0.689   0.954  11.660 -0.3813 -0.5102  0.2925
  732TMC3     C10820   0.654   0.837  12.065  0.3648 -0.5488 -0.4733
  732TMC3     O10821   0.723   0.901  12.148 -0.8287  0.1073 -0.1758
  732TMC3     H10822   0.461   0.831  11.882 -1.0124  0.2102 -0.8446
  732TMC3    H110823   0.865   0.936  11.945 -2.6140 -0.8333  3.7998
  732TMC3    H210824   0.695   0.990  11.558 -1.4142 -1.6858 -0.1915
  732TMC3    C710825   0.912   1.024  11.687 -0.1637 -0.2431 -0.0653
  732TMC3    C810826   0.451   0.924  11.625  0.2545 -1.0153  0.6388
  732TMC3    O110827   0.907   1.073  11.574  0.2768  0.5979  0.0961
  732TMC3    O210828   0.474   0.946  11.509  0.2910 -0.0934  0.0536
  733TMC3    C110829   1.228   3.772  13.080 -0.3331  0.3247 -0.1496
  733TMC3    C210830   1.332   3.689  13.064  0.8151 -0.3447  0.8220
  733TMC3    C310831   1.454   3.749  13.094 -1.7167 -0.0663 -0.6706
  733TMC3    C410832   1.234   3.907  13.112  0.2937 -0.2759  0.5868
  733TMC3    C510833   1.358   3.962  13.136 -0.0402 -0.1855  0.0927
  733TMC3    C610834   1.468   3.883  13.131 -0.1610 -0.1248 -0.0507
  733TMC3     C10835   1.092   3.721  13.058  1.3181  0.7241  0.5745
  733TMC3     O10836   1.008   3.779  13.129 -0.0369  0.2409  0.4553
  733TMC3     H10837   1.319   3.584  13.043  5.6292 -0.7520 -0.2188
  733TMC3    H110838   1.143   3.966  13.110 -0.2723 -1.2009 -0.6448
  733TMC3    H210839   1.567   3.923  13.150 -0.6156  0.4286  1.1819
  733TMC3    C710840   1.373   4.108  13.109 -0.1052 -0.7140 -0.2013
  733TMC3    C810841   1.574   3.667  13.090 -0.3143 -0.3483  0.2369
  733TMC3    O110842   1.282   4.159  13.041  0.4183  0.0291  0.1653
  733TMC3    O210843   1.569   3.560  13.146 -0.5794 -0.4967 -0.1993
  734MPD2     C10844   3.406   1.849  12.323 -0.2215 -0.0061 -0.4943
  734MPD2    C110845   3.342   1.773  12.227  0.2100 -0.4629  0.1522
  734MPD2    C210846   3.348   1.833  12.101 -0.5891 -1.1856  0.6144
  734MPD2    C310847   3.385   1.961  12.077 -0.5934 -0.1702 -0.1366
  734MPD2    C410848   3.443   2.037  12.178  0.4464 -0.1371 -0.3374
  734MPD2    C510849   3.453   1.977  12.302  0.4800  0.5797 -0.0958
  734MPD2     H10850   3.316   1.763  12.024  0.1059  0.4561 -1.1543
  734MPD2    H110851   3.460   2.144  12.168  0.1926  0.0498  1.3625
  734MPD2    H210852   3.417   1.820  12.427  2.3348  3.0567  0.0808
  734MPD2    H310853   3.498   2.038  12.379 -3.2579  0.8038  1.8921
  734MPD2     N10854   3.357   2.006  11.947  0.1552  0.4090 -0.0309
  734MPD2    H510855   3.317   1.940  11.881 -0.3750  0.3597  0.3392
  734MPD2    N110856   3.288   1.652  12.260  0.1820 -0.6528 -0.4126
  734MPD2    H710857   3.314   1.623  12.354  1.4551 -0.4642 -0.7128
  735TMC3    C110858   3.150   1.461  12.241 -0.2555  1.2590  0.0786
  735TMC3    C210859   3.041   1.417  12.164 -0.8657 -0.1898  0.0443
  735TMC3    C310860   3.042   1.295  12.094 -0.6945  0.1871 -0.0402
  735TMC3    C410861   3.252   1.379  12.258 -0.0755  0.0833 -0.1228
  735TMC3    C510862   3.254   1.264  12.186  0.1484  0.0965 -0.3067
  735TMC3    C610863   3.151   1.218  12.104  0.6869  0.0685 -0.0945
  735TMC3     C10864   3.187   1.594  12.196  0.2439 -0.3025  0.4877
  735TMC3     O10865   3.119   1.635  12.105 -0.5344 -0.4415 -0.6010
  735TMC3     H10866   2.960   1.489  12.158  0.6990  1.6956  1.5958
  735TMC3    H110867   3.333   1.399  12.327  0.6816 -0.7439 -0.7582
  735TMC3    H210868   3.159   1.123  12.053  1.1547 -1.4485  2.7725
  735TMC3    C710869   3.383   1.184  12.192  0.1220  0.2850  0.1155
  735TMC3    C810870   2.985   1.310  11.963  0.1565  0.4879 -0.3217
  735TMC3    O110871   3.488   1.243  12.220  0.1200 -0.1463  0.6541
  735TMC3    O210872   2.967   1.214  11.890 -0.3773  0.0315 -0.6724
  736MPD2     C10873   3.446   0.822  12.152  1.0218 -0.2455 -0.0631
  736MPD2    C110874   3.472   0.956  12.144  0.3727  0.7784 -0.6539
  736MPD2    C210875   3.592   0.982  12.079 -0.0301  0.5713 -0.3790
  736MPD2    C310876   3.691   0.894  12.037 -0.3189 -0.4041 -0.2354
  736MPD2    C410877   3.662   0.760  12.061  0.4662 -0.2691  0.7245
  736MPD2    C510878   3.541   0.729  12.117  0.4801 -0.1137 -0.1879
  736MPD2     H10879   3.611   1.086  12.053  0.6384  0.5491 -0.0001
  736MPD2    H110880   3.733   0.681  12.039  2.0153  0.9726  1.3435
  736MPD2    H210881   3.350   0.778  12.177  2.3192 -2.2998  1.3224
  736MPD2    H310882   3.504   0.628  12.121  1.0483 -0.3093  0.2297
  736MPD2     N10883   3.803   0.917  11.954  1.1708 -0.5577 -0.0925
  736MPD2    H510884   3.863   0.836  11.940 -1.2178 -2.3112 -0.1937
  736MPD2    N110885   3.366   1.049  12.167 -0.0156  0.5505  0.2628
  736MPD2    H710886   3.273   1.010  12.181  0.3443 -0.2858  0.3018
  737TMC3    C110887   3.950   1.045  11.811  0.8956  0.1440 -1.1198
  737TMC3    C210888   3.969   1.171  11.771  0.1321 -0.4563 -0.7124
  737TMC3    C310889   4.048   1.191  11.661 -0.1559  0.4373 -0.2058
  737TMC3    C410890   3.991   0.935  11.736 -0.1609  0.8006 -0.2799
  737TMC3    C510891   4.061   0.959  11.625 -0.1207  0.1835  0.0015
  737TMC3    C610892   4.092   1.086  11.580 -0.7864 -0.6565  0.0569
  737TMC3     C10893   3.839   1.037  11.901 -0.4784 -0.1133 -0.1552
  737TMC3     O10894   3.773   1.137  11.904 -0.6608 -0.1168  0.1561
  737TMC3     H10895   3.927   1.262  11.814 -0.0338 -0.4569 -0.8732
  737TMC3    H110896   3.983   0.832  11.768  0.2640  0.6869 -0.5375
  737TMC3    H210897   4.132   1.104  11.481  0.8093  0.7722  0.9701
  737TMC3    C710898   4.106   0.837  11.561  0.3474  0.6197 -0.3859
  737TMC3    C810899   4.061   1.330  11.614  0.2029  0.1149 -0.4519
  737TMC3    O110900   4.039   0.736  11.585 -0.1587  0.3193 -0.8403
  737TMC3    O210901   4.047   1.424  11.691 -0.1027 -0.1490 -0.0918
  738MPD2     C10902   0.002   4.451  15.445 -0.2925 -0.5534 -0.5053
  738MPD2    C110903   4.645   4.566  15.465  0.0484 -0.1354  0.4376
  738MPD2    C210904   4.688   4.685  15.405  0.0166  0.1400  0.0663
  738MPD2    C310905   0.086   4.691  15.339 -0.2577  0.5066 -0.4059
  738MPD2    C410906   0.175   4.591  15.348 -0.9465 -0.2207 -0.5115
  738MPD2    C510907   0.131   4.470  15.393 -0.3097  0.3265 -0.3177
  738MPD2     H10908   4.622   0.049  15.426  1.0975  0.8911  0.4514
  738MPD2    H110909   0.275   4.608  15.312 -0.2211  0.2328  1.7260
  738MPD2    H210910   4.679   4.359  15.484  0.8172 -0.0320  1.9670
  738MPD2    H310911   0.194   4.382  15.391  2.0207  1.9791  1.2513
  738MPD2     N10912   0.120   0.087  15.268 -0.4810  1.0780 -0.0661
  738MPD2    H510913   0.220   0.099  15.257 -0.4642  1.0342  0.0440
  738MPD2    N110914   4.510   4.562  15.505  0.3082 -0.3188  0.8198
  738MPD2    H710915   4.451   4.637  15.471  0.8236 -1.0559 -1.6856
  739TMC3    C110916   0.119   0.298  15.179 -0.5301 -0.2243 -0.0882
  739TMC3    C210917   0.049   0.385  15.096 -0.3649 -0.1098  0.0787
  739TMC3    C310918   0.113   0.496  15.063 -0.4679 -0.2939 -0.1682
  739TMC3    C410919   0.254   0.309  15.202  1.0694 -0.1447 -0.3106
  739TMC3    C510920   0.315   0.425  15.165  0.3770 -0.3851 -0.2756
  739TMC3    C610921   0.246   0.519  15.094  0.1036 -0.5592  0.5695
  739TMC3     C10922   0.044   0.196  15.241 -0.1371  0.9801  0.8602
  739TMC3     O10923   4.643   0.212  15.261 -0.6907  0.0072 -0.4746
  739TMC3     H10924   4.664   0.363  15.079 -0.7467  1.7805 -0.0321
  739TMC3    H110925   0.303   0.250  15.279  2.1632 -1.2411 -1.8618
  739TMC3    H210926   0.307   0.597  15.050 -1.1362  0.2112  0.2345
  739TMC3    C710927   0.457   0.449  15.183 -0.4549  0.5097 -0.1246
  739TMC3    C810928   0.049   0.569  14.951  0.3267 -1.0961  0.0780
  739TMC3    O110929   0.497   0.564  15.151 -0.2149 -0.2230 -0.0375
  739TMC3    O210930   4.698   0.506  14.870 -0.7950 -0.2611  0.1900
  740TMC3    C110931   0.398   1.566  14.328  0.3717 -0.0036  1.3481
  740TMC3    C210932   0.486   1.504  14.409 -0.2853  0.0250  0.3936
  740TMC3    C310933   0.583   1.430  14.353  0.3088  0.5999 -0.3623
  740TMC3    C410934   0.413   1.581  14.195  0.5749 -0.0490  0.0228
  740TMC3    C510935   0.530   1.528  14.147  0.0879  0.2293 -0.1706
  740TMC3    C610936   0.608   1.446  14.223  0.0433  0.3104 -0.0371
  740TMC3     C10937   0.293   1.647  14.384 -0.4869 -0.0558  0.2409
  740TMC3     O10938   0.276   1.761  14.346 -0.5929  0.3235 -0.4824
  740TMC3     H10939   0.467   1.511  14.515  1.1840 -0.3590  0.6753
  740TMC3    H110940   0.352   1.647  14.134  1.4584 -0.1917 -1.0163
  740TMC3    H210941   0.690   1.390  14.179  1.5353 -0.0632  3.1926
  740TMC3    C710942   0.539   1.468  14.018  0.0442 -0.1822  0.3976
  740TMC3    C810943   0.689   1.397  14.441 -0.1496 -0.1739 -0.1450
  740TMC3    O110944   0.556   1.348  14.008  0.2326  0.1033 -0.2741
  740TMC3    O210945   0.794   1.361  14.392  0.3960  0.2018  0.2806
  741TMC3    C110946   4.465   0.813  14.655  0.4469 -0.3542  0.2398
  741TMC3    C210947   4.431   0.682  14.689 -0.3444 -0.6626 -0.3430
  741TMC3    C310948   4.416   0.647  14.827 -0.8286  0.8899 -0.4146
  741TMC3    C410949   4.512   0.896  14.748 -0.1801  0.8900  0.2719
  741TMC3    C510950   4.490   0.863  14.883  0.1817 -0.6804 -0.9044
  741TMC3    C610951   4.446   0.743  14.925  0.0813  0.1891  0.2131
  741TMC3     C10952   4.469   0.867  14.515  0.5903  0.5274 -0.2647
  741TMC3     O10953   4.525   0.974  14.495 -0.8034 -0.2602  0.3499
  741TMC3     H10954   4.419   0.607  14.611 -2.4006 -0.4818 -0.1981
  741TMC3    H110955   4.572   0.982  14.719  2.5725 -0.2044  2.6715
  741TMC3    H210956   4.437   0.730  15.032  0.0944 -2.3812 -0.1016
  741TMC3    C710957   4.530   0.961  14.986  0.5659  0.6268 -0.5363
  741TMC3    C810958   4.345   0.533  14.879 -0.2778 -0.0364 -0.2143
  741TMC3    O110959   4.520   0.916  15.099  0.4603 -0.2728 -0.1941
  741TMC3    O210960   4.348   0.516  14.999 -0.0911  0.2576  0.7205
  742TMC3    C110961   4.348   4.030  15.491 -0.9276  0.4111  0.7645
  742TMC3    C210962   4.261   3.980  15.401 -0.4060 -0.6709 -0.3369
  742TMC3    C310963   4.309   3.930  15.283  0.0668 -0.1264 -0.1069
  742TMC3    C410964   4.482   4.013  15.474 -1.1123  0.5098 -0.5726
  742TMC3    C510965   4.525   3.957  15.355 -0.5233 -0.2648  0.6603
  742TMC3    C610966   4.440   3.917  15.256 -0.2030  0.8613  0.8292
  742TMC3     C10967   4.297   4.025  15.629 -0.1166  0.3202  0.5671
  742TMC3     O10968   4.176   4.003  15.637 -0.3698  0.2309  0.2413
  742TMC3     H10969   4.155   3.998  15.411 -0.3210  0.4638 -1.4502
  742TMC3    H110970   4.550   4.006  15.558 -0.0494  0.0772 -1.4655
  742TMC3    H210971   4.484   3.886  15.161 -2.0286  0.4839  0.1124
  742TMC3    C710972   4.667   3.926  15.329 -0.3201 -0.9721  0.4829
  742TMC3    C810973   4.226   3.867  15.183 -0.3142 -0.5149  0.9333
  742TMC3    O110974   4.678   3.853  15.234  0.4035  0.0447 -0.2975
  742TMC3    O210975   4.285   3.792  15.110 -0.2084  0.4764 -0.0656
  743MPD2     C10976   2.219   0.108   1.818  0.2579  0.0291 -0.0984
  743MPD2    C110977   2.211   0.031   1.706 -0.1776 -0.2409 -0.6948
  743MPD2    C210978   2.331   4.698   1.656  0.0623  1.1197 -0.4375
  743MPD2    C310979   2.448   0.013   1.718  0.5424 -0.6021 -0.1067
  743MPD2    C410980   2.455   0.098   1.822  0.1380 -0.1715  0.3180
  743MPD2    C510981   2.334   0.143   1.878  0.1918 -0.1505  0.6551
  743MPD2     H10982   2.333   4.635   1.568 -4.6751  0.1211  0.1605
  743MPD2    H110983   2.552   0.131   1.859  0.8948 -1.5962 -0.3993
  743MPD2    H210984   2.132   0.154   1.863  1.8331  2.4535  0.4717
  743MPD2    H310985   2.326   0.207   1.965  1.6175  0.0016  0.6763
  743MPD2     N10986   2.567   4.679   1.662 -0.0747  0.0815  0.0045
  743MPD2    H510987   2.569   4.627   1.575  1.5074 -2.9442  1.8351
  743MPD2    N110988   2.083   0.016   1.653  0.0478 -0.2092  0.0791
  743MPD2    H710989   2.009   0.072   1.694 -0.7024 -1.4651  0.4171
  744TMC3    C110990   1.932   4.685   1.479 -1.2119 -0.6214 -0.4849
  744TMC3    C210991   1.842   0.061   1.524  0.2293 -0.5741  0.0163
  744TMC3    C310992   1.742   0.092   1.441  0.5917 -0.7862 -0.8942
  744TMC3    C410993   1.918   4.629   1.351 -0.0704  0.1180 -0.4212
  744TMC3    C510994   1.808   4.668   1.271 -0.3426 -0.0056  0.2115
  744TMC3    C610995   1.734   0.043   1.312  0.5333  0.0763 -0.6753
  744TMC3     C10996   2.063   4.664   1.537 -0.4744  0.3097 -0.3510
  744TMC3     O10997   2.133   4.594   1.467 -0.0749 -0.1801 -0.2305
  744TMC3     H10998   1.851   0.107   1.622  1.1841  2.3338 -1.4541
  744TMC3    H110999   1.993   4.561   1.312  0.6033  0.2112  0.7074
  744TMC3    H211000   1.642   0.061   1.257  0.1533  0.8004  0.1797
  744TMC3    C711001   1.816   4.639   1.129  0.1419  0.7439  0.0571
  744TMC3    C811002   1.621   0.150   1.502  0.9791  0.1371 -0.0294
  744TMC3    O111003   1.924   4.600   1.087 -0.0903  0.0619  0.5325
  744TMC3    O211004   1.594   0.121   1.621 -0.3673 -0.2051  0.1809
  745TMC3    C111005   0.366   3.762  13.885  0.3860 -0.3118 -0.2042
  745TMC3    C211006   0.360   3.668  13.984 -0.1153  0.4914  0.8256
  745TMC3    C311007   0.255   3.577  13.983  1.1797  0.8592 -0.2791
  745TMC3    C411008   0.285   3.755  13.774 -0.4322  0.0080  0.0899
  745TMC3    C511009   0.185   3.661  13.772  0.0666  0.1851  0.2643
  745TMC3    C611010   0.169   3.573  13.881 -0.8113 -0.6828 -0.1718
  745TMC3     C11011   0.467   3.866  13.903  0.4757 -0.5798 -0.1589
  745TMC3     O11012   0.528   3.858  14.010 -0.1628  0.0151  0.5412
  745TMC3     H11013   0.440   3.657  14.056  1.6619 -0.1729 -1.2422
  745TMC3    H111014   0.287   3.826  13.693  1.3339 -0.9105 -0.6570
  745TMC3    H211015   0.082   3.508  13.883 -1.2764 -0.0448  0.3257
  745TMC3    C711016   0.096   3.644  13.659 -0.1597  0.6944 -0.2222
  745TMC3    C811017   0.180   3.578  14.109 -0.2459  0.7832  0.3395
  745TMC3    O111018   4.706   3.593  13.689  0.9358 -0.2876 -0.0473
  745TMC3    O211019   0.064   3.538  14.109  0.0727  0.4040 -0.1200
  746TMC3    C111020   2.216   1.024  11.090 -0.2198 -0.4870  0.2315
  746TMC3    C211021   2.316   0.935  11.049 -0.5779 -0.0423  0.5689
  746TMC3    C311022   2.293   0.806  11.009 -0.2017  0.5477  0.3096
  746TMC3    C411023   2.090   0.971  11.092  0.2652  0.8034  0.1746
  746TMC3    C511024   2.077   0.836  11.070  0.1634 -0.1233 -0.1642
  746TMC3    C611025   2.170   0.757  11.022  0.1997  0.0132  1.0175
  746TMC3     C11026   2.218   1.144  11.010 -0.1255 -0.7797 -0.0225
  746TMC3     O11027   2.307   1.148  10.923  0.6123  0.4537  0.2255
  746TMC3     H11028   2.418   0.972  11.054 -0.4385 -0.4506  0.7563
  746TMC3    H111029   2.010   1.041  11.110 -0.4833  0.0002 -0.0178
  746TMC3    H211030   2.147   0.655  10.994  0.3777 -0.5249  2.8401
  746TMC3    C711031   1.938   0.791  11.043 -0.2957  0.3367 -0.4227
  746TMC3    C811032   2.377   0.751  10.903  0.2489 -0.4720 -0.1032
  746TMC3    O111033   1.930   0.695  10.966  0.1027 -0.1181 -0.4335
  746TMC3    O211034   2.366   0.634  10.872  0.2098  0.0028  0.3330
  747TMC3    C111035   4.714   0.822  10.690 -0.4774  0.9990 -0.2561
  747TMC3    C211036   4.615   0.755  10.751 -0.6322  0.2587 -0.2712
  747TMC3    C311037   4.555   0.814  10.865  0.8429 -0.1227  0.4618
  747TMC3    C411038   0.033   0.949  10.727 -0.0198  0.1823 -0.2655
  747TMC3    C511039   4.692   0.997  10.837  0.3798 -0.1940 -0.5027
  747TMC3    C611040   4.597   0.930  10.911 -0.0095  0.0407  0.1705
  747TMC3     C11041   0.056   0.760  10.573  0.6744 -0.2681 -0.3064
  747TMC3     O11042   0.158   0.816  10.535  0.5439 -0.0785 -0.7475
  747TMC3     H11043   4.610   0.649  10.727  1.5552  0.1421 -0.2170
  747TMC3    H111044   0.114   0.998  10.675  0.7175 -0.3925  0.3350
  747TMC3    H211045   4.535   0.978  10.985  0.2421  1.0480 -0.2713
  747TMC3    C711046   4.710   1.135  10.876 -0.2343 -0.0960 -0.4703
  747TMC3    C811047   4.452   0.738  10.938 -0.7199  0.0079 -0.1462
  747TMC3    O111048   4.683   1.184  10.986  0.1632  0.1062 -0.6274
  747TMC3    O211049   4.397   0.652  10.874  0.9806 -0.1724  0.2342
  748MPD2     C11050   1.412   1.144   1.595  0.3361  0.9411 -0.3117
  748MPD2    C111051   1.495   1.036   1.588  0.1011 -0.1187  0.6358
  748MPD2    C211052   1.622   1.041   1.532 -0.1335  0.6511  0.0332
  748MPD2    C311053   1.663   1.159   1.474  0.5787  0.9396 -0.0392
  748MPD2    C411054   1.583   1.270   1.468  0.7612  0.0091 -0.0795
  748MPD2    C511055   1.462   1.263   1.536 -0.4398  0.1173 -0.8144
  748MPD2     H11056   1.688   0.955   1.534 -0.5548  0.2828 -1.3222
  748MPD2    H111057   1.615   1.367   1.433  2.8139 -0.0031  1.8200
  748MPD2    H211058   1.313   1.147   1.640  1.8752  3.5116  2.8729
  748MPD2    H311059   1.402   1.354   1.532 -1.5535 -0.5811 -0.1138
  748MPD2     N11060   1.795   1.155   1.423  0.0070 -0.3814 -0.1330
  748MPD2    H511061   1.834   1.062   1.432 -3.1159 -1.5715  1.3420
  748MPD2    N111062   1.443   0.913   1.639 -0.2155 -0.5781 -0.7645
  748MPD2    H711063   1.354   0.923   1.687  0.6349  1.9773  0.3258
  749TMC3    C111064   1.996   1.232   1.336 -0.2720  0.2269  0.2011
  749TMC3    C211065   2.063   1.182   1.440  0.4419  0.3842  0.0495
  749TMC3    C311066   2.198   1.207   1.446  0.6675 -0.8117  0.3902
  749TMC3    C411067   2.056   1.297   1.235 -0.5696  0.5389 -0.6332
  749TMC3    C511068   2.197   1.311   1.248 -0.1994 -0.5081  0.1191
  749TMC3    C611069   2.266   1.289   1.363  0.0266 -0.0166 -0.0160
  749TMC3     C11070   1.853   1.250   1.344  0.0816  0.4402 -0.3145
  749TMC3     O11071   1.816   1.358   1.300 -0.2214 -0.8253 -0.0283
  749TMC3     H11072   2.013   1.133   1.523 -0.7767 -2.3204 -2.2915
  749TMC3    H111073   1.994   1.351   1.165  0.2017  2.8905  0.4625
  749TMC3    H211074   2.372   1.308   1.368 -0.0278 -0.0283  1.0869
  749TMC3    C711075   2.244   1.393   1.142 -0.0147 -0.2752 -0.4245
  749TMC3    C811076   2.259   1.139   1.559  0.8582  0.3297  0.3055
  749TMC3    O111077   2.317   1.485   1.166 -0.0395 -0.1598 -0.0215
  749TMC3    O211078   2.194   1.127   1.662  0.4335 -0.1089 -0.1950
  750MPD2     C11079   2.493   2.873  11.257 -0.1044 -0.0507  0.0551
  750MPD2    C111080   2.370   2.892  11.193  0.5566 -0.3560 -0.6496
  750MPD2    C211081   2.332   2.788  11.106 -0.6921 -0.0943 -0.4621
  750MPD2    C311082   2.401   2.662  11.106  0.6828 -0.0136  0.0312
  750MPD2    C411083   2.522   2.649  11.167  0.0917  0.3022  0.1319
  750MPD2    C511084   2.567   2.757  11.238  0.7424  0.2504 -0.1022
  750MPD2     H11085   2.242   2.795  11.046 -1.4685  1.2720  0.8528
  750MPD2    H111086   2.565   2.550  11.175  1.4245  0.6711 -2.6076
  750MPD2    H211087   2.528   2.950  11.324 -1.3200  0.9011 -0.3900
  750MPD2    H311088   2.657   2.747  11.298 -0.4008 -2.4726  1.1416
  750MPD2     N11089   2.352   2.548  11.051 -0.8287 -0.8954  0.1050
  750MPD2    H511090   2.403   2.462  11.064  0.0475 -0.8223 -2.7238
  750MPD2    N111091   2.294   3.011  11.219  0.1540  0.5522  0.0033
  750MPD2    H711092   2.340   3.073  11.285  0.3335  0.1341  0.2728
  751TMC3    C111093   2.256   2.399  10.904 -0.2959  0.2291 -0.2430
  751TMC3    C211094   2.132   2.350  10.885  0.2120  0.7545 -0.1665
  751TMC3    C311095   2.117   2.213  10.860 -0.2697  0.5667 -0.3490
  751TMC3    C411096   2.373   2.333  10.892 -0.7398 -0.3710  0.4131
  751TMC3    C511097   2.350   2.198  10.860  0.2129  0.0246 -0.0997
  751TMC3    C611098   2.228   2.141  10.836 -0.7202 -0.6373 -0.1418
  751TMC3     C11099   2.243   2.527  10.969 -0.4634 -0.1088 -0.8924
  751TMC3     O11100   2.155   2.607  10.944 -0.4116  0.1375  0.6987
  751TMC3     H11101   2.043   2.412  10.879 -1.2680 -0.8791  4.3282
  751TMC3    H111102   2.471   2.378  10.904 -0.3146 -0.5308 -2.5319
  751TMC3    H211103   2.205   2.039  10.806 -1.2739 -0.4352 -0.4087
  751TMC3    C711104   2.467   2.117  10.834  0.0729 -0.1465 -0.3569
  751TMC3    C811105   1.986   2.151  10.867 -0.0011  0.7668  0.0677
  751TMC3    O111106   2.568   2.169  10.789 -0.9971  0.0658 -0.4977
  751TMC3    O211107   1.947   2.102  10.765 -0.5727 -0.5340 -0.7314
  752TMC3    C111108   1.558   2.355  16.939  0.1285  0.1962 -0.3988
  752TMC3    C211109   1.465   2.280  16.998 -0.4467 -0.6370  0.1713
  752TMC3    C311110   1.449   2.283  17.133  0.0534 -0.4277  0.2064
  752TMC3    C411111   1.661   2.410  17.013 -0.4592 -0.4749  0.7550
  752TMC3    C511112   1.654   2.399  17.143 -1.4604  0.1514  0.2155
  752TMC3    C611113   1.548   2.345  17.209  0.7051 -0.1524  1.1091
  752TMC3     C11114   1.546   2.392  16.798  0.1493  0.8921  0.1990
  752TMC3     O11115   1.644   2.445  16.749  0.5260 -0.2119  0.2044
  752TMC3     H11116   1.380   2.244  16.941 -0.3755 -2.7979  1.4375
  752TMC3    H111117   1.749   2.453  16.967  0.7191 -0.8029  2.7261
  752TMC3    H211118   1.550   2.352  17.317  0.0058  1.5719  1.0207
  752TMC3    C711119   1.764   2.454  17.226 -0.3195 -0.3777 -0.6317
  752TMC3    C811120   1.336   2.221  17.197  0.1929  0.0730 -0.3957
  752TMC3    O111121   1.813   2.557  17.184 -0.8777  0.0706 -0.0776
  752TMC3    O211122   1.278   2.133  17.135 -1.0201  0.3009  0.3428
  753TMC3    C111123   3.204   3.746  13.632  0.1558 -0.2609  0.6474
  753TMC3    C211124   3.308   3.723  13.730  0.4959 -0.9385 -0.3021
  753TMC3    C311125   3.324   3.592  13.780  0.6718  0.2635 -0.1185
  753TMC3    C411126   3.133   3.640  13.581  0.8864  0.1378  0.0716
  753TMC3    C511127   3.160   3.516  13.630  0.3104  0.3939 -0.1716
  753TMC3    C611128   3.257   3.488  13.719 -0.2395 -0.0836 -0.0143
  753TMC3     C11129   3.173   3.881  13.584 -0.1748 -0.1791  0.2041
  753TMC3     O11130   3.103   3.877  13.484 -0.3088  0.4459 -0.3840
  753TMC3     H11131   3.378   3.800  13.761 -0.5699 -0.2071  0.2825
  753TMC3    H111132   3.054   3.657  13.509  1.0950 -0.0689 -0.2053
  753TMC3    H211133   3.274   3.389  13.761  0.0775 -0.1156 -0.2152
  753TMC3    C711134   3.092   3.403  13.584 -0.1140  1.3034  0.1001
  753TMC3    C811135   3.414   3.556  13.889 -0.6099 -0.6489 -0.5950
  753TMC3    O111136   3.102   3.301  13.650 -0.6439  0.1524 -0.4974
  753TMC3    O211137   3.459   3.442  13.880 -0.2666  0.2716  0.4225
  754MPD2     C11138   2.203   2.273  12.767 -0.2245 -0.0555  0.6834
  754MPD2    C111139   2.165   2.149  12.790 -0.0794 -0.8313 -0.2326
  754MPD2    C211140   2.031   2.119  12.831 -0.4005 -0.2044 -0.2323
  754MPD2    C311141   1.943   2.227  12.866 -0.4546 -0.1467  0.5189
  754MPD2    C411142   1.988   2.352  12.836  0.3722  0.1450 -0.4054
  754MPD2    C511143   2.111   2.375  12.783  0.1573  0.7804 -0.4063
  754MPD2     H11144   1.994   2.020  12.853 -0.5454  0.3291  1.9502
  754MPD2    H111145   1.937   2.446  12.856 -0.4687 -0.4289  0.1605
  754MPD2    H211146   2.297   2.304  12.724  0.1150 -4.0254 -1.3980
  754MPD2    H311147   2.137   2.475  12.748 -1.1893  0.5689 -2.0306
  754MPD2     N11148   1.823   2.224  12.931  0.3543  0.4612  0.0262
  754MPD2    H511149   1.783   2.314  12.955 -0.5478  0.2531 -0.6885
  754MPD2    N111150   2.271   2.047  12.761 -0.0683  0.2789 -0.3175
  754MPD2    H711151   2.356   2.081  12.719  0.1179  0.7209  0.4115
  755MPD2     C11152   1.351   2.894  13.131  0.8261 -0.4756 -0.3140
  755MPD2    C111153   1.321   2.803  13.234  0.4053 -0.1291  0.5610
  755MPD2    C211154   1.338   2.671  13.207 -0.7721  0.6444 -0.1037
  755MPD2    C311155   1.401   2.633  13.092 -0.0521 -0.0080  0.1444
  755MPD2    C411156   1.450   2.730  13.006  0.3087 -0.2776  0.4477
  755MPD2    C511157   1.412   2.858  13.016  0.0811 -0.7131 -0.1060
  755MPD2     H11158   1.311   2.596  13.281  0.6772  0.6038  0.3969
  755MPD2    H111159   1.499   2.700  12.914 -1.5690  0.3661 -0.7802
  755MPD2    H211160   1.324   2.998  13.140 -0.1627 -0.8693  1.4784
  755MPD2    H311161   1.448   2.937  12.951  1.5889 -1.0156  0.3648
  755MPD2     N11162   1.434   2.500  13.059 -0.2311 -0.0768 -0.2581
  755MPD2    H511163   1.500   2.484  12.984  0.6034  0.3257  0.3885
  755MPD2    N111164   1.260   2.846  13.362 -0.2598  0.1914  0.2020
  755MPD2    H711165   1.241   2.946  13.368  0.9232  0.4033  0.3562
  756MPD2     C11166   2.233   2.532   9.312 -0.1682 -0.9576  0.5529
  756MPD2    C111167   2.186   2.567   9.437  0.0281  0.6155  0.7649
  756MPD2    C211168   2.051   2.540   9.469  0.0323  0.3018 -0.5610
  756MPD2    C311169   1.976   2.454   9.390  0.2310 -0.2758  0.1802
  756MPD2    C411170   2.032   2.418   9.266  0.2194 -0.2472 -0.2030
  756MPD2    C511171   2.163   2.454   9.231  0.3423  0.0344 -0.1791
  756MPD2     H11172   2.016   2.581   9.563  1.1463 -2.6134  1.1317
  756MPD2    H111173   1.982   2.344   9.204 -2.1910 -0.7404  2.3549
  756MPD2    H211174   2.335   2.551   9.281 -0.5470  1.1389  0.6438
  756MPD2    H311175   2.211   2.415   9.142  2.7462  4.3585 -0.7262
  756MPD2     N11176   1.837   2.426   9.416  0.1489  0.1734  0.5486
  756MPD2    H511177   1.802   2.455   9.507  1.5538  1.5639  0.6504
  756MPD2    N111178   2.263   2.639   9.529  0.3400 -0.6141  0.1514
  756MPD2    H711179   2.222   2.658   9.620  0.5927  0.5621  0.0235
  757MPD2     C11180   1.198   1.622   9.227 -0.2287  0.2129 -0.5439
  757MPD2    C111181   1.322   1.630   9.285  0.6212  0.3910  0.7577
  757MPD2    C211182   1.382   1.745   9.330  0.0639 -0.3894  0.0626
  757MPD2    C311183   1.311   1.860   9.301 -0.4580  0.6537  0.4853
  757MPD2    C411184   1.179   1.852   9.265 -0.2611 -1.0638  0.5591
  757MPD2    C511185   1.121   1.739   9.218  0.4541 -0.5261  0.1339
  757MPD2     H11186   1.485   1.766   9.358 -0.2262  1.0361  0.1009
  757MPD2    H111187   1.128   1.947   9.256  0.3825 -0.8122 -0.5459
  757MPD2    H211188   1.144   1.540   9.181 -1.4459  0.5861  0.2502
  757MPD2    H311189   1.020   1.729   9.181  0.6661  2.4667 -1.2611
  757MPD2     N11190   1.379   1.985   9.340 -0.0466 -0.5403  0.7772
  757MPD2    H511191   1.469   1.974   9.385  0.7613 -3.0268 -1.3851
  757MPD2    N111192   1.395   1.506   9.276  0.4668  0.2906  0.3206
  757MPD2    H711193   1.329   1.432   9.253  0.0289  0.4171  1.2019
  758MPD2     C11194   2.057   1.889  15.833 -0.2900 -0.1103 -0.0630
  758MPD2    C111195   2.126   1.823  15.932 -0.5741 -0.4158 -0.3134
  758MPD2    C211196   2.064   1.823  16.055 -0.1094 -0.2677  0.4548
  758MPD2    C311197   1.949   1.894  16.084 -0.1521 -0.3468 -0.1587
  758MPD2    C411198   1.891   1.965  15.985  0.3132  0.0733  0.1165
  758MPD2    C511199   1.939   1.959  15.858  0.1178 -1.1347  0.8996
  758MPD2     H11200   2.112   1.772  16.137 -0.5215 -2.2614 -0.5394
  758MPD2    H111201   1.796   2.014  16.003 -0.3958 -1.1542 -0.2863
  758MPD2    H211202   2.091   1.892  15.730  1.0767  0.5930  0.4156
  758MPD2    H311203   1.893   2.011  15.776  3.1776 -1.3563 -0.9673
  758MPD2     N11204   1.885   1.900  16.209 -0.2185  0.8004  0.5507
  758MPD2    H511205   1.801   1.957  16.217 -1.9042 -1.3942 -1.7362
  758MPD2    N111206   2.253   1.758  15.906 -0.2806  0.5309  0.1179
  758MPD2    H711207   2.302   1.783  15.821  1.6779  0.1873  1.1307
  759MPD2     C11208   0.590   0.539   9.918 -0.5262  0.5022  0.2785
  759MPD2    C111209   0.619   0.427   9.841 -0.2663 -0.6715 -0.2560
  759MPD2    C211210   0.739   0.422   9.769 -0.0787  0.3962  0.0172
  759MPD2    C311211   0.831   0.521   9.768  0.0147 -0.3796  0.7468
  759MPD2    C411212   0.800   0.633   9.844  0.1436 -0.7226  0.5490
  759MPD2    C511213   0.686   0.636   9.925  0.2707 -0.3227 -0.7598
  759MPD2     H11214   0.755   0.337   9.703  0.2827  0.6990 -0.2894
  759MPD2    H111215   0.868   0.716   9.854  3.0719 -2.9696 -0.6474
  759MPD2    H211216   0.501   0.551   9.979 -0.8011  2.8731 -0.5647
  759MPD2    H311217   0.684   0.713  10.001 -2.7338 -0.2922 -0.8634
  759MPD2     N11218   0.938   0.531   9.681  0.5148  0.2737 -0.0086
  759MPD2    H511219   0.993   0.616   9.682  3.7006 -1.7903  0.0340
  759MPD2    N111220   0.548   0.310   9.865 -0.3482 -0.0933 -0.1104
  759MPD2    H711221   0.593   0.220   9.853  0.9974  0.2267  2.6678
  760MPD2     C11222   0.969   2.164  12.346  0.1210 -0.0138  0.2564
  760MPD2    C111223   0.919   2.179  12.216  0.1161 -0.2531  0.1403
  760MPD2    C211224   0.868   2.069  12.153 -0.1526 -0.2769 -0.1053
  760MPD2    C311225   0.858   1.947  12.221 -0.0478 -0.2508  0.1933
  760MPD2    C411226   0.908   1.935  12.348 -0.0883  0.3590  0.2861
  760MPD2    C511227   0.968   2.045  12.406 -0.0566  0.0844 -0.6574
  760MPD2     H11228   0.840   2.085  12.049  3.0323  0.8809 -0.7936
  760MPD2    H111229   0.909   1.839  12.400  1.5067  0.1713 -0.0924
  760MPD2    H211230   1.004   2.245  12.410 -0.6326  0.1887  0.4045
  760MPD2    H311231   0.997   2.043  12.511  0.7617  4.0367 -0.8215
  760MPD2     N11232   0.788   1.834  12.175  0.2922 -0.4686  0.4386
  760MPD2    H511233   0.786   1.756  12.240  0.0140  0.0958  1.1030
  760MPD2    N111234   0.907   2.303  12.149  0.1601  0.0095  0.4101
  760MPD2    H711235   0.887   2.299  12.050  2.5646 -0.4453 -0.0502
  761MPD2     C11236   1.573   1.994  11.124  0.4255  0.2307 -0.4060
  761MPD2    C111237   1.640   1.934  11.022  0.5183 -0.1406  0.0763
  761MPD2    C211238   1.750   2.000  10.971  0.0087  0.3261  0.6804
  761MPD2    C311239   1.794   2.127  11.016 -0.8842 -0.1987  0.7774
  761MPD2    C411240   1.735   2.183  11.130  0.6110  0.6473 -0.1874
  761MPD2    C511241   1.628   2.116  11.186 -0.2325  0.5126  0.3691
  761MPD2     H11242   1.813   1.960  10.892  0.1060  1.5558  0.1305
  761MPD2    H111243   1.780   2.263  11.188  0.4544 -0.5181  1.5220
  761MPD2    H211244   1.479   1.958  11.164  0.4859 -1.5127 -1.8254
  761MPD2    H311245   1.585   2.164  11.273  2.7626  0.8167  1.6909
  761MPD2     N11246   1.914   2.187  10.978 -0.3769  0.7590  0.0076
  761MPD2    H511247   1.958   2.252  11.042 -0.3749  2.8068 -2.0677
  761MPD2    N111248   1.587   1.811  10.980 -0.3841 -0.4464  0.6440
  761MPD2    H711249   1.511   1.771  11.035 -0.1431  0.0298  1.3240
  762MPD2     C11250   2.009   1.828  10.609  0.5998  0.0200 -0.5808
  762MPD2    C111251   1.996   1.694  10.580  0.6411 -0.0814  0.1875
  762MPD2    C211252   2.091   1.633  10.505 -0.4003  0.2053  0.6016
  762MPD2    C311253   2.200   1.697  10.451 -0.3431 -0.0564  0.5730
  762MPD2    C411254   2.218   1.834  10.480  0.2649  0.0601  0.0924
  762MPD2    C511255   2.121   1.892  10.561  0.1607  0.2183  0.2066
  762MPD2     H11256   2.083   1.526  10.489  0.3152 -0.0632  2.0438
  762MPD2    H111257   2.302   1.891  10.441  0.8968 -0.9343 -0.0001
  762MPD2    H211258   1.930   1.878  10.664  1.2106  0.0464  0.2713
  762MPD2    H311259   2.122   1.998  10.583  0.6726 -0.1288  1.8407
  762MPD2     N11260   2.286   1.621  10.373  0.5692  0.6885 -0.3418
  762MPD2    H511261   2.261   1.523  10.358 -0.8558  1.2252 -1.5190
  762MPD2    N111262   1.885   1.624  10.635  0.6776 -0.0885 -0.0684
  762MPD2    H711263   1.820   1.678  10.692  0.5079  1.0103 -1.3148
  763MPD2     C11264   3.683   2.042  16.327 -0.1859  0.5416  0.0354
  763MPD2    C111265   3.734   2.102  16.214  0.6304 -0.8518 -0.2322
  763MPD2    C211266   3.771   2.232  16.223 -0.4808  0.1511 -0.1728
  763MPD2    C311267   3.767   2.305  16.343 -0.3901  0.3484 -0.3391
  763MPD2    C411268   3.707   2.244  16.450 -0.6412 -0.4646  1.3092
  763MPD2    C511269   3.666   2.113  16.441  1.1154 -0.1246  0.2310
  763MPD2     H11270   3.822   2.273  16.136  0.9489  0.0327  0.6198
  763MPD2    H111271   3.698   2.297  16.544 -0.7448  2.2707 -0.2367
  763MPD2    H211272   3.667   1.935  16.330 -2.0598  0.8613  1.0400
  763MPD2    H311273   3.649   2.059  16.534  0.3632 -3.3175 -1.7707
  763MPD2     N11274   3.810   2.441  16.347 -0.0247  0.0057  0.0899
  763MPD2    H511275   3.765   2.497  16.419 -0.5419 -0.2568 -0.0274
  763MPD2    N111276   3.739   2.038  16.089  0.8059 -0.2527  0.1061
  763MPD2    H711277   3.773   2.094  16.012 -0.6065 -1.1079 -1.1370
  764MPD2     C11278   2.448   3.733  17.427 -0.5416 -0.3626  0.0950
  764MPD2    C111279   2.478   3.617  17.355  0.0350  0.0447 -0.2204
  764MPD2    C211280   2.552   3.517  17.413 -0.5977 -0.1980 -0.0475
  764MPD2    C311281   2.581   3.518  17.540 -0.0755  0.6099  0.7246
  764MPD2    C411282   2.553   3.629  17.612 -0.2910  0.5288 -0.8932
  764MPD2    C511283   2.501   3.742  17.553  0.3399 -0.0348 -0.4263
  764MPD2     H11284   2.553   3.428  17.351  1.0914  0.4326 -0.9222
  764MPD2    H111285   2.569   3.628   0.038  1.2031 -0.9268 -1.1255
  764MPD2    H211286   2.396   3.821  17.391  1.2616  0.7423  0.1913
  764MPD2    H311287   2.468   3.830  17.607  2.1942  1.0210 -1.0518
  764MPD2     N11288   2.639   3.405  17.596  0.0288 -0.0582  0.4036
  764MPD2    H511289   2.677   3.333  17.535 -0.9853  0.1217 -0.4395
  764MPD2    N111290   2.435   3.600  17.219  0.0710  0.4737  0.0603
  764MPD2    H711291   2.454   3.509  17.180 -1.9149 -1.2412  3.0388
  765MPD2     C11292   1.501   0.909  15.903  0.0436  0.7420  0.6041
  765MPD2    C111293   1.520   1.044  15.878  0.3813 -0.3765 -0.2239
  765MPD2    C211294   1.635   1.074  15.813 -0.2037  0.0995 -0.2962
  765MPD2    C311295   1.713   0.984  15.748  0.0401  0.3065  0.4520
  765MPD2    C411296   1.672   0.848  15.759 -0.1546  0.1649  0.7808
  765MPD2    C511297   1.583   0.817  15.852 -0.2808 -0.6481  0.3296
  765MPD2     H11298   1.649   1.180  15.796 -0.2391  0.4962  2.2211
  765MPD2    H111299   1.716   0.773  15.694 -2.0041  0.0858 -0.3934
  765MPD2    H211300   1.425   0.889  15.978  3.6277 -1.1682  3.7268
  765MPD2    H311301   1.577   0.712  15.881 -0.3946 -1.4358 -2.5460
  765MPD2     N11302   1.820   1.038  15.674 -0.9370  0.9329 -0.2053
  765MPD2    H511303   1.834   1.138  15.675  1.9212  0.4856  3.1329
  765MPD2    N111304   1.413   1.132  15.892 -0.0812  0.3142 -0.0292
  765MPD2    H711305   1.328   1.091  15.931  0.4570  0.0166  0.8432
  766MPD2     C11306   1.116   1.025  15.438  0.1464  0.5261 -0.1387
  766MPD2    C111307   1.114   1.162  15.455  0.8279  0.4409 -0.4260
  766MPD2    C211308   1.172   1.243  15.356 -1.2754 -0.7234  0.2769
  766MPD2    C311309   1.235   1.190  15.245 -0.7643 -0.9988  0.6722
  766MPD2    C411310   1.240   1.053  15.231  0.2140  0.2761 -0.4678
  766MPD2    C511311   1.173   0.971  15.321  0.2151 -0.1889  1.2216
  766MPD2     H11312   1.166   1.351  15.365  0.7364 -0.6255  0.3848
  766MPD2    H111313   1.298   1.018  15.147  1.9150  1.4214  0.2340
  766MPD2    H211314   1.076   0.961  15.516  1.0986 -2.4085 -2.0709
  766MPD2    H311315   1.180   0.865  15.302  1.8308  0.4213 -1.5923
  766MPD2     N11316   1.300   1.269  15.148  0.3884  0.6846 -0.9007
  766MPD2    H511317   1.349   1.211  15.081  1.8649  1.5107 -0.5308
  766MPD2    N111318   1.071   1.213  15.575  0.5081  0.5722 -0.2411
  766MPD2    H711319   1.033   1.150  15.644 -1.3948  1.3457 -0.5797
  767MPD2     C11320   0.875   1.794  15.188  0.2129  0.1816  0.7116
  767MPD2    C111321   1.004   1.810  15.140  0.1019 -0.1022 -0.4358
  767MPD2    C211322   1.029   1.793  15.006 -0.2525 -0.2596  0.1848
  767MPD2    C311323   0.925   1.777  14.915  0.4111 -0.0610  0.7842
  767MPD2    C411324   0.796   1.780  14.965  0.1351  0.1077 -1.2468
  767MPD2    C511325   0.772   1.782  15.100 -0.0857 -0.0254  0.3574
  767MPD2     H11326   1.131   1.809  14.972 -0.5777 -0.8220 -1.0556
  767MPD2    H111327   0.714   1.761  14.896 -0.0563 -1.9721 -0.4397
  767MPD2    H211328   0.848   1.806  15.293 -1.0314  1.7160  0.2232
  767MPD2    H311329   0.670   1.789  15.136 -1.1001 -3.1121 -1.8878
  767MPD2     N11330   0.958   1.748  14.783 -0.5529 -0.8390 -0.3843
  767MPD2    H511331   1.055   1.738  14.757 -0.8233 -1.2244 -1.2722
  767MPD2    N111332   1.107   1.827  15.236 -0.4607 -0.2088  0.7802
  767MPD2    H711333   1.077   1.829  15.333 -3.4694 -0.9982 -0.1108
  768MPD2     C11334   1.929   0.733  10.538  0.0864  0.4838 -0.1161
  768MPD2    C111335   1.866   0.625  10.600 -0.0723  0.0022  0.0718
  768MPD2    C211336   1.929   0.542  10.693 -0.2185 -0.1193 -0.4649
  768MPD2    C311337   2.065   0.564  10.715  0.1261  0.1962  0.3519
  768MPD2    C411338   2.119   0.678  10.667 -0.1739  0.4540  0.7180
  768MPD2    C511339   2.057   0.762  10.579  0.1019  0.4327 -0.0999
  768MPD2     H11340   1.873   0.460  10.735 -0.0182  0.3589  0.7492
  768MPD2    H111341   2.222   0.700  10.691  0.6148  1.3749 -3.5526
  768MPD2    H211342   1.877   0.801  10.472 -0.3486 -2.0897 -2.4098
  768MPD2    H311343   2.106   0.853  10.547 -2.3311  1.3915 -1.1548
  768MPD2     N11344   2.147   0.476  10.782 -0.1316 -0.6917  0.0230
  768MPD2    H511345   2.242   0.507  10.794 -0.3860  0.6967 -1.4263
  768MPD2    N111346   1.735   0.591  10.567 -0.2672  0.2084 -0.0660
  768MPD2    H711347   1.696   0.509  10.613 -0.7348  0.1913 -0.4896
  769MPD2     C11348   3.225   2.856  15.095  0.2078  0.2107  0.4847
  769MPD2    C111349   3.111   2.812  15.160 -0.3511 -0.2244 -0.9298
  769MPD2    C211350   3.109   2.795  15.298  0.3614  0.6017  0.4534
  769MPD2    C311351   3.210   2.841  15.385 -0.7540  0.2172 -0.3037
  769MPD2    C411352   3.323   2.879  15.321 -0.2488  0.1122  0.0110
  769MPD2    C511353   3.334   2.886  15.179 -0.3236 -0.0603 -0.2523
  769MPD2     H11354   3.016   2.760  15.342  0.4328 -1.8600 -1.3090
  769MPD2    H111355   3.410   2.916  15.375  0.5730 -1.6007 -0.1516
  769MPD2    H211356   3.235   2.870  14.988 -2.5035 -0.2447  0.1686
  769MPD2    H311357   3.429   2.918  15.140  0.0902 -2.4450 -1.2011
  769MPD2     N11358   3.178   2.863  15.521  0.3718  0.0399 -0.4254
  769MPD2    H511359   3.092   2.826  15.561  0.4654  1.5675  1.2274
  769MPD2    N111360   2.995   2.792  15.071  0.2523  0.0335  0.4017
  769MPD2    H711361   2.984   2.853  14.991 -0.3274  1.2922  1.4330
  770MPD2     C11362   2.172   2.238  14.978  0.4456  0.0269 -0.9894
  770MPD2    C111363   2.308   2.209  14.978 -0.6271  0.3007 -0.4974
  770MPD2    C211364   2.395   2.315  15.001  0.4750  0.4264  0.4261
  770MPD2    C311365   2.351   2.440  15.044  0.7069  0.8207  0.2047
  770MPD2    C411366   2.216   2.462  15.056  0.8050 -0.0790  0.4157
  770MPD2    C511367   2.131   2.360  15.024 -0.0269 -0.3405  0.5946
  770MPD2     H11368   2.502   2.295  14.997  0.5117  0.8190 -0.4430
  770MPD2    H111369   2.163   2.555  15.074 -2.3973 -1.5976 -1.0817
  770MPD2    H211370   2.096   2.165  14.954 -0.7311  1.0296 -0.2866
  770MPD2    H311371   2.026   2.388  15.019  0.3675  0.7729 -1.2622
  770MPD2     N11372   2.448   2.537  15.078 -0.2632  0.3710  0.3257
  770MPD2    H511373   2.545   2.507  15.071 -0.6554 -0.7639 -0.2689
  770MPD2    N111374   2.362   2.089  14.930 -0.2191 -0.1025 -0.2958
  770MPD2    H711375   2.463   2.086  14.934 -0.2207  2.5129  1.1558
  771MPD2     C11376   3.475   1.095  13.610  0.3598 -0.2316  0.7241
  771MPD2    C111377   3.417   1.143  13.494 -0.0898 -1.3076 -0.5749
  771MPD2    C211378   3.411   1.070  13.380  0.5916 -0.0458  0.3609
  771MPD2    C311379   3.479   0.952  13.374  0.3814 -0.3459  0.8868
  771MPD2    C411380   3.544   0.903  13.490 -0.1669 -0.0275 -0.0968
  771MPD2    C511381   3.548   0.974  13.607 -0.7266  0.0867 -0.3405
  771MPD2     H11382   3.357   1.110  13.295  0.1321  0.0893  0.7140
  771MPD2    H111383   3.606   0.815  13.485 -4.4290 -3.1400  1.5808
  771MPD2    H211384   3.469   1.134  13.710 -0.6988  0.5399  0.3586
  771MPD2    H311385   3.604   0.941  13.693  0.1389  3.7306  0.4656
  771MPD2     N11386   3.485   0.893  13.242 -0.2166  0.1638 -0.1830
  771MPD2    H511387   3.440   0.947  13.169 -1.9426  0.1106  0.8312
  771MPD2    N111388   3.346   1.262  13.498  0.2083  0.2752  0.7412
  771MPD2    H711389   3.327   1.315  13.413 -1.9978  1.2521  1.8423
  772MPD2     C11390   2.947   1.975  13.695  0.2580  0.4333 -0.2720
  772MPD2    C111391   2.961   1.843  13.712 -0.6406 -0.2259 -0.3093
  772MPD2    C211392   2.844   1.779  13.743 -0.4414 -0.4340  0.2832
  772MPD2    C311393   2.723   1.848  13.755  0.5761  0.2125 -0.2457
  772MPD2    C411394   2.708   1.980  13.723  0.4653 -0.6914  0.2629
  772MPD2    C511395   2.830   2.045  13.708 -0.4915  0.4879  0.2853
  772MPD2     H11396   2.852   1.675  13.771 -1.0853 -0.4879  0.2654
  772MPD2    H111397   2.617   2.039  13.728 -0.6198 -2.4524  1.0790
  772MPD2    H211398   3.036   2.034  13.672  0.9183 -0.9102 -1.1545
  772MPD2    H311399   2.829   2.152  13.689 -0.7801  0.5453  0.6375
  772MPD2     N11400   2.598   1.776  13.800  0.6878 -0.2840  0.7821
  772MPD2    H511401   2.516   1.823  13.763  1.2594 -1.1528 -1.6140
  772MPD2    N111402   3.083   1.776  13.697  0.2950  0.3815 -0.1664
  772MPD2    H711403   3.064   1.677  13.710  1.5016  0.3148  1.0319
  773MPD2     C11404   2.902   1.731   0.514 -0.1375  1.2138 -0.5317
  773MPD2    C111405   2.835   1.670   0.406 -0.2577  0.1193 -0.5068
  773MPD2    C211406   2.880   1.544   0.381 -0.5744  0.7699  0.2926
  773MPD2    C311407   2.985   1.475   0.439 -0.3448  0.6034 -0.0682
  773MPD2    C411408   3.067   1.555   0.525  0.6197 -0.3193  0.0917
  773MPD2    C511409   3.015   1.682   0.566 -0.4659  0.1934  1.1328
  773MPD2     H11410   2.829   1.485   0.305 -0.7753  0.6833  0.4930
  773MPD2    H111411   3.164   1.530   0.566 -0.4375 -1.6661  1.7633
  773MPD2    H211412   2.878   1.832   0.544 -0.9895  0.3951  1.5610
  773MPD2    H311413   3.069   1.745   0.635  1.3809 -0.2292  0.0809
  773MPD2     N11414   3.029   1.352   0.386 -0.0940 -0.2714 -0.5867
  773MPD2    H511415   2.979   1.304   0.311  2.5152 -0.5747 -2.1634
  773MPD2    N111416   2.725   1.730   0.340 -0.2678 -0.1761 -0.3842
  773MPD2    H711417   2.674   1.668   0.277  1.9817 -1.8745 -0.5444
  774MPD2     C11418   1.838   1.197  13.270 -0.5723  0.6124  0.2061
  774MPD2    C111419   1.766   1.316  13.273 -0.2233 -0.6204  0.3188
  774MPD2    C211420   1.824   1.424  13.209 -0.2880 -0.5634 -0.2923
  774MPD2    C311421   1.937   1.411  13.140 -0.0079  0.4446 -0.0940
  774MPD2    C411422   1.993   1.290  13.129 -0.3533  0.0902  0.1620
  774MPD2    C511423   1.948   1.179  13.196 -0.7597  0.2787 -0.0195
  774MPD2     H11424   1.780   1.523  13.213  2.9394  0.9242 -1.6313
  774MPD2    H111425   2.068   1.277  13.052 -0.0146 -1.7302  0.8121
  774MPD2    H211426   1.797   1.110  13.319  0.5432 -0.6365 -1.0949
  774MPD2    H311427   2.002   1.085  13.189 -3.4326 -1.2628  0.1915
  774MPD2     N11428   1.983   1.526  13.075 -0.4621 -0.7126  0.0781
  774MPD2    H511429   1.938   1.613  13.099  1.5856  0.8765 -1.8462
  774MPD2    N111430   1.645   1.328  13.351  0.2880  0.0358 -0.7647
  774MPD2    H711431   1.621   1.244  13.403  1.0102 -0.2269 -0.8443
  775MPD2     C11432   3.388   2.760  15.893  0.1319 -0.2048  0.0564
  775MPD2    C111433   3.358   2.855  15.984  0.2484  0.0583  0.3882
  775MPD2    C211434   3.437   2.972  15.991 -1.3559  0.2889 -0.0151
  775MPD2    C311435   3.521   2.999  15.878  0.1746 -0.1682 -0.2606
  775MPD2    C411436   3.540   2.903  15.782  0.1058  0.3874  0.2239
  775MPD2    C511437   3.475   2.786  15.796  0.3466  0.0412  0.2175
  775MPD2     H11438   3.414   3.046  16.067 -0.4792  1.7337 -1.1469
  775MPD2    H111439   3.592   2.915  15.688 -0.9610 -3.7397 -0.8641
  775MPD2    H211440   3.339   2.664  15.901 -2.4565  1.0279 -1.0118
  775MPD2    H311441   3.497   2.717  15.716 -0.0786  2.2306 -1.7711
  775MPD2     N11442   3.587   3.121  15.852 -0.3199  0.1404  0.5019
  775MPD2    H511443   3.637   3.124  15.764 -0.4785  1.5299  0.4676
  775MPD2    N111444   3.248   2.833  16.068  0.0455  0.4108 -0.4414
  775MPD2    H711445   3.210   2.740  16.060 -3.2741  1.7505 -0.1268
  776MPD2     C11446   2.295   3.573  11.792  0.5128 -0.0971  0.0958
  776MPD2    C111447   2.282   3.568  11.655  0.0124 -0.3710 -0.8674
  776MPD2    C211448   2.339   3.668  11.582 -0.5509  0.2939  0.3458
  776MPD2    C311449   2.397   3.777  11.641 -0.7299 -0.0236  0.4848
  776MPD2    C411450   2.416   3.777  11.774 -0.2804 -0.1950  0.3805
  776MPD2    C511451   2.369   3.675  11.847 -0.0647  0.1994  0.2685
  776MPD2     H11452   2.327   3.667  11.474 -0.1254  1.3063  0.2855
  776MPD2    H111453   2.470   3.858  11.823 -2.1752  2.2829 -1.5972
  776MPD2    H211454   2.255   3.490  11.850 -1.6731  0.6021 -0.4101
  776MPD2    H311455   2.385   3.687  11.953 -3.7370 -0.8380  0.9327
  776MPD2     N11456   2.434   3.895  11.570  0.3392  0.0232  0.2573
  776MPD2    H511457   2.442   3.980  11.625 -1.2010  0.2458  0.1341
  776MPD2    N111458   2.216   3.451  11.604 -0.1968  1.4180  0.1273
  776MPD2    H711459   2.178   3.380  11.666  0.8989 -0.2669 -1.1381
  777MPD2     C11460   2.557   0.428   0.705  0.4752 -0.0901  1.0133
  777MPD2    C111461   2.579   0.327   0.795  0.2136  0.6181  0.3592
  777MPD2    C211462   2.543   0.199   0.757  0.3289  0.2249  0.2362
  777MPD2    C311463   2.499   0.178   0.629 -0.0170  1.3603 -0.4025
  777MPD2    C411464   2.486   0.283   0.541 -1.3350  0.5141  0.3576
  777MPD2    C511465   2.507   0.407   0.580 -0.1060 -0.0786 -0.1609
  777MPD2     H11466   2.545   0.115   0.825 -0.0646 -0.2937 -0.3949
  777MPD2    H111467   2.446   0.274   0.440  0.5752  1.6221 -0.5132
  777MPD2    H211468   2.580   0.531   0.731 -1.0874  0.7532 -0.9990
  777MPD2    H311469   2.479   0.488   0.513 -2.5148 -1.3054 -0.6485
  777MPD2     N11470   2.452   0.047   0.590  0.0258 -0.7375  0.9509
  777MPD2    H511471   2.457   4.690   0.656 -1.4799 -1.6649 -0.0191
  777MPD2    N111472   2.612   0.367   0.928  0.2890  0.4039 -0.3396
  777MPD2    H711473   2.646   0.462   0.942  0.3541  0.1597  1.1816
  778MPD2     C11474   3.576   0.652  15.367  0.2004  0.6683  0.5926
  778MPD2    C111475   3.502   0.639  15.250  0.4818  0.0635  0.3432
  778MPD2    C211476   3.538   0.724  15.146  0.5244  0.0227  0.0737
  778MPD2    C311477   3.643   0.807  15.147  0.3865  0.1314  0.0128
  778MPD2    C411478   3.722   0.816  15.261  0.1759 -0.2845  0.5544
  778MPD2    C511479   3.685   0.741  15.369  0.9388  0.0602  0.4394
  778MPD2     H11480   3.488   0.719  15.050  1.4307  0.9207 -0.4470
  778MPD2    H111481   3.807   0.884  15.261  1.8165 -2.3403 -1.7770
  778MPD2    H211482   3.555   0.597  15.458  0.2705  0.2930  0.3838
  778MPD2    H311483   3.752   0.746  15.454 -0.0180 -0.3663  1.2141
  778MPD2     N11484   3.662   0.895  15.037  0.3497  0.3127  0.1806
  778MPD2    H511485   3.594   0.899  14.962  1.5118 -2.3992 -1.0213
  778MPD2    N111486   3.384   0.561  15.229 -0.0379 -0.1422 -0.3093
  778MPD2    H711487   3.333   0.563  15.142 -0.4917 -0.7200 -0.0586
  779MPD2     C11488   3.316   4.453  14.805 -0.8189  0.0559 -0.4037
  779MPD2    C111489   3.401   4.421  14.707 -0.5559 -0.2141  0.3223
  779MPD2    C211490   3.428   4.516  14.606  0.9403 -0.3920 -0.4347
  779MPD2    C311491   3.382   4.644  14.615 -0.1016  0.7926 -0.3497
  779MPD2    C411492   3.293   4.671  14.720 -0.5172 -0.0304  0.0640
  779MPD2    C511493   3.253   4.575  14.801 -0.6461 -0.0525  0.1039
  779MPD2     H11494   3.514   4.497  14.543  1.4060  0.6303 -0.1121
  779MPD2    H111495   3.262   0.050  14.751 -1.9354  0.1627 -1.9487
  779MPD2    H211496   3.285   4.382  14.881  0.0990 -1.2172 -1.2173
  779MPD2    H311497   3.192   4.594  14.889  1.3720 -3.7083  2.3001
  779MPD2     N11498   3.435   0.022  14.525 -0.2588  0.2292  0.0315
  779MPD2    H511499   3.522   0.001  14.476 -0.4770  0.1372 -0.3229
  779MPD2    N111500   3.469   4.298  14.701  0.7721 -0.1969  0.1537
  779MPD2    H711501   3.522   4.281  14.616 -1.0009 -0.0122 -0.9841
  780MPD2     C11502   3.344   4.220   1.424  0.1854 -0.4136 -0.5805
  780MPD2    C111503   3.397   4.119   1.349  0.3432 -0.1200 -0.4855
  780MPD2    C211504   3.433   4.146   1.221  0.0827 -0.2809  0.2166
  780MPD2    C311505   3.408   4.272   1.164 -0.3213 -0.3425 -0.2535
  780MPD2    C411506   3.365   4.381   1.241  0.2103 -0.3036 -0.1439
  780MPD2    C511507   3.331   4.342   1.369 -0.0575  0.4574 -0.3658
  780MPD2     H11508   3.467   4.061   1.163  2.4287  1.6910 -1.2907
  780MPD2    H111509   3.339   4.478   1.199  0.2083 -0.8394 -1.3755
  780MPD2    H211510   3.323   4.212   1.530  0.3102  0.0446 -0.5227
  780MPD2    H311511   3.297   4.416   1.441 -0.7988  1.5304 -1.8036
  780MPD2     N11512   3.433   4.282   1.023 -0.0008 -0.0364 -0.0346
  780MPD2    H511513   3.451   4.204   0.961  0.3853  0.0196  0.0105
  780MPD2    N111514   3.406   3.983   1.391 -0.9242 -0.6714  0.1492
  780MPD2    H711515   3.455   3.918   1.331  0.5903 -2.1994  3.0180
  781MPD2     C11516   0.107   1.383  11.823 -0.2277 -0.2343 -0.2787
  781MPD2    C111517   0.126   1.510  11.857 -0.1388 -0.7442  0.3798
  781MPD2    C211518   0.159   1.592  11.746 -0.0744 -0.4855 -0.4336
  781MPD2    C311519   0.165   1.550  11.613  0.2621 -0.0443  0.2287
  781MPD2    C411520   0.152   1.417  11.591 -0.2442  0.3768  0.0697
  781MPD2    C511521   0.121   1.335  11.692  0.6139  0.5455 -0.2679
  781MPD2     H11522   0.163   1.697  11.774 -1.3148 -0.6381  0.3059
  781MPD2    H111523   0.159   1.379  11.489 -1.8881 -1.8139  0.7667
  781MPD2    H211524   0.084   1.306  11.896 -2.7314 -1.4963 -2.3785
  781MPD2    H311525   0.105   1.229  11.680  1.3663  0.3962 -0.0012
  781MPD2     N11526   0.178   1.627  11.492 -0.0688  0.1337  0.0145
  781MPD2    H511527   0.173   1.578  11.403 -0.9034 -1.1328  0.7635
  781MPD2    N111528   0.117   1.554  11.991 -0.3463 -0.1357  0.0805
  781MPD2    H711529   0.090   1.485  12.060 -1.0302 -1.5312 -1.5991
  782MPD2     C11530   2.626   2.245  10.214 -0.0414  0.2244  0.5422
  782MPD2    C111531   2.751   2.217  10.272  0.4818 -0.8958 -0.1701
  782MPD2    C211532   2.817   2.326  10.333  0.8257  0.7900  0.6266
  782MPD2    C311533   2.761   2.455  10.337  0.4372  0.3485  0.1981
  782MPD2    C411534   2.633   2.474  10.289  0.5386 -0.6009 -0.1404
  782MPD2    C511535   2.568   2.367  10.236 -0.5866 -0.0624 -0.0046
  782MPD2     H11536   2.911   2.308  10.384  1.2554  0.4553 -0.2789
  782MPD2    H111537   2.580   2.566  10.308  0.4149 -0.8784  0.9150
  782MPD2    H211538   2.565   2.173  10.161  1.4976 -1.7589  1.4828
  782MPD2    H311539   2.468   2.387  10.197 -0.5801  2.3639  1.2371
  782MPD2     N11540   2.841   2.557  10.394 -0.7713  0.2138  0.1120
  782MPD2    H511541   2.931   2.530  10.433 -2.4171  0.3991  4.0063
  782MPD2    N111542   2.806   2.094  10.246  0.1978  0.3156 -0.0168
  782MPD2    H711543   2.742   2.030  10.200 -0.9771  0.7198  1.0777
  783MPD2     C11544   2.501   1.750  10.861 -0.2333 -0.7652 -0.6540
  783MPD2    C111545   2.522   1.876  10.815  0.2934  0.5510  1.1653
  783MPD2    C211546   2.610   1.882  10.716 -0.2554 -0.3632  0.4873
  783MPD2    C311547   2.672   1.772  10.661 -0.8390 -0.1284  0.3565
  783MPD2    C411548   2.635   1.650  10.701  0.1457 -0.5134  0.3326
  783MPD2    C511549   2.554   1.634  10.809 -0.0132  0.0457  0.2185
  783MPD2     H11550   2.642   1.980  10.682 -1.1652 -0.9287 -1.9908
  783MPD2    H111551   2.686   1.564  10.659 -1.6087 -2.0008  1.2026
  783MPD2    H211552   2.422   1.730  10.933  1.0201 -0.1801  0.8753
  783MPD2    H311553   2.517   1.539  10.843 -0.0270  0.2975  0.9075
  783MPD2     N11554   2.761   1.797  10.554 -0.0320  0.5216  1.0792
  783MPD2    H511555   2.772   1.894  10.528 -0.3994  0.1864 -0.3784
  783MPD2    N111556   2.450   1.984  10.861 -0.1778 -0.5514  0.1721
  783MPD2    H711557   2.368   1.971  10.919 -0.5069  1.7040  0.2265
  784MPD2     C11558   0.836   2.037   0.700  0.1706 -0.3669  0.1506
  784MPD2    C111559   0.800   2.082   0.825  0.2730  0.4373  0.0068
  784MPD2    C211560   0.667   2.123   0.852 -0.0589 -0.2042 -0.5858
  784MPD2    C311561   0.569   2.123   0.750 -0.4195 -0.5175 -0.3249
  784MPD2    C411562   0.610   2.088   0.625  0.1053  0.7122  0.6879
  784MPD2    C511563   0.741   2.046   0.600 -0.5523  0.2459 -0.6921
  784MPD2     H11564   0.654   2.169   0.949  1.2566 -0.3590 -0.3358
  784MPD2    H111565   0.554   2.091   0.533  1.1464 -0.3475  0.0232
  784MPD2    H211566   0.940   2.011   0.682  0.1131 -1.5256  1.4570
  784MPD2    H311567   0.773   2.002   0.506  0.8728 -2.2332  0.9691
  784MPD2     N11568   0.438   2.164   0.786  0.1433 -0.2777 -0.0862
  784MPD2    H511569   0.424   2.217   0.872 -0.3260 -2.0953  0.9596
  784MPD2    N111570   0.887   2.083   0.933 -0.1751  0.0073  0.9392
  784MPD2    H711571   0.849   2.121   1.019 -1.6583  1.2794 -0.2699
  785MPD2     C11572   4.641   0.766   9.976 -0.2679 -0.7845 -0.1219
  785MPD2    C111573   4.598   0.884   9.920  0.0063  0.0966  0.0691
  785MPD2    C211574   4.497   0.882   9.827  0.3660  0.0558  0.2513
  785MPD2    C311575   4.433   0.760   9.786  0.3101 -0.0116  0.5716
  785MPD2    C411576   4.473   0.647   9.848  0.2616  0.0847 -0.6943
  785MPD2    C511577   4.578   0.656   9.938  1.1352 -0.5983 -0.2634
  785MPD2     H11578   4.452   0.971   9.785 -0.7260 -0.4442  0.3615
  785MPD2    H111579   4.423   0.553   9.829 -1.4716  0.8704 -0.0019
  785MPD2    H211580   4.712   0.775  10.058 -0.3427 -0.7455 -0.0607
  785MPD2    H311581   4.615   0.561   9.975  0.0217 -1.7893 -2.2611
  785MPD2     N11582   4.337   0.774   9.683 -0.0889 -0.1303  0.0080
  785MPD2    H511583   4.323   0.870   9.652  1.0834 -0.4948 -1.6703
  785MPD2    N111584   4.663   1.001   9.963  0.1647 -0.7407  0.4951
  785MPD2    H711585   0.024   0.988  10.023 -0.9356  1.9367  2.5285
  786MPD2     C11586   3.795   3.812  14.919 -0.2303 -0.0702  0.1539
  786MPD2    C111587   3.928   3.784  14.887  0.2031 -0.2289  0.3569
  786MPD2    C211588   4.020   3.813  14.986  0.9796  0.4832 -0.0316
  786MPD2    C311589   3.988   3.855  15.110 -0.3551  0.2974 -0.6694
  786MPD2    C411590   3.862   3.882  15.142 -0.4193 -0.1112 -0.2206
  786MPD2    C511591   3.769   3.871  15.040  0.2890 -0.0359  0.0520
  786MPD2     H11592   4.126   3.805  14.967  0.8772  0.8572 -0.7336
  786MPD2    H111593   3.819   3.923  15.233  1.3574 -1.2870  1.1514
  786MPD2    H211594   3.715   3.789  14.850  0.4317 -1.0601 -0.2909
  786MPD2    H311595   3.665   3.897  15.056  1.1116  1.6931  2.5291
  786MPD2     N11596   4.090   3.889  15.201  0.0876  0.1488  0.0780
  786MPD2    H511597   4.056   3.955  15.270 -2.2801 -2.3458  1.2778
  786MPD2    N111598   3.976   3.751  14.763 -0.2629  0.3320  0.7578
  786MPD2    H711599   4.077   3.756  14.753 -0.0783 -2.7397  0.9524
  787MPD2     C11600   4.189   3.293  14.898 -0.0352 -0.9312  0.0271
  787MPD2    C111601   4.234   3.292  14.768 -0.6195  0.7693  0.1193
  787MPD2    C211602   4.352   3.228  14.728 -0.5500  0.0371 -0.3103
  787MPD2    C311603   4.437   3.186  14.833  0.1582 -0.3224  0.3757
  787MPD2    C411604   4.399   3.201  14.965  0.4719 -0.3343  0.5560
  787MPD2    C511605   4.272   3.244  14.994  0.5802 -0.0217 -0.4058
  787MPD2     H11606   4.379   3.210  14.624  2.1886 -1.6743  0.7182
  787MPD2    H111607   4.455   3.167  15.052 -1.2317 -2.7306  0.6964
  787MPD2    H211608   4.094   3.344  14.912 -0.3895 -0.7985 -2.8697
  787MPD2    H311609   4.242   3.244  15.098 -1.4059 -1.0164 -0.9786
  787MPD2     N11610   4.554   3.116  14.797 -1.2833 -0.0319  0.5270
  787MPD2    H511611   4.557   3.094  14.698  0.3555  1.4691  0.2496
  787MPD2    N111612   4.146   3.356  14.682  0.0843  0.0796 -0.7284
  787MPD2    H711613   4.061   3.395  14.723 -0.1210 -0.5520 -0.5587
  788MPD2     C11614   1.984   1.446   0.433  0.1072 -0.0337  0.6313
  788MPD2    C111615   1.846   1.449   0.471 -0.6385  0.0717 -0.0555
  788MPD2    C211616   1.753   1.522   0.399 -0.0377  0.1110 -0.2158
  788MPD2    C311617   1.797   1.583   0.281 -0.2971 -0.8007 -0.3541
  788MPD2    C411618   1.928   1.579   0.245  0.2912 -1.3050  0.1692
  788MPD2    C511619   2.019   1.519   0.319  0.2610  0.4261  0.2914
  788MPD2     H11620   1.649   1.504   0.421  0.1965 -1.0393 -0.0111
  788MPD2    H111621   1.968   1.634   0.161 -0.6891  0.1894  0.6737
  788MPD2    H211622   2.060   1.392   0.489 -0.4555 -0.4429  0.9985
  788MPD2    H311623   2.126   1.533   0.308  0.4782  0.1981  2.1207
  788MPD2     N11624   1.712   1.654   0.191  1.1943  0.1230 -0.2115
  788MPD2    H511625   1.742   1.691   0.101  0.1424  1.6887  0.0829
  788MPD2    N111626   1.816   1.354   0.563 -0.5263 -0.2518 -0.4068
  788MPD2    H711627   1.878   1.278   0.590  0.6948  0.7070 -0.5480
  789MPD2     C11628   1.711   1.580  16.034 -0.2184  0.6483  0.3459
  789MPD2    C111629   1.676   1.493  16.136  0.2356 -0.5118  0.8456
  789MPD2    C211630   1.598   1.543  16.239  0.6221 -0.5953 -0.3323
  789MPD2    C311631   1.532   1.660  16.231 -0.6083  0.4362 -0.1005
  789MPD2    C411632   1.555   1.741  16.126  0.1370  0.6615  0.0934
  789MPD2    C511633   1.647   1.702  16.036 -0.2659  0.5418 -0.2903
  789MPD2     H11634   1.591   1.476  16.324 -0.4158 -0.5009 -0.3504
  789MPD2    H111635   1.496   1.832  16.116 -1.1079 -0.3078 -1.5940
  789MPD2    H211636   1.792   1.564  15.963 -2.1888 -0.6259 -1.6348
  789MPD2    H311637   1.670   1.776  15.961  0.5428 -0.4392 -0.9994
  789MPD2     N11638   1.426   1.704  16.316 -0.1612 -0.0787 -0.0187
  789MPD2    H511639   1.397   1.800  16.298 -0.1669  0.5710  3.5509
  789MPD2    N111640   1.714   1.362  16.149 -0.0477  0.7445  0.0854
  789MPD2    H711641   1.672   1.304  16.221  2.4085  1.7715  2.3816
  790MPD2     C11642   2.765   3.762  13.552  0.4723  0.0933 -0.3033
  790MPD2    C111643   2.714   3.634  13.575  0.1725 -0.0627 -0.2414
  790MPD2    C211644   2.637   3.577  13.477 -0.1323  0.0109 -0.9538
  790MPD2    C311645   2.593   3.650  13.370  0.1085  0.5100 -0.1177
  790MPD2    C411646   2.628   3.780  13.351  0.4721 -0.4945 -0.9812
  790MPD2    C511647   2.709   3.836  13.446 -0.0800  0.5082 -1.0534
  790MPD2     H11648   2.605   3.475  13.492 -0.3129  0.5311  2.3138
  790MPD2    H111649   2.590   3.846  13.274 -1.2182 -0.5117 -0.1653
  790MPD2    H211650   2.836   3.815  13.614 -1.0744  2.5039 -0.5859
  790MPD2    H311651   2.737   3.940  13.437 -3.1550  1.3800 -0.5725
  790MPD2     N11652   2.508   3.585  13.278 -0.6928  0.1980 -0.2299
  790MPD2    H511653   2.520   3.485  13.275  0.8017  0.3262  1.2056
  790MPD2    N111654   2.764   3.547  13.673  0.8309  0.8436  0.6012
  790MPD2    H711655   2.735   3.450  13.664 -0.0934  1.0511  1.4043
  791MPD2     C11656   1.881   3.622  12.774  0.3356  0.1742  0.6879
  791MPD2    C111657   1.925   3.504  12.818 -0.3000 -0.3184 -0.3386
  791MPD2    C211658   1.837   3.396  12.822  0.4863 -0.6568  0.9232
  791MPD2    C311659   1.709   3.406  12.769 -0.1425 -0.1511 -0.7615
  791MPD2    C411660   1.665   3.522  12.720 -0.1775 -0.8851  0.6951
  791MPD2    C511661   1.748   3.635  12.732  0.6292  0.9066  0.1062
  791MPD2     H11662   1.864   3.303  12.870  0.2010 -1.0665  0.2846
  791MPD2    H111663   1.568   3.537  12.675  0.1614 -2.1715 -0.4569
  791MPD2    H211664   1.941   3.712  12.781  0.9733 -0.0974 -1.4010
  791MPD2    H311665   1.714   3.736  12.709  1.8293  1.1904 -0.4308
  791MPD2     N11666   1.629   3.282  12.756  0.2354  0.2439  0.2969
  791MPD2    H511667   1.676   3.201  12.793 -4.0012 -2.6352 -0.6148
  791MPD2    N111668   2.058   3.502  12.876  0.3216 -0.6801  0.1874
  791MPD2    H711669   2.112   3.587  12.883 -1.8741  0.6846  0.5649
  792MPD2     C11670   2.951   3.306  11.275  0.1425  0.5873 -0.2845
  792MPD2    C111671   2.833   3.370  11.271  0.5652  0.0557 -0.0229
  792MPD2    C211672   2.730   3.302  11.205 -0.0112 -0.4942  0.4146
  792MPD2    C311673   2.745   3.180  11.142 -0.2814  0.9867 -0.2781
  792MPD2    C411674   2.867   3.123  11.143  0.1491 -0.3258 -0.3962
  792MPD2    C511675   2.971   3.186  11.208 -0.0564  0.1262 -0.0426
  792MPD2     H11676   2.634   3.352  11.205  0.2421 -0.0315 -1.1779
  792MPD2    H111677   2.884   3.032  11.087  0.0524 -1.7180  1.8366
  792MPD2    H211678   3.036   3.352  11.324 -0.7561  1.4357  0.4816
  792MPD2    H311679   3.069   3.140  11.212 -0.2920 -0.3693  0.0508
  792MPD2     N11680   2.651   3.117  11.062 -0.4476 -0.0840 -0.0546
  792MPD2    H511681   2.686   3.044  11.001  2.3057 -0.0749  1.5356
  792MPD2    N111682   2.821   3.505  11.310 -0.4704  0.2659 -0.4920
  792MPD2    H711683   2.904   3.561  11.327  0.2746 -1.4531  1.4737
  793MPD2     C11684   2.151   3.144  10.107  0.3244  0.2285 -0.3789
  793MPD2    C111685   2.278   3.075  10.117 -0.0526  0.4822 -1.0642
  793MPD2    C211686   2.342   3.074  10.243  0.0755  0.8479 -0.0843
  793MPD2    C311687   2.296   3.150  10.350  0.5785 -0.4212 -0.7618
  793MPD2    C411688   2.182   3.226  10.333  0.7129  0.6460 -0.1971
  793MPD2    C511689   2.110   3.214  10.215 -0.6318  0.6259 -0.4907
  793MPD2     H11690   2.427   3.010  10.263  0.1594  0.7399 -0.7919
  793MPD2    H111691   2.146   3.278  10.421  0.5143 -0.7407  0.5460
  793MPD2    H211692   2.082   3.144  10.023 -1.3035  1.2822  0.9540
  793MPD2    H311693   2.014   3.263  10.209 -1.2086 -0.4975 -0.2824
  793MPD2     N11694   2.364   3.134  10.474 -0.1969 -0.2583  0.0772
  793MPD2    H511695   2.436   3.062  10.475  1.3007  1.2423  1.4459
  793MPD2    N111696   2.339   3.005  10.007 -0.3122 -0.0732 -0.1731
  793MPD2    H711697   2.425   2.954  10.026 -0.3757 -0.1993 -0.2252
  794MPD2     C11698   2.522   2.458  17.606 -0.6170  0.6408 -0.1055
  794MPD2    C111699   2.453   2.345  17.558 -0.5793 -0.2265  0.3480
  794MPD2    C211700   2.379   2.365  17.443  0.3017 -0.7011  0.1861
  794MPD2    C311701   2.379   2.488  17.374 -0.6731  0.3005 -0.6056
  794MPD2    C411702   2.446   2.597  17.430 -0.6225 -0.0559  0.1840
  794MPD2    C511703   2.519   2.581  17.547 -0.2808 -0.0101  0.1016
  794MPD2     H11704   2.320   2.279  17.415 -0.4835 -0.1455  0.1418
  794MPD2    H111705   2.449   2.695  17.383  1.9494  0.0321  0.5161
  794MPD2    H211706   2.571   2.454   0.021  1.5403  0.9244 -1.1639
  794MPD2    H311707   2.557   2.669  17.598  0.9885  0.0707 -0.9954
  794MPD2     N11708   2.304   2.511  17.252  0.7250 -0.0528 -0.0951
  794MPD2    H511709   2.317   2.603  17.210  0.0200  0.6847  1.3284
  794MPD2    N111710   2.454   2.215  17.616 -0.4460 -0.0720  0.4879
  794MPD2    H711711   2.397   2.143  17.574  1.2242 -0.0527 -1.8469
  795MPD2     C11712   0.144   0.498  13.039 -0.6137  0.3574 -0.6810
  795MPD2    C111713   0.075   0.403  13.115  0.2392  0.1013 -0.3842
  795MPD2    C211714   0.144   0.297  13.171 -0.5282 -0.3650  0.1673
  795MPD2    C311715   0.278   0.274  13.138 -0.6992  1.1136 -0.3500
  795MPD2    C411716   0.341   0.362  13.052  0.2578 -0.5681  0.7360
  795MPD2    C511717   0.280   0.484  13.019 -0.4911  0.2217  0.0445
  795MPD2     H11718   0.097   0.225  13.238  2.1376 -0.0025  2.4640
  795MPD2    H111719   0.444   0.347  13.022  0.2477 -0.1147  0.4730
  795MPD2    H211720   0.086   0.585  13.010 -1.8468 -0.3171 -0.2421
  795MPD2    H311721   0.333   0.544  12.946  0.7639 -0.5488  0.3321
  795MPD2     N11722   0.356   0.167  13.191 -0.3634  0.2009  0.1522
  795MPD2    H511723   0.453   0.171  13.163 -0.5314 -1.3050 -0.6100
  795MPD2    N111724   4.658   0.416  13.150  0.1466  0.3631 -0.0304
  795MPD2    H711725   4.630   0.355  13.226  1.5038 -0.0884  0.1146
  796MPD2     C11726   4.249   1.305  15.946  0.1742 -0.3661  0.3214
  796MPD2    C111727   4.287   1.391  16.049 -0.3236  0.2180  0.2423
  796MPD2    C211728   4.265   1.529  16.039 -0.0078 -0.4413  0.5684
  796MPD2    C311729   4.202   1.576  15.930  0.2719 -0.3943 -0.0963
  796MPD2    C411730   4.165   1.496  15.826  0.7811 -0.0953 -0.0386
  796MPD2    C511731   4.190   1.360  15.833 -0.0590  0.8229  0.7445
  796MPD2     H11732   4.291   1.600  16.117  0.7220 -0.4159  0.2999
  796MPD2    H111733   4.139   1.529  15.726  0.9861  0.5552  0.1175
  796MPD2    H211734   4.289   1.205  15.942  0.1575 -0.3550 -0.1232
  796MPD2    H311735   4.165   1.295  15.750 -1.6549  0.5061  1.4611
  796MPD2     N11736   4.176   1.719  15.923 -0.1294  0.9664 -0.5404
  796MPD2    H511737   4.188   1.781  16.003 -1.0721  1.1817 -0.5679
  796MPD2    N111738   4.348   1.320  16.156 -0.0108  0.4346 -0.2640
  796MPD2    H711739   4.349   1.218  16.155 -0.7957  0.4276 -0.4374
  797MPD2     C11740   0.249   0.449  17.554 -0.2987 -0.3068 -0.4894
  797MPD2    C111741   0.347   0.536  17.508  0.2409  0.0527 -0.4293
  797MPD2    C211742   0.312   0.657  17.449 -0.5293  0.1636 -0.0485
  797MPD2    C311743   0.182   0.700  17.446  0.2009 -0.5886  0.0400
  797MPD2    C411744   0.079   0.615  17.486  0.4339  0.3116 -0.0761
  797MPD2    C511745   0.122   0.494  17.539  0.1808 -0.8741 -0.4531
  797MPD2     H11746   0.390   0.725  17.416 -1.6248  0.0478 -2.8128
  797MPD2    H111747   4.693   0.636  17.471 -0.3779 -2.9694  0.9425
  797MPD2    H211748   0.264   0.349  17.593  2.1150 -0.7142 -2.4401
  797MPD2    H311749   0.041   0.427  17.568  0.7867 -0.7475  1.4798
  797MPD2     N11750   0.154   0.828  17.406 -0.1467  0.5960  0.3977
  797MPD2    H511751   0.057   0.857  17.407 -0.3093  0.0241  1.1979
  797MPD2    N111752   0.489   0.512  17.526  0.2217 -0.1429  0.1559
  797MPD2    H711753   0.547   0.583  17.482  0.4197 -1.3292 -1.4944
  798MPD2     C11754   0.718   1.214  17.653 -0.7642 -0.5456 -0.0053
  798MPD2    C111755   0.616   1.135  17.622 -0.9916 -0.2414 -0.9130
  798MPD2    C211756   0.631   0.999  17.633 -0.2058 -0.3086 -0.0423
  798MPD2    C311757   0.739   0.939   0.008 -0.1242 -0.0630  0.2771
  798MPD2    C411758   0.842   1.021   0.054  0.1024  0.0895 -0.6425
  798MPD2    C511759   0.827   1.157   0.034  0.4855 -0.0810  0.0092
  798MPD2     H11760   0.552   0.934  17.596  0.4652 -1.2174  0.1215
  798MPD2    H111761   0.921   0.991   0.121 -1.6841  2.2138  2.4226
  798MPD2    H211762   0.704   1.321  17.643 -2.1806 -0.6796  0.5312
  798MPD2    H311763   0.904   1.230   0.057  0.9239 -0.5153 -0.0981
  798MPD2     N11764   0.746   0.804   0.023  0.7163 -0.4311  0.1915
  798MPD2    H511765   0.666   0.762  17.659 -1.7609 -1.2189  5.2193
  798MPD2    N111766   0.504   1.201  17.569 -0.3046  0.5040  0.2178
  798MPD2    H711767   0.509   1.297  17.537  0.0270  0.4007 -0.0467
  799MPD2     C11768   3.863   3.050  14.306  0.3503 -0.1377  0.0457
  799MPD2    C111769   3.840   2.930  14.232 -0.1938  0.5631 -0.3763
  799MPD2    C211770   3.783   2.935  14.108  0.5596  0.1820  0.1723
  799MPD2    C311771   3.762   3.055  14.049 -0.8810 -0.0626  0.2999
  799MPD2    C411772   3.791   3.166  14.125 -0.2506 -0.2663 -0.6274
  799MPD2    C511773   3.843   3.165  14.246  0.1354 -0.7803 -0.0965
  799MPD2     H11774   3.763   2.845  14.052  1.0558  0.7840 -0.9670
  799MPD2    H111775   3.777   3.262  14.076 -2.8761 -0.4478 -0.2447
  799MPD2    H211776   3.913   3.039  14.401 -0.4826  2.7245  0.8007
  799MPD2    H311777   3.855   3.256  14.304  0.9005  0.0061 -1.4876
  799MPD2     N11778   3.749   3.071  13.912  0.0505 -0.1008  0.6050
  799MPD2    H511779   3.750   3.167  13.879 -0.9339  0.0344  0.9648
  799MPD2    N111780   3.875   2.805  14.276  0.5202  0.8701  0.0501
  799MPD2    H711781   3.825   2.729  14.231  1.1731 -0.5747  1.7879
  800MPD2     C11782   0.154   3.731  14.604  0.5315  0.3845  0.1218
  800MPD2    C111783   0.273   3.775  14.546  1.0137 -0.6963  0.5567
  800MPD2    C211784   0.291   3.753  14.411 -0.4348  0.3295 -0.0623
  800MPD2    C311785   0.212   3.666  14.340  0.4265  0.4925 -0.1867
  800MPD2    C411786   0.098   3.617  14.399  0.0136  0.0428 -0.1576
  800MPD2    C511787   0.065   3.651  14.530 -0.1622 -0.1342  0.6626
  800MPD2     H11788   0.382   3.789  14.364 -1.8104  3.6140 -0.2447
  800MPD2    H111789   0.035   3.554  14.336 -0.9794  1.4461 -0.5616
  800MPD2    H211790   0.133   3.738  14.710  0.9946  1.3546  0.1527
  800MPD2    H311791   4.694   3.604  14.568 -0.4262  0.5052  0.8212
  800MPD2     N11792   0.247   3.646  14.205  0.2749 -0.0395 -0.2038
  800MPD2    H511793   0.332   3.697  14.184 -0.0063  0.4788 -0.0920
  800MPD2    N111794   0.359   3.850  14.624  0.2999  0.1720  0.2017
  800MPD2    H711795   0.336   3.869  14.721  1.9665  3.3948 -0.0424
  801MPD2     C11796   0.237   4.584  14.644  0.2320 -0.2963  0.8029
  801MPD2    C111797   0.195   4.463  14.703 -0.4907 -0.0080  0.6442
  801MPD2    C211798   0.068   4.452  14.743 -0.0892  0.5650  0.4458
  801MPD2    C311799   4.693   4.549  14.705  0.0085  0.0208 -0.2079
  801MPD2    C411800   0.013   4.668  14.649 -0.3181 -0.0502 -0.1570
  801MPD2    C511801   0.145   4.682  14.619  0.4950 -0.1527 -0.4809
  801MPD2     H11802   0.042   4.358  14.790 -2.3320  2.0193  2.0913
  801MPD2    H111803   4.662   0.028  14.632 -2.4395 -1.8761  0.1449
  801MPD2    H211804   0.333   4.603  14.597 -0.9444  1.1882 -0.9682
  801MPD2    H311805   0.176   0.052  14.566 -1.4116 -0.0746 -1.4527
  801MPD2     N11806   4.555   4.538  14.729  0.4531 -0.3562  0.1811
  801MPD2    H511807   4.493   4.599  14.677  0.5863  1.5335  2.2140
  801MPD2    N111808   0.279   4.350  14.721 -0.7724 -0.4726 -1.0121
  801MPD2    H711809   0.242   4.257  14.741 -0.5467  0.3156  3.2143
  802MPD2     C11810   3.863   0.346  17.615  0.7413 -0.5439 -0.4507
  802MPD2    C111811   3.946   0.300   0.031  0.1872 -0.0559  0.2213
  802MPD2    C211812   3.965   0.166   0.056 -0.1945  0.3974 -0.1862
  802MPD2    C311813   3.877   0.079  17.674 -0.2836  0.5623  0.0586
  802MPD2    C411814   3.779   0.130  17.589  0.0112  0.0407 -0.6107
  802MPD2    C511815   3.779   0.264  17.551  0.1075 -0.3219  0.4518
  802MPD2     H11816   4.041   0.139   0.129 -0.7962 -2.0516 -0.4449
  802MPD2    H111817   3.709   0.071  17.532 -0.9670  1.3639 -0.7884
  802MPD2    H211818   3.848   0.452  17.602 -1.2447 -0.4928  2.1977
  802MPD2    H311819   3.712   0.295  17.472 -1.2372 -1.1456  1.2690
  802MPD2     N11820   3.900   4.657   0.008  0.8295  0.1245  0.4076
  802MPD2    H511821   3.989   4.637   0.053  1.0990  1.5178  0.4998
  802MPD2    N111822   4.008   0.392   0.122  0.0506  0.1478 -0.3582
  802MPD2    H711823   4.078   0.353   0.186 -3.2557 -1.4061  2.3426
  803MPD2     C11824   0.810   3.136  12.030  1.2075 -0.1898 -0.6965
  803MPD2    C111825   0.792   3.214  12.144 -0.6815 -0.7965 -0.7132
  803MPD2    C211826   0.724   3.163  12.254  0.0576  0.1469 -0.5198
  803MPD2    C311827   0.658   3.045  12.250 -0.3481  0.8269 -0.4012
  803MPD2    C411828   0.673   2.967  12.138 -0.4175  0.5627 -0.1321
  803MPD2    C511829   0.747   3.010  12.033 -0.4567  0.7237  0.0029
  803MPD2     H11830   0.708   3.221  12.344 -0.5454  2.4608 -2.1207
  803MPD2    H111831   0.619   2.874  12.126 -3.7044  2.1312  2.4680
  803MPD2    H211832   0.864   3.164  11.940 -0.0064  2.1711 -0.7094
  803MPD2    H311833   0.742   2.957  11.939 -1.9645  1.4262 -0.3067
  803MPD2     N11834   0.579   3.001  12.358  0.0264  0.4875 -0.0602
  803MPD2    H511835   0.593   3.055  12.443  2.7565 -0.3844  0.0481
  803MPD2    N111836   0.859   3.339  12.161 -0.2762  0.2607 -0.4883
  803MPD2    H711837   0.835   3.385  12.248  2.4498 -0.1429  0.4729
  804MPD2     C11838   0.171   4.456  17.671  0.2065  0.2644  0.5862
  804MPD2    C111839   0.234   4.402  17.566 -0.4654 -0.0387 -0.0921
  804MPD2    C211840   0.286   4.492  17.476  0.0154  1.1194 -0.0659
  804MPD2    C311841   0.277   4.628  17.482 -0.2315  0.4941  0.0084
  804MPD2    C411842   0.203   4.675  17.587 -0.1835 -0.4378 -0.0372
  804MPD2    C511843   0.154   4.587  17.677  0.7594 -0.4941  0.1207
  804MPD2     H11844   0.334   4.451  17.388 -1.8329  2.6314 -1.7770
  804MPD2    H111845   0.187   0.060  17.608  2.1943 -0.3190  1.2320
  804MPD2    H211846   0.124   4.396   0.066 -0.4162 -0.6801 -0.5284
  804MPD2    H311847   0.101   4.621   0.083  0.5627  1.8339 -0.9044
  804MPD2     N11848   0.335   4.717  17.388 -0.0937 -0.3596 -0.6606
  804MPD2    H511849   0.400   4.685  17.318  0.3911  1.8103 -1.1780
  804MPD2    N111850   0.230   4.262  17.540 -0.4158 -0.4165  0.5488
  804MPD2    H711851   0.251   4.225  17.448  1.8053 -0.2377  0.9812
  805MPD2     C11852   3.650   3.092  15.302  0.4021 -0.2040 -0.3530
  805MPD2    C111853   3.765   3.081  15.231  0.0852  0.1751 -0.0810
  805MPD2    C211854   3.884   3.053  15.298 -0.2335  1.5660 -0.7570
  805MPD2    C311855   3.893   3.035  15.434 -0.4746  0.5262 -0.2152
  805MPD2    C411856   3.775   3.033  15.503  0.9474 -0.0040  0.0209
  805MPD2    C511857   3.656   3.052  15.436 -0.0505 -0.6892  0.6729
  805MPD2     H11858   3.969   3.049  15.231  0.1248 -1.2487 -0.1196
  805MPD2    H111859   3.770   3.019  15.610  0.7256  0.0004  0.0121
  805MPD2    H211860   3.558   3.106  15.246  0.1304  1.6265  0.5758
  805MPD2    H311861   3.557   3.059  15.480  0.4733  1.3323  1.5228
  805MPD2     N11862   4.020   3.030  15.491 -0.1686  0.7397  0.7648
  805MPD2    H511863   4.097   3.007  15.430 -1.3063  1.0474 -0.7757
  805MPD2    N111864   3.772   3.085  15.088  0.0432  0.1696 -0.4326
  805MPD2    H711865   3.863   3.085  15.043  0.2680  2.0364  0.0631
  806MPD2     C11866   4.611   1.755   0.317  0.3009 -1.0485  0.0645
  806MPD2    C111867   4.575   1.860   0.398 -0.1176  0.4140 -0.2695
  806MPD2    C211868   4.604   1.991   0.360  0.3811  1.2808 -0.6893
  806MPD2    C311869   4.682   2.013   0.246 -0.3776 -0.3186 -0.4751
  806MPD2    C411870   4.708   1.903   0.162  0.4803  0.2237 -0.3117
  806MPD2    C511871   4.667   1.780   0.200  0.1323 -0.0508  0.3211
  806MPD2     H11872   4.586   2.076   0.425 -0.7715  0.5615 -0.0666
  806MPD2    H111873   0.041   1.900   0.068 -0.0773  1.4920 -0.6735
  806MPD2    H211874   4.582   1.653   0.340  1.1410 -1.0269  1.2072
  806MPD2    H311875   4.685   1.707   0.123  1.8911  0.2986  0.3872
  806MPD2     N11876   0.017   2.142   0.227  0.1173  0.3131 -0.1363
  806MPD2    H511877   0.003   2.209   0.301  0.9148  0.1387  0.1739
  806MPD2    N111878   4.494   1.828   0.506  0.5573  0.1645  0.3245
  806MPD2    H711879   4.491   1.727   0.520  0.7132 -0.2253 -2.4749
  807MPD2     C11880   4.544   1.212   0.814  0.2668  0.2021  0.1533
  807MPD2    C111881   4.441   1.258   0.888  0.3865  0.0127 -0.0123
  807MPD2    C211882   4.355   1.171   0.957  0.2866  0.0021 -0.0865
  807MPD2    C311883   4.377   1.039   0.952  0.0975  0.2227 -0.5244
  807MPD2    C411884   4.478   0.986   0.874  0.3905  0.5059  0.9219
  807MPD2    C511885   4.557   1.076   0.812  0.0367 -0.3730  0.4894
  807MPD2     H11886   4.269   1.203   1.015 -1.6211 -2.3737 -1.5547
  807MPD2    H111887   4.476   0.884   0.837  1.5781  0.3661  1.2676
  807MPD2    H211888   4.604   1.282   0.757  1.8384 -1.2518  0.0178
  807MPD2    H311889   4.644   1.039   0.759 -0.0568 -1.6442  1.2020
  807MPD2     N11890   4.286   0.953   1.021 -0.8191 -0.3351  0.5344
  807MPD2    H511891   4.207   0.991   1.072 -1.5414 -1.1452  0.0239
  807MPD2    N111892   4.393   1.398   0.886 -0.2850 -1.0258 -0.5931
  807MPD2    H711893   4.331   1.435   0.957 -2.0057 -0.2369 -2.5112
  808MPD2     C11894   0.273   3.345   9.790  0.5749 -0.2405 -0.4100
  808MPD2    C111895   0.147   3.406   9.811 -0.5467 -0.1926 -0.1399
  808MPD2    C211896   0.124   3.532   9.761  0.7742 -0.1235 -0.1234
  808MPD2    C311897   0.222   3.599   9.687 -0.1580  0.7779  0.6746
  808MPD2    C411898   0.345   3.541   9.676 -0.7340  0.2600  0.3469
  808MPD2    C511899   0.367   3.414   9.715  0.2698 -0.0237 -0.5518
  808MPD2     H11900   0.029   3.581   9.780  1.2377  0.5186  0.5084
  808MPD2    H111901   0.421   3.591   9.618 -0.1120 -2.3430 -1.0907
  808MPD2    H211902   0.295   3.244   9.823  2.6671  1.0337  2.1126
  808MPD2    H311903   0.464   3.367   9.706  0.4582  0.3083 -0.2539
  808MPD2     N11904   0.197   3.730   9.637 -0.3347  0.3417 -0.4185
  808MPD2    H511905   0.265   3.770   9.573 -0.5980  0.4017 -0.6615
  808MPD2    N111906   0.034   3.340   9.868  0.6815 -0.6276  0.9451
  808MPD2    H711907   4.663   3.385   9.856  0.5411 -0.8469  1.1844
  809MPD2     C11908   0.489   4.421   8.989  0.8415 -0.4139 -0.7802
  809MPD2    C111909   0.544   4.367   9.107  0.5130 -0.5445 -0.3136
  809MPD2    C211910   0.459   4.290   9.190  0.1858 -0.8146  0.4226
  809MPD2    C311911   0.329   4.270   9.153  0.5981  0.7111 -0.0650
  809MPD2    C411912   0.282   4.319   9.036  0.9511  0.3290  0.1371
  809MPD2    C511913   0.362   4.393   8.951  0.1512 -0.1042 -0.7893
  809MPD2     H11914   0.498   4.233   9.273  2.5400  0.3821  0.1628
  809MPD2    H111915   0.183   4.292   9.003  1.0215 -1.6566  1.5319
  809MPD2    H211916   0.548   4.470   8.913 -0.3190  0.4291 -1.1417
  809MPD2    H311917   0.326   4.433   8.857 -0.6516  2.6663  0.6794
  809MPD2     N11918   0.240   4.179   9.217 -0.4255 -0.0279 -0.1151
  809MPD2    H511919   0.144   4.171   9.184 -1.1298 -1.2816  2.2066
  809MPD2    N111920   0.683   4.376   9.146 -0.0682  0.2865  0.0141
  809MPD2    H711921   0.716   4.351   9.239 -0.6787 -3.4112 -0.7846
  810MPD2     C11922   4.678   3.350  10.635  0.0634 -0.3097 -0.0566
  810MPD2    C111923   4.541   3.367  10.618  0.9417 -0.7625  0.3421
  810MPD2    C211924   4.488   3.496  10.612 -0.2559 -0.2899  0.6045
  810MPD2    C311925   4.557   3.606  10.645 -0.4654  0.5253 -0.3337
  810MPD2    C411926   4.696   3.592  10.653  0.5928 -0.1719  0.1789
  810MPD2    C511927   0.031   3.466  10.647 -0.8405  0.9081  0.8894
  810MPD2     H11928   4.380   3.497  10.604 -0.1912  0.6041 -0.1238
  810MPD2    H111929   0.044   3.674  10.674  2.3666 -1.6661  0.2350
  810MPD2    H211930   0.008   3.255  10.623  1.3381  0.1620  1.4995
  810MPD2    H311931   0.139   3.456  10.653 -0.7924  1.4962  1.0384
  810MPD2     N11932   4.498   3.737  10.639 -0.1573  0.1909  0.3769
  810MPD2    H511933   4.561   3.814  10.659  1.9014 -0.5510 -3.1622
  810MPD2    N111934   4.462   3.261  10.566 -0.6202 -0.0538  0.1006
  810MPD2    H711935   4.366   3.292  10.555  0.1931  1.7008 -1.9334
  811MPD2     C11936   3.792   3.123  10.150  0.3960  0.5744 -0.1972
  811MPD2    C111937   3.923   3.171  10.143  0.1599 -0.3292 -0.0372
  811MPD2    C211938   3.944   3.301  10.088 -0.4778 -0.5452  0.0056
  811MPD2    C311939   3.844   3.376  10.021 -0.1624 -0.3318  0.3273
  811MPD2    C411940   3.715   3.326  10.032  0.1246  1.0281 -0.4432
  811MPD2    C511941   3.687   3.198  10.090 -1.0214 -0.0406  1.0070
  811MPD2     H11942   4.040   3.351  10.088 -1.1963  0.8473  2.8963
  811MPD2    H111943   3.631   3.384   9.995 -1.8012 -0.5716  1.4462
  811MPD2    H211944   3.765   3.032  10.202  0.9584  1.3757  1.4723
  811MPD2    H311945   3.586   3.161  10.093 -1.1865  0.4494  1.5260
  811MPD2     N11946   3.883   3.505   9.981 -0.1127  0.0693  0.3326
  811MPD2    H511947   3.977   3.534  10.005  0.5764 -0.8914 -1.2647
  811MPD2    N111948   4.017   3.090  10.209  0.6571 -0.1235  0.1899
  811MPD2    H711949   3.995   2.995  10.236  1.0243 -0.2822 -0.0737
  812MPD2     C11950   3.369   3.542  12.011  0.2541  0.4044  0.0083
  812MPD2    C111951   3.297   3.577  12.120 -0.4269 -0.4540  0.1997
  812MPD2    C211952   3.269   3.480  12.211 -1.1159  0.2611 -0.2854
  812MPD2    C311953   3.311   3.346  12.189  0.4129 -0.1483 -0.3675
  812MPD2    C411954   3.362   3.313  12.071 -0.4251 -0.5383 -0.4107
  812MPD2    C511955   3.397   3.408  11.980 -0.7566 -0.5784 -0.5446
  812MPD2     H11956   3.212   3.499  12.301 -0.7210  0.4028 -0.0649
  812MPD2    H111957   3.385   3.209  12.048  0.4036 -0.3998 -0.2169
  812MPD2    H211958   3.404   3.613  11.937 -0.2832 -1.8329 -2.4265
  812MPD2    H311959   3.451   3.379  11.891  2.3930  1.3158  0.7366
  812MPD2     N11960   3.294   3.254  12.302 -0.2010  0.2102  0.1989
  812MPD2    H511961   3.269   3.300  12.389 -0.5798  1.3057 -0.4821
  812MPD2    N111962   3.245   3.709  12.137 -0.1645 -0.0349  0.0095
  812MPD2    H711963   3.277   3.786  12.079  1.1896  0.0168  0.8100
  813MPD2     C11964   2.687   0.244  12.817  0.0090  0.6024 -0.8871
  813MPD2    C111965   2.642   0.373  12.818  0.1515 -0.5816 -0.2489
  813MPD2    C211966   2.515   0.401  12.883 -0.2430 -0.1121 -0.2111
  813MPD2    C311967   2.455   0.299  12.954 -0.0428  0.0669  0.2898
  813MPD2    C411968   2.497   0.166  12.931 -0.4429 -0.0269  0.2222
  813MPD2    C511969   2.617   0.145  12.874 -0.4470 -0.0423  0.3212
  813MPD2     H11970   2.477   0.502  12.898  2.0506  1.0284 -1.9907
  813MPD2    H111971   2.445   0.080  12.972  0.3777 -0.5297  0.2210
  813MPD2    H211972   2.772   0.227  12.752 -0.8466  0.7066 -2.0352
  813MPD2    H311973   2.648   0.042  12.868  1.6884  0.4766  2.5225
  813MPD2     N11974   2.343   0.329  13.038  0.5799 -0.9935 -0.8279
  813MPD2    H511975   2.303   0.422  13.040 -1.1878 -1.8199  2.3278
  813MPD2    N111976   2.729   0.477  12.768 -0.0331  0.0874 -0.2423
  813MPD2    H711977   2.821   0.440  12.746 -0.4766 -1.2903  0.2092
  814MPD2     C11978   2.941   1.907  11.972 -0.4341 -0.1879 -0.1081
  814MPD2    C111979   2.897   1.970  11.857 -0.5118 -0.0947  0.3077
  814MPD2    C211980   2.929   2.101  11.837  0.0526  0.0839 -0.3668
  814MPD2    C311981   3.003   2.176  11.931 -0.5635  0.0015  0.0214
  814MPD2    C411982   3.043   2.104  12.036 -0.2497 -0.3713  0.3284
  814MPD2    C511983   3.017   1.976  12.063  1.0185  0.4105  0.0407
  814MPD2     H11984   2.887   2.149  11.749  0.5835  1.1523 -0.0463
  814MPD2    H111985   3.109   2.145  12.112 -2.1329 -0.1913  1.8701
  814MPD2    H211986   2.922   1.803  11.996  0.3190 -0.3276 -0.0980
  814MPD2    H311987   3.062   1.930  12.150  3.2864  0.8040 -0.9351
  814MPD2     N11988   3.049   2.312  11.921 -0.0616  0.1269 -0.2867
  814MPD2    H511989   3.109   2.356  11.990 -2.2413  1.0824  1.0130
  814MPD2    N111990   2.833   1.905  11.750 -0.4140 -0.1513  0.1039
  814MPD2    H711991   2.809   1.970  11.676 -0.9650 -1.1344 -0.5857
  815MPD2     C11992   2.769   0.606  11.843 -0.5326  0.1999 -0.1462
  815MPD2    C111993   2.802   0.475  11.875  0.7786  0.0564 -0.1275
  815MPD2    C211994   2.707   0.394  11.930 -0.0060 -0.0748  0.0507
  815MPD2    C311995   2.581   0.442  11.966 -0.4132 -1.0742  0.1965
  815MPD2    C411996   2.544   0.568  11.923  0.7085  0.3991  0.4836
  815MPD2    C511997   2.641   0.650  11.864  0.3761  0.5549  0.3752
  815MPD2     H11998   2.726   0.289  11.944  1.6059  0.4165  1.6372
  815MPD2    H111999   2.446   0.606  11.948  0.6327  1.7115 -1.7944
  815MPD2    H212000   2.840   0.675  11.797  0.1696  0.5701  1.4763
  815MPD2    H312001   2.614   0.747  11.823  2.7865  1.8426  1.8038
  815MPD2     N12002   2.489   0.341  12.017 -0.4218 -0.5021  0.0429
  815MPD2    H512003   2.514   0.253  12.059  2.2546 -0.4252 -1.3900
  815MPD2    N112004   2.929   0.427  11.830 -0.7116  0.5018 -0.3603
  815MPD2    H712005   2.990   0.501  11.796  0.0091  0.2133  0.2876
  816MPD2     C12006   3.020   3.380  17.598 -0.5406  0.1504  0.4090
  816MPD2    C112007   3.023   3.498  17.531  0.6505 -0.1588  0.6775
  816MPD2    C212008   3.094   3.500  17.415  0.4289  0.2011  0.1038
  816MPD2    C312009   3.165   3.391  17.375  0.2523  0.4410  0.1590
  816MPD2    C412010   3.154   3.271  17.441 -0.2136 -0.2352  0.5360
  816MPD2    C512011   3.072   3.265  17.554  0.4145 -0.2658  0.5142
  816MPD2     H12012   3.108   3.594  17.361 -0.5075 -1.0707 -2.3615
  816MPD2    H112013   3.211   3.180  17.426 -1.3658 -0.7789 -0.5469
  816MPD2    H212014   2.956   3.369   0.003 -1.3319  1.3198 -0.0374
  816MPD2    H312015   3.067   3.180  17.621 -3.4829  0.2775  0.9202
  816MPD2     N12016   3.261   3.413  17.275  0.0801  0.2951  0.1364
  816MPD2    H512017   3.257   3.502  17.225  2.5285  0.2190 -0.2311
  816MPD2    N112018   2.945   3.601  17.584  0.3182  0.9102 -0.4868
  816MPD2    H712019   2.936   3.612   0.003 -1.5273  2.9990 -0.8714
  817MPD2     C12020   2.555   1.133  10.091  0.1099  0.2396 -0.5341
  817MPD2    C112021   2.635   1.189   9.992 -0.2410  0.5524 -0.0385
  817MPD2    C212022   2.591   1.313   9.939  0.0346  0.2139  0.7219
  817MPD2    C312023   2.482   1.378   9.992 -0.1147  0.0180 -0.4986
  817MPD2    C412024   2.398   1.314  10.082  0.0388  0.2494 -0.0367
  817MPD2    C512025   2.435   1.188  10.123  0.4969 -0.7242 -0.3093
  817MPD2     H12026   2.647   1.378   9.873 -0.3715 -0.1083  0.0712
  817MPD2    H112027   2.301   1.355  10.111 -1.2616  0.3475 -4.4464
  817MPD2    H212028   2.567   1.034  10.133 -0.7177 -0.6518 -2.4084
  817MPD2    H312029   2.365   1.139  10.190 -2.5262  0.5937 -2.4733
  817MPD2     N12030   2.457   1.511   9.940  0.1496  0.3789  0.2742
  817MPD2    H512031   2.521   1.529   9.863 -0.1759  1.0224  0.1516
  817MPD2    N112032   2.752   1.132   9.942 -0.1612  0.1529 -0.4608
  817MPD2    H712033   2.786   1.168   9.854 -0.6567  0.7088 -0.4261
  818MPD2     C12034   1.753   1.302  10.328  0.1465 -0.8033  0.5024
  818MPD2    C112035   1.648   1.285  10.240 -0.6437  0.2195  0.1221
  818MPD2    C212036   1.628   1.161  10.179  0.1751 -0.0680 -0.0706
  818MPD2    C312037   1.706   1.052  10.218  0.0779  0.1811 -0.0664
  818MPD2    C412038   1.803   1.070  10.308 -0.4836  0.0874 -0.1477
  818MPD2    C512039   1.833   1.193  10.359 -0.0207  0.6200 -0.6877
  818MPD2     H12040   1.546   1.150  10.109  0.0239  1.2935 -0.1074
  818MPD2    H112041   1.860   0.987  10.348  0.8097  0.2447 -1.6210
  818MPD2    H212042   1.784   1.398  10.368  0.2489 -1.3352  1.7129
  818MPD2    H312043   1.921   1.205  10.422 -2.6447 -0.0163  3.1270
  818MPD2     N12044   1.680   0.919  10.172 -0.0067 -0.6431  0.4522
  818MPD2    H512045   1.743   0.844  10.198  0.7125 -0.4130 -0.6209
  818MPD2    N112046   1.558   1.390  10.200 -0.7313  0.1512 -0.4723
  818MPD2    H712047   1.475   1.357  10.152  0.1132 -0.6543 -1.3593
  819MPD2     C12048   0.135   2.868  15.639  0.7318  0.8502  0.0459
  819MPD2    C112049   0.048   2.762  15.651  0.0835 -0.3309  0.3353
  819MPD2    C212050   0.087   2.662  15.735 -0.0758 -0.2006  0.3951
  819MPD2    C312051   0.211   2.665  15.800  0.0133 -0.1109 -0.2526
  819MPD2    C412052   0.301   2.775  15.785  0.3811 -0.1321 -0.2400
  819MPD2    C512053   0.253   2.879  15.704  0.2715  0.1784 -0.2709
  819MPD2     H12054   0.027   2.571  15.735  1.0963 -0.9803 -0.8672
  819MPD2    H112055   0.404   2.767  15.817  0.2249  0.2500  0.3507
  819MPD2    H212056   0.104   2.948  15.572  1.3656  1.7663  0.8522
  819MPD2    H312057   0.313   2.968  15.686  0.5765 -0.5291 -2.7448
  819MPD2     N12058   0.249   2.550  15.867  0.4591  0.2226 -0.6821
  819MPD2    H512059   0.185   2.471  15.870  0.7586 -0.0286 -0.8818
  819MPD2    N112060   4.656   2.760  15.567 -0.1499  0.6211  0.8021
  819MPD2    H712061   4.659   2.831  15.494  1.0205 -0.3406 -0.0783
  820MPD2     C12062   4.289   2.814  14.703  0.3894  0.5693  0.9443
  820MPD2    C112063   4.212   2.897  14.782 -0.8323 -0.1720  0.6835
  820MPD2    C212064   4.236   2.895  14.921  0.3077 -0.2138  0.5932
  820MPD2    C312065   4.347   2.835  14.967 -0.4858 -0.5392  0.2939
  820MPD2    C412066   4.421   2.753  14.889  0.0677 -0.2230 -0.0111
  820MPD2    C512067   4.399   2.746  14.752  0.0438 -0.2790  0.5868
  820MPD2     H12068   4.173   2.939  14.997 -0.6229 -0.3156 -0.1130
  820MPD2    H112069   4.506   2.701  14.934 -0.2265 -1.4554 -0.8710
  820MPD2    H212070   4.273   2.812  14.596 -0.3370 -1.1972  1.0833
  820MPD2    H312071   4.456   2.689  14.680 -0.3190 -0.7948  0.7089
  820MPD2     N12072   4.374   2.824  15.107  0.4203 -0.0101 -0.6431
  820MPD2    H512073   4.448   2.757  15.125 -0.0186 -0.3369 -0.0592
  820MPD2    N112074   4.100   2.965  14.723  0.1525  0.6384  0.7449
  820MPD2    H712075   4.095   2.974  14.622  0.0732  1.1400  0.7968
  821MPD2     C12076   4.698   3.574  13.399 -0.8288 -0.1191 -0.1843
  821MPD2    C112077   0.082   3.661  13.414 -0.4475  0.5863 -0.4821
  821MPD2    C212078   0.126   3.732  13.302  0.9747  0.0384 -1.1073
  821MPD2    C312079   0.080   3.697  13.175  0.5280 -0.2033 -0.1987
  821MPD2    C412080   4.708   3.596  13.163 -0.3336  0.3984 -0.3774
  821MPD2    C512081   4.655   3.536  13.272  0.1736  0.3309  0.4891
  821MPD2     H12082   0.215   3.791  13.323  2.2754 -1.3369 -2.6554
  821MPD2    H112083   4.685   3.558  13.064  2.3799 -1.0957 -0.4335
  821MPD2    H212084   4.654   3.522  13.483  2.0246  0.0842  1.4472
  821MPD2    H312085   4.579   3.461  13.255 -2.9638  2.8985  3.2146
  821MPD2     N12086   0.127   3.758  13.058 -0.5123 -0.3378 -0.4295
  821MPD2    H512087   0.105   3.719  12.967  2.4100  1.1454 -1.7954
  821MPD2    N112088   0.141   3.683  13.538  0.3605  0.2208 -0.3304
  821MPD2    H712089   0.224   3.741  13.532  0.6431 -0.3230 -1.5695
  822MPD2     C12090   0.557   3.725  15.759 -0.0616 -0.6224 -0.5517
  822MPD2    C112091   0.637   3.725  15.871 -0.7201 -0.4984  1.3191
  822MPD2    C212092   0.627   3.828  15.964 -0.3422 -0.3414 -0.1233
  822MPD2    C312093   0.530   3.929  15.948 -0.6296 -1.0081 -0.0950
  822MPD2    C412094   0.454   3.927  15.839 -0.4511  0.4239 -0.5975
  822MPD2    C512095   0.474   3.834  15.742 -0.8079  0.6586 -0.3954
  822MPD2     H12096   0.682   3.811  16.056 -0.2171  1.4190  0.1211
  822MPD2    H112097   0.380   4.006  15.833  1.0653  1.8729 -0.2657
  822MPD2    H212098   0.563   3.648  15.683  0.7195 -1.0385 -0.0641
  822MPD2    H312099   0.417   3.839  15.650 -1.6970  1.2588  0.1910
  822MPD2     N12100   0.505   4.021  16.056  0.3273 -0.9294 -0.4042
  822MPD2    H512101   0.420   4.075  16.048  0.1996 -1.1009 -0.2140
  822MPD2    N112102   0.732   3.624  15.902 -0.9439 -0.3521 -0.4956
  822MPD2    H712103   0.790   3.640  15.984 -1.2265 -0.4749 -0.2719
  823MPD2     C12104   0.443   4.100  16.915 -0.0372  0.3833  1.0553
  823MPD2    C112105   0.449   4.029  16.799  0.1615  0.9263  0.5275
  823MPD2    C212106   0.482   3.890  16.805  1.2577  0.1675 -0.0658
  823MPD2    C312107   0.517   3.833  16.927 -0.3431 -0.5613 -0.0338
  823MPD2    C412108   0.520   3.914  17.040 -0.1458  0.0587 -0.2832
  823MPD2    C512109   0.479   4.042  17.033 -0.1453 -0.1804  0.3404
  823MPD2     H12110   0.486   3.829  16.715  0.4878 -0.1290  0.1018
  823MPD2    H112111   0.524   3.873  17.141  0.2294  1.4088  0.2482
  823MPD2    H212112   0.418   4.206  16.908 -0.5035  0.2501  0.7032
  823MPD2    H312113   0.472   4.103  17.122  1.4684 -0.2355  0.4969
  823MPD2     N12114   0.556   3.697  16.942 -0.2401 -0.1026  0.0764
  823MPD2    H512115   0.539   3.660  17.035 -1.1998  0.6639  0.2090
  823MPD2    N112116   0.407   4.099  16.684 -0.9601 -0.4296  0.5498
  823MPD2    H712117   0.390   4.197  16.699  2.0767  0.1146  0.4222
  824MPD2     C12118   0.901   2.771  15.810  0.0665 -0.6619  0.6556
  824MPD2    C112119   1.009   2.840  15.857 -0.0504 -0.0013  0.1654
  824MPD2    C212120   1.132   2.783  15.856  0.3622 -0.1648  0.0691
  824MPD2    C312121   1.143   2.645  15.824  0.4245  0.3701  0.4601
  824MPD2    C412122   1.033   2.576  15.775 -0.3927 -0.6252  0.0114
  824MPD2    C512123   0.920   2.642  15.771 -0.8332 -0.4477 -0.4977
  824MPD2     H12124   1.229   2.822  15.883 -0.3942  0.7212  1.4822
  824MPD2    H112125   1.041   2.469  15.762 -1.2637 -0.3888 -2.3502
  824MPD2    H212126   0.801   2.810  15.795  0.3974 -1.1251 -2.8985
  824MPD2    H312127   0.835   2.587  15.732 -1.2915 -1.1307  1.4542
  824MPD2     N12128   1.268   2.585  15.828  0.4999 -0.1011 -0.0884
  824MPD2    H512129   1.337   2.658  15.841  1.9192 -1.0904 -2.2879
  824MPD2    N112130   1.003   2.974  15.892 -0.1712  0.6109  0.2794
  824MPD2    H712131   1.090   3.018  15.917  0.3770 -0.5515  0.4439
  825MPD2     C12132   1.864   2.621  15.221 -0.0046 -0.1870  0.6398
  825MPD2    C112133   1.825   2.688  15.336 -0.9463 -0.0365 -0.8437
  825MPD2    C212134   1.835   2.821  15.340 -0.1055  1.0796 -0.1719
  825MPD2    C312135   1.891   2.895  15.236  0.1837 -0.0348  0.3930
  825MPD2    C412136   1.951   2.826  15.134  0.3300 -0.0611  0.5974
  825MPD2    C512137   1.929   2.688  15.121  0.2014 -0.5803 -0.6005
  825MPD2     H12138   1.788   2.874  15.423  1.4409 -0.9652  2.0166
  825MPD2    H112139   2.012   2.874  15.059 -1.2261  1.8071  0.5141
  825MPD2    H212140   1.864   2.514  15.201 -0.1002  0.1630 -1.2426
  825MPD2    H312141   1.970   2.635  15.035  0.3027  0.0283 -0.9311
  825MPD2     N12142   1.899   3.037  15.229  0.2075  0.0188 -0.5324
  825MPD2    H512143   1.933   3.066  15.138  0.3043  1.3783 -0.0524
  825MPD2    N112144   1.771   2.606  15.434  0.2734  0.1625  0.1443
  825MPD2    H712145   1.768   2.508  15.410  1.7865  0.2513 -0.3928
  826MPD2     C12146   1.734   2.855  13.780  0.0305 -0.0983  0.1152
  826MPD2    C112147   1.661   2.907  13.679  0.2646 -0.5243  0.5027
  826MPD2    C212148   1.566   3.000  13.705 -0.0558  0.2701  0.4614
  826MPD2    C312149   1.548   3.052  13.828  1.8992 -0.1407 -0.7205
  826MPD2    C412150   1.629   3.010  13.936 -0.3674  0.2515 -0.0132
  826MPD2    C512151   1.723   2.910  13.906 -0.5643 -0.2449  0.1379
  826MPD2     H12152   1.495   3.024  13.627  2.4238  2.4729 -1.0891
  826MPD2    H112153   1.621   3.053  14.035  1.2974 -0.9231  0.6220
  826MPD2    H212154   1.812   2.781  13.767 -1.7011 -1.8276 -0.3942
  826MPD2    H312155   1.788   2.861  13.978  0.4076  0.8565  0.0221
  826MPD2     N12156   1.442   3.147  13.855  0.0640 -0.0499 -0.2149
  826MPD2    H512157   1.410   3.163  13.950 -0.8698  0.8466 -0.6810
  826MPD2    N112158   1.679   2.854  13.553 -0.1615 -0.1628  0.9766
  826MPD2    H712159   1.750   2.784  13.536  1.3604  1.7015 -0.2670
  827MPD2     C12160   1.920   4.472  10.189  0.2794  0.5968 -0.2010
  827MPD2    C112161   1.934   4.338  10.222  0.2482 -0.1632  0.1073
  827MPD2    C212162   1.864   4.243  10.146 -0.1389 -0.2304 -0.2922
  827MPD2    C312163   1.788   4.275  10.037 -0.4330  0.1053  0.2008
  827MPD2    C412164   1.785   4.405  10.007 -0.2412  0.3296 -0.7563
  827MPD2    C512165   1.839   4.506  10.083 -0.3080 -0.1167  0.4617
  827MPD2     H12166   1.877   4.138  10.169 -4.3531 -0.9016 -0.8529
  827MPD2    H112167   1.724   4.441   9.925 -2.9625 -1.0023  0.7040
  827MPD2    H212168   1.966   4.559  10.234 -1.0619  1.1171  0.1596
  827MPD2    H312169   1.831   4.608  10.046  0.0919 -1.0940 -2.2535
  827MPD2     N12170   1.728   4.172   9.959  0.0001  0.1991 -0.0278
  827MPD2    H512171   1.744   4.075   9.984  2.4968  0.7591  0.5251
  827MPD2    N112172   2.022   4.309  10.325 -0.0798  0.0304 -0.2016
  827MPD2    H712173   2.077   4.380  10.374  0.6736 -2.4582  2.5546
  828MPD2     C12174   0.675   4.266  12.091 -0.1525  0.0405 -0.5870
  828MPD2    C112175   0.615   4.149  12.059 -0.2238 -0.3201  0.0048
  828MPD2    C212176   0.684   4.059  11.976  0.2006  0.0387  0.6817
  828MPD2    C312177   0.809   4.097  11.922 -0.2518  0.2035  0.7834
  828MPD2    C412178   0.870   4.221  11.956 -0.0603  0.0999 -0.0866
  828MPD2    C512179   0.796   4.305  12.034 -0.5208  0.5870  0.3734
  828MPD2     H12180   0.630   3.974  11.935 -1.0785  0.8467  0.7037
  828MPD2    H112181   0.968   4.259  11.929 -0.3403  2.3685  2.2031
  828MPD2    H212182   0.623   4.343  12.147 -0.2080  0.1276 -0.7566
  828MPD2    H312183   0.836   4.402  12.062  1.5459  0.0360 -0.6659
  828MPD2     N12184   0.870   4.015  11.822 -0.2401  0.8110 -0.1070
  828MPD2    H512185   0.956   4.052  11.781  1.5365 -2.4002  0.6780
  828MPD2    N112186   0.487   4.120  12.112  0.4054  0.0362  0.0625
  828MPD2    H712187   0.448   4.036  12.071  2.0810 -1.1033  0.7827
  829MPD2     C12188   4.584   4.523  11.799  0.3974  0.1943 -0.4534
  829MPD2    C112189   4.508   4.436  11.869 -0.1007  0.0042  0.6305
  829MPD2    C212190   4.572   4.325  11.926 -0.2245 -0.1366  0.0837
  829MPD2    C312191   4.704   4.295  11.907  0.2976  0.6529  0.4706
  829MPD2    C412192   0.060   4.386  11.826  0.4918  0.1975  0.3118
  829MPD2    C512193   0.001   4.503  11.782 -0.2944  0.0404 -0.5952
  829MPD2     H12194   4.511   4.260  11.988  0.3077 -0.1243  0.6103
  829MPD2    H112195   0.160   4.361  11.791  0.4782  0.1741  0.2887
  829MPD2    H212196   4.537   4.615  11.766 -0.6930  0.3706  1.6207
  829MPD2    H312197   0.062   4.570  11.723  0.7057 -0.4010 -0.0522
  829MPD2     N12198   0.049   4.179  11.958  0.5206 -0.3436 -0.6980
  829MPD2    H512199   0.149   4.169  11.948  0.8778 -1.2585  3.8589
  829MPD2    N112200   4.375   4.464  11.882 -0.6596 -0.3132  0.0977
  829MPD2    H712201   4.344   4.555  11.850  1.4546  0.3190 -0.1514
  830MPD2     C12202   0.858   2.019  15.819 -0.2988  0.3101 -0.5072
  830MPD2    C112203   0.777   2.119  15.779  0.0195  0.3062  0.1674
  830MPD2    C212204   0.820   2.205  15.685  0.4968 -0.7066 -0.4179
  830MPD2    C312205   0.952   2.209  15.645  0.3648 -0.1436  0.1432
  830MPD2    C412206   1.040   2.115  15.696 -0.8218 -0.3782  0.1623
  830MPD2    C512207   0.990   2.020  15.774 -0.7366  0.0599 -0.9992
  830MPD2     H12208   0.748   2.280  15.652 -0.7925 -1.5714  0.4194
  830MPD2    H112209   1.148   2.121  15.681 -0.8668  0.1816  0.0467
  830MPD2    H212210   0.823   1.951  15.896  2.2631 -0.9273 -0.4151
  830MPD2    H312211   1.057   1.948  15.820 -1.9690 -0.5404 -0.1469
  830MPD2     N12212   0.999   2.303  15.554  0.3738  0.0667 -0.2287
  830MPD2    H512213   1.099   2.299  15.536  0.5107  2.0747  0.0833
  830MPD2    N112214   0.641   2.100  15.823 -0.6028  0.6219 -0.2516
  830MPD2    H712215   0.623   2.024  15.888 -2.6152  1.5802  0.3021
  831MPD2     C12216   0.929   3.973  16.388 -0.5748 -1.2658 -0.3362
  831MPD2    C112217   0.924   3.867  16.298 -0.3036  0.0264  0.2379
  831MPD2    C212218   0.809   3.786  16.301 -0.3381  0.1137  0.4420
  831MPD2    C312219   0.704   3.811  16.397  0.2398 -0.4734 -0.3081
  831MPD2    C412220   0.718   3.923  16.475  0.5736 -0.5895  0.0675
  831MPD2    C512221   0.828   4.000  16.472  0.2204 -0.4689 -0.3332
  831MPD2     H12222   0.797   3.707  16.228  0.0151 -0.6582  1.2226
  831MPD2    H112223   0.638   3.942  16.546 -0.0084 -1.3713 -0.3821
  831MPD2    H212224   1.017   4.036  16.387 -1.3314 -0.2070 -0.4163
  831MPD2    H312225   0.834   4.087  16.536 -1.1456 -0.7670  0.2080
  831MPD2     N12226   0.584   3.736  16.415  0.3470 -0.0350 -0.4979
  831MPD2    H512227   0.514   3.772  16.478 -1.4905  0.1885 -2.6570
  831MPD2    N112228   1.033   3.851  16.208  0.0492 -0.4860 -0.4289
  831MPD2    H712229   1.113   3.911  16.225  1.8168 -2.8027 -0.4566
  832MPD2     C12230   3.978   4.487  17.309 -0.2914  0.8326 -0.7237
  832MPD2    C112231   3.970   4.623  17.316  0.8575 -0.3882 -0.3530
  832MPD2    C212232   3.864   4.686  17.260 -0.5939  0.2221  0.4803
  832MPD2    C312233   3.746   4.608  17.244  1.0730  0.0639  0.0120
  832MPD2    C412234   3.753   4.474  17.255  0.2225 -0.0699 -1.2774
  832MPD2    C512235   3.872   4.410  17.266  0.4252  0.0924 -0.0802
  832MPD2     H12236   3.860   0.074  17.273 -2.2469  0.2177 -0.0659
  832MPD2    H112237   3.677   4.402  17.226 -0.9329  0.5366  0.2116
  832MPD2    H212238   4.067   4.431  17.336 -0.1126  0.0359 -2.9395
  832MPD2    H312239   3.876   4.301  17.262  0.5539  0.0459  1.0896
  832MPD2     N12240   3.623   4.668  17.196 -0.8934 -0.0219  0.6176
  832MPD2    H512241   3.544   4.604  17.193 -0.1792 -0.9536  1.9079
  832MPD2    N112242   4.080   4.685  17.376  0.0272  0.0616  0.1666
  832MPD2    H712243   4.146   4.625  17.425 -0.4226 -0.4946  0.0983
  833MPD2     C12244   1.027   1.912  13.004  0.0713  0.0534  0.5937
  833MPD2    C112245   1.083   1.985  12.901 -0.0322 -0.2061 -0.6735
  833MPD2    C212246   1.130   1.913  12.796 -0.1836 -0.5647  0.4894
  833MPD2    C312247   1.140   1.781  12.793 -0.7149  0.3425 -0.2975
  833MPD2    C412248   1.088   1.712  12.909  0.0788 -0.1268 -0.9574
  833MPD2    C512249   1.034   1.776  13.012 -0.0013 -0.3997  0.1190
  833MPD2     H12250   1.158   1.977  12.714  2.1908 -1.1819  0.8276
  833MPD2    H112251   1.104   1.605  12.917 -0.3405  0.0483  2.0159
  833MPD2    H212252   0.974   1.968  13.081 -0.2779  2.8801 -1.7127
  833MPD2    H312253   0.998   1.722  13.100 -1.1550  0.1404 -0.0192
  833MPD2     N12254   1.197   1.714  12.682 -0.3622 -1.2065 -0.6052
  833MPD2    H512255   1.255   1.767  12.618 -0.3671 -1.7395 -1.0499
  833MPD2    N112256   1.078   2.124  12.913 -0.0924 -0.0057  0.4549
  833MPD2    H712257   1.025   2.164  12.989 -0.2499  1.6795 -0.5455
  834MPD2     C12258   0.786   1.312  11.816  0.2311 -0.0489  0.5785
  834MPD2    C112259   0.881   1.399  11.767 -0.6076 -0.2520  0.4485
  834MPD2    C212260   0.952   1.463  11.863  0.6999 -0.7246  0.0112
  834MPD2    C312261   0.923   1.455  12.003  0.3175  0.1878  0.2116
  834MPD2    C412262   0.822   1.373  12.043  0.0598 -0.2116 -0.3915
  834MPD2    C512263   0.752   1.303  11.945  0.7641  0.4366  0.6673
  834MPD2     H12264   1.034   1.521  11.824 -1.5549  1.1521 -1.9155
  834MPD2    H112265   0.804   1.344  12.146  1.4789  0.6664  0.1206
  834MPD2    H212266   0.731   1.246  11.749  0.1728  0.3363  0.2442
  834MPD2    H312267   0.675   1.233  11.974  0.3170 -0.5805 -2.9311
  834MPD2     N12268   1.003   1.532  12.093  0.5495  0.6994  0.0673
  834MPD2    H512269   1.084   1.582  12.057  1.0882 -1.3722 -1.5505
  834MPD2    N112270   0.899   1.394  11.625 -0.0331 -0.1852 -0.5735
  834MPD2    H712271   0.840   1.322  11.583  0.0958 -1.4438  1.3989
  835MPD2     C12272   1.747   4.160  11.571 -0.4022  0.2920 -0.2834
  835MPD2    C112273   1.650   4.253  11.596 -0.3526 -0.4774 -0.1217
  835MPD2    C212274   1.672   4.332  11.702  0.0608 -0.5952 -0.6027
  835MPD2    C312275   1.778   4.329  11.789  0.4381  0.1557  0.5792
  835MPD2    C412276   1.871   4.233  11.761 -0.0338  0.0411 -0.1190
  835MPD2    C512277   1.854   4.153  11.648 -0.4853  0.5416 -0.4857
  835MPD2     H12278   1.594   4.405  11.720  2.1567  1.2438  0.9124
  835MPD2    H112279   1.956   4.217  11.826  0.3632 -1.2082 -0.9475
  835MPD2    H212280   1.746   4.091  11.488  1.5495 -2.2341  1.7759
  835MPD2    H312281   1.932   4.083  11.618 -1.3356  0.2110 -1.9172
  835MPD2     N12282   1.774   4.394  11.918 -0.4530 -0.5701 -0.7382
  835MPD2    H512283   1.857   4.381  11.975 -0.5138 -0.2360 -0.5689
  835MPD2    N112284   1.536   4.276  11.518 -0.2705  0.0304  0.9594
  835MPD2    H712285   1.469   4.339  11.562 -2.0867 -0.1273 -1.6203
  836MPD2     C12286   1.491   0.285  12.547  0.2653  0.4971 -0.4769
  836MPD2    C112287   1.437   0.179  12.487 -0.3449  0.3113  0.1064
  836MPD2    C212288   1.302   0.156  12.491  0.2360  0.1794  0.0744
  836MPD2    C312289   1.219   0.249  12.557  0.7702 -0.3132 -0.5408
  836MPD2    C412290   1.278   0.356  12.621  0.5750 -0.4616  0.5176
  836MPD2    C512291   1.410   0.373  12.608 -0.1446  0.1367  0.5619
  836MPD2     H12292   1.264   0.060  12.458  0.8085 -0.5520  1.5585
  836MPD2    H112293   1.221   0.427  12.680 -3.4090 -3.6057  0.4483
  836MPD2    H212294   1.597   0.304  12.554  0.5472 -0.6673 -1.6835
  836MPD2    H312295   1.461   0.448  12.668  0.4322 -0.2326  0.5325
  836MPD2     N12296   1.079   0.234  12.568 -0.0774  0.2337  0.0132
  836MPD2    H512297   1.036   0.306  12.624 -0.6331  0.0478 -0.1779
  836MPD2    N112298   1.527   0.106  12.410 -0.6651  0.1003  0.0409
  836MPD2    H712299   1.628   0.108  12.417 -0.7191 -0.8709  1.0342
  837MPD2     C12300   4.189   4.193  10.263 -0.1360 -0.4637 -0.0329
  837MPD2    C112301   4.095   4.210  10.167  0.5105 -0.6556 -0.8961
  837MPD2    C212302   4.060   4.334  10.112  1.2484  0.5659  0.0435
  837MPD2    C312303   4.131   4.444  10.154  0.4151  0.4989  0.0132
  837MPD2    C412304   4.227   4.429  10.249  0.0975 -0.2168 -0.2588
  837MPD2    C512305   4.259   4.306  10.302  0.0745 -0.2652  0.6386
  837MPD2     H12306   3.976   4.334  10.044 -0.0086  0.7302  1.6117
  837MPD2    H112307   4.279   4.517  10.285  1.4995 -0.2329 -2.2025
  837MPD2    H212308   4.217   4.098  10.307 -0.8865 -1.8581 -2.5575
  837MPD2    H312309   4.344   4.299  10.368 -0.4753 -0.0573  1.3715
  837MPD2     N12310   4.087   4.565  10.104 -0.1111  0.2677 -1.0511
  837MPD2    H512311   4.008   4.566  10.041 -0.8102 -1.8318 -0.2039
  837MPD2    N112312   4.033   4.100  10.102  0.5495 -0.0495 -0.4274
  837MPD2    H712313   3.952   4.127  10.048  0.5856  1.9672  0.5407
  838MPD2     C12314   2.778   3.018  11.894  0.3025  0.4744  0.6295
  838MPD2    C112315   2.766   2.876  11.888 -0.4604  0.0127 -0.2099
  838MPD2    C212316   2.690   2.814  11.988  0.1384 -0.6311 -0.5556
  838MPD2    C312317   2.623   2.883  12.091 -0.1408  0.1736 -0.5487
  838MPD2    C412318   2.649   3.017  12.095 -0.4332 -1.1659  0.7366
  838MPD2    C512319   2.726   3.079  12.003  0.3571 -0.3082  0.2718
  838MPD2     H12320   2.682   2.706  11.996  1.5292 -0.6964 -0.1159
  838MPD2    H112321   2.600   3.083  12.166  1.1904 -0.0351  0.8047
  838MPD2    H212322   2.843   3.073  11.827  0.2334 -0.4211 -0.1864
  838MPD2    H312323   2.748   3.185  12.009 -1.4806  0.2303 -2.3187
  838MPD2     N12324   2.545   2.803  12.187  0.0974  0.3420  0.5795
  838MPD2    H512325   2.546   2.702  12.181  0.1815  0.2117  3.1306
  838MPD2    N112326   2.818   2.798  11.788 -0.0677 -0.1994  0.4333
  838MPD2    H712327   2.770   2.708  11.781 -2.3504  1.2501 -2.5940
  839MPD2     C12328   2.467   2.040  11.716  0.1388 -0.7569  0.3494
  839MPD2    C112329   2.435   2.098  11.592 -0.1922  0.0970 -0.3781
  839MPD2    C212330   2.515   2.201  11.544 -0.8311  0.4511  0.0743
  839MPD2    C312331   2.608   2.253  11.635 -0.8253 -0.0562 -0.2868
  839MPD2    C412332   2.627   2.201  11.765  0.9089 -0.3565 -0.3452
  839MPD2    C512333   2.555   2.090  11.807 -0.0344  0.6386 -0.4094
  839MPD2     H12334   2.495   2.247  11.448 -1.5427 -0.4736 -0.2208
  839MPD2    H112335   2.701   2.248  11.828  0.4712  0.6524 -0.5776
  839MPD2    H212336   2.407   1.954  11.744 -1.9999  0.6802  0.1529
  839MPD2    H312337   2.569   2.040  11.902 -0.1725 -0.1557 -0.8134
  839MPD2     N12338   2.673   2.371  11.608 -0.7314 -0.6531 -0.1684
  839MPD2    H512339   2.728   2.420  11.677 -0.4745 -1.0238 -0.1123
  839MPD2    N112340   2.318   2.074  11.510  0.1089 -0.9244  0.4677
  839MPD2    H712341   2.310   2.129  11.425  2.5034 -0.5373  0.4832
  840MPD2     C12342   2.531   4.576  10.280 -0.2314 -0.0864 -0.4439
  840MPD2    C112343   2.527   4.539  10.417 -0.9446 -0.5798 -0.1395
  840MPD2    C212344   2.612   4.611  10.505 -0.3222 -0.6344  0.1701
  840MPD2    C312345   2.706   4.708  10.458  0.2425 -0.5622 -0.2900
  840MPD2    C412346   2.703   0.018  10.324 -0.0921 -0.3211 -0.3131
  840MPD2    C512347   2.615   4.681  10.239 -0.0815  0.3093 -0.2111
  840MPD2     H12348   2.606   4.589  10.611 -2.3661 -4.8320 -0.8100
  840MPD2    H112349   2.768   0.095  10.283  0.0356  0.8296  2.0279
  840MPD2    H212350   2.465   4.528  10.208 -0.0622  1.8230 -1.8780
  840MPD2    H312351   2.613   0.001  10.138 -1.5121  0.0732 -0.2824
  840MPD2     N12352   2.810   0.037  10.543 -0.1197 -0.0809 -0.0908
  840MPD2    H512353   2.881   0.093  10.498  1.4861 -0.8173  1.4946
  840MPD2    N112354   2.429   4.446  10.456  0.2311 -0.2470  0.1098
  840MPD2    H712355   2.363   4.404  10.391  1.4919 -1.5793 -0.3081
  841MPD2     C12356   2.091   4.245  14.976 -0.0038  0.3257  0.6811
  841MPD2    C112357   2.155   4.235  14.855  0.6652  0.1378 -0.3999
  841MPD2    C212358   2.159   4.356  14.785 -0.5259 -0.2628  0.5671
  841MPD2    C312359   2.116   4.473  14.835 -0.6464 -0.3903 -0.5241
  841MPD2    C412360   2.047   4.481  14.949 -0.8424 -1.0586  0.5211
  841MPD2    C512361   2.033   4.363  15.021  0.2478  0.0992 -0.7248
  841MPD2     H12362   2.219   4.363  14.695 -2.8077 -2.4694 -1.1408
  841MPD2    H112363   2.023   4.577  14.995  0.0768 -0.6852  0.2350
  841MPD2    H212364   2.076   4.158  15.039  2.1405 -1.4710 -1.3097
  841MPD2    H312365   1.997   4.362  15.123 -2.3809  1.3472 -1.6596
  841MPD2     N12366   2.152   4.591  14.765  0.1705 -0.5900 -0.4314
  841MPD2    H512367   2.209   4.564  14.685  1.4559  0.8513 -0.0158
  841MPD2    N112368   2.209   4.121  14.794  0.1103  0.7382  0.4518
  841MPD2    H712369   2.218   4.131  14.693 -0.7877 -0.3950  0.2595
  842MPD2     C12370   3.179   0.455  16.932 -0.3538 -0.3683 -0.0105
  842MPD2    C112371   3.062   0.395  16.895 -0.3247  0.0288 -0.1434
  842MPD2    C212372   3.009   0.301  16.987  0.5631 -0.1201  0.3524
  842MPD2    C312373   3.059   0.279  17.116 -0.3961  0.6298  0.2407
  842MPD2    C412374   3.171   0.347  17.152  0.4671 -0.7583  0.1094
  842MPD2    C512375   3.229   0.426  17.053 -0.6080 -0.1536 -0.1888
  842MPD2     H12376   2.911   0.264  16.960  0.2164  1.0250  0.0216
  842MPD2    H112377   3.198   0.346  17.257 -1.1503  0.1711  0.5383
  842MPD2    H212378   3.234   0.516  16.862  1.5393 -0.5388  1.3042
  842MPD2    H312379   3.326   0.469  17.075  0.7474 -2.1800 -2.1382
  842MPD2     N12380   2.984   0.207  17.208 -0.4004 -0.5290 -0.1877
  842MPD2    H512381   3.004   0.227  17.306  1.2334 -0.7507 -0.4742
  842MPD2    N112382   2.999   0.435  16.770  0.0693  0.3474  0.6084
  842MPD2    H712383   3.046   0.508  16.717  1.1191 -1.8833 -1.4982
  843MPD2     C12384   0.308   0.651   0.135 -0.1839 -0.3319 -0.7263
  843MPD2    C112385   0.364   0.577   0.233  0.0858  0.2275 -0.5904
  843MPD2    C212386   0.477   0.636   0.297  0.0790  0.0533 -0.8472
  843MPD2    C312387   0.509   0.771   0.277  0.5083 -0.0422 -0.2000
  843MPD2    C412388   0.427   0.848   0.196 -0.3469  0.0510 -0.1104
  843MPD2    C512389   0.332   0.783   0.124 -0.3328 -0.0537  0.1609
  843MPD2     H12390   0.536   0.582   0.371 -0.9381  0.5353  0.3201
  843MPD2    H112391   0.431   0.956   0.185  4.0143 -0.5522 -4.4334
  843MPD2    H212392   0.231   0.605   0.075 -1.6886 -0.7539  1.5517
  843MPD2    H312393   0.266   0.828   0.051  0.3060  0.4598 -0.0972
  843MPD2     N12394   0.626   0.836   0.339  0.2029 -0.2004 -0.0721
  843MPD2    H512395   0.646   0.932   0.312 -2.7401  0.8780  1.5197
  843MPD2    N112396   0.314   0.447   0.248 -0.1390  0.5706  0.1159
  843MPD2    H712397   0.238   0.418   0.188  0.0616  2.5000 -1.0465
  844MPD2     C12398   3.624   4.693  16.560 -0.1499  0.1563  0.0787
  844MPD2    C112399   3.711   4.585  16.579  0.4315  0.1490 -0.1573
  844MPD2    C212400   3.811   4.586  16.678  0.6763 -0.0207 -0.2223
  844MPD2    C312401   3.831   4.699  16.755  0.5308 -0.0311  0.0306
  844MPD2    C412402   3.743   0.088  16.739  0.6052 -0.4592  0.6214
  844MPD2    C512403   3.645   0.081  16.643  0.1007 -0.4841 -0.2146
  844MPD2     H12404   3.867   4.495  16.694  0.7649 -0.4340 -2.9065
  844MPD2    H112405   3.752   0.183  16.791 -1.7799  0.2748 -0.3284
  844MPD2    H212406   3.549   4.696  16.481 -1.5300 -1.1898  1.3279
  844MPD2    H312407   3.584   0.168  16.626 -1.2485 -1.6678 -1.4193
  844MPD2     N12408   3.942   4.698  16.848 -0.8026 -0.5344  0.0356
  844MPD2    H512409   3.991   4.609  16.852  0.7933  0.3605  0.2895
  844MPD2    N112410   3.702   4.464  16.512 -0.2315  0.2184  0.4669
  844MPD2    H712411   3.762   4.390  16.545 -0.6010  0.1053  0.8896
  845MPD2     C12412   4.272   0.769  17.337  0.2067 -0.2877  0.5463
  845MPD2    C112413   4.153   0.703  17.351  0.0698  0.7097  0.9865
  845MPD2    C212414   4.148   0.572  17.300  0.3923 -0.6918 -0.1744
  845MPD2    C312415   4.258   0.523  17.229  0.8897  0.0535 -1.0150
  845MPD2    C412416   4.382   0.583  17.237  0.6424 -0.0859 -0.4101
  845MPD2    C512417   4.382   0.711  17.289  0.4368  1.1384  0.3572
  845MPD2     H12418   4.063   0.505  17.303  0.3308 -0.6250 -0.4168
  845MPD2    H112419   4.476   0.537  17.210  1.5815  2.1964 -1.0679
  845MPD2    H212420   4.303   0.866  17.376  1.2414 -0.4953  0.2312
  845MPD2    H312421   4.467   0.778  17.291  1.3966 -0.0556 -0.6433
  845MPD2     N12422   4.249   0.397  17.173 -0.1566  0.0540  0.0872
  845MPD2    H512423   4.155   0.357  17.177  0.4546 -1.7064 -3.2580
  845MPD2    N112424   4.030   0.766  17.392  0.1649  0.1958  0.6424
  845MPD2    H712425   3.946   0.711  17.379  0.5719 -0.3710  0.4071
  846MPD2     C12426   0.556   1.502  13.502  0.4616 -0.5557 -0.7686
  846MPD2    C112427   0.515   1.625  13.544  0.1113  0.3387 -0.0768
  846MPD2    C212428   0.491   1.639  13.683 -0.1063 -0.0024  0.1427
  846MPD2    C312429   0.523   1.532  13.773  0.7403  0.3405  0.0688
  846MPD2    C412430   0.566   1.412  13.721  0.2766 -0.2824 -0.4211
  846MPD2    C512431   0.584   1.401  13.589  0.5340  0.3150 -0.2977
  846MPD2     H12432   0.462   1.733  13.729  0.0100 -0.7139  1.6585
  846MPD2    H112433   0.599   1.333  13.787  1.2870 -0.3427 -0.9998
  846MPD2    H212434   0.587   1.483  13.400  0.2090  1.3051 -1.1841
  846MPD2    H312435   0.618   1.304  13.555  2.2406 -0.5154  3.7731
  846MPD2     N12436   0.521   1.556  13.914 -0.2034  0.1664  0.1547
  846MPD2    H512437   0.494   1.649  13.942 -0.8896 -0.2279  0.8030
  846MPD2    N112438   0.504   1.738  13.458  0.0876  0.0313 -0.1889
  846MPD2    H712439   0.490   1.822  13.513  1.3492  0.3014 -0.2678
  847MPD2     C12440   0.950   2.393  14.230 -0.3907 -0.4702  0.5669
  847MPD2    C112441   0.999   2.480  14.321  0.7406 -0.8367  0.6423
  847MPD2    C212442   1.040   2.433  14.445  0.1014  0.0441  0.2115
  847MPD2    C312443   1.026   2.304  14.475  0.3823 -0.6987  1.0757
  847MPD2    C412444   0.973   2.213  14.388  0.7124  0.1153 -0.5824
  847MPD2    C512445   0.938   2.258  14.261 -0.4567 -0.5429  0.1872
  847MPD2     H12446   1.070   2.511  14.514  0.2065  1.2266 -1.1476
  847MPD2    H112447   0.959   2.109  14.414  1.0801 -0.2090 -1.6718
  847MPD2    H212448   0.926   2.424  14.129  0.2130  1.0090  0.8746
  847MPD2    H312449   0.884   2.190  14.196  1.1808 -0.5841 -1.1369
  847MPD2     N12450   1.066   2.269  14.607 -0.4204  0.2435  0.3003
  847MPD2    H512451   1.110   2.348  14.653  1.1720 -0.2344 -0.3869
  847MPD2    N112452   1.011   2.620  14.311 -0.2311  0.2937  0.2172
  847MPD2    H712453   1.062   2.670  14.383 -0.3292  2.9828 -1.5900
  848MPD2     C12454   3.225   0.344  16.557  0.4376  0.1101 -0.0924
  848MPD2    C112455   3.339   0.364  16.638 -0.1935 -0.0995  0.0784
  848MPD2    C212456   3.424   0.471  16.614 -0.4709  0.4452 -0.3039
  848MPD2    C312457   3.406   0.546  16.502  0.3251 -0.3474  0.0712
  848MPD2    C412458   3.291   0.529  16.421  0.2314  0.6620  0.2263
  848MPD2    C512459   3.214   0.421  16.443 -0.7487 -0.1727 -0.5317
  848MPD2     H12460   3.502   0.492  16.687  1.1273 -1.6789 -1.4029
  848MPD2    H112461   3.279   0.594  16.335  2.7282  0.7652 -0.0642
  848MPD2    H212462   3.154   0.265  16.580 -0.0655  0.6961  0.3708
  848MPD2    H312463   3.122   0.412  16.385  1.0433 -3.1738 -2.9136
  848MPD2     N12464   3.479   0.662  16.473 -0.0942  0.1625  0.0971
  848MPD2    H512465   3.446   0.697  16.384 -0.1366  1.9642  0.8135
  848MPD2    N112466   3.364   0.290  16.757 -0.4047  0.3886 -0.0570
  848MPD2    H712467   3.436   0.326  16.820  0.4263 -1.8634  0.2868
  849MPD2     C12468   2.730   0.858  13.978  0.2359 -0.6644  0.3807
  849MPD2    C112469   2.850   0.793  13.994  0.4368  0.2804 -0.0123
  849MPD2    C212470   2.857   0.675  14.068 -0.6636 -0.7220  1.2108
  849MPD2    C312471   2.739   0.624  14.128 -0.0319  0.5110 -0.8538
  849MPD2    C412472   2.618   0.688  14.113 -0.2819 -0.0256 -0.0997
  849MPD2    C512473   2.612   0.805  14.038 -0.0787  0.3964 -0.5459
  849MPD2     H12474   2.945   0.610  14.067 -2.0522 -2.5943  0.2604
  849MPD2    H112475   2.526   0.648  14.154 -0.5824  1.0955  0.3178
  849MPD2    H212476   2.722   0.954  13.927  1.4966 -0.6003  0.3143
  849MPD2    H312477   2.515   0.851  14.024  0.5763  1.6145 -1.1006
  849MPD2     N12478   2.751   0.499  14.200  0.0146 -0.0308 -0.2607
  849MPD2    H512479   2.843   0.457  14.198  0.7743  1.5865  0.4518
  849MPD2    N112480   2.962   0.842  13.928  0.4459  0.2127 -0.2341
  849MPD2    H712481   2.949   0.919  13.863 -2.6327 -0.2443 -0.1432
  850MPD2     C12482   0.706   3.354  14.746 -0.9528 -0.0602  0.3122
  850MPD2    C112483   0.759   3.321  14.866 -0.6329 -0.3012  0.0100
  850MPD2    C212484   0.894   3.316  14.874 -1.2358  0.4890 -0.2580
  850MPD2    C312485   0.976   3.343  14.763  0.0756 -0.8221 -0.0147
  850MPD2    C412486   0.915   3.367  14.644 -0.2552 -0.0287 -0.3566
  850MPD2    C512487   0.782   3.371  14.632  0.2300  0.2386 -0.7172
  850MPD2     H12488   0.933   3.295  14.973  0.4102  2.1996 -0.5414
  850MPD2    H112489   0.984   3.369  14.561  1.4614  2.3941  1.1191
  850MPD2    H212490   0.600   3.366  14.731 -0.5353  0.9576 -1.8541
  850MPD2    H312491   0.734   3.386  14.536  1.3791 -0.9765 -1.4948
  850MPD2     N12492   1.113   3.344  14.771  0.1050 -0.0491 -0.2596
  850MPD2    H512493   1.164   3.376  14.689 -0.8729  1.2593 -0.3548
  850MPD2    N112494   0.693   3.308  14.994  0.1730  0.0522 -0.3791
  850MPD2    H712495   0.751   3.283  15.074  1.7673  0.3130 -1.4481
  851MPD2     C12496   1.055   3.255  15.599 -0.4242  0.8720  0.0092
  851MPD2    C112497   0.953   3.200  15.531  0.0507 -0.7230  0.5082
  851MPD2    C212498   0.961   3.065  15.512  0.4476  0.3735 -0.5178
  851MPD2    C312499   1.070   2.989  15.544  0.0589  0.5246  0.2891
  851MPD2    C412500   1.176   3.044  15.619  0.5804  0.1373 -0.1505
  851MPD2    C512501   1.158   3.178  15.641  0.1799  0.1975 -0.4781
  851MPD2     H12502   0.876   3.020  15.461  0.4308 -0.0819 -0.0778
  851MPD2    H112503   1.265   2.990  15.646  1.0497  0.2176 -1.5169
  851MPD2    H212504   1.054   3.360  15.627  0.3820  0.7907  0.3581
  851MPD2    H312505   1.235   3.240  15.685  0.2607 -1.6285  1.9138
  851MPD2     N12506   1.074   2.856  15.485  0.6962 -0.3361  0.4394
  851MPD2    H512507   1.005   2.843  15.411  1.2170  0.2562 -0.1587
  851MPD2    N112508   0.842   3.280  15.482  0.1156 -0.6340 -0.0459
  851MPD2    H712509   0.866   3.376  15.456  0.4085 -0.2716  1.5650
  852MPD2     C12510   4.510   0.786   8.940 -0.8088 -0.2181  0.0201
  852MPD2    C112511   4.533   0.857   9.055  0.1837  0.7253  0.1210
  852MPD2    C212512   4.662   0.904   9.068  0.1577  0.1250 -0.5496
  852MPD2    C312513   0.038   0.892   8.974  0.0329 -0.3548 -0.6577
  852MPD2    C412514   0.012   0.816   8.867  0.1866 -0.1396 -0.2247
  852MPD2    C512515   4.608   0.765   8.849 -0.0839  0.2224  0.3512
  852MPD2     H12516   4.686   0.967   9.153  0.6679  0.3685 -0.8771
  852MPD2    H112517   0.096   0.812   8.799  0.7029 -0.7038  0.4504
  852MPD2    H212518   4.414   0.738   8.921 -0.3004 -0.7129 -1.3398
  852MPD2    H312519   4.579   0.709   8.760  1.7056  0.4821 -0.3951
  852MPD2     N12520   0.168   0.937   9.003 -0.1875  0.6913  0.5104
  852MPD2    H512521   0.167   0.995   9.086  1.1626  0.7379  0.5025
  852MPD2    N112522   4.435   0.865   9.163 -0.9151 -0.3928 -0.0496
  852MPD2    H712523   4.467   0.922   9.240 -0.5596 -0.1001 -0.4134
  853MPD2     C12524   2.434   0.979  12.344  0.0198  0.1548 -0.5356
  853MPD2    C112525   2.337   1.065  12.303  0.9144  0.7150 -0.3170
  853MPD2    C212526   2.317   1.088  12.168  0.2722 -0.1110 -0.0740
  853MPD2    C312527   2.397   1.030  12.073  0.0032  0.1777  0.8409
  853MPD2    C412528   2.482   0.939  12.115  0.7413 -0.8647  0.1274
  853MPD2    C512529   2.503   0.922  12.247  0.0805  0.0226  0.2927
  853MPD2     H12530   2.234   1.148  12.132  1.3156 -0.3861 -2.9292
  853MPD2    H112531   2.547   0.884  12.048 -0.9500 -0.6338 -1.7352
  853MPD2    H212532   2.449   0.965  12.451  0.0023 -2.5670 -0.8714
  853MPD2    H312533   2.579   0.856  12.288 -0.5597 -0.5095  0.6133
  853MPD2     N12534   2.382   1.047  11.934  0.5587  0.2896  0.1508
  853MPD2    H512535   2.420   0.976  11.872 -0.7232 -0.9182  0.7501
  853MPD2    N112536   2.257   1.130  12.403 -0.6045 -0.1635  0.1472
  853MPD2    H712537   2.281   1.101  12.498  0.3524 -2.0284 -0.6564
  854MPD2     C12538   3.811   1.098  13.220  0.1763 -0.4322 -0.2065
  854MPD2    C112539   3.877   1.085  13.100 -0.6710 -0.4879  0.5051
  854MPD2    C212540   4.012   1.051  13.098  0.0912 -0.1017 -0.6366
  854MPD2    C312541   4.078   1.016  13.220 -1.0550 -0.4409  0.2115
  854MPD2    C412542   4.012   1.042  13.340 -0.2434  0.4810  0.2008
  854MPD2    C512543   3.876   1.065  13.335 -0.2095  0.0919  0.2738
  854MPD2     H12544   4.073   1.049  13.008  0.2557 -0.4600 -0.5164
  854MPD2    H112545   4.058   1.026  13.437  0.9606  0.5431 -0.3616
  854MPD2    H212546   3.707   1.129  13.227 -0.1911 -0.9348 -3.0878
  854MPD2    H312547   3.827   1.070  13.431 -0.3555 -1.2681  0.2636
  854MPD2     N12548   4.208   0.972  13.219 -0.3692  0.1963  0.3778
  854MPD2    H512549   4.262   0.979  13.304 -0.1919 -1.8320  0.4252
  854MPD2    N112550   3.804   1.122  12.986 -0.0096 -0.5463 -0.6658
  854MPD2    H712551   3.705   1.140  13.002  0.2976  0.0257  0.5777
  855MPD2     C12552   0.258   1.057  13.763 -0.0567 -0.6662  0.2616
  855MPD2    C112553   0.143   0.985  13.746  0.3100 -0.1932  0.0962
  855MPD2    C212554   0.076   0.993  13.624 -0.0153 -0.0147 -0.4962
  855MPD2    C312555   0.123   1.070  13.523  0.3222  0.2764 -0.1785
  855MPD2    C412556   0.231   1.146  13.540 -0.1526  0.0925  0.2526
  855MPD2    C512557   0.301   1.136  13.659 -0.0169  0.8141  0.5645
  855MPD2     H12558   4.706   0.932  13.614  0.1186 -0.2777 -0.0789
  855MPD2    H112559   0.269   1.216  13.465 -0.5370 -0.8886 -0.8580
  855MPD2    H212560   0.314   1.052  13.855 -1.7272 -1.4991  1.2297
  855MPD2    H312561   0.389   1.197  13.673  0.9201 -0.2906 -0.6225
  855MPD2     N12562   0.055   1.076  13.404  0.0787  0.2204 -0.6578
  855MPD2    H512563   0.098   1.135  13.333  0.5900 -2.3259 -2.4625
  855MPD2    N112564   0.087   0.903  13.847  0.8287 -0.1546 -0.0491
  855MPD2    H712565   4.713   0.871  13.825  1.4777 -1.4756 -0.8942
  856MPD2     C12566   1.339   1.618  14.039 -0.3959 -0.6250 -0.1097
  856MPD2    C112567   1.441   1.693  14.080 -0.3001  0.3800  0.2523
  856MPD2    C212568   1.432   1.833  14.071 -0.7222  0.0314 -0.4426
  856MPD2    C312569   1.318   1.902  14.030 -0.0808  0.1857  0.2469
  856MPD2    C412570   1.210   1.815  13.996  0.2295  0.1317  0.0369
  856MPD2    C512571   1.227   1.672  13.998 -0.2521  0.0472  0.1753
  856MPD2     H12572   1.520   1.888  14.102 -1.0866  0.3696 -0.0083
  856MPD2    H112573   1.114   1.856  13.967 -0.4361 -1.6323 -0.2730
  856MPD2    H212574   1.340   1.510  14.047  0.5032 -0.6440 -0.4640
  856MPD2    H312575   1.144   1.604  13.981 -0.5822 -0.1983  2.7684
  856MPD2     N12576   1.307   2.044  14.028  0.2209 -0.0332  0.6997
  856MPD2    H512577   1.219   2.084  13.996  0.6872  0.7361  0.3825
  856MPD2    N112578   1.562   1.642  14.132  0.3685  0.2065  0.1031
  856MPD2    H712579   1.638   1.706  14.156  0.6858  0.4692 -1.6030
  857MPD2     C12580   3.414   3.647  13.229  0.2865 -0.2354  0.2478
  857MPD2    C112581   3.436   3.750  13.137  0.2785  0.0028  0.6401
  857MPD2    C212582   3.446   3.883  13.186 -0.5681 -0.4734  0.1367
  857MPD2    C312583   3.462   3.911  13.318 -0.0655  0.1485  0.2776
  857MPD2    C412584   3.450   3.812  13.408  0.5771 -0.1594 -0.6193
  857MPD2    C512585   3.414   3.689  13.362 -0.1724 -0.2591 -0.1317
  857MPD2     H12586   3.452   3.963  13.114  2.6760 -1.6524 -0.9081
  857MPD2    H112587   3.456   3.831  13.514 -2.8011 -0.1899 -0.4046
  857MPD2    H212588   3.378   3.549  13.202  2.9165 -0.7162 -1.4486
  857MPD2    H312589   3.394   3.610  13.434  0.7502 -0.5011 -0.1391
  857MPD2     N12590   3.473   4.047  13.352 -0.4575  0.0196  0.9559
  857MPD2    H512591   3.461   4.115  13.278  0.3647  0.1836  0.9850
  857MPD2    N112592   3.433   3.710  13.001  0.0298 -0.1442  0.2558
  857MPD2    H712593   3.404   3.617  12.976  2.0380 -0.6765 -0.1306
  858MPD2     C12594   4.156   3.149  16.698 -0.0617 -0.1477  0.0381
  858MPD2    C112595   4.107   3.025  16.701  0.3310  0.1403  0.0402
  858MPD2    C212596   4.099   2.963  16.824 -0.4996 -0.4025 -0.1280
  858MPD2    C312597   4.113   3.038  16.939 -0.0222 -0.1684 -0.1459
  858MPD2    C412598   4.160   3.167  16.934  0.0587  0.6249  0.4503
  858MPD2    C512599   4.193   3.219  16.815  0.3871 -0.0445 -0.9171
  858MPD2     H12600   4.043   2.870  16.820  1.6784 -1.7031 -0.5666
  858MPD2    H112601   4.190   3.221  17.023 -1.3275 -0.3004  1.4860
  858MPD2    H212602   4.164   3.209  16.608 -0.1882 -0.6353 -0.2935
  858MPD2    H312603   4.242   3.315  16.807  0.3712  0.0900  0.6211
  858MPD2     N12604   4.083   2.990  17.062  0.1672 -0.4458 -0.3008
  858MPD2    H512605   4.075   3.059  17.136 -1.4064 -2.5744  1.4907
  858MPD2    N112606   4.063   2.967  16.578 -0.2762 -0.7905 -0.2485
  858MPD2    H712607   4.093   3.020  16.497  1.9639  1.9370  2.3770
  859MPD2     C12608   2.412   0.164  15.108  0.3628  0.0671 -0.8860
  859MPD2    C112609   2.534   0.191  15.160 -0.5742  0.4271  0.2118
  859MPD2    C212610   2.632   0.093  15.143 -0.2225 -0.1933  0.4389
  859MPD2    C312611   2.591   4.689  15.098  0.0228  0.0284  0.7558
  859MPD2    C412612   2.469   4.668  15.040  0.2247 -0.7404 -0.0104
  859MPD2    C512613   2.380   0.053  15.040  0.3451 -0.0464 -0.4507
  859MPD2     H12614   2.726   0.130  15.184  1.1605 -3.5940  0.3630
  859MPD2    H112615   2.447   4.580  14.981 -2.3001  0.5424 -1.0180
  859MPD2    H212616   2.334   0.239  15.110 -0.5879 -0.9496  1.0127
  859MPD2    H312617   2.282   0.057  14.994 -0.0440  1.2918  0.4939
  859MPD2     N12618   2.684   4.592  15.058  0.3854 -0.4487 -0.1406
  859MPD2    H512619   2.654   4.522  14.992 -0.5693 -0.2824  0.1159
  859MPD2    N112620   2.553   0.319  15.218  0.1973  0.7747  0.1640
  859MPD2    H712621   2.485   0.388  15.188 -0.0598  0.7161  0.6081
  860MPD2     C12622   0.170   0.997  11.524 -0.3215 -0.2538  0.6878
  860MPD2    C112623   0.203   0.953  11.649 -0.2946 -0.2304 -0.5535
  860MPD2    C212624   0.107   0.943  11.743 -0.3284  0.3412  0.2306
  860MPD2    C312625   4.695   0.960  11.706  0.0683  0.3140 -0.2403
  860MPD2    C412626   4.664   0.991  11.577  0.3845 -0.1152  0.5247
  860MPD2    C512627   0.042   1.023  11.488 -0.4720  0.2194 -0.2204
  860MPD2     H12628   0.133   0.924  11.847 -0.6172  1.7377  0.5534
  860MPD2    H112629   4.562   1.001  11.543  0.3809 -0.5996  0.4012
  860MPD2    H212630   0.248   1.017  11.452 -1.6775  1.5257 -0.2713
  860MPD2    H312631   0.022   1.073  11.394  0.3338 -0.4490 -0.7479
  860MPD2     N12632   4.597   0.932  11.803 -0.1138 -0.3348 -0.0757
  860MPD2    H512633   4.632   0.898  11.892  1.0618  2.8844  0.6731
  860MPD2    N112634   0.334   0.929  11.695  0.4662 -0.0675 -0.1992
  860MPD2    H712635   0.345   0.934  11.796 -0.3051  4.0300 -0.2980
  861MPD2     C12636   3.250   3.833  11.147 -0.0315 -0.0036  0.7075
  861MPD2    C112637   3.330   3.935  11.180 -0.9969 -0.3821  0.9862
  861MPD2    C212638   3.336   4.039  11.088 -0.4839  1.0287 -0.5857
  861MPD2    C312639   3.256   4.041  10.972  0.3677  0.2081 -0.2661
  861MPD2    C412640   3.170   3.937  10.951 -0.3574 -0.9304  0.1765
  861MPD2    C512641   3.169   3.825  11.031  0.3315 -0.1823 -0.6800
  861MPD2     H12642   3.398   4.124  11.116 -1.2159  0.8692  1.5509
  861MPD2    H112643   3.102   3.939  10.867 -1.2667 -1.9955  0.8894
  861MPD2    H212644   3.232   3.753  11.219 -0.8732 -2.1856 -1.9353
  861MPD2    H312645   3.110   3.738  11.003 -0.4361  0.1351 -0.0483
  861MPD2     N12646   3.252   4.139  10.877  0.2962  0.2885  0.5963
  861MPD2    H512647   3.182   4.125  10.805  0.2413 -1.1267  0.9204
  861MPD2    N112648   3.413   3.942  11.294  0.5502 -0.3835 -0.0155
  861MPD2    H712649   3.475   4.022  11.310  0.7620 -0.1954 -1.7077
  862MPD2     C12650   3.296   4.468  10.181  0.1857 -0.5833  0.0186
  862MPD2    C112651   3.323   4.372  10.284  1.0030  0.2855  0.0618
  862MPD2    C212652   3.290   4.236  10.255 -0.3716  0.1780 -0.1986
  862MPD2    C312653   3.226   4.205  10.131 -0.1762  0.4750  0.3970
  862MPD2    C412654   3.202   4.302  10.038 -0.6057  0.3626 -0.8278
  862MPD2    C512655   3.245   4.429  10.060  0.6663  0.2149 -0.1458
  862MPD2     H12656   3.302   4.160  10.331 -2.1833  1.4378  1.3378
  862MPD2    H112657   3.161   4.278   9.941  2.6258 -3.3919 -1.2613
  862MPD2    H212658   3.311   4.574  10.194 -2.0739 -0.1135 -1.2624
  862MPD2    H312659   3.226   4.507   9.988 -3.9838  1.2437  2.2041
  862MPD2     N12660   3.175   4.078  10.108 -0.1606 -0.3461 -0.0389
  862MPD2    H512661   3.111   4.081  10.030 -1.7698 -2.8858  1.1826
  862MPD2    N112662   3.363   4.396  10.417 -0.5128  0.5344 -0.0583
  862MPD2    H712663   3.352   4.316  10.480 -0.1852 -1.0193 -1.9615
  863MPD2     C12664   1.945   1.759  17.067 -0.0060 -0.4239  0.3009
  863MPD2    C112665   2.031   1.824  16.975 -0.4795  0.4855 -0.4979
  863MPD2    C212666   2.165   1.795  16.982 -0.2894  0.2612  0.3383
  863MPD2    C312667   2.219   1.696  17.067  0.6888  0.4418  0.2165
  863MPD2    C412668   2.127   1.643  17.159 -0.1666  0.1587  0.0335
  863MPD2    C512669   1.999   1.689  17.170 -0.1582  1.0381 -0.0311
  863MPD2     H12670   2.226   1.835  16.902 -1.8835 -1.9908 -2.0375
  863MPD2    H112671   2.152   1.575  17.239  1.8941 -0.7056 -1.3549
  863MPD2    H212672   1.837   1.758  17.057  0.2196 -0.0920 -2.1758
  863MPD2    H312673   1.938   1.658  17.254  0.2683  0.4892  0.0763
  863MPD2     N12674   2.351   1.646  17.072 -0.6931  0.2908  1.1844
  863MPD2    H512675   2.367   1.566  17.132 -0.6145 -1.0729 -0.6680
  863MPD2    N112676   1.972   1.881  16.859  0.0149  0.1548 -0.1163
  863MPD2    H712677   1.872   1.861  16.861 -0.2691  1.6115  0.3710
  864MPD2     C12678   2.851   2.693  17.566 -0.3731 -0.0163 -0.1459
  864MPD2    C112679   2.908   2.649  17.446 -0.5569 -0.1905  0.5444
  864MPD2    C212680   2.971   2.747  17.372  0.0766  0.0984 -0.4028
  864MPD2    C312681   2.975   2.877  17.417  0.7658 -0.3795  0.4040
  864MPD2    C412682   2.916   2.917  17.531  0.1397  0.4990  0.2205
  864MPD2    C512683   2.857   2.822  17.608  0.4115 -0.4509 -0.0513
  864MPD2     H12684   3.025   2.726  17.280 -0.2344  1.1094 -0.8278
  864MPD2    H112685   2.918   3.022  17.557 -0.3990  0.7232 -0.6153
  864MPD2    H212686   2.795   2.626  17.631  0.4591 -0.0536  0.5402
  864MPD2    H312687   2.808   2.835   0.022 -0.3696  0.1614 -0.5367
  864MPD2     N12688   3.034   2.977  17.337  0.1959 -0.2057  0.6528
  864MPD2    H512689   3.016   3.073  17.367  3.1604  0.7660 -0.6481
  864MPD2    N112690   2.894   2.510  17.408  0.3957 -0.0863  0.1135
  864MPD2    H712691   2.836   2.452  17.467  0.8984 -0.1912  0.4992
  865MPD2     C12692   2.813   3.373  16.482 -0.0479  0.2805  0.0591
  865MPD2    C112693   2.833   3.248  16.542 -1.0329 -0.2385 -0.8866
  865MPD2    C212694   2.854   3.245  16.680 -0.4632 -0.7381  0.1830
  865MPD2    C312695   2.840   3.362  16.748 -0.2345  0.6701  0.3113
  865MPD2    C412696   2.826   3.487  16.687  0.2164  0.5855  0.2688
  865MPD2    C512697   2.811   3.487  16.552  0.2411 -0.5799 -0.5817
  865MPD2     H12698   2.880   3.152  16.729 -1.9201  0.6919  3.6609
  865MPD2    H112699   2.830   3.582  16.738  1.7710  0.0308  1.1646
  865MPD2    H212700   2.800   3.375  16.374  2.6126  1.1216 -0.2567
  865MPD2    H312701   2.805   3.581  16.499 -2.1080  0.1336  0.9268
  865MPD2     N12702   2.872   3.370  16.884 -0.2896  0.2727  0.6113
  865MPD2    H512703   2.915   3.456  16.918  1.0236 -0.5206  0.9539
  865MPD2    N112704   2.851   3.134  16.460  0.2192  0.2827  0.6838
  865MPD2    H712705   2.844   3.159  16.362  0.1549  0.0137  0.6193
  866MPD2     C12706   4.047   4.239  11.700 -0.6415 -0.9322 -0.1366
  866MPD2    C112707   4.122   4.304  11.608 -0.1787  1.2778  0.1396
  866MPD2    C212708   4.063   4.398  11.524 -0.8700  0.1009  0.1269
  866MPD2    C312709   3.927   4.417  11.521  0.5708  0.2737  0.1722
  866MPD2    C412710   3.849   4.348  11.614 -0.0840 -0.3910 -0.6730
  866MPD2    C512711   3.915   4.255  11.691 -0.2035  0.2595 -0.7014
  866MPD2     H12712   4.119   4.460  11.456 -1.5164 -0.2061 -0.6894
  866MPD2    H112713   3.741   4.353  11.622  0.1954  0.9672  2.1020
  866MPD2    H212714   4.087   4.155  11.755 -0.1163 -0.3800  0.3267
  866MPD2    H312715   3.846   4.202  11.755  1.5226 -2.6877 -1.2957
  866MPD2     N12716   3.852   4.485  11.424  0.0498 -0.1077  0.5203
  866MPD2    H512717   3.752   4.467  11.433  0.1697  0.0064  2.1178
  866MPD2    N112718   4.260   4.280  11.598  0.0315 -0.1333  0.0766
  866MPD2    H712719   4.286   4.194  11.645  2.8985  0.4542 -0.3985
  867MPD2     C12720   1.856   2.997  16.695 -0.8898  0.0113  0.5038
  867MPD2    C112721   1.961   2.979  16.784 -0.4983 -0.6142  0.1705
  867MPD2    C212722   2.043   3.093  16.809 -0.3078  0.3652 -0.3146
  867MPD2    C312723   2.006   3.210  16.746  0.4941 -0.3975  0.2682
  867MPD2    C412724   1.903   3.221  16.662 -0.1987 -0.0994  0.2622
  867MPD2    C512725   1.829   3.114  16.634  0.1360  0.3124  0.2528
  867MPD2     H12726   2.127   3.095  16.877  0.7435  0.9382 -1.6382
  867MPD2    H112727   1.881   3.315  16.612 -3.2586 -0.4964  0.8729
  867MPD2    H212728   1.802   2.908  16.663 -1.7767  0.7473 -0.0244
  867MPD2    H312729   1.747   3.111  16.563  0.1166  0.1482  0.2818
  867MPD2     N12730   2.081   3.329  16.772  0.1957 -0.0430  0.2680
  867MPD2    H512731   2.061   3.405  16.709  1.4777 -0.7370 -0.9940
  867MPD2    N112732   1.985   2.849  16.835  0.2880 -0.1148  0.2513
  867MPD2    H712733   1.929   2.777  16.791 -0.5666 -0.2055  1.4933
  868MPD2     C12734   3.162   2.683  13.217 -0.4149  0.0782 -0.7707
  868MPD2    C112735   3.274   2.691  13.291 -0.3963  0.2521 -0.3644
  868MPD2    C212736   3.271   2.670  13.419 -0.3904  0.9983  0.0536
  868MPD2    C312737   3.157   2.624  13.481 -0.6189  0.3598 -0.4765
  868MPD2    C412738   3.042   2.611  13.404  0.3619 -0.4553  0.6138
  868MPD2    C512739   3.043   2.641  13.273  0.0504 -0.0662 -0.2193
  868MPD2     H12740   3.364   2.673  13.474  0.1010  1.6283 -0.8064
  868MPD2    H112741   2.943   2.584  13.442 -0.0889  2.2838  1.3457
  868MPD2    H212742   3.155   2.689  13.109 -0.2115  0.3651 -0.7669
  868MPD2    H312743   2.957   2.626  13.208 -0.1536  1.9429 -0.4342
  868MPD2     N12744   3.171   2.588  13.616  0.4149  0.0771 -0.0706
  868MPD2    H512745   3.259   2.611  13.662  0.1144  2.2183 -0.5658
  868MPD2    N112746   3.397   2.702  13.234 -0.7734  0.1097 -0.5257
  868MPD2    H712747   3.476   2.689  13.298 -1.5950  1.1193  0.7129
  869MPD2     C12748   0.064   3.984   1.822 -0.2150 -0.7161 -0.0017
  869MPD2    C112749   0.132   4.097   1.776  0.3188  0.2216  0.3151
  869MPD2    C212750   0.069   4.188   1.693 -0.0151 -0.2517  0.4318
  869MPD2    C312751   4.663   4.159   1.644  0.4415 -0.2999  0.2666
  869MPD2    C412752   4.597   4.045   1.695  0.6050  0.1883 -0.1707
  869MPD2    C512753   4.656   3.961   1.787 -0.0765 -0.6394 -0.4713
  869MPD2     H12754   0.124   4.269   1.647 -1.3358  0.7834  0.6955
  869MPD2    H112755   4.496   4.025   1.663  0.6121 -0.1942  0.0503
  869MPD2    H212756   0.114   3.914   1.888 -0.9725 -0.7205  0.5637
  869MPD2    H312757   4.601   3.871   1.810  1.8762 -0.8934  3.1996
  869MPD2     N12758   4.592   4.233   1.545  0.3185  0.2390 -0.5618
  869MPD2    H512759   4.511   4.186   1.507  1.5108 -2.1749 -0.1303
  869MPD2    N112760   0.268   4.113   1.825  1.2386 -0.2068 -0.2007
  869MPD2    H712761   0.304   4.031   1.874  2.1822  0.4013  0.1222
  870MPD2     C12762   4.536   2.715   1.837  0.0759 -0.1830 -0.4700
  870MPD2    C112763   4.619   2.795   1.760 -0.4703 -0.6537  0.5890
  870MPD2    C212764   4.576   2.922   1.728 -0.7811 -0.3268  0.2259
  870MPD2    C312765   4.459   2.975   1.772  0.1182  0.1583 -0.1379
  870MPD2    C412766   4.380   2.888   1.845  0.4134 -0.7999 -0.0888
  870MPD2    C512767   4.415   2.755   1.868  0.6165 -1.2681  0.1791
  870MPD2     H12768   4.644   2.991   1.681  0.1968  1.1008  3.7761
  870MPD2    H112769   4.282   2.919   1.880  0.9466 -0.4239  1.0955
  870MPD2    H212770   4.561   2.613   1.860  0.1619 -0.0772 -0.1046
  870MPD2    H312771   4.351   2.689   1.926 -1.9811  1.2678  0.2060
  870MPD2     N12772   4.418   3.109   1.724  0.0597  0.3806 -0.1913
  870MPD2    H512773   4.470   3.151   1.648 -0.4536  2.1215  0.4152
  870MPD2    N112774   0.029   2.745   1.729  1.1218  0.1876  0.8544
  870MPD2    H712775   0.045   2.650   1.761  0.5726 -0.8798 -2.1050
  871MPD2     C12776   0.286   3.071  16.477  0.2572 -0.4447 -0.4720
  871MPD2    C112777   0.385   3.042  16.569 -0.0608  0.0631 -0.0540
  871MPD2    C212778   0.455   2.927  16.557 -0.4012  0.2401 -0.0621
  871MPD2    C312779   0.426   2.834  16.458  0.4556 -0.1999  0.0880
  871MPD2    C412780   0.310   2.853  16.377 -0.0344 -0.3572 -0.4262
  871MPD2    C512781   0.245   2.975  16.390 -0.3216 -0.2514  0.1290
  871MPD2     H12782   0.537   2.906  16.624  0.7824  0.1540 -1.5239
  871MPD2    H112783   0.262   2.793  16.300 -1.9246  0.5501  0.0289
  871MPD2    H212784   0.235   3.166  16.462 -3.6108 -2.3662  0.3098
  871MPD2    H312785   0.157   2.987  16.327 -1.0883 -2.0790  0.8572
  871MPD2     N12786   0.507   2.724  16.448 -0.8763  0.4307  0.4705
  871MPD2    H512787   0.596   2.723  16.496 -0.1194 -0.3421 -0.9152
  871MPD2    N112788   0.421   3.142  16.671  0.6281 -0.8385  0.2905
  871MPD2    H712789   0.362   3.225  16.675 -0.7483 -1.8618  1.1458
  872MPD2     C12790   1.224   0.919  13.810  0.2759 -0.4266 -0.5827
  872MPD2    C112791   1.171   1.042  13.815  0.4195 -0.5246  0.1442
  872MPD2    C212792   1.057   1.068  13.895 -0.7187 -0.0482  0.0756
  872MPD2    C312793   1.021   0.972  13.987 -0.1249 -0.5035  0.6118
  872MPD2    C412794   1.091   0.856  14.008 -0.0652  0.0370 -0.4849
  872MPD2    C512795   1.189   0.834  13.909 -0.1217 -0.1809 -0.0572
  872MPD2     H12796   1.016   1.168  13.890 -2.7997 -0.9591 -1.2164
  872MPD2    H112797   1.068   0.782  14.084 -2.1071 -0.0758 -1.2191
  872MPD2    H212798   1.308   0.895  13.746  1.2883  1.0574  0.1866
  872MPD2    H312799   1.247   0.743  13.916 -0.2399 -0.3215 -0.9754
  872MPD2     N12800   0.918   0.996  14.076  0.6829  0.4031  0.1038
  872MPD2    H512801   0.912   0.941  14.162 -2.5555 -3.2174 -2.4448
  872MPD2    N112802   1.223   1.153  13.749  0.0242 -0.2488  0.4254
  872MPD2    H712803   1.184   1.244  13.773 -1.0980 -0.3916 -0.8108
  873MPD2     C12804   2.736   0.784   0.590  0.6473  0.5343 -0.5064
  873MPD2    C112805   2.806   0.710   0.687  0.6848  0.6363 -0.2287
  873MPD2    C212806   2.856   0.582   0.655  0.2864 -0.1448  0.5811
  873MPD2    C312807   2.819   0.516   0.541  0.1785 -0.4443  0.4796
  873MPD2    C412808   2.743   0.593   0.452 -0.5714 -0.0625 -0.1634
  873MPD2    C512809   2.714   0.721   0.472 -0.5727 -0.8167 -0.2295
  873MPD2     H12810   2.920   0.525   0.721 -2.5728 -1.7503  1.9741
  873MPD2    H112811   2.724   0.553   0.353 -2.4889  1.0680 -0.2430
  873MPD2    H212812   2.686   0.876   0.617 -0.5269  0.3650 -2.0801
  873MPD2    H312813   2.653   0.766   0.395 -0.2181  0.3590  0.1703
  873MPD2     N12814   2.841   0.380   0.506  0.2921 -0.1178 -0.6190
  873MPD2    H512815   2.805   0.365   0.412 -1.1423 -0.3917 -0.0255
  873MPD2    N112816   2.828   0.764   0.817  0.8382 -0.2658  0.5043
  873MPD2    H712817   2.788   0.857   0.818  2.8959  0.6339 -0.3925
  874MPD2     C12818   2.929   0.937  16.082  0.4076  0.7772  0.2931
  874MPD2    C112819   2.996   0.854  16.168 -0.5124  0.3636 -0.0187
  874MPD2    C212820   3.133   0.867  16.192 -0.4366  0.0260  0.2727
  874MPD2    C312821   3.205   0.981  16.154 -0.2468 -0.4205 -0.9861
  874MPD2    C412822   3.132   1.080  16.089  0.0812 -0.1155  0.2942
  874MPD2    C512823   2.999   1.053  16.044  0.0695  0.4930 -0.1285
  874MPD2     H12824   3.184   0.796  16.256 -0.2117 -0.9695 -1.0004
  874MPD2    H112825   3.186   1.171  16.068  1.7127 -1.1843 -0.1353
  874MPD2    H212826   2.830   0.915  16.046 -0.5678 -0.2870  3.6038
  874MPD2    H312827   2.946   1.127  15.985 -2.1991 -0.2048  1.0405
  874MPD2     N12828   3.337   0.998  16.184 -0.7269  0.1883 -0.1211
  874MPD2    H512829   3.376   1.092  16.184 -1.0320  0.3185 -0.0605
  874MPD2    N112830   2.922   0.753  16.241 -0.2207 -0.3763 -0.1390
  874MPD2    H712831   2.821   0.746  16.237 -0.0419 -1.9140 -2.3388
  875MPD2     C12832   4.186   4.131  14.861 -0.5963  0.4408  0.2656
  875MPD2    C112833   4.063   4.172  14.908  0.2516 -0.0340 -0.1802
  875MPD2    C212834   4.059   4.224  15.033 -0.5599 -0.2711 -0.3283
  875MPD2    C312835   4.179   4.245  15.111 -0.3478 -0.1443 -0.3165
  875MPD2    C412836   4.297   4.212  15.058  0.5638  0.2361 -0.0973
  875MPD2    C512837   4.297   4.152  14.936 -0.0947 -0.7650  0.5582
  875MPD2     H12838   3.965   4.254  15.078 -0.8541  2.7089 -2.9786
  875MPD2    H112839   4.386   4.218  15.120  1.4728  3.4014 -1.7271
  875MPD2    H212840   4.199   4.077  14.768  0.8415 -0.4408  0.9729
  875MPD2    H312841   4.382   4.096  14.901  0.4314  1.5519 -1.8588
  875MPD2     N12842   4.184   4.301  15.236 -0.4272 -0.2442 -0.0883
  875MPD2    H512843   4.279   4.314  15.269  0.2197 -2.8712 -0.9176
  875MPD2    N112844   3.943   4.140  14.844  0.0584 -0.0679 -0.0099
  875MPD2    H712845   3.854   4.150  14.891 -0.4352 -0.2587 -0.9033
  876MPD2     C12846   2.794   0.289  15.995  0.2734  0.1906 -0.3746
  876MPD2    C112847   2.918   0.334  16.033  0.0350 -0.4609  0.1419
  876MPD2    C212848   2.978   0.284  16.142  0.1385  0.2621 -0.3582
  876MPD2    C312849   2.916   0.181  16.213 -0.1526 -0.2672  0.2625
  876MPD2    C412850   2.794   0.127  16.182  0.1155 -0.8091 -0.2197
  876MPD2    C512851   2.733   0.186  16.067  0.5161 -0.6799 -0.2305
  876MPD2     H12852   3.070   0.325  16.183  0.1619 -0.2888  0.1512
  876MPD2    H112853   2.742   0.053  16.241  2.6171 -0.4251  2.4503
  876MPD2    H212854   2.737   0.330  15.913  0.8495 -1.2890 -1.5029
  876MPD2    H312855   2.637   0.149  16.033  0.9852 -0.9760 -1.2600
  876MPD2     N12856   2.999   0.124  16.323  0.1979 -0.2609  0.8923
  876MPD2    H512857   3.095   0.156  16.335  0.9242 -1.6163 -1.4242
  876MPD2    N112858   2.971   0.443  15.961 -0.1404 -0.2528  0.2189
  876MPD2    H712859   2.921   0.469  15.877  1.3312 -1.5398 -1.0437
  877MPD2     C12860   2.757   1.025  15.487 -0.7957  0.1550  0.3738
  877MPD2    C112861   2.892   1.026  15.500  0.1204  0.5183  0.0509
  877MPD2    C212862   2.957   1.079  15.390 -0.2636 -0.4520  0.3856
  877MPD2    C312863   2.889   1.127  15.274 -0.2359  0.5852  0.3554
  877MPD2    C412864   2.750   1.120  15.266  0.2884  0.2021  0.0284
  877MPD2    C512865   2.692   1.085  15.381  0.0238 -0.9022  0.0017
  877MPD2     H12866   3.064   1.065  15.384 -0.3642 -1.0396 -0.0020
  877MPD2    H112867   2.692   1.165  15.186 -0.6623  2.3778  1.9635
  877MPD2    H212868   2.695   1.005  15.574  0.9100  0.0466  1.5700
  877MPD2    H312869   2.584   1.091  15.379 -0.0411 -1.6868  1.4036
  877MPD2     N12870   2.960   1.176  15.160 -0.3535  0.0491  0.3608
  877MPD2    H512871   2.902   1.193  15.079 -0.9524 -0.5353  0.6643
  877MPD2    N112872   2.968   0.963  15.605 -0.1884  0.4079 -0.1009
  877MPD2    H712873   3.069   0.958  15.596 -0.3342 -1.2726 -0.7992
  878MPD2     C12874   3.177   0.377  13.189 -0.2567 -0.0421  0.2612
  878MPD2    C112875   3.163   0.514  13.169  0.2753 -0.2019 -0.1727
  878MPD2    C212876   3.212   0.589  13.272 -0.4374 -0.0897 -0.1933
  878MPD2    C312877   3.255   0.537  13.395 -0.2128  0.4694  0.2634
  878MPD2    C412878   3.270   0.406  13.407 -0.4473  0.0518 -0.0083
  878MPD2    C512879   3.231   0.328  13.304 -0.0036  0.1906  0.0478
  878MPD2     H12880   3.215   0.696  13.252 -0.2314 -0.2001 -0.7626
  878MPD2    H112881   3.315   0.359  13.494  0.4255  1.0850  0.1009
  878MPD2    H212882   3.144   0.304  13.116 -0.6799 -0.7789  1.1878
  878MPD2    H312883   3.240   0.220  13.316 -0.0358  0.0456 -1.2320
  878MPD2     N12884   3.288   0.615  13.506  0.1693  0.2851 -0.4795
  878MPD2    H512885   3.331   0.562  13.581 -2.4056 -0.7797  0.2105
  878MPD2    N112886   3.106   0.565  13.045  0.1056  0.4933 -0.6558
  878MPD2    H712887   3.071   0.496  12.979 -0.4355 -1.0410  1.2027
  879MPD2     C12888   3.101   1.766  16.900  0.2748  0.0815 -0.2977
  879MPD2    C112889   3.126   1.645  16.966  0.6755 -0.2407  0.4908
  879MPD2    C212890   3.067   1.525  16.933  0.5052  0.5311  0.1647
  879MPD2    C312891   2.985   1.520  16.829 -0.8274  0.2201 -0.4875
  879MPD2    C412892   2.954   1.630  16.769  0.7091  0.3366  0.3498
  879MPD2    C512893   3.004   1.748  16.803 -0.2454 -0.2337 -0.3965
  879MPD2     H12894   3.073   1.429  16.982 -1.7834 -1.2281 -3.0231
  879MPD2    H112895   2.880   1.628  16.689  2.1937  0.1362 -1.0200
  879MPD2    H212896   3.161   1.857  16.904  1.3232 -0.7159  2.2904
  879MPD2    H312897   2.969   1.835  16.748  1.1715 -0.5522 -1.7937
  879MPD2     N12898   2.934   1.401  16.784  0.0189 -0.1790 -0.3896
  879MPD2    H512899   2.885   1.407  16.695 -0.8461  2.0529  0.2579
  879MPD2    N112900   3.219   1.654  17.077  0.3953  0.3370 -0.2030
  879MPD2    H712901   3.262   1.744  17.092 -2.5714  2.0195 -1.7942
  880MPD2     C12902   4.500   2.752   0.359  0.3655 -0.4697 -1.2107
  880MPD2    C112903   4.509   2.789   0.489  0.0936 -0.2864 -0.0009
  880MPD2    C212904   4.543   2.679   0.576  0.4906 -0.3390 -0.0442
  880MPD2    C312905   4.583   2.550   0.523  0.5380 -0.7712  0.8181
  880MPD2    C412906   4.566   2.524   0.386  0.9168 -0.0142  0.4148
  880MPD2    C512907   4.527   2.631   0.309  0.5545 -0.7445  0.4264
  880MPD2     H12908   4.545   2.694   0.683  0.2999  0.7096 -0.1832
  880MPD2    H112909   4.564   2.423   0.346  0.9138 -0.1621  0.7914
  880MPD2    H212910   4.471   2.829   0.288  1.7840 -1.0447 -2.4305
  880MPD2    H312911   4.503   2.617   0.204  0.1007  1.8063  0.1749
  880MPD2     N12912   4.609   2.445   0.610  0.1318  0.8472 -0.6716
  880MPD2    H512913   4.607   2.473   0.707  1.5688  3.1229 -1.3071
  880MPD2    N112914   4.495   2.925   0.528  0.1882  0.5726  0.3407
  880MPD2    H712915   4.471   2.993   0.457 -2.4874 -0.5303  0.1766
  881MPD2     C12916   4.391   3.556  17.604  0.2424 -1.2492 -0.9364
  881MPD2    C112917   4.478   3.611   0.012 -0.1760  0.2179 -0.6626
  881MPD2    C212918   4.490   3.551   0.139 -0.2564  0.9690 -0.1276
  881MPD2    C312919   4.407   3.446   0.175  0.5223 -0.1463 -0.4208
  881MPD2    C412920   4.317   3.400   0.086 -0.6939 -0.2192 -0.8715
  881MPD2    C512921   4.307   3.457  17.648 -0.1452 -0.8215  0.4559
  881MPD2     H12922   4.570   3.580   0.206  0.4869 -3.4537  0.9282
  881MPD2    H112923   4.259   3.311   0.106 -2.0637  0.7952 -0.3669
  881MPD2    H212924   4.370   3.606  17.510  0.9533  1.5551  0.4279
  881MPD2    H312925   4.229   3.415  17.586  0.1226  0.7531 -0.9649
  881MPD2     N12926   4.410   3.383   0.306 -0.4584  0.3953  0.9891
  881MPD2    H512927   4.356   3.300   0.329  0.7961  0.3750  3.8681
  881MPD2    N112928   4.576   3.700  17.650  0.3400 -0.1039 -0.0793
  881MPD2    H712929   4.560   3.725  17.553  3.5440  1.4668 -0.2054
  882MPD2     C12930   2.916   1.094  14.362 -0.8193  0.3682  0.2811
  882MPD2    C112931   2.865   1.109  14.487 -0.5550  0.3739  0.2344
  882MPD2    C212932   2.733   1.088  14.518  0.4119  0.5612  0.6964
  882MPD2    C312933   2.650   1.034  14.418 -0.7512 -0.3543 -0.4869
  882MPD2    C412934   2.701   1.020  14.288  0.1248  0.2267 -0.0183
  882MPD2    C512935   2.830   1.058  14.264  0.2458  0.1481 -0.4926
  882MPD2     H12936   2.718   1.081  14.625  0.3584  0.2435  0.6683
  882MPD2    H112937   2.643   0.994  14.201  0.3629  1.6097 -0.5938
  882MPD2    H212938   3.019   1.120  14.339 -1.6399 -0.0508 -3.7734
  882MPD2    H312939   2.864   1.041  14.162 -1.6705  1.0935 -1.3055
  882MPD2     N12940   2.526   0.981  14.446  0.0829  0.0416  0.2678
  882MPD2    H512941   2.458   0.967  14.372 -1.5874  3.1450  1.2358
  882MPD2    N112942   2.958   1.141  14.587 -0.1334 -0.5794  0.6659
  882MPD2    H712943   3.055   1.140  14.557 -1.3953 -2.9617 -3.2577
  883MPD2     C12944   0.156   1.176  16.437 -0.0364  0.1958 -0.3193
  883MPD2    C112945   0.245   1.236  16.355 -0.0174  0.2457 -0.1554
  883MPD2    C212946   0.369   1.244  16.397 -0.1859  0.4632  0.5028
  883MPD2    C312947   0.410   1.181  16.514 -0.3197 -0.3724 -0.1262
  883MPD2    C412948   0.323   1.124  16.598 -0.1998  0.3511 -0.0395
  883MPD2    C512949   0.197   1.114  16.553 -0.0607  0.5649 -0.0609
  883MPD2     H12950   0.442   1.291  16.331  2.2831 -1.9643  1.5437
  883MPD2    H112951   0.357   1.079  16.690  2.1691  1.5230 -0.3487
  883MPD2    H212952   0.050   1.163  16.414 -0.7298  1.0681  2.3903
  883MPD2    H312953   0.122   1.058  16.609 -0.0065 -0.6098 -1.1741
  883MPD2     N12954   0.542   1.217  16.548  0.3625 -0.3820  0.0958
  883MPD2    H512955   0.586   1.275  16.477  2.4867 -0.3570  1.4112
  883MPD2    N112956   0.221   1.303  16.237 -0.1282  0.3995  0.4182
  883MPD2    H712957   0.303   1.345  16.193 -0.9772 -0.1050 -1.6723
  884MPD2     C12958   2.046   1.469  15.281  1.2532  0.2609  0.1978
  884MPD2    C112959   2.041   1.589  15.212 -0.1112 -0.3156  0.5804
  884MPD2    C212960   1.922   1.660  15.223 -0.0151 -0.4572 -0.0051
  884MPD2    C312961   1.821   1.620  15.306  0.2718 -0.5143 -0.2632
  884MPD2    C412962   1.830   1.503  15.379  0.4357 -0.1044  0.3859
  884MPD2    C512963   1.948   1.428  15.365 -0.0067  0.2997  0.4989
  884MPD2     H12964   1.912   1.753  15.167  0.2624 -2.0583 -2.7397
  884MPD2    H112965   1.753   1.470  15.448  1.2172 -2.6652  0.0418
  884MPD2    H212966   2.138   1.411  15.281  0.5672 -0.8191  0.9913
  884MPD2    H312967   1.970   1.342  15.427  1.6381  0.0476 -0.4632
  884MPD2     N12968   1.700   1.692  15.306  0.1138 -0.1577  0.4232
  884MPD2    H512969   1.625   1.640  15.351  1.7329 -1.4123  1.6696
  884MPD2    N112970   2.137   1.630  15.120 -0.2406 -0.4141  0.1450
  884MPD2    H712971   2.118   1.717  15.072 -1.3654 -0.6238  0.2143
  885MPD2     C12972   0.225   1.426   0.195  0.2757 -0.2426  0.6939
  885MPD2    C112973   0.333   1.510   0.199  0.2713  0.3074  0.0320
  885MPD2    C212974   0.361   1.591   0.092 -0.3996  0.9911  0.2609
  885MPD2    C312975   0.275   1.596  17.669  0.3923  0.1311 -0.3444
  885MPD2    C412976   0.161   1.516  17.674  0.0463 -0.2477 -0.4340
  885MPD2    C512977   0.133   1.435   0.098 -0.2464 -0.0041  0.6464
  885MPD2     H12978   0.453   1.648   0.097 -0.3046  0.8456  0.1660
  885MPD2    H112979   0.095   1.515  17.588 -1.1105 -0.8719  0.4566
  885MPD2    H212980   0.196   1.365   0.280 -1.8659  2.7463  2.0851
  885MPD2    H312981   0.041   1.378   0.110  0.5921 -2.0498 -2.6754
  885MPD2     N12982   0.300   1.687  17.563 -0.1625 -0.7665 -0.5149
  885MPD2    H512983   0.386   1.740  17.560  1.1622 -2.9874 -1.6601
  885MPD2    N112984   0.403   1.515   0.320  0.0298 -0.3561 -0.2000
  885MPD2    H712985   0.376   1.453   0.396  0.2281  0.6122  0.6519
  886MPD2     C12986   1.440   0.651  15.626 -0.0111  0.0624  0.5092
  886MPD2    C112987   1.510   0.563  15.546 -0.5363 -0.9174 -0.4642
  886MPD2    C212988   1.536   0.593  15.413  0.0094 -0.3118 -0.1592
  886MPD2    C312989   1.485   0.711  15.358  0.0835  0.5934  0.0512
  886MPD2    C412990   1.424   0.803  15.438  0.3562 -0.4201 -0.1285
  886MPD2    C512991   1.407   0.765  15.569 -0.1667 -0.1801  0.5134
  886MPD2     H12992   1.593   0.516  15.362 -0.1080 -0.6516  0.2108
  886MPD2    H112993   1.401   0.904  15.406  0.2717 -0.6789 -0.8672
  886MPD2    H212994   1.429   0.644  15.734  0.3229 -0.3671  0.5179
  886MPD2    H312995   1.362   0.839  15.635 -0.3678  2.9644 -3.1319
  886MPD2     N12996   1.500   0.739  15.219  0.5656  0.6578  0.7328
  886MPD2    H512997   1.475   0.831  15.184 -0.2467  0.2879  0.3433
  886MPD2    N112998   1.566   0.443  15.592  0.0654  0.3825  1.1154
  886MPD2    H712999   1.634   0.394  15.535 -0.3177  0.4472  0.6000
  887MPD2     C13000   2.213   0.338  15.572 -0.5630 -0.5651  0.3320
  887MPD2    C113001   2.106   0.413  15.620 -0.0124 -0.1370 -0.7131
  887MPD2    C213002   2.100   0.545  15.593  0.6528 -0.3057 -0.3949
  887MPD2    C313003   2.192   0.611  15.509  0.1236  0.0149  0.4818
  887MPD2    C413004   2.298   0.530  15.460  0.5064  0.2149 -0.7689
  887MPD2    C513005   2.301   0.399  15.492 -1.0519  0.0651 -0.0855
  887MPD2     H13006   2.024   0.611  15.632 -0.8418 -3.1495  1.4682
  887MPD2    H113007   2.378   0.582  15.409  0.1414  0.4930 -1.0534
  887MPD2    H213008   2.221   0.232  15.591 -1.3380 -0.5920  0.5387
  887MPD2    H313009   2.390   0.350  15.455 -1.2171 -0.8286  0.7038
  887MPD2     N13010   2.172   0.748  15.486 -0.6701 -0.1708 -0.3942
  887MPD2    H513011   2.089   0.788  15.529  0.8749  2.3757  0.2417
  887MPD2    N113012   2.011   0.357  15.700 -0.2256  0.1878 -0.3302
  887MPD2    H713013   1.953   0.431  15.737  1.8753 -0.1725  3.6549
  888MPD2     C13014   3.965   0.673  14.733  0.2321  0.4368 -0.2193
  888MPD2    C113015   3.957   0.715  14.863 -0.3966 -0.0959  0.1376
  888MPD2    C213016   4.028   0.822  14.912  0.1702 -0.3512 -0.0260
  888MPD2    C313017   4.090   0.906  14.822 -0.0529 -0.0225 -0.0138
  888MPD2    C413018   4.088   0.874  14.683  0.4694  0.0484  0.3236
  888MPD2    C513019   4.024   0.757  14.642  0.1237  0.0586 -0.2376
  888MPD2     H13020   4.036   0.847  15.017 -0.6490 -0.3914  0.0515
  888MPD2    H113021   4.135   0.942  14.613 -1.3599  1.4709  0.4873
  888MPD2    H213022   3.902   0.599  14.685  2.1451 -0.9123 -0.6503
  888MPD2    H313023   4.025   0.747  14.534 -2.0037  2.1997 -0.4498
  888MPD2     N13024   4.151   1.030  14.873 -0.2670  0.8048 -0.4012
  888MPD2    H513025   4.139   1.048  14.972 -0.6302  2.1890 -0.6962
  888MPD2    N113026   3.905   0.635  14.960 -0.1955 -0.3977 -0.0340
  888MPD2    H713027   3.925   0.661  15.056 -1.7970 -1.0069  0.4717
  889MPD2     C13028   3.326   4.658  13.017  0.0669 -0.5357  0.0222
  889MPD2    C113029   3.422   4.704  13.104 -0.2584  0.4531 -0.2994
  889MPD2    C213030   3.475   0.113  13.083 -0.3266  0.1669 -0.1268
  889MPD2    C313031   3.414   0.206  13.000 -0.1782 -0.3829 -0.4182
  889MPD2    C413032   3.306   0.162  12.928  0.1962  0.3787  0.2088
  889MPD2    C513033   3.254   0.030  12.944 -1.0267  0.5744  0.0225
  889MPD2     H13034   3.554   0.138  13.153  0.5349  1.3015 -1.4876
  889MPD2    H113035   3.250   0.212  12.850  0.0190 -1.0808 -0.6039
  889MPD2    H213036   3.276   4.563  13.032  0.9628 -1.3847 -2.4274
  889MPD2    H313037   3.158   4.719  12.905 -0.2269 -0.3704 -1.2126
  889MPD2     N13038   3.469   0.342  12.984  0.4479  0.0613 -0.0958
  889MPD2    H513039   3.554   0.361  13.036  0.0339 -0.1215  0.6540
  889MPD2    N113040   3.470   4.616  13.205  0.0484 -0.0783 -0.8602
  889MPD2    H713041   3.560   4.639  13.247 -2.1080  1.7750  2.7612
  890MPD2     C13042   2.976   1.673  14.798  0.0277 -0.6663 -0.1251
  890MPD2    C113043   3.101   1.709  14.844 -0.7866  0.8164 -0.4445
  890MPD2    C213044   3.138   1.670  14.972  0.2809  0.6707 -0.2375
  890MPD2    C313045   3.052   1.592  15.052  0.1989 -0.3670  0.5294
  890MPD2    C413046   2.926   1.562  15.002 -0.1789  0.1733 -0.4130
  890MPD2    C513047   2.891   1.599  14.872  0.8813  0.0963 -0.1896
  890MPD2     H13048   3.239   1.692  15.005 -0.8646  2.1802  2.2707
  890MPD2    H113049   2.872   1.491  15.064 -0.8676  0.8597 -0.2300
  890MPD2    H213050   2.940   1.702  14.701  1.5626 -0.0770 -0.5228
  890MPD2    H313051   2.798   1.567  14.825 -0.5328  1.2382  1.8488
  890MPD2     N13052   3.106   1.550  15.177  0.0173 -0.2808 -0.2071
  890MPD2    H513053   3.202   1.581  15.188  0.2515 -1.2696  0.5475
  890MPD2    N113054   3.185   1.781  14.750 -0.1854 -0.2826 -0.3234
  890MPD2    H713055   3.139   1.815  14.666  0.1620  0.5353 -0.1856
  891MPD2     C13056   0.825   4.293  16.897 -0.0526 -0.5497  0.5828
  891MPD2    C113057   0.798   4.423  16.942  0.6055  0.4479 -0.1672
  891MPD2    C213058   0.887   4.468  17.038  0.8632 -0.1850 -0.3390
  891MPD2    C313059   0.997   4.396  17.079 -0.4370  0.2892 -0.1601
  891MPD2    C413060   1.025   4.272  17.019 -0.2768  0.5488 -0.5275
  891MPD2    C513061   0.940   4.228  16.929  0.1859  0.1220 -0.5112
  891MPD2     H13062   0.880   4.571  17.071 -0.9028 -0.5890  0.5898
  891MPD2    H113063   1.106   4.208  17.049 -0.6487  0.3526  0.0611
  891MPD2    H213064   0.752   4.243  16.834 -1.1559  1.4012  0.2913
  891MPD2    H313065   0.948   4.127  16.891 -2.6531 -0.1346 -0.4884
  891MPD2     N13066   1.075   4.454  17.187 -0.3877  0.2460 -0.0874
  891MPD2    H513067   1.045   4.547  17.216 -1.1412 -0.6812  2.0745
  891MPD2    N113068   0.693   4.495  16.886  0.3812  0.6528 -0.3332
  891MPD2    H713069   0.653   4.450  16.805  1.2221 -1.0771  0.2154
  892MPD2     C13070   2.002   1.606  14.766 -0.1955 -0.1320 -0.7308
  892MPD2    C113071   1.923   1.501  14.813 -0.1089 -0.2556 -0.0476
  892MPD2    C213072   1.945   1.368  14.772 -0.2835  0.0758 -0.2265
  892MPD2    C313073   2.060   1.339  14.699  0.1698  0.8716  0.1305
  892MPD2    C413074   2.137   1.445  14.653 -0.6733 -0.1645 -0.2845
  892MPD2    C513075   2.114   1.576  14.691  0.0554 -0.4989 -0.0829
  892MPD2     H13076   1.876   1.288  14.798  0.2315  0.4521  2.3137
  892MPD2    H113077   2.238   1.437  14.615  0.0535  2.1403  1.1706
  892MPD2    H213078   1.987   1.707  14.803 -3.4750 -0.4036 -1.3308
  892MPD2    H313079   2.196   1.645  14.674 -1.6025  0.7434 -3.0351
  892MPD2     N13080   2.107   1.205  14.671 -0.3989  0.3981  0.1395
  892MPD2    H513081   2.201   1.204  14.635 -1.4459  0.4695 -2.5809
  892MPD2    N113082   1.811   1.535  14.880 -0.6178  0.1066  0.6413
  892MPD2    H713083   1.777   1.631  14.877  0.6654  0.4349 -2.4318
  893MPD2     C13084   0.528   2.827   1.943  0.2088  0.6575 -0.5119
  893MPD2    C113085   0.386   2.830   1.969  1.0664  0.6557  0.2617
  893MPD2    C213086   0.319   2.711   1.968  0.5197  0.1201  0.3751
  893MPD2    C313087   0.378   2.590   1.939  0.3585 -0.0007 -0.5224
  893MPD2    C413088   0.514   2.591   1.906  1.1652  0.1880 -0.4331
  893MPD2    C513089   0.587   2.705   1.918  0.4120  0.5361 -0.1751
  893MPD2     H13090   0.212   2.717   1.986  0.4418  0.1557 -0.0936
  893MPD2    H113091   0.552   2.492   1.881  0.1638 -0.3775  0.2656
  893MPD2    H213092   0.594   2.913   1.938  0.5444  0.4108 -0.2900
  893MPD2    H313093   0.693   2.694   1.899  0.4138  1.1891 -0.5329
  893MPD2     N13094   0.314   2.465   1.942 -0.2023  0.1857  0.1242
  893MPD2    H513095   0.369   2.380   1.935  1.7763  1.2088  3.3877
  893MPD2    N113096   0.329   2.957   1.976 -0.2900 -0.1945  0.0892
  893MPD2    H713097   0.390   3.038   1.973 -0.8540  0.2360  0.1595
  894MPD2     C13098   2.157   1.908   0.883 -0.4813  0.3666  0.3452
  894MPD2    C113099   2.245   1.911   0.994 -0.6667  0.5385  0.2471
  894MPD2    C213100   2.332   2.017   0.993 -0.5991  0.7815  0.2286
  894MPD2    C313101   2.329   2.118   0.893 -0.2582  0.1787 -0.0218
  894MPD2    C413102   2.230   2.121   0.797  0.4934  0.4121  0.3341
  894MPD2    C513103   2.148   2.013   0.800 -0.2328 -0.1359 -0.1682
  894MPD2     H13104   2.398   2.014   1.079 -0.8607  0.9747  0.4364
  894MPD2    H113105   2.212   2.206   0.733  2.2712  0.8030  0.3663
  894MPD2    H213106   2.078   1.834   0.874  2.3232 -2.0094 -4.6042
  894MPD2    H313107   2.063   2.010   0.732 -1.9999 -2.2091  2.1040
  894MPD2     N13108   2.421   2.218   0.923 -0.3153 -0.1744  0.9139
  894MPD2    H513109   2.486   2.204   0.999 -1.0987 -1.4198  1.3483
  894MPD2    N113110   2.229   1.833   1.110 -0.1686 -0.7993  0.0707
  894MPD2    H713111   2.282   1.855   1.193  0.2954  3.3829 -1.3196
  895MPD2     C13112   1.089   0.485  13.865  0.0766 -0.2365  0.0359
  895MPD2    C113113   1.028   0.541  13.756 -0.4397 -0.1436 -0.0946
  895MPD2    C213114   1.084   0.539  13.627  0.1878  0.1815 -0.5675
  895MPD2    C313115   1.208   0.482  13.618 -0.4027  0.9696  0.5986
  895MPD2    C413116   1.267   0.424  13.731 -0.4378 -0.1330 -0.9129
  895MPD2    C513117   1.210   0.422  13.853 -0.1151  0.0622 -0.1378
  895MPD2     H13118   1.037   0.607  13.556 -2.0432  1.3161  1.9525
  895MPD2    H113119   1.369   0.388  13.726 -0.7496 -0.8617 -2.0073
  895MPD2    H213120   1.050   0.494  13.966 -0.0868  0.8586 -0.1263
  895MPD2    H313121   1.271   0.389  13.936  0.7295 -0.9733 -1.1603
  895MPD2     N13122   1.288   0.488  13.502 -0.7629  0.1735 -0.6549
  895MPD2    H513123   1.377   0.440  13.499 -1.7923 -1.6594 -2.2666
  895MPD2    N113124   0.917   0.620  13.759 -0.4249 -0.2642  0.2652
  895MPD2    H713125   0.882   0.656  13.671  1.7481  0.6836 -0.2006
  896MPD2     C13126   4.127   1.580   1.384 -0.4075 -0.0360  0.2705
  896MPD2    C113127   4.081   1.687   1.325  0.5057 -0.7798  0.4398
  896MPD2    C213128   3.946   1.711   1.317  0.5482  0.2765 -0.1521
  896MPD2    C313129   3.864   1.618   1.368  0.1961 -1.0760  0.0017
  896MPD2    C413130   3.907   1.499   1.428 -0.1806  0.3589 -0.0279
  896MPD2    C513131   4.041   1.482   1.427  0.3643  0.1279 -0.1445
  896MPD2     H13132   3.905   1.801   1.271 -0.4295 -0.6812 -1.1550
  896MPD2    H113133   3.839   1.428   1.472  1.7106  0.5350  3.1820
  896MPD2    H213134   4.232   1.563   1.406 -0.6050 -0.8299  0.5889
  896MPD2    H313135   4.084   1.396   1.476 -2.9606 -1.5380 -0.1546
  896MPD2     N13136   3.729   1.637   1.341  0.3136  0.5352  0.5641
  896MPD2    H513137   3.710   1.719   1.285  0.0291 -0.1991 -0.4219
  896MPD2    N113138   4.174   1.778   1.267  0.2617 -0.0239 -0.1343
  896MPD2    H713139   4.270   1.769   1.299 -0.0872  0.7325  1.1296
  897MPD2     C13140   4.471   4.551  10.626  0.4196  0.0644 -0.0452
  897MPD2    C113141   4.411   4.655  10.556 -0.4772 -0.5526  0.6158
  897MPD2    C213142   4.323   0.021  10.617 -0.2193  0.1416  0.4345
  897MPD2    C313143   4.262   4.702  10.737 -0.5511 -0.2566 -0.0076
  897MPD2    C413144   4.314   4.594  10.806 -0.3174 -0.4291 -0.1773
  897MPD2    C513145   4.420   4.516  10.753 -0.5274 -0.1770 -0.9346
  897MPD2     H13146   4.288   0.100  10.553 -0.9448 -0.6782 -0.1884
  897MPD2    H113147   4.284   4.562  10.905 -1.9697 -1.2110 -0.9278
  897MPD2    H213148   4.552   4.487  10.592  1.0554  1.7955 -1.7530
  897MPD2    H313149   4.459   4.437  10.815  1.3101  1.3625 -0.1240
  897MPD2     N13150   4.153   0.061  10.780 -0.2562  0.1380 -0.1735
  897MPD2    H513151   4.122   0.137  10.720  1.6663  1.2115  0.1726
  897MPD2    N113152   4.450   4.680  10.424 -0.2343 -0.2092 -0.0431
  897MPD2    H713153   4.422   0.048  10.383  0.4861  0.0593  0.0422
  898MPD2     C13154   1.792   0.214  17.133 -0.7125 -0.3341 -0.6303
  898MPD2    C113155   1.861   0.336  17.125 -0.7363 -0.2982 -0.3183
  898MPD2    C213156   1.820   0.431  17.030 -0.9104  0.6096 -0.0882
  898MPD2    C313157   1.712   0.410  16.949 -0.3094  0.4320 -0.8383
  898MPD2    C413158   1.642   0.289  16.955 -0.4651 -0.1110  0.0001
  898MPD2    C513159   1.691   0.194  17.037  0.2812  0.7199 -0.2109
  898MPD2     H13160   1.866   0.529  17.024 -1.0622  0.5660 -2.1265
  898MPD2    H113161   1.549   0.269  16.904 -0.4898  1.8574 -0.7283
  898MPD2    H213162   1.815   0.133  17.202  1.3159 -0.9218 -1.9921
  898MPD2    H313163   1.627   0.108  17.054 -0.2793  1.3223  0.6687
  898MPD2     N13164   1.667   0.521  16.868  1.0290 -0.4706  0.2008
  898MPD2    H513165   1.717   0.609  16.865  1.4585 -0.7383 -0.2727
  898MPD2    N113166   1.967   0.359  17.208  0.4324  0.1731  0.2780
  898MPD2    H713167   2.024   0.439  17.182 -2.5593  2.1166 -0.1962
  899MPD2     C13168   2.954   1.076  17.276 -0.5939 -0.4715 -0.0273
  899MPD2    C113169   2.836   1.136  17.281  0.6141 -1.4298 -0.5055
  899MPD2    C213170   2.750   1.101  17.388  0.0127 -0.7327 -0.1132
  899MPD2    C313171   2.794   1.002  17.477 -0.4874  0.7219 -0.2046
  899MPD2    C413172   2.915   0.939  17.460 -0.2713  0.2825  0.3609
  899MPD2    C513173   2.998   0.979  17.363 -0.2211 -0.5427  0.1954
  899MPD2     H13174   2.656   1.152  17.402 -0.0524 -1.4438  1.9935
  899MPD2    H113175   2.945   0.865  17.533 -1.0144  1.5436  1.9412
  899MPD2    H213176   3.024   1.102  17.197  0.5761 -1.8349  0.5585
  899MPD2    H313177   3.099   0.939  17.366 -1.3253 -3.4277 -1.2396
  899MPD2     N13178   2.710   0.951  17.585  0.4043 -0.0672  0.0232
  899MPD2    H513179   2.734   0.857  17.618  0.9382  0.5900  1.5074
  899MPD2    N113180   2.808   1.237  17.184  0.3065  0.4025 -0.2197
  899MPD2    H713181   2.888   1.261  17.126  0.3563 -0.7458 -0.6257
  900MPD2     C13182   2.397   3.436  12.607  0.6675 -0.0182  0.1648
  900MPD2    C113183   2.315   3.328  12.603 -0.3737 -1.1912  0.3374
  900MPD2    C213184   2.182   3.336  12.567  0.1736 -0.9273  0.3239
  900MPD2    C313185   2.133   3.461  12.523 -0.1224  0.1061  0.2159
  900MPD2    C413186   2.215   3.570  12.542 -0.4632  0.2781 -0.4422
  900MPD2    C513187   2.344   3.560  12.584 -0.1142  1.5937 -0.1950
  900MPD2     H13188   2.116   3.250  12.561 -0.0694 -0.6545 -0.9272
  900MPD2    H113189   2.183   3.671  12.519 -1.1253  0.0912 -0.3454
  900MPD2    H213190   2.493   3.428  12.658 -0.4868 -1.8787  2.0579
  900MPD2    H313191   2.404   3.648  12.605 -0.7768  1.9733  0.1175
  900MPD2     N13192   1.995   3.463  12.479  0.6553 -0.0584 -0.5393
  900MPD2    H513193   1.955   3.371  12.468  0.6336 -0.3794  2.2401
  900MPD2    N113194   2.379   3.211  12.632 -0.3469  0.0571 -0.1169
  900MPD2    H713195   2.477   3.205  12.658 -0.2977  1.0616 -0.0383
  901MPD2     C13196   2.438   2.242  13.105 -0.9413  0.1674  0.2999
  901MPD2    C113197   2.503   2.225  12.990  0.5253 -0.1729 -0.6054
  901MPD2    C213198   2.525   2.335  12.907 -0.5796 -0.5972 -1.0486
  901MPD2    C313199   2.464   2.454  12.929 -1.1585 -0.2006 -0.2522
  901MPD2    C413200   2.383   2.456  13.034 -0.1015 -0.1634  0.9201
  901MPD2    C513201   2.379   2.362  13.128  1.0938 -0.7341  0.4380
  901MPD2     H13202   2.588   2.329  12.819 -1.5429 -0.6789 -1.7343
  901MPD2    H113203   2.325   2.543  13.063 -0.4942 -0.3469  0.6907
  901MPD2    H213204   2.434   2.161  13.177  2.3552 -0.2555  0.0282
  901MPD2    H313205   2.328   2.372  13.223  1.5688 -0.5274  0.6728
  901MPD2     N13206   2.480   2.564  12.837  0.3707 -0.6058 -0.3113
  901MPD2    H513207   2.542   2.557  12.757  0.5366 -0.6222 -0.1820
  901MPD2    N113208   2.559   2.097  12.959 -0.5486 -0.2504 -0.3874
  901MPD2    H713209   2.563   2.023  13.028 -0.3543  1.7719  1.7550
  902MPD2     C13210   1.175   0.779  12.663 -0.3881 -0.4623 -0.4163
  902MPD2    C113211   1.249   0.894  12.664  0.1421  0.5646 -0.1649
  902MPD2    C213212   1.361   0.907  12.585 -0.0001  0.1504 -0.6652
  902MPD2    C313213   1.391   0.796  12.497 -0.3407 -0.1737  0.3968
  902MPD2    C413214   1.318   0.680  12.505 -0.4639  0.7780  0.2232
  902MPD2    C513215   1.208   0.675  12.589 -0.8184  0.9823 -0.3322
  902MPD2     H13216   1.434   0.987  12.596  1.1566 -1.1354  1.0659
  902MPD2    H113217   1.352   0.594  12.448  1.8034  1.0516  1.1418
  902MPD2    H213218   1.086   0.780  12.725  0.3232 -2.0920  0.6170
  902MPD2    H313219   1.153   0.583  12.606 -0.3758  0.7427 -0.1872
  902MPD2     N13220   1.482   0.819  12.389  0.0052 -0.6626 -0.7633
  902MPD2    H513221   1.498   0.741  12.326  3.4930 -0.4123 -0.1892
  902MPD2    N113222   1.206   0.993  12.755  0.0613  0.0377 -0.0269
  902MPD2    H713223   1.118   0.977  12.803 -1.1637  3.5007 -1.0940
  903MPD2     C13224   1.387   1.192  11.716 -0.2639  0.7669 -0.4973
  903MPD2    C113225   1.366   1.103  11.821 -0.2470  0.0513  1.0206
  903MPD2    C213226   1.237   1.059  11.834 -0.1600 -0.0170 -0.4556
  903MPD2    C313227   1.140   1.082  11.744  0.4708 -0.0044  0.5792
  903MPD2    C413228   1.175   1.151  11.626 -0.4768  0.8212 -0.5689
  903MPD2    C513229   1.295   1.218  11.624 -0.0711  0.5275  0.1211
  903MPD2     H13230   1.211   0.989  11.913 -0.4147  1.8342  1.0777
  903MPD2    H113231   1.110   1.160  11.540  1.8966 -0.3598 -2.4724
  903MPD2    H213232   1.483   1.234  11.687 -0.6740  0.8205 -1.8039
  903MPD2    H313233   1.318   1.291  11.547 -0.0737  0.8240  0.4039
  903MPD2     N13234   1.017   1.025  11.772 -0.1086  0.5536 -0.3004
  903MPD2    H513235   1.002   0.988  11.866  1.9611 -0.6625 -0.4270
  903MPD2    N113236   1.458   1.060  11.915  0.2623 -0.3031 -0.2855
  903MPD2    H713237   1.425   0.995  11.985 -0.0489  1.3754  1.1214
  904MPD2     C13238   1.191   0.118  13.488  0.6912 -0.3395  0.2323
  904MPD2    C113239   1.125   0.115  13.609 -0.1744 -0.7376  0.5489
  904MPD2    C213240   1.197   0.076  13.713 -0.0202  0.3966  0.1956
  904MPD2    C313241   1.327   0.026  13.704  0.7650 -0.1159 -0.0918
  904MPD2    C413242   1.388   0.025  13.582 -0.4552 -0.2171  0.6662
  904MPD2    C513243   1.313   0.059  13.470 -0.0549 -0.0003 -0.0619
  904MPD2     H13244   1.161   0.098  13.813  0.6823  1.1861  0.2712
  904MPD2    H113245   1.482   4.695  13.564 -0.6581 -1.1987  2.2552
  904MPD2    H213246   1.153   0.154  13.393  2.7512  4.1446  1.0871
  904MPD2    H313247   1.350   0.052  13.368  1.0411 -1.5730  0.4509
  904MPD2     N13248   1.395   4.698  13.822  1.1200 -0.2671 -0.3323
  904MPD2    H513249   1.334   4.682  13.902 -0.2757  1.9164 -0.9782
  904MPD2    N113250   0.998   0.176  13.630 -0.2689 -0.5612  0.5052
  904MPD2    H713251   0.969   0.168  13.727  0.6362  0.2136  0.8405
  905MPD2     C13252   0.617   0.587  13.123  0.0587  0.6087 -0.1908
  905MPD2    C113253   0.687   0.603  13.240 -1.4192 -0.6185  0.3361
  905MPD2    C213254   0.827   0.617  13.226  0.7352 -0.7040  0.0481
  905MPD2    C313255   0.893   0.611  13.104 -0.4492  0.3709 -0.0575
  905MPD2    C413256   0.815   0.591  12.989  0.4505 -0.0813 -0.2755
  905MPD2    C513257   0.682   0.584  13.000  0.0005  0.6894 -0.0548
  905MPD2     H13258   0.888   0.627  13.315 -1.3364  0.4091  1.3404
  905MPD2    H113259   0.869   0.597  12.895  0.1728  1.3929 -0.3350
  905MPD2    H213260   0.509   0.593  13.123 -0.0527 -1.3219  0.3978
  905MPD2    H313261   0.624   0.569  12.911  0.7222  1.6035 -0.6749
  905MPD2     N13262   1.037   0.627  13.097  0.4494  0.2098  0.8308
  905MPD2    H513263   1.085   0.650  13.184  1.4776 -0.3822  0.4239
  905MPD2    N113264   0.614   0.578  13.356  0.5046  0.5823  0.5576
  905MPD2    H713265   0.525   0.533  13.337  0.5252  0.6627  0.2697
  906MPD2     C13266   2.900   0.321  11.366  0.0712  0.7448  0.0830
  906MPD2    C113267   2.850   0.218  11.281 -0.3520 -0.6041 -0.6524
  906MPD2    C213268   2.759   0.129  11.329  0.0268  0.1474 -0.6806
  906MPD2    C313269   2.712   0.145  11.458 -0.2398  0.2816  0.5983
  906MPD2    C413270   2.745   0.254  11.538 -0.1744 -0.0148  0.3433
  906MPD2    C513271   2.830   0.343  11.481 -0.2515 -0.8663  0.9440
  906MPD2     H13272   2.717   0.053  11.264 -2.1471  2.0649 -1.5128
  906MPD2    H113273   2.691   0.271  11.631 -1.3501  2.5349 -0.7924
  906MPD2    H213274   2.981   0.387  11.339  2.1748 -1.5747  0.7415
  906MPD2    H313275   2.858   0.438  11.527 -1.4512  0.2775 -0.6924
  906MPD2     N13276   2.641   0.036  11.504 -0.1661 -0.0046 -0.2131
  906MPD2    H513277   2.618   4.675  11.447 -1.5599 -0.3160  0.7856
  906MPD2    N113278   2.883   0.208  11.143 -0.1969  0.4160  0.1959
  906MPD2    H713279   2.844   0.127  11.095 -0.7927  0.5978  0.3711
  907MPD2     C13280   1.931   3.771  15.697 -0.3643 -0.7774  0.5691
  907MPD2    C113281   2.039   3.688  15.662 -0.2739 -0.6896 -0.4875
  907MPD2    C213282   2.158   3.701  15.728 -0.1074 -0.2779 -0.0504
  907MPD2    C313283   2.155   3.775  15.844  0.2864 -0.3893 -0.0181
  907MPD2    C413284   2.048   3.854  15.881  0.2937 -0.2365 -0.6426
  907MPD2    C513285   1.933   3.858  15.806  0.4736 -1.0176  0.0312
  907MPD2     H13286   2.237   3.631  15.704 -0.7583  0.1105 -3.3156
  907MPD2    H113287   2.056   3.922  15.965  0.7457  1.2203 -1.8597
  907MPD2    H213288   1.836   3.771  15.645 -1.3968  1.1706  2.4416
  907MPD2    H313289   1.849   3.918  15.838  1.2646 -0.7463  1.5883
  907MPD2     N13290   2.263   3.775  15.935  0.8002  0.2065  0.2369
  907MPD2    H513291   2.252   3.836  16.015 -2.9636 -1.5214  1.0122
  907MPD2    N113292   2.031   3.592  15.557  0.1169 -0.2883  0.5967
  907MPD2    H713293   2.097   3.514  15.558  0.9888  0.4520  2.6757
  908MPD2     C13294   4.139   4.274   9.592  0.4712 -0.2952  0.2399
  908MPD2    C113295   4.231   4.198   9.667 -0.1656  0.1105  0.3489
  908MPD2    C213296   4.320   4.265   9.747  0.0777 -0.2949 -0.3700
  908MPD2    C313297   4.311   4.406   9.763 -0.0238  0.8202  0.2416
  908MPD2    C413298   4.219   4.474   9.686  0.4767 -0.2344  0.2669
  908MPD2    C513299   4.132   4.412   9.607  0.0474  0.3071  0.1072
  908MPD2     H13300   4.393   4.207   9.803 -0.1756 -1.6355 -1.4566
  908MPD2    H113301   4.215   4.581   9.671 -0.2153  0.1021  2.8833
  908MPD2    H213302   4.065   4.227   9.528 -0.0824  0.1956  0.5181
  908MPD2    H313303   4.069   4.468   9.539  2.8802  2.3369 -0.8686
  908MPD2     N13304   4.393   4.474   9.857  0.1857  0.5086 -0.1567
  908MPD2    H513305   4.463   4.421   9.908  0.9719  0.9242 -0.8065
  908MPD2    N113306   4.231   4.054   9.656  0.3389 -0.1269  0.5671
  908MPD2    H713307   4.153   4.023   9.599  2.3148 -2.6482 -0.7728
  909MPD2     C13308   4.579   2.506  11.962  0.4192 -0.0232  0.3545
  909MPD2    C113309   4.610   2.624  11.897  0.0019  0.2651  0.3231
  909MPD2    C213310   4.571   2.743  11.949  0.4406  0.3398 -0.0766
  909MPD2    C313311   4.489   2.756  12.061 -0.2237  0.3154 -0.0007
  909MPD2    C413312   4.460   2.636  12.128 -0.9488 -0.0361  0.3409
  909MPD2    C513313   4.500   2.518  12.072  0.3591 -0.7433 -0.1570
  909MPD2     H13314   4.619   2.820  11.890  0.6006 -0.4421 -0.9549
  909MPD2    H113315   4.409   2.630  12.224  0.7986  0.7099  1.3311
  909MPD2    H213316   4.603   2.409  11.921 -1.1814  0.0104 -0.6753
  909MPD2    H313317   4.479   2.428  12.128  0.0305  0.1029  1.0758
  909MPD2     N13318   4.453   2.889  12.090 -0.3570  0.0085 -0.2821
  909MPD2    H513319   4.485   2.963  12.028  0.1300  0.2795  0.2895
  909MPD2    N113320   4.680   2.627  11.769 -0.9013  0.4622  0.5534
  909MPD2    H713321   4.690   2.714  11.719  1.0011  0.9849  1.8612
  910MPD2     C13322   1.067   4.194  16.100 -0.1898 -0.2768 -0.0931
  910MPD2    C113323   1.177   4.204  16.024 -0.3815  0.3920  0.2252
  910MPD2    C213324   1.173   4.281  15.906 -0.3623  0.3680 -0.2708
  910MPD2    C313325   1.050   4.341  15.862  0.1804 -0.2535  0.2339
  910MPD2    C413326   0.939   4.323  15.944 -0.0025 -0.0663 -0.4220
  910MPD2    C513327   0.946   4.251  16.060 -0.2021  0.9180  0.2200
  910MPD2     H13328   1.260   4.285  15.842 -1.6889  0.7267 -2.0897
  910MPD2    H113329   0.847   4.372  15.913  0.1211 -0.2056 -1.0105
  910MPD2    H213330   1.067   4.146  16.198 -2.0597 -0.8452 -0.3641
  910MPD2    H313331   0.852   4.247  16.115 -1.1250 -0.0850 -1.4353
  910MPD2     N13332   1.033   4.404  15.736 -0.8968 -0.1353  0.2949
  910MPD2    H513333   0.941   4.442  15.715 -0.3812  0.4855 -0.8263
  910MPD2    N113334   1.293   4.129  16.040 -0.2855  0.1350  0.2549
  910MPD2    H713335   1.371   4.149  15.978 -1.0067  0.0032 -0.6954
  911MPD2     C13336   3.974   4.541  16.190 -0.1475  0.0715 -0.0880
  911MPD2    C113337   3.993   4.600  16.313 -0.0500  0.3470 -0.6328
  911MPD2    C213338   3.928   0.003  16.338 -0.0277  0.5659 -0.0505
  911MPD2    C313339   3.843   0.060  16.242 -0.2553  0.5897 -0.1192
  911MPD2    C413340   3.828   4.718  16.117  0.2917  0.3057  0.5762
  911MPD2    C513341   3.892   4.598  16.091 -1.0967 -0.5290  0.4462
  911MPD2     H13342   3.923   0.044  16.438 -0.9012 -0.7856  0.4472
  911MPD2    H113343   3.767   0.043  16.039  3.4448  4.1753  0.3746
  911MPD2    H213344   4.038   4.462  16.151  2.6406  2.1820  0.2575
  911MPD2    H313345   3.861   4.542  16.004  0.3549  3.1399 -2.3785
  911MPD2     N13346   3.760   0.173  16.256  0.3651  0.7325 -0.0594
  911MPD2    H513347   3.699   0.189  16.176  0.2924  0.8927  0.0300
  911MPD2    N113348   4.079   4.538  16.405 -0.4459 -0.5536 -0.1337
  911MPD2    H713349   4.106   4.442  16.384  1.3571 -0.2746  0.9127
  912MPD2     C13350   3.486   0.042  15.817  0.1943 -0.3529  0.1200
  912MPD2    C113351   3.470   0.051  15.952  0.6220 -0.1263  0.1610
  912MPD2    C213352   3.493   4.652  16.021 -0.6906 -0.3958 -0.5041
  912MPD2    C313353   3.521   4.534  15.957 -0.0753 -0.0303  0.8398
  912MPD2    C413354   3.532   4.524  15.822 -1.0622  0.2238  0.4096
  912MPD2    C513355   3.515   4.643  15.756  0.3908 -0.3661  0.1417
  912MPD2     H13356   3.486   4.655  16.129 -2.2265  2.1813 -0.6611
  912MPD2    H113357   3.572   4.439  15.769  1.7267  0.3699  2.2834
  912MPD2    H213358   3.482   0.130  15.754  1.5118  0.3705  1.0411
  912MPD2    H313359   3.531   4.638  15.648 -1.5289 -1.4093 -0.0993
  912MPD2     N13360   3.534   4.423  16.040 -1.0369  0.9402 -0.5021
  912MPD2    H513361   3.529   4.444  16.140 -0.3009  1.1583 -0.5135
  912MPD2    N113362   3.446   0.177  16.012 -0.3123 -0.4598  0.0100
  912MPD2    H713363   3.450   0.260  15.953 -1.1887 -0.0810  0.4855
  913MPD2     C13364   3.728   1.175  10.029  0.0586 -0.0616  0.1532
  913MPD2    C113365   3.850   1.219  10.073 -0.4399 -0.3314  0.2828
  913MPD2    C213366   3.891   1.353  10.053 -0.3267  0.0521  0.4522
  913MPD2    C313367   3.817   1.438   9.983  0.3863 -0.2995 -0.4726
  913MPD2    C413368   3.703   1.390   9.921  0.3873  0.8023 -0.4854
  913MPD2    C513369   3.662   1.264   9.941  0.0794 -0.3647  0.0512
  913MPD2     H13370   3.984   1.393  10.092  0.6150 -3.6986  2.0651
  913MPD2    H113371   3.639   1.444   9.853 -0.6442 -0.4069 -0.4714
  913MPD2    H213372   3.692   1.073  10.037 -0.6678  0.2685  1.1212
  913MPD2    H313373   3.570   1.229   9.896 -1.3143  1.9577  1.1039
  913MPD2     N13374   3.856   1.576   9.964  0.1426  0.6575  0.1357
  913MPD2    H513375   3.797   1.619   9.894 -0.7238 -0.1069  0.3966
  913MPD2    N113376   3.929   1.126  10.146 -0.3104 -0.5657  0.1627
  913MPD2    H713377   3.891   1.031  10.145  1.2012 -1.1793  0.3560
  914MPD2     C13378   2.324   2.080  12.156 -0.0975 -0.6869 -0.3862
  914MPD2    C113379   2.349   2.155  12.270 -0.3896 -0.1920  0.4086
  914MPD2    C213380   2.405   2.092  12.380  0.2477  0.5306  0.2978
  914MPD2    C313381   2.450   1.965  12.366 -1.0611  0.3068 -0.2443
  914MPD2    C413382   2.440   1.901  12.244 -0.2777 -0.6766 -0.2504
  914MPD2    C513383   2.367   1.952  12.138 -0.3826  0.2588 -0.2856
  914MPD2     H13384   2.427   2.145  12.471 -1.3584 -0.8970  1.5085
  914MPD2    H113385   2.462   1.795  12.230  0.0525 -0.7579  0.9084
  914MPD2    H213386   2.265   2.123  12.076 -0.6190  1.8983  1.3953
  914MPD2    H313387   2.327   1.891  12.058  0.3751  0.4838 -0.8265
  914MPD2     N13388   2.513   1.910  12.483 -0.0684  0.5505  0.1808
  914MPD2    H513389   2.510   1.975  12.561  0.9487 -0.3612  0.9744
  914MPD2    N113390   2.312   2.289  12.265 -0.3600  0.4431  0.1621
  914MPD2    H713391   2.252   2.315  12.187 -0.7049  3.2631  1.3636
  915MPD2     C13392   0.114   1.795  15.356  0.5702 -0.6442  0.0947
  915MPD2    C113393   4.709   1.835  15.403 -0.3618 -0.2922  0.2471
  915MPD2    C213394   4.704   1.895  15.530 -0.2458 -0.6776 -0.0128
  915MPD2    C313395   0.101   1.897  15.606  0.1783  0.4644  0.3602
  915MPD2    C413396   0.225   1.861  15.556 -0.6112  0.0150  0.6487
  915MPD2    C513397   0.229   1.807  15.426 -0.6727 -0.7186 -0.1689
  915MPD2     H13398   4.617   1.929  15.584  0.1346  1.5734 -0.7853
  915MPD2    H113399   0.316   1.886  15.610  0.3093  0.0596 -0.9186
  915MPD2    H213400   0.130   1.765  15.253 -2.7697 -0.6434 -0.4048
  915MPD2    H313401   0.326   1.779  15.385 -1.3086 -0.4508 -1.8714
  915MPD2     N13402   0.087   1.961  15.733  0.3614 -0.1559  0.3005
  915MPD2    H513403   4.715   2.001  15.750  0.9355  1.7092 -1.0506
  915MPD2    N113404   4.602   1.819  15.309 -0.9330 -0.1710  0.4849
  915MPD2    H713405   4.610   1.794  15.211 -1.0317 -1.2735  0.7574
  916MPD2     C13406   3.141   4.659  15.958  0.3148  0.9649 -0.6000
  916MPD2    C113407   3.174   4.553  16.032  0.1428  0.0541  0.1613
  916MPD2    C213408   3.191   4.429  15.968 -0.4498  0.0803 -0.3703
  916MPD2    C313409   3.168   4.417  15.833  0.1741  0.2975 -0.3126
  916MPD2    C413410   3.135   4.529  15.768  0.5796  0.4396  0.8204
  916MPD2    C513411   3.114   4.649  15.830  0.2040  0.0421 -0.7755
  916MPD2     H13412   3.207   4.337  16.023 -1.4829  1.0893  1.5866
  916MPD2    H113413   3.115   4.520  15.662 -0.0962 -0.5614  1.0267
  916MPD2    H213414   3.136   0.041  15.994  0.3655  1.7077 -2.7018
  916MPD2    H313415   3.101   0.020  15.772  2.5942  0.2610 -0.9808
  916MPD2     N13416   3.188   4.293  15.780 -0.1908 -0.5185 -0.1578
  916MPD2    H513417   3.212   4.222  15.848  1.7909  0.9443  0.6681
  916MPD2    N113418   3.204   4.577  16.173 -0.1756  0.8460  0.2520
  916MPD2    H713419   3.191   4.671  16.207 -0.7532  1.4206 -1.5659
  917MPD2     C13420   3.409   2.544  10.632 -0.0253  0.0901 -0.0765
  917MPD2    C113421   3.478   2.597  10.742  0.1717  0.0011  0.0107
  917MPD2    C213422   3.590   2.675  10.720 -0.6849  0.7989  0.5704
  917MPD2    C313423   3.624   2.717  10.593 -0.2490  0.4279  0.1037
  917MPD2    C413424   3.550   2.672  10.487  0.2853  0.0584  0.3260
  917MPD2    C513425   3.449   2.583  10.503 -0.0486 -0.4297  0.1678
  917MPD2     H13426   3.654   2.700  10.804 -0.6542 -0.7494  1.0112
  917MPD2    H113427   3.578   2.708  10.389 -0.9547  1.0713  0.3446
  917MPD2    H213428   3.330   2.471  10.629 -0.8146  0.8985  0.9635
  917MPD2    H313429   3.403   2.547  10.411 -1.4181  0.0440  0.6730
  917MPD2     N13430   3.717   2.818  10.565 -0.9787 -0.4016 -0.2598
  917MPD2    H513431   3.721   2.850  10.469 -1.9352  0.7401  0.0945
  917MPD2    N113432   3.434   2.560  10.871  0.2181 -0.5965 -0.3701
  917MPD2    H713433   3.353   2.499  10.872  0.6555 -1.1885 -0.7660
  918MPD2     C13434   3.523   3.030  11.812  0.1966  0.5034  0.4065
  918MPD2    C113435   3.629   2.949  11.766  0.2986  0.0531 -0.3863
  918MPD2    C213436   3.603   2.858  11.668  0.5734 -0.0695 -1.0895
  918MPD2    C313437   3.485   2.837  11.603 -0.4366 -0.1281  0.8901
  918MPD2    C413438   3.388   2.922  11.651  0.1379  0.1061  0.5603
  918MPD2    C513439   3.402   3.015  11.750 -0.8750  0.0119 -0.5396
  918MPD2     H13440   3.680   2.784  11.646  0.5120 -1.0214  1.9206
  918MPD2    H113441   3.291   2.913  11.602  0.9298  0.5415 -1.0920
  918MPD2    H213442   3.530   3.098  11.896  0.6421 -0.2093  0.9493
  918MPD2    H313443   3.317   3.075  11.780 -1.2389 -0.0871 -1.3689
  918MPD2     N13444   3.472   2.738  11.501 -0.0013 -0.1264  0.0781
  918MPD2    H513445   3.555   2.696  11.461 -1.8403 -2.2660 -1.5064
  918MPD2    N113446   3.757   2.951  11.825  0.6242  0.2072  0.2902
  918MPD2    H713447   3.830   2.887  11.794 -1.4950 -1.8241 -0.4991
  919MPD2     C13448   4.118   1.566  11.438 -0.0745 -0.0453 -0.0969
  919MPD2    C113449   4.090   1.442  11.389 -0.5660 -0.4225  0.6579
  919MPD2    C213450   4.094   1.417  11.253  0.6427  0.2344 -0.1604
  919MPD2    C313451   4.116   1.522  11.173 -0.2564  0.1479  0.0960
  919MPD2    C413452   4.160   1.643  11.224 -0.1354 -0.6647  0.1956
  919MPD2    C513453   4.152   1.668  11.361  0.0522  0.1352 -0.1204
  919MPD2     H13454   4.063   1.319  11.218  2.4767 -0.1820 -0.6514
  919MPD2    H113455   4.206   1.720  11.162 -0.8378 -0.0763  0.4080
  919MPD2    H213456   4.115   1.594  11.543  1.2640 -0.1857 -0.0192
  919MPD2    H313457   4.201   1.755  11.404  0.6779 -1.0641  1.5813
  919MPD2     N13458   4.113   1.522  11.025  0.0595  0.6279  0.9562
  919MPD2    H513459   4.118   1.609  10.973  0.8681 -0.3632 -0.6440
  919MPD2    N113460   4.068   1.329  11.480  0.0836  0.2509 -0.0418
  919MPD2    H713461   4.068   1.237  11.436  1.1951  1.4490 -2.5659
  920MPD2     C13462   3.858   2.061  10.255 -0.3522 -0.2168  0.2201
  920MPD2    C113463   3.797   1.939  10.233 -0.3973 -0.1736  0.0238
  920MPD2    C213464   3.842   1.824  10.302  0.4991 -0.7022  0.6160
  920MPD2    C313465   3.956   1.825  10.381 -0.3217 -0.3142  0.2571
  920MPD2    C413466   4.014   1.952  10.403  0.2542  0.1829 -0.1005
  920MPD2    C513467   3.965   2.065  10.342  0.5633  0.1126  0.1627
  920MPD2     H13468   3.790   1.730  10.297  0.8939 -0.9431  0.9651
  920MPD2    H113469   4.110   1.948  10.452  0.5756  1.3742 -0.6265
  920MPD2    H213470   3.827   2.156  10.212  0.1817 -0.1722 -0.0656
  920MPD2    H313471   4.018   2.159  10.349 -1.2855  0.9279  2.9149
  920MPD2     N13472   3.999   1.709  10.451  0.1495 -0.3487 -0.6002
  920MPD2    H513473   3.948   1.627  10.421 -2.1610  1.1900 -0.9355
  920MPD2    N113474   3.682   1.921  10.147  0.0033  0.0154  0.2918
  920MPD2    H713475   3.640   1.830  10.134 -1.8343  0.2293  4.6976
  921MPD2     C13476   0.012   0.420  16.816  0.4715 -0.3845  0.1349
  921MPD2    C113477   0.063   0.289  16.834  0.0232  0.0657  0.2652
  921MPD2    C213478   4.705   0.181  16.839 -0.1214 -0.0259  0.7988
  921MPD2    C313479   4.569   0.191  16.806 -0.4466  0.4090 -0.0585
  921MPD2    C413480   4.520   0.318  16.784 -0.4675  0.6790 -0.2228
  921MPD2    C513481   4.595   0.427  16.786 -0.1672  0.2353 -0.1027
  921MPD2     H13482   0.031   0.084  16.825  0.6583  0.7398 -2.0607
  921MPD2    H113483   4.422   0.327  16.740 -0.3325  2.0653 -0.2289
  921MPD2    H213484   0.071   0.511  16.808  1.4111 -0.7742  2.6986
  921MPD2    H313485   4.549   0.515  16.745 -1.0443 -0.4209 -0.5142
  921MPD2     N13486   4.478   0.084  16.793  0.4680  0.1133 -0.1468
  921MPD2    H513487   4.384   0.112  16.770  0.2686  0.1391  0.7143
  921MPD2    N113488   0.202   0.267  16.828 -0.2381  0.8255  0.2891
  921MPD2    H713489   0.265   0.338  16.793 -0.1322  0.9215  0.6738
  922MPD2     C13490   1.522   2.805  16.846 -0.4764 -0.0685 -0.6070
  922MPD2    C113491   1.539   2.808  16.985 -0.0303 -0.1832  0.8326
  922MPD2    C213492   1.459   2.740  17.069 -0.7808  1.0313 -0.5005
  922MPD2    C313493   1.357   2.662  17.012  0.0883  0.1887  0.0594
  922MPD2    C413494   1.342   2.664  16.875  0.7415 -0.7298  0.2739
  922MPD2    C513495   1.428   2.728  16.794  0.1894  0.4501  0.5678
  922MPD2     H13496   1.466   2.760  17.175  0.7368  0.4250 -0.4862
  922MPD2    H113497   1.265   2.610  16.820 -0.2695 -0.2369  1.2126
  922MPD2    H213498   1.576   2.868  16.776  3.2417  0.7132  2.9333
  922MPD2    H313499   1.407   2.715  16.688  1.9730  1.2385  0.1170
  922MPD2     N13500   1.274   2.596  17.100 -0.2156  0.2830 -0.1192
  922MPD2    H513501   1.276   2.632  17.195  1.1443 -2.2834  0.8399
  922MPD2    N113502   1.625   2.903  17.043 -0.0484  0.3734 -0.0430
  922MPD2    H713503   1.651   2.878  17.138 -0.0599 -0.4124 -0.2467
  923MPD2     C13504   2.278   4.178   9.526  0.2592 -0.5538  0.4556
  923MPD2    C113505   2.328   4.300   9.567  0.1343 -0.0364  0.0733
  923MPD2    C213506   2.422   4.315   9.663 -0.4219  0.2107  0.7620
  923MPD2    C313507   2.470   4.201   9.730  0.1394  0.2416  0.0070
  923MPD2    C413508   2.419   4.077   9.695 -0.9560  0.5248  0.0542
  923MPD2    C513509   2.325   4.067   9.594  0.2125  0.1136  0.1184
  923MPD2     H13510   2.469   4.411   9.682 -0.9428  0.2179  1.9919
  923MPD2    H113511   2.446   3.985   9.746  1.0705  0.7117 -0.6589
  923MPD2    H213512   2.214   4.166   9.439  0.9841  2.7225 -0.5316
  923MPD2    H313513   2.295   3.968   9.562 -1.7765  1.0686 -0.9755
  923MPD2     N13514   2.569   4.205   9.834  0.3882 -0.6465  0.7607
  923MPD2    H513515   2.613   4.119   9.865  1.3546 -1.0025 -1.6598
  923MPD2    N113516   2.277   4.414   9.504 -0.2655  0.3965  0.1532
  923MPD2    H713517   2.218   4.402   9.422  2.3948  3.0549 -2.1561
  924MPD2     C13518   2.546   3.089  15.782  0.3170 -0.0778  0.0545
  924MPD2    C113519   2.514   3.100  15.914  0.0998  0.3258  0.2884
  924MPD2    C213520   2.553   3.213  15.978  0.0578 -0.8139  0.2170
  924MPD2    C313521   2.639   3.301  15.907  0.4651 -0.4276 -0.2268
  924MPD2    C413522   2.692   3.279  15.788 -0.4651  0.2885 -0.8264
  924MPD2    C513523   2.643   3.175  15.722 -0.2842  0.6317  0.4608
  924MPD2     H13524   2.520   3.231  16.080  0.9136 -1.7164  0.6495
  924MPD2    H113525   2.751   3.354  15.736  0.5770  1.4641  2.0526
  924MPD2    H213526   2.504   3.011  15.719  0.1246 -0.1338  0.2522
  924MPD2    H313527   2.673   3.163  15.618 -2.5124  0.3555 -0.1482
  924MPD2     N13528   2.678   3.422  15.973  0.8163 -0.0455  0.4045
  924MPD2    H513529   2.706   3.501  15.916 -0.8388  1.1527  1.2508
  924MPD2    N113530   2.408   3.013  15.965  0.6930 -0.0417  0.1744
  924MPD2    H713531   2.371   2.947  15.898 -0.7001  0.2487  0.6589
  925MPD2     C13532   1.063   0.956  14.654  0.7504 -0.0802  1.0186
  925MPD2    C113533   0.934   0.998  14.673 -0.5588  0.0770  0.1347
  925MPD2    C213534   0.884   1.017  14.804 -0.4330 -1.2318 -0.2240
  925MPD2    C313535   0.964   0.990  14.911 -0.5728 -0.2780 -0.2353
  925MPD2    C413536   1.094   0.946  14.896 -0.3052  0.4541 -0.4047
  925MPD2    C513537   1.147   0.941  14.767 -0.0172  0.4859  0.4890
  925MPD2     H13538   0.780   1.043  14.822  0.1708  1.7956 -1.1457
  925MPD2    H113539   1.160   0.922  14.979  0.2182  1.6662 -0.4568
  925MPD2    H213540   1.099   0.942  14.552 -2.5890  1.9943 -0.4484
  925MPD2    H313541   1.251   0.917  14.748 -0.8831 -0.9151 -2.4627
  925MPD2     N13542   0.924   1.028  15.043  0.6125  0.3586  0.1281
  925MPD2    H513543   0.987   0.995  15.115  1.2453  1.7269  0.1976
  925MPD2    N113544   0.858   1.004  14.555  0.6020 -0.2425  0.2353
  925MPD2    H713545   0.900   0.968  14.470  0.8564  2.2308 -0.6718
  926MPD2     C13546   4.630   4.411  13.539 -0.2799  0.1057 -0.3457
  926MPD2    C113547   4.552   4.522  13.504  0.1448 -0.0709 -0.4130
  926MPD2    C213548   4.576   4.583  13.379 -0.4248  0.1941 -0.4298
  926MPD2    C313549   4.671   4.540  13.293  0.0569 -0.1906 -0.3735
  926MPD2    C413550   0.022   4.427  13.328  0.2373  0.0082  0.2285
  926MPD2    C513551   0.004   4.366  13.448  0.1824  0.3218  0.6880
  926MPD2     H13552   4.523   4.677  13.367  0.1294  0.3801 -1.4296
  926MPD2    H113553   0.110   4.398  13.272 -0.0335 -2.6090  1.1631
  926MPD2    H213554   4.622   4.342  13.622 -1.6186 -0.1120 -0.6411
  926MPD2    H313555   0.056   4.274  13.470 -1.2400 -0.8579 -0.9677
  926MPD2     N13556   4.700   4.610  13.177  0.1321  0.2767 -0.3682
  926MPD2    H513557   0.065   4.585  13.125 -0.1012 -2.1914  0.4441
  926MPD2    N113558   4.448   4.568  13.587 -0.0076 -0.7677 -0.1034
  926MPD2    H713559   4.400   4.645  13.541 -0.9250 -0.8497  0.7233
  927MPD2     C13560   4.189   1.483   0.435  0.1715  0.5457 -0.4662
  927MPD2    C113561   4.251   1.359   0.456 -0.0106 -0.1033 -0.4937
  927MPD2    C213562   4.337   1.314   0.355 -0.2665  0.1495 -0.0327
  927MPD2    C313563   4.373   1.399   0.256 -0.4960  0.4587  0.5605
  927MPD2    C413564   4.322   1.526   0.243 -0.0299  0.2438 -0.4954
  927MPD2    C513565   4.230   1.571   0.336  0.6995 -0.4666  0.0585
  927MPD2     H13566   4.396   1.226   0.378 -0.6310 -0.2168 -0.4996
  927MPD2    H113567   4.355   1.588   0.160 -0.7223 -1.7063 -2.2375
  927MPD2    H213568   4.126   1.523   0.513  0.4565 -1.4499  0.8104
  927MPD2    H313569   4.187   1.669   0.316 -0.6337 -0.8218  1.1736
  927MPD2     N13570   4.466   1.348   0.160 -0.8307 -0.8173 -0.3991
  927MPD2    H513571   4.523   1.271   0.194 -1.5550 -1.7816 -1.4017
  927MPD2    N113572   4.206   1.282   0.568  0.2990  0.1582 -0.2035
  927MPD2    H713573   4.151   1.333   0.636 -1.4589 -0.5589 -1.0801
  928MPD2     C13574   1.553   4.644   0.868 -0.0892 -0.2731 -0.5152
  928MPD2    C113575   1.678   4.636   0.917 -0.0305 -0.5756 -0.1180
  928MPD2    C213576   1.780   4.612   0.833  0.0274  0.6086  0.5800
  928MPD2    C313577   1.764   4.603   0.693  0.0513 -0.4335  0.0967
  928MPD2    C413578   1.640   4.605   0.648 -0.0833 -0.0915 -0.5487
  928MPD2    C513579   1.533   4.615   0.733 -0.0733  0.5723 -0.2544
  928MPD2     H13580   1.882   4.605   0.870  0.0986  2.0433  0.6445
  928MPD2    H113581   1.628   4.586   0.542 -1.4123  0.5981 -0.5124
  928MPD2    H213582   1.465   4.649   0.931  0.4675 -0.4877  0.2803
  928MPD2    H313583   1.432   4.609   0.693  0.2842 -1.0188 -0.9065
  928MPD2     N13584   1.875   4.587   0.605  0.5596 -1.1361  0.1626
  928MPD2    H513585   1.845   4.558   0.512 -1.5108 -0.6628  0.6770
  928MPD2    N113586   1.698   4.653   1.057 -0.6290  0.3935 -0.0909
  928MPD2    H713587   1.611   4.664   1.108  0.2155 -2.6302  2.0369
  929MPD2     C13588   2.141   0.342  10.497 -0.6621  0.3950 -0.0994
  929MPD2    C113589   2.014   0.296  10.484  0.2377  0.0924  0.7303
  929MPD2    C213590   1.936   0.333  10.375  0.5272  0.1793 -0.0660
  929MPD2    C313591   1.979   0.432  10.288  0.0406 -0.6149  0.3754
  929MPD2    C413592   2.108   0.480  10.303 -0.2239 -0.2718  0.1580
  929MPD2    C513593   2.185   0.432  10.404 -0.4708  0.0007 -0.2368
  929MPD2     H13594   1.829   0.317  10.376  0.2396  2.1626  0.4753
  929MPD2    H113595   2.150   0.552  10.233  0.5689 -0.2596  0.6474
  929MPD2    H213596   2.218   0.300  10.561 -0.2209 -1.3314 -1.7643
  929MPD2    H313597   2.290   0.456  10.410 -0.3855  0.1357 -2.2006
  929MPD2     N13598   1.889   0.485  10.197 -0.2920 -0.6129  0.5302
  929MPD2    H513599   1.916   0.572  10.152  0.9683 -1.2604  0.0574
  929MPD2    N113600   1.980   0.184  10.561  0.1974  0.0708 -0.4357
  929MPD2    H713601   2.053   0.144  10.619 -0.0411 -0.5079 -0.5332
  930MPD2     C13602   3.950   2.068  14.093  0.1002  0.2664  0.0707
  930MPD2    C113603   3.924   2.174  14.005  0.0587 -0.2924 -0.1916
  930MPD2    C213604   3.876   2.144  13.878 -0.6758  0.0746 -0.7777
  930MPD2    C313605   3.860   2.015  13.836  0.2619 -0.4579  0.0927
  930MPD2    C413606   3.905   1.911  13.913  0.5447  0.5875 -0.9918
  930MPD2    C513607   3.951   1.939  14.040 -0.8316 -0.2887  0.0933
  930MPD2     H13608   3.854   2.227  13.812  0.1489  1.6828  0.9512
  930MPD2    H113609   3.915   1.811  13.872  1.5149 -0.4610  1.8115
  930MPD2    H213610   3.990   2.080  14.194 -1.0082  2.9712  0.2030
  930MPD2    H313611   3.995   1.855  14.094  2.3284  0.6064 -1.0602
  930MPD2     N13612   3.830   1.990  13.703  0.2705 -0.3983 -0.0794
  930MPD2    H513613   3.869   1.908  13.659  0.7646 -0.6940  0.9088
  930MPD2    N113614   3.951   2.308  14.048 -0.3191  0.0479  0.1488
  930MPD2    H713615   4.032   2.318  14.109 -0.6429 -2.6823  1.0134
  931MPD2     C13616   4.205   0.495   0.670 -0.1277  0.9072  0.1845
  931MPD2    C113617   4.094   0.562   0.731  0.0305 -0.3787 -0.3104
  931MPD2    C213618   3.994   0.481   0.789 -0.1689 -0.0520 -0.5691
  931MPD2    C313619   4.009   0.347   0.796  0.3681  0.4711  0.7525
  931MPD2    C413620   4.127   0.285   0.755  0.0217  0.1089  0.1535
  931MPD2    C513621   4.224   0.366   0.693 -0.2630 -1.1185 -0.5986
  931MPD2     H13622   3.915   0.528   0.846  2.4943  2.6439  0.8966
  931MPD2    H113623   4.139   0.177   0.745  0.4618  0.2930 -1.2976
  931MPD2    H213624   4.277   0.553   0.613 -1.5796  3.3265  0.8296
  931MPD2    H313625   4.310   0.313   0.655  0.8787 -0.6983  1.4194
  931MPD2     N13626   3.914   0.263   0.853 -0.1434 -0.0781 -0.3669
  931MPD2    H513627   3.936   0.165   0.839 -0.3575 -0.2054  0.1551
  931MPD2    N113628   4.084   0.700   0.721 -0.1371  0.5555  0.8107
  931MPD2    H713629   4.161   0.742   0.671  0.3984 -1.9225 -0.3779
  932MPD2     C13630   0.833   0.828  11.150  0.3349 -0.4754  0.6258
  932MPD2    C113631   0.947   0.871  11.216  0.6821 -0.3363  0.0255
  932MPD2    C213632   1.047   0.776  11.230 -0.4074  0.0633 -0.8236
  932MPD2    C313633   1.023   0.644  11.194  0.0404  0.0410  0.2318
  932MPD2    C413634   0.909   0.606  11.128  0.9714 -0.1004 -0.5780
  932MPD2    C513635   0.818   0.706  11.092 -0.0025  0.2670 -0.0346
  932MPD2     H13636   1.141   0.811  11.272 -2.2388  2.8032  0.9895
  932MPD2    H113637   0.885   0.506  11.094 -0.6416 -0.2909  1.1308
  932MPD2    H213638   0.743   0.888  11.147 -0.9187 -2.3459  0.2890
  932MPD2    H313639   0.727   0.674  11.043 -0.6646  0.9975  0.7055
  932MPD2     N13640   1.115   0.535  11.214  0.4276 -0.0398  0.3379
  932MPD2    H513641   1.100   0.436  11.195 -0.7213  0.1814  0.0822
  932MPD2    N113642   0.967   1.002  11.268 -0.0373 -0.1484 -0.1701
  932MPD2    H713643   1.051   1.022  11.321  1.1278 -0.9260 -1.7219
  933MPD2     C13644   1.368   0.284   1.584  0.1002  0.1720 -0.2751
  933MPD2    C113645   1.445   0.320   1.477  0.7904 -0.2466  0.4235
  933MPD2    C213646   1.414   0.437   1.413  0.7180 -0.2097  0.2784
  933MPD2    C313647   1.312   0.522   1.448 -1.0031  1.2966 -0.3390
  933MPD2    C413648   1.234   0.482   1.550  0.7267 -0.5392  0.2999
  933MPD2    C513649   1.269   0.368   1.613  0.2080 -0.2569  0.2379
  933MPD2     H13650   1.482   0.478   1.338  0.3595 -0.9420 -0.4478
  933MPD2    H113651   1.145   0.539   1.577  1.2307  0.8868 -1.0452
  933MPD2    H213652   1.397   0.202   1.649 -1.6439  1.2689  1.8711
  933MPD2    H313653   1.192   0.331   1.680  1.8631 -1.6707  1.3577
  933MPD2     N13654   1.294   0.643   1.376  0.1495 -0.2706  0.4065
  933MPD2    H513655   1.360   0.654   1.300 -0.3666  0.8729  0.1385
  933MPD2    N113656   1.565   0.252   1.435 -0.5696  0.1151 -0.2313
  933MPD2    H713657   1.607   0.296   1.353 -0.2459 -0.4559 -0.3781
  934MPD2     C13658   2.627   1.504   2.289  0.2221 -0.5232  0.3034
  934MPD2    C113659   2.661   1.401   2.207  0.0119  0.6871 -0.3847
  934MPD2    C213660   2.728   1.434   2.092 -0.2534  0.6796 -0.5897
  934MPD2    C313661   2.749   1.569   2.057  0.5124  0.2982 -0.0230
  934MPD2    C413662   2.713   1.665   2.147 -0.4365  0.7493 -0.4140
  934MPD2    C513663   2.653   1.634   2.262 -0.1688  0.4787  1.2886
  934MPD2     H13664   2.761   1.357   2.023  1.0442 -0.4754  1.2931
  934MPD2    H113665   2.740   1.770   2.141 -0.7155  0.7033 -2.6319
  934MPD2    H213666   2.568   1.483   2.377  0.1762  0.7495  0.5789
  934MPD2    H313667   2.623   1.722   2.318 -1.8212  2.0196 -2.0176
  934MPD2     N13668   2.812   1.605   1.943 -0.2545  0.5357  0.1627
  934MPD2    H513669   2.810   1.705   1.925  2.8904  0.9730  2.3488
  934MPD2    N113670   2.652   1.265   2.247  1.0517 -0.0409 -0.7779
  934MPD2    H713671   2.697   1.195   2.189  2.5684  0.6588 -0.4334
  935MPD2     C13672   3.258   0.969   1.368 -0.6102 -0.3723 -0.0232
  935MPD2    C113673   3.247   1.076   1.282  0.5660 -0.6419 -0.9608
  935MPD2    C213674   3.182   1.190   1.319  0.1730  0.1029 -0.5578
  935MPD2    C313675   3.139   1.210   1.450 -0.1251  0.0203 -0.4304
  935MPD2    C413676   3.137   1.097   1.530 -0.1274 -0.1512 -0.1976
  935MPD2    C513677   3.206   0.981   1.496  0.2924 -0.5370 -0.2892
  935MPD2     H13678   3.178   1.270   1.245  0.2374 -1.5855 -2.3952
  935MPD2    H113679   3.093   1.106   1.628 -1.7561  3.0177 -1.2261
  935MPD2    H213680   3.309   0.880   1.334  0.8665  1.2157 -1.9069
  935MPD2    H313681   3.213   0.898   1.566  3.4581 -1.4215 -1.6452
  935MPD2     N13682   3.082   1.330   1.503  0.5291 -0.7971  0.6379
  935MPD2    H513683   3.019   1.312   1.581 -2.5222 -0.3094 -1.7068
  935MPD2    N113684   3.278   1.060   1.145  0.4077 -0.3557  0.5899
  935MPD2    H713685   3.231   1.126   1.083 -1.7036 -0.3491  2.1749
  936MPD2     C13686   1.507   4.349  13.023  0.3921  0.0456 -0.4619
  936MPD2    C113687   1.569   4.264  13.112 -0.2351  0.1504 -0.2688
  936MPD2    C213688   1.699   4.282  13.151  0.3454  0.9680 -0.1878
  936MPD2    C313689   1.773   4.389  13.106 -0.3270 -0.0172 -0.0866
  936MPD2    C413690   1.705   4.481  13.017 -0.4157  0.2058 -0.2906
  936MPD2    C513691   1.575   4.457  12.980  0.1542 -0.2987 -0.1671
  936MPD2     H13692   1.742   4.202  13.210  0.0977  2.4398  1.9960
  936MPD2    H113693   1.747   4.571  12.975  1.0061 -0.5953 -0.5903
  936MPD2    H213694   1.406   4.338  12.982 -0.7602  2.8093  1.6424
  936MPD2    H313695   1.527   4.526  12.912 -1.7056 -2.0033 -0.5847
  936MPD2     N13696   1.915   4.407  13.131  0.6387  0.0971  0.7507
  936MPD2    H513697   1.964   4.477  13.077  2.9104 -2.2947 -0.2606
  936MPD2    N113698   1.500   4.150  13.147 -0.1842 -0.0179  0.2034
  936MPD2    H713699   1.544   4.097  13.222 -1.6793 -2.6619 -0.7934
  937MPD2     C13700   4.147   0.658  11.327  0.6377  0.6505  0.6196
  937MPD2    C113701   4.237   0.752  11.366  0.2861 -0.7889 -0.1399
  937MPD2    C213702   4.341   0.775  11.279  0.3142  0.3593 -0.4759
  937MPD2    C313703   4.351   0.711  11.161  0.3926 -0.4086 -0.2201
  937MPD2    C413704   4.257   0.619  11.125 -0.0047  0.7110  0.2843
  937MPD2    C513705   4.158   0.590  11.215 -0.0920  0.3853  0.1608
  937MPD2     H13706   4.403   0.863  11.297  0.7626  0.1219 -0.8365
  937MPD2    H113707   4.244   0.570  11.029 -2.3475  0.3574  0.8035
  937MPD2    H213708   4.061   0.633  11.389  0.8748 -1.7925 -0.0752
  937MPD2    H313709   4.084   0.511  11.201  0.5328 -0.0848 -0.5006
  937MPD2     N13710   4.434   0.773  11.073 -0.3124 -0.4972  0.4633
  937MPD2    H513711   4.483   0.857  11.098 -1.7428  0.3805  0.3178
  937MPD2    N113712   4.203   0.846  11.469  0.3350  0.1892 -0.2389
  937MPD2    H713713   4.254   0.934  11.464 -1.0649  0.9348 -1.4002
  938MPD2     C13714   2.348   1.467   0.649 -0.1870  0.1661 -0.9425
  938MPD2    C113715   2.341   1.548   0.752 -0.2326  0.5691  0.4260
  938MPD2    C213716   2.304   1.495   0.876  0.7438  0.1514  0.4809
  938MPD2    C313717   2.266   1.365   0.894  0.0638 -0.8609  0.4473
  938MPD2    C413718   2.275   1.277   0.787  0.0943 -0.3187 -0.1630
  938MPD2    C513719   2.326   1.332   0.667 -0.0323 -0.5665  0.0885
  938MPD2     H13720   2.309   1.562   0.962 -0.4930  2.2810 -1.1034
  938MPD2    H113721   2.275   1.169   0.799  3.2145 -0.1065  2.0340
  938MPD2    H213722   2.380   1.500   0.550 -0.1206  1.2339 -0.5668
  938MPD2    H313723   2.338   1.254   0.592 -1.2294  0.5470 -1.2449
  938MPD2     N13724   2.233   1.318   1.024  0.3718  0.3775 -0.1917
  938MPD2    H513725   2.204   1.221   1.034  0.6819  0.1510 -1.4312
  938MPD2    N113726   2.394   1.680   0.754  0.2321 -0.0470  0.0442
  938MPD2    H713727   2.400   1.722   0.846  3.2018  1.7191 -0.9802
  939MPD2     C13728   3.953   2.335   1.433 -0.4883 -0.2604 -0.1130
  939MPD2    C113729   3.995   2.455   1.372 -0.2404 -0.1066 -0.1190
  939MPD2    C213730   3.982   2.472   1.241  0.4476 -0.7269 -0.4883
  939MPD2    C313731   3.945   2.375   1.154 -0.7618 -0.6521 -0.5907
  939MPD2    C413732   3.912   2.253   1.210 -0.5136 -0.1016 -0.1788
  939MPD2    C513733   3.929   2.232   1.348  0.3080  0.3285 -0.3896
  939MPD2     H13734   4.003   2.569   1.198 -0.8794 -0.6584 -0.9707
  939MPD2    H113735   3.881   2.165   1.155  0.0052 -1.0143  0.9860
  939MPD2    H213736   3.933   2.328   1.539  1.2560  1.5267  0.3440
  939MPD2    H313737   3.908   2.131   1.380  0.4507 -0.0311 -1.4233
  939MPD2     N13738   3.930   2.407   1.018  0.3943  0.0429 -0.0726
  939MPD2    H513739   3.976   2.492   0.987 -0.2047  0.7462  0.9924
  939MPD2    N113740   4.010   2.563   1.461 -0.1925 -0.3055  1.0317
  939MPD2    H713741   4.002   2.542   1.560  2.6766  0.6648  1.4781
  940MPD2     C13742   2.541   4.398  13.179 -0.2403  0.0975 -0.5327
  940MPD2    C113743   2.568   4.272  13.231 -0.2125 -0.3358 -0.4532
  940MPD2    C213744   2.654   4.188  13.165  0.6908  0.2132 -0.0753
  940MPD2    C313745   2.702   4.222  13.036 -0.2588 -0.0569 -0.0880
  940MPD2    C413746   2.642   4.332  12.979  0.4878  0.0278 -0.1474
  940MPD2    C513747   2.567   4.422  13.046  0.0197 -0.6417 -0.0551
  940MPD2     H13748   2.693   4.101  13.218  1.5218  0.5582 -0.1187
  940MPD2    H113749   2.663   4.348  12.874 -0.6764 -1.3210 -0.5836
  940MPD2    H213750   2.476   4.473  13.223  0.1301 -0.3513  0.7988
  940MPD2    H313751   2.534   4.512  12.995 -1.5185  0.0173  2.1251
  940MPD2     N13752   2.794   4.143  12.957  0.0332 -0.1247  0.1634
  940MPD2    H513753   2.840   4.187  12.878  1.2124  1.3415  1.6691
  940MPD2    N113754   2.518   4.225  13.357 -0.2541 -0.3589 -0.5017
  940MPD2    H713755   2.578   4.158  13.405  0.7534  1.2775  0.5724
  941MPD2     C13756   1.954   2.785  10.083 -0.1115  0.9040 -0.5000
  941MPD2    C113757   1.895   2.773   9.949  0.5491 -0.1849 -0.0072
  941MPD2    C213758   1.860   2.649   9.902 -0.2403 -0.6456 -0.4912
  941MPD2    C313759   1.882   2.543   9.990 -0.1454 -0.1484  0.7024
  941MPD2    C413760   1.945   2.553  10.113 -0.1952  0.1209  0.5153
  941MPD2    C513761   1.972   2.677  10.167 -0.4484  0.5784  0.1575
  941MPD2     H13762   1.819   2.640   9.802 -3.1516 -2.4987  0.8885
  941MPD2    H113763   1.964   2.462  10.169 -0.0310  0.2681  0.6992
  941MPD2    H213764   1.996   2.880  10.113 -0.6177  0.9769 -0.0213
  941MPD2    H313765   2.030   2.686  10.258 -1.1028 -1.6934  0.7963
  941MPD2     N13766   1.848   2.416   9.952  0.2401 -0.3948 -0.1502
  941MPD2    H513767   1.842   2.343  10.022  1.1437  0.4580  0.8261
  941MPD2    N113768   1.855   2.886   9.876  0.4722  0.1528 -0.4850
  941MPD2    H713769   1.816   2.865   9.785  0.6330  0.2540 -0.5764
  942MPD2     C13770   0.737   4.631   9.842 -0.3365  0.4144 -0.5056
  942MPD2    C113771   0.734   0.007   9.747  0.1611 -0.4832  0.5460
  942MPD2    C213772   0.858   0.046   9.689 -0.0110 -0.2957 -0.7400
  942MPD2    C313773   0.976   4.703   9.736  0.0672 -0.0146  0.4644
  942MPD2    C413774   0.972   4.612   9.842  0.2454  0.2459 -0.0090
  942MPD2    C513775   0.856   4.588   9.900 -0.3447 -0.2367 -0.6580
  942MPD2     H13776   0.865   0.132   9.623  0.3632  0.5970  0.4705
  942MPD2    H113777   1.063   4.573   9.884 -1.8533 -0.6953  3.6818
  942MPD2    H213778   0.643   4.594   9.881  0.9402 -2.0728  0.1699
  942MPD2    H313779   0.852   4.519   9.983  2.8961  0.7898  0.3736
  942MPD2     N13780   1.105   0.020   9.689 -0.3390  0.5538  0.5538
  942MPD2    H513781   1.190   4.710   9.736 -0.7891 -1.1876  0.2736
  942MPD2    N113782   0.617   0.044   9.678  0.0060 -0.5533  0.3804
  942MPD2    H713783   0.624   0.116   9.607  0.0172 -1.3906 -0.4619
  943MPD2     C13784   4.474   2.888   9.723 -0.1672 -0.8383 -0.0880
  943MPD2    C113785   4.612   2.870   9.727  0.6749  0.2500 -0.2920
  943MPD2    C213786   4.683   2.957   9.646  0.2681  0.7357 -0.9347
  943MPD2    C313787   4.626   3.057   9.569  0.7847  0.1187 -0.3451
  943MPD2    C413788   4.487   3.072   9.580 -0.3395  0.0388  0.7840
  943MPD2    C513789   4.418   2.985   9.651  0.5867 -0.6240  0.1836
  943MPD2     H13790   0.072   2.949   9.650  0.2289  0.3707 -0.5143
  943MPD2    H113791   4.430   3.152   9.535 -0.5361  0.1680  1.2624
  943MPD2    H213792   4.421   2.814   9.782 -2.2357 -0.4925 -1.5120
  943MPD2    H313793   4.310   2.991   9.663  0.7549  0.6609  1.0472
  943MPD2     N13794   4.702   3.150   9.499  0.1753  0.1031 -0.0207
  943MPD2    H513795   4.654   3.227   9.455  1.0075 -0.6258 -2.1669
  943MPD2    N113796   4.655   2.779   9.818 -0.4723 -0.0938 -0.3898
  943MPD2    H713797   4.585   2.726   9.868 -1.3914  0.1486 -1.4075
  944MPD2     C13798   4.571   1.431  11.288  0.0723  0.0895  0.6018
  944MPD2    C113799   4.528   1.504  11.179 -0.1328  0.6038 -0.4185
  944MPD2    C213800   4.492   1.637  11.194  0.3529 -0.0609 -0.4255
  944MPD2    C313801   4.506   1.699  11.318 -0.4493  0.0910  0.1448
  944MPD2    C413802   4.552   1.630  11.430  0.1370 -0.5109 -0.4244
  944MPD2    C513803   4.577   1.496  11.410 -0.0955 -0.0198  0.6686
  944MPD2     H13804   4.447   1.684  11.108 -0.1202 -3.1709 -1.8879
  944MPD2    H113805   4.567   1.676  11.527  0.6662 -1.1345 -0.2133
  944MPD2    H213806   4.592   1.325  11.284  0.6086  0.2425 -0.4959
  944MPD2    H313807   4.595   1.434  11.497 -0.5883 -0.8134  0.2099
  944MPD2     N13808   4.477   1.837  11.309 -0.5157 -0.3228 -0.1569
  944MPD2    H513809   4.422   1.871  11.231  0.7949  1.5023 -0.2720
  944MPD2    N113810   4.519   1.432  11.054  0.3135  0.2966 -0.2026
  944MPD2    H713811   4.541   1.333  11.053 -1.9357 -0.1812 -2.4453
    1TCq1    O113812   2.823   3.006  15.263 -0.0277  0.1614 -0.0439
    1TCq1    C113813   2.894   3.025  15.384 -0.1031  0.1276 -0.1042
    1TCq1    O213814   2.891   2.959  15.488  0.1454 -0.2884 -0.1706
    1TCq1    C213815   2.972   3.146  15.369 -0.0887 -0.1927  0.1785
    1TCq1    C313816   3.022   3.162  15.244 -0.4516  0.0232  0.1241
    1TCq1    C413817   3.077   3.279  15.204 -0.1776 -0.2190 -0.1485
    1TCq1    C513818   3.070   3.387  15.287 -0.5234  0.0927 -0.0487
    1TCq1    C613819   3.003   3.375  15.407  0.4400  0.0617  0.0458
    1TCq1    C713820   2.958   3.253  15.456  0.0744  0.7016 -0.0675
    1TCq1    C813821   2.966   3.493  15.478  0.3432 -0.2395  0.3394
    1TCq1    O413822   2.937   3.492  15.595 -0.3865  0.8076 -0.2995
    1TCq1    C913823   3.143   3.290  15.072  0.3233  0.3058  0.3382
    1TCq1    O513824   3.106   3.210  14.980 -0.2290 -0.4661  0.7040
    1TCq1    O613825   3.179   3.407  15.040  0.0050 -0.5055  0.0849
    1TCq1    H113826   2.814   3.089  15.211  0.4954  0.9053  1.0192
    1TCq1    H213827   3.036   3.076  15.180 -2.8401 -0.5907  0.4199
    1TCq1    H313828   3.126   3.473  15.251  0.8713 -0.4908  0.7115
    1TCq1    H413829   2.913   3.234  15.553 -0.8777 -0.7683 -0.7860
    2MPD2     C13830   2.851   4.002  15.408  0.3528 -0.2314  0.6241
    2MPD2    C113831   2.854   3.928  15.289  0.4938 -0.4159 -0.8585
    2MPD2    C213832   2.881   3.794  15.297 -0.7949  0.0588 -0.5299
    2MPD2    C313833   2.908   3.730  15.415  0.1272 -1.0021 -0.0290
    2MPD2    C413834   2.933   3.804  15.526  0.7716 -0.0676  0.0356
    2MPD2    C513835   2.899   3.941  15.520  0.5984  0.3375 -0.5776
    2MPD2     H13836   2.886   3.741  15.203 -0.9861 -0.1346 -0.4304
    2MPD2    H113837   2.978   3.749  15.608  0.4568 -0.3567  0.0160
    2MPD2    H213838   2.824   4.107  15.413 -1.3732 -0.6439  0.0338
    2MPD2    H313839   2.914   4.000  15.610  1.2355  1.6835 -1.5801
    2MPD2     N13840   2.943   3.598  15.392  0.1663  0.2474  0.0391
    2MPD2    H513841   2.963   3.581  15.294 -0.5731  1.8321 -0.3801
    2MPD2    N113842   2.823   4.004  15.176 -0.5177 -0.0509  0.4303
    2MPD2    H713843   2.783   4.097  15.186 -3.4324 -1.1850 -0.5199
    3TMC2    C113844   2.766   4.033  14.952 -0.3794 -0.1996  0.4571
    3TMC2    C213845   2.673   4.132  14.989  0.0267  0.0751  0.2595
    3TMC2    C313846   2.606   4.191  14.884 -0.3534  0.6770  0.3485
    3TMC2    C413847   2.799   4.006  14.823  0.8742 -0.2894 -0.0452
    3TMC2    C513848   2.738   4.072  14.724  0.4046  0.5322  0.2357
    3TMC2    C613849   2.646   4.169  14.751 -0.7904 -0.2816  0.4505
    3TMC2     C13850   2.831   3.948  15.052 -0.3615  0.4428 -1.0201
    3TMC2     O13851   2.880   3.839  15.014 -0.5134  0.0420 -0.0782
    3TMC2     H13852   2.640   4.151  15.090 -1.1173 -0.0250 -0.0959
    3TMC2    H113853   2.870   3.928  14.799  1.7565  0.5811 -0.2907
    3TMC2    H213854   2.613   4.232  14.670  2.0162  2.8184  1.7021
    3TMC2    C713855   2.796   4.054  14.589 -0.3868 -0.4507 -0.0772
    3TMC2    C813856   2.544   4.322  14.910  0.2947  0.2633 -0.0057
    3TMC2    O113857   2.914   4.020  14.593 -0.5101  0.3596  0.4576
    3TMC2    O213858   2.570   4.421  14.844  0.7567  0.2132 -0.1947
    3TMC2    O513859   2.486   4.324  15.030  0.8715 -0.0839  0.3238
    3TMC2    H513860   2.475   4.234  15.067  0.9777  0.1353  0.8759
    4MPD2     C13861   1.773   4.589  13.490 -0.7779 -0.2134 -0.0798
    4MPD2    C113862   1.883   4.660  13.447 -0.4906 -1.1057 -0.1206
    4MPD2    C213863   2.001   4.652  13.518  0.9342 -0.4359 -0.5882
    4MPD2    C313864   2.007   4.586  13.639 -0.8926  0.4640 -0.2525
    4MPD2    C413865   1.890   4.529  13.688 -0.2341 -0.1311  0.1557
    4MPD2    C513866   1.779   4.531  13.609  0.2351  0.5267  0.0961
    4MPD2     H13867   2.089   4.701  13.477  1.1336  0.0298  0.3921
    4MPD2    H113868   1.888   4.484  13.786  0.5531  0.6779  0.5478
    4MPD2    H213869   1.681   4.587  13.434  0.2608  0.5287 -1.7943
    4MPD2    H313870   1.695   4.478  13.652  1.4648 -0.8017  0.8388
    4MPD2     N13871   2.136   4.578  13.703 -0.2813  0.0825  0.2257
    4MPD2    H513872   2.212   4.618  13.649 -0.3121  1.3131  1.1194
    4MPD2    N113873   1.878   4.713  13.324  0.9023 -0.6659 -0.3830
    4MPD2    H713874   1.783   0.009  13.292  1.1310 -0.6548 -1.0614
    5TCq2    C113875   2.171   4.515  13.819 -0.1056 -0.9408 -0.2657
    5TCq2    O213876   2.106   4.442  13.887  0.0769  0.1728 -0.2730
    5TCq2    C213877   2.318   4.532  13.835  0.0494  0.4388 -0.5304
    5TCq2    C313878   2.404   4.604  13.761  0.4458 -1.1169 -0.3054
    5TCq2    C413879   2.539   4.594  13.781  1.2006  0.2941 -0.7963
    5TCq2    C513880   2.584   4.524  13.890 -0.0799 -0.0002  0.3550
    5TCq2    C613881   2.501   4.449  13.968 -0.3079 -0.1085  0.2157
    5TCq2    C713882   2.371   4.448  13.927  0.0429 -0.3347 -0.2217
    5TCq2    C813883   2.550   4.349  14.058  0.4584 -0.0356  0.2970
    5TCq2    O413884   2.472   4.304  14.140 -0.4159 -0.8454 -0.0292
    5TCq2    C913885   2.632   4.688  13.725  0.8983  0.1408  0.0177
    5TCq2    O513886   2.732   4.712  13.797  0.0939  0.3500  0.0808
    5TCq2    O613887   2.600   0.032  13.621  0.7088 -0.1424  0.3700
    5TCq2    H213888   2.386   4.678  13.683 -1.8656 -1.6015 -0.2266
    5TCq2    H313889   2.691   4.523  13.910 -0.5429  2.0929  2.9430
    5TCq2    H413890   2.305   4.376  13.974  2.0588 -1.6668  0.5472
    6MPD1     C13891   2.062   0.734  11.578 -0.0219 -0.5165  0.3832
    6MPD1    C113892   1.996   0.829  11.660 -0.0475 -0.1738  0.9866
    6MPD1    C213893   2.027   0.837  11.791  0.0890  0.2718  0.4273
    6MPD1    C313894   2.135   0.761  11.848  0.6639  0.1048 -0.0667
    6MPD1    C413895   2.202   0.671  11.772 -0.2586 -0.3378  0.0485
    6MPD1    C513896   2.164   0.661  11.640 -0.7354 -0.2296 -0.0063
    6MPD1     H13897   1.967   0.906  11.848 -0.9191  0.2523 -0.6023
    6MPD1    H113898   2.280   0.604  11.807  0.3407  1.1272  1.5037
    6MPD1    H213899   2.039   0.726  11.472 -1.5129  0.8639  0.6049
    6MPD1    H313900   2.224   0.597  11.577 -3.1171 -2.2626 -0.1962
    6MPD1     N13901   2.164   0.761  11.988 -0.5355  0.3355 -0.4577
    6MPD1    H513902   2.229   0.692  12.025 -0.9767 -0.4060 -1.0635
    6MPD1    N113903   1.892   0.907  11.601  0.2153 -0.0387  1.1433
    6MPD1    H613904   1.908   0.921  11.502 -0.2393 -3.1215  0.6115
    6MPD1    H713905   1.887   0.995  11.651  0.8252 -0.7457  2.4526
    7MPD2     C13906   1.712   0.754  12.738  0.0483 -0.5798 -0.5756
    7MPD2    C113907   1.793   0.664  12.681 -0.1868  0.0724 -0.3397
    7MPD2    C213908   1.789   0.532  12.734  0.5752  0.2099 -1.0958
    7MPD2    C313909   1.712   0.496  12.846  0.1554  0.6038 -0.0321
    7MPD2    C413910   1.634   0.592  12.900 -0.2731  0.8821  0.2357
    7MPD2    C513911   1.633   0.717  12.841 -0.2287  0.0855  0.2727
    7MPD2     H13912   1.855   0.454  12.697  0.0896  0.4266 -2.4453
    7MPD2    H113913   1.561   0.567  12.977  0.8419 -0.0024  0.9906
    7MPD2    H213914   1.707   0.859  12.710  1.1093 -0.5194 -0.5502
    7MPD2    H313915   1.576   0.796  12.887  2.8774  1.9327  0.9354
    7MPD2     N13916   1.739   0.368  12.892 -0.4774 -0.3879  0.3804
    7MPD2    H513917   1.797   0.306  12.835  2.8741  3.7373 -0.7001
    7MPD2    N113918   1.888   0.695  12.580  0.0941 -0.0415 -0.5900
    7MPD2    H713919   1.927   0.611  12.537  1.2621  0.6645 -0.9104
    8TMC3    C113920   1.751   0.186  13.027  0.1207  0.1043 -0.1524
    8TMC3    C213921   1.831   0.164  13.133  0.7835  0.4402  0.3919
    8TMC3    C313922   1.938   0.079  13.113 -0.8301  0.5732 -0.2322
    8TMC3    C413923   1.775   0.128  12.905 -0.1208 -0.0953 -0.4911
    8TMC3    C513924   1.898   0.071  12.883 -0.0611 -0.4422  0.2169
    8TMC3    C613925   1.981   0.041  12.989 -0.1820 -0.4504  0.1888
    8TMC3     C13926   1.706   0.324  13.017  0.1860  0.2612  0.8322
    8TMC3     O13927   1.647   0.366  13.115  0.1780 -0.5987  0.2691
    8TMC3     H13928   1.805   0.214  13.226  0.6201  1.5695 -0.2645
    8TMC3    H113929   1.702   0.143  12.827  1.4604  0.0535 -1.9478
    8TMC3    H213930   2.075   4.707  12.979 -1.5122 -2.7114 -0.1425
    8TMC3    C713931   1.957   0.125  12.767  0.1399 -0.5133 -0.0298
    8TMC3    C813932   1.984   0.002  13.231 -0.1361  0.2660  0.3195
    8TMC3    O113933   1.891   0.211  12.715 -0.5654  0.0337  0.0305
    8TMC3    O213934   2.089   4.663  13.231  0.8707 -0.0785  0.0589
    9TMC3    C113935   2.097   0.791  12.218 -0.9552  0.0804  0.3542
    9TMC3    C213936   2.197   0.700  12.253 -1.1575 -0.2369 -0.6216
    9TMC3    C313937   2.205   0.662  12.383 -0.1812  0.3286  0.1871
    9TMC3    C413938   2.019   0.851  12.304 -0.3019  0.4172  0.6651
    9TMC3    C513939   2.033   0.803  12.435 -0.8577  0.2161  0.1941
    9TMC3    C613940   2.115   0.704  12.476  0.3541  0.2367  0.5631
    9TMC3     C13941   2.090   0.836  12.079  0.6042  0.0531  0.1511
    9TMC3     O13942   2.023   0.940  12.067 -0.0103 -0.1530 -0.0125
    9TMC3     H13943   2.261   0.649  12.183 -1.3394 -0.4699 -0.6194
    9TMC3    H113944   1.937   0.920  12.289 -0.1580  0.3553 -0.3824
    9TMC3    H213945   2.127   0.680  12.581 -1.7638  0.1512  0.7848
    9TMC3    C713946   1.916   0.814  12.521  0.0975  0.9430 -0.6407
    9TMC3    C813947   2.284   0.546  12.420  0.5806 -0.6440  0.5859
    9TMC3    O113948   1.854   0.920  12.525 -0.1521 -0.3188  0.1688
    9TMC3    O213949   2.401   0.532  12.386  0.5717  0.3147  0.3233
   10MPD2     C13950   2.310   0.097  12.659  0.1742 -0.4011 -0.1706
   10MPD2    C113951   2.178   0.141  12.662  1.0628  0.1999  0.6641
   10MPD2    C213952   2.151   0.268  12.612 -0.1616  0.4710 -0.1241
   10MPD2    C313953   2.252   0.335  12.546 -0.6072 -0.2868 -0.0648
   10MPD2    C413954   2.371   0.276  12.518 -0.9665  0.2950  0.0356
   10MPD2    C513955   2.406   0.161  12.584 -0.1905  0.4739 -0.6525
   10MPD2     H13956   2.061   0.323  12.632 -0.4183 -0.2556  0.6966
   10MPD2    H113957   2.436   0.324  12.445 -1.3051  1.8734  0.7611
   10MPD2    H213958   2.337   0.003  12.706  1.7204  0.5144  0.7598
   10MPD2    H313959   2.503   0.112  12.577  0.0045  0.9573 -1.3050
   10MPD2     N13960   2.206   0.453  12.482 -0.1513  0.8356 -0.4894
   10MPD2    H513961   2.111   0.485  12.494  0.4489  2.4958 -0.0246
   10MPD2    N113962   2.082   0.082  12.746  0.5033  0.1981  0.7192
   10MPD2    H713963   2.110   4.716  12.794 -0.2449  0.2366  1.2295
   11MPD2     C13964   2.886   4.057  14.307  0.1225  0.1162  0.2142
   11MPD2    C113965   2.771   4.119  14.356 -0.6338  1.1927 -0.0059
   11MPD2    C213966   2.699   4.199  14.265  0.1571  0.1011  0.7710
   11MPD2    C313967   2.745   4.221  14.136 -0.5507 -0.4210 -0.1764
   11MPD2    C413968   2.860   4.152  14.091 -0.0024 -0.7832  0.6606
   11MPD2    C513969   2.928   4.068  14.176 -0.3215 -0.4099  0.2364
   11MPD2     H13970   2.615   4.254  14.305 -1.0954 -1.8927  0.8316
   11MPD2    H113971   2.887   4.157  13.986 -1.3861  0.0745  0.3387
   11MPD2    H213972   2.927   3.983  14.375 -0.9824  0.8314  1.6643
   11MPD2    H313973   3.018   4.018  14.143 -0.3531  0.7158 -1.5424
   11MPD2     N13974   2.685   4.311  14.047  0.4514  0.3784 -0.6618
   11MPD2    H513975   2.736   4.326  13.961  2.5083 -0.3773  0.4022
   11MPD2    N113976   2.716   4.105  14.486 -0.5048 -0.1338  0.3146
   11MPD2    H713977   2.636   4.161  14.514 -0.6180 -1.0668  1.8706
    1MPD1     C13978   0.449   0.442  16.569  0.4382  0.7893  0.8512
    1MPD1    C113979   0.456   0.471  16.699  0.5158  0.2466 -0.6878
    1MPD1    C213980   0.557   0.423  16.779  0.3965 -0.3498 -0.4357
    1MPD1    C313981   0.666   0.355  16.726 -0.0980  0.3197 -0.7262
    1MPD1    C413982   0.662   0.337  16.587  0.6746 -0.2372 -0.5102
    1MPD1    C513983   0.554   0.375  16.511 -0.7436  0.4954  0.1556
    1MPD1     H13984   0.556   0.428  16.888  0.4974  1.2256 -0.5036
    1MPD1    H113985   0.747   0.285  16.544  0.8360 -0.2119 -0.2234
    1MPD1    H213986   0.369   0.476  16.504  0.6257  0.8795  0.6678
    1MPD1    H313987   0.558   0.351  16.406 -0.4113  0.9209  0.0681
    1MPD1     N13988   0.783   0.323  16.798  0.1065  0.4729  0.3404
    1MPD1    H513989   0.863   0.289  16.744 -1.8152 -1.8969 -1.0123
    1MPD1    N113990   0.344   0.527  16.768 -1.0269 -0.0707 -0.9403
    1MPD1    H613991   0.365   0.570  16.857 -2.0074  0.2514 -0.8672
    1MPD1    H713992   0.290   0.594  16.714  2.2729  1.2388 -2.6589
    2MPD1     C13993   1.674   0.686  17.313  0.0356 -0.5979 -0.1055
    2MPD1    C113994   1.657   0.553  17.330  1.1272  0.6775  0.3650
    2MPD1    C213995   1.548   0.500  17.265  0.5082 -0.5182 -1.4923
    2MPD1    C313996   1.462   0.564  17.180 -1.0225 -0.1979  0.8873
    2MPD1    C413997   1.479   0.704  17.167 -0.2044 -0.2544 -0.4252
    2MPD1    C513998   1.586   0.763  17.238  0.5065 -0.3854  0.1304
    2MPD1     H13999   1.541   0.394  17.284 -0.4783 -0.7577 -3.1914
    2MPD1    H114000   1.410   0.766  17.111  0.7772  1.7490  0.5973
    2MPD1    H214001   1.762   0.733  17.356  0.6050 -1.7914  0.0295
    2MPD1    H314002   1.616   0.866  17.223  1.6043 -0.7686 -0.2660
    2MPD1     N14003   1.353   0.494  17.123 -0.2258  0.3292 -0.0601
    2MPD1    H514004   1.357   0.393  17.119  1.3325  0.4436 -1.3502
    2MPD1    N114005   1.759   0.488  17.402  0.1760 -0.3506  0.3300
    2MPD1    H614006   1.809   0.409  17.362  0.2931  0.4216 -1.0535
    2MPD1    H714007   1.813   0.543  17.467  1.8763 -0.4904 -0.9529
    3TMC3    C114008   1.170   0.443  17.000 -0.2021 -0.2786  0.1736
    3TMC3    C214009   1.222   0.314  16.972  0.0612 -0.1400  0.7462
    3TMC3    C314010   1.133   0.215  16.935 -0.5783  0.3697 -0.7577
    3TMC3    C414011   1.032   0.461  16.981 -0.4534 -1.3169 -0.0365
    3TMC3    C514012   0.953   0.357  16.952 -0.1987  0.0055  0.3827
    3TMC3    C614013   0.998   0.232  16.927  0.2312  0.1842 -0.5536
    3TMC3     C14014   1.245   0.547  17.057 -0.1559  0.1825 -0.3598
    3TMC3     O14015   1.204   0.662  17.050 -0.2290 -0.0246 -0.2405
    3TMC3     H14016   1.324   0.293  17.002 -0.2375  1.8866  3.1604
    3TMC3    H114017   0.996   0.560  17.007 -0.2930 -1.7089  1.6473
    3TMC3    H214018   0.930   0.149  16.912  0.0452 -0.1532  2.1502
    3TMC3    C714019   0.813   0.378  16.919 -1.0775 -0.2724 -1.1099
    3TMC3    C814020   1.166   0.076  16.955 -0.3189  0.1908 -0.2391
    3TMC3    O114021   0.759   0.476  16.970 -0.1081 -0.3042  0.0161
    3TMC3    O214022   1.100   0.018  17.042  0.1324  0.1043  0.0004
    4MPD1     C14023   1.503   4.417  16.892  0.1356 -0.3661  0.6211
    4MPD1    C114024   1.563   4.529  16.840  0.6646 -0.0259 -1.0169
    4MPD1    C214025   1.494   4.647  16.851  0.0928 -0.6505  1.0825
    4MPD1    C314026   1.363   4.656  16.903 -0.0328  0.8020 -0.2392
    4MPD1    C414027   1.307   4.538  16.929 -0.2973 -0.1446  0.3312
    4MPD1    C514028   1.378   4.419  16.937  0.4914 -0.0682 -0.4458
    4MPD1     H14029   1.536   0.023  16.824  0.0610 -1.0676 -0.4702
    4MPD1    H114030   1.206   4.522  16.962 -0.6411  0.0706 -0.6202
    4MPD1    H214031   1.546   4.318  16.882  1.9364  0.5603 -0.7850
    4MPD1    H314032   1.332   4.324  16.962 -0.7698  0.6253 -0.1179
    4MPD1     N14033   1.298   0.056  16.908 -0.4910  0.5059 -0.4316
    4MPD1    H514034   1.338   0.130  16.850 -2.2317 -0.6902 -3.1711
    4MPD1    N114035   1.691   4.528  16.786  0.2299 -0.0540 -0.1744
    4MPD1    H614036   1.735   4.437  16.794  1.6721  0.5490 -1.2039
    4MPD1    H714037   1.683   4.544  16.686  1.0432  1.3034 -0.0110
    1TCq1    O114038   1.211   4.179  10.672 -0.0037 -0.0266 -0.2447
    1TCq1    C114039   1.211   4.071  10.754 -0.5851 -0.5690 -0.8165
    1TCq1    O214040   1.177   3.957  10.727 -0.0243 -0.0207 -0.5354
    1TCq1    C214041   1.298   4.112  10.858  0.3395  0.3436 -0.1276
    1TCq1    C314042   1.342   4.240  10.867 -0.5509 -0.2330 -0.4549
    1TCq1    C414043   1.442   4.273  10.953  1.2238 -0.2623  0.1139
    1TCq1    C514044   1.531   4.179  10.998  0.2294 -0.2158 -0.7875
    1TCq1    C614045   1.489   4.048  10.978 -0.0695 -0.1073  1.2772
    1TCq1    C714046   1.370   4.017  10.919 -0.0713 -0.8197  0.7092
    1TCq1    C814047   1.576   3.941  11.029  0.0320  0.0311  0.2877
    1TCq1    O414048   1.534   3.824  11.024 -0.1677  0.0556  0.1810
    1TCq1    C914049   1.479   4.411  10.951  0.3369 -0.0553 -0.1515
    1TCq1    O514050   1.588   4.446  11.007 -0.2169 -0.5046 -0.0561
    1TCq1    O614051   1.409   4.491  10.876  0.0443  0.6838  0.0996
    1TCq1    H114052   1.268   4.255  10.695  2.1034 -0.9709 -2.3020
    1TCq1    H214053   1.273   4.320  10.842 -3.6630 -2.6004  0.5369
    1TCq1    H314054   1.627   4.205  11.040 -0.1216  1.3480 -0.9720
    1TCq1    H414055   1.342   3.913  10.907  0.9895 -1.1886  1.3955
    2MPD1     C14056   2.009   3.729  11.221 -0.2776 -0.5124  0.6507
    2MPD1    C114057   2.009   3.866  11.253  0.1766 -0.0652 -0.0016
    2MPD1    C214058   1.900   3.939  11.220 -0.2019 -0.7377  0.0518
    2MPD1    C314059   1.798   3.896  11.132  0.7493 -0.4686  0.4845
    2MPD1    C414060   1.810   3.762  11.084 -0.4554 -0.5957  0.2087
    2MPD1    C514061   1.908   3.684  11.151 -0.1403  0.2926 -0.1218
    2MPD1     H14062   1.891   4.041  11.254 -0.5092  0.0416 -2.3519
    2MPD1    H114063   1.734   3.713  11.025 -1.1128  2.1458 -1.2294
    2MPD1    H214064   2.089   3.659  11.238  0.9244  0.5253 -0.7403
    2MPD1    H314065   1.914   3.580  11.121  0.0121 -0.4801  2.5797
    2MPD1     N14066   1.695   3.982  11.093 -0.6006  0.2143  0.2014
    2MPD1    H514067   1.705   4.079  11.120  1.3854 -0.9658  3.6347
    2MPD1    N114068   2.083   3.912  11.363  0.6928  0.3682  0.7521
    2MPD1    H614069   2.166   3.854  11.371  1.0273  0.8395  0.6512
    2MPD1    H714070   2.105   4.011  11.369  0.4310  0.5787 -1.6793
    1TCq1    O114071   2.972   0.568   2.640 -0.0319  0.4358  0.3061
    1TCq1    C114072   3.096   0.603   2.603  0.0638 -0.0819 -1.1660
    1TCq1    O214073   3.163   0.531   2.531 -0.6210  0.2426  0.1078
    1TCq1    C214074   3.125   0.739   2.640  0.4130 -1.1396  0.1796
    1TCq1    C314075   3.056   0.789   2.743 -0.2765  0.7924  0.5003
    1TCq1    C414076   3.060   0.926   2.760  0.4528  0.6334  0.4492
    1TCq1    C514077   3.101   1.004   2.647  1.4129 -0.6886  0.4691
    1TCq1    C614078   3.166   0.941   2.542  0.5553 -0.0344 -0.3868
    1TCq1    C714079   3.179   0.805   2.538 -0.0485  0.6621 -0.2293
    1TCq1    C814080   3.219   1.033   2.440 -0.0928  0.3220  0.5794
    1TCq1    O414081   3.155   1.133   2.421  0.4270  0.5368 -0.7396
    1TCq1    C914082   2.978   0.976   2.871 -0.4385 -0.1221  0.0868
    1TCq1    O514083   2.916   0.893   2.943 -0.1028 -0.3279  0.1310
    1TCq1    O614084   2.973   1.100   2.879  0.1191 -0.5335  0.1192
    1TCq1    H114085   2.921   0.644   2.675  0.8841  0.0920  2.3810
    1TCq1    H214086   3.024   0.721   2.821 -1.0295 -0.4013 -0.8646
    1TCq1    H314087   3.098   1.112   2.655  1.5724 -0.5815 -1.0897
    1TCq1    H414088   3.226   0.751   2.457  0.8672 -1.4627  1.7260
    2MPD1     C14089   3.585   1.190   2.128  0.3570  0.1886  0.5573
    2MPD1    C114090   3.633   1.077   2.197  0.1815 -0.6234  0.6255
    2MPD1    C214091   3.542   1.000   2.269 -0.2587  0.2807 -0.6001
    2MPD1    C314092   3.413   1.052   2.292 -0.2363  0.3671 -0.4943
    2MPD1    C414093   3.368   1.157   2.220 -0.0499  0.3441 -0.3939
    2MPD1    C514094   3.451   1.228   2.141  0.0916  0.4037  0.4058
    2MPD1     H14095   3.576   0.906   2.312 -2.0093 -0.2516 -0.3975
    2MPD1    H114096   3.262   1.181   2.221 -0.5380 -1.8139 -0.0486
    2MPD1    H214097   3.649   1.241   2.057  0.9904  1.6959  2.2252
    2MPD1    H314098   3.405   1.313   2.092  1.5679  0.7181 -0.4274
    2MPD1     N14099   3.339   0.988   2.391 -0.1643 -0.0286 -0.4959
    2MPD1    H514100   3.377   0.898   2.418 -0.2762  0.4112  1.1453
    2MPD1    N114101   3.764   1.033   2.177 -0.1080 -0.2093 -0.2028
    2MPD1    H614102   3.825   1.114   2.179 -2.5930  1.6494  0.0042
    2MPD1    H714103   3.795   0.976   2.255  1.9066  2.6114  1.0564
    1MPD1     C14104   3.225   0.409  12.100 -0.4940 -0.1393 -0.0111
    1MPD1    C114105   3.124   0.507  12.101 -0.4808 -1.0204 -0.6390
    1MPD1    C214106   3.142   0.617  12.024 -0.3810 -0.4174  0.1735
    1MPD1    C314107   3.248   0.624  11.935  0.1317  0.0034 -0.0201
    1MPD1    C414108   3.335   0.518  11.920 -0.5891  0.0476 -0.4882
    1MPD1    C514109   3.328   0.408  12.006 -0.1255 -0.2962 -0.0279
    1MPD1     H14110   3.073   0.700  12.035  0.1516  0.2398 -1.4267
    1MPD1    H114111   3.429   0.533  11.868  0.1412 -1.3765  0.4065
    1MPD1    H214112   3.228   0.330  12.175 -0.5971  0.4351  0.5927
    1MPD1    H314113   3.403   0.331  12.015 -2.9136 -3.0728 -0.5628
    1MPD1     N14114   3.270   0.754  11.879  0.2211  0.4624  0.3249
    1MPD1    H514115   3.205   0.823  11.915  0.0998 -0.2853  1.5221
    1MPD1    N114116   3.042   0.509  12.216 -0.1418  0.6116  0.1443
    1MPD1    H614117   3.011   0.412  12.224 -0.6782  0.8276  0.6586
    1MPD1    H714118   2.950   0.550  12.202 -0.4283  0.4764  1.5905
    2MPD1     C14119   2.503   1.308  11.365 -0.0901  0.7702  0.1081
    2MPD1    C114120   2.501   1.286  11.224  0.8606 -1.6471  0.3824
    2MPD1    C214121   2.582   1.176  11.182  0.1329  0.1039  0.5488
    2MPD1    C314122   2.663   1.106  11.270 -0.5475 -0.2879  0.8872
    2MPD1    C414123   2.661   1.136  11.405 -0.6303 -0.0435  0.5906
    2MPD1    C514124   2.580   1.233  11.450  0.4757  0.3332 -0.0756
    2MPD1     H14125   2.580   1.155  11.075 -0.5362  1.4302  0.2984
    2MPD1    H114126   2.726   1.085  11.476  1.8283  2.4841  0.1493
    2MPD1    H214127   2.451   1.392  11.410 -2.5212 -0.3473 -0.6136
    2MPD1    H314128   2.587   1.260  11.555 -1.1381  1.0575 -0.1517
    2MPD1     N14129   2.739   0.990  11.230  0.2233 -0.1369  0.6177
    2MPD1    H514130   2.801   0.952  11.301  1.0323  0.3838  0.1806
    2MPD1    N114131   2.447   1.378  11.131 -0.2762 -0.3991  0.1691
    2MPD1    H614132   2.436   1.336  11.039 -0.1788 -1.3704  0.6013
    2MPD1    H714133   2.356   1.418  11.150  0.0588  0.3000  0.3213
    3MPD1     C14134   2.689   0.348  10.448  0.2078 -0.5626 -0.0630
    3MPD1    C114135   2.626   0.308  10.565  0.7967 -0.1536  0.0491
    3MPD1    C214136   2.661   0.381  10.679  0.5523 -0.3999 -0.3517
    3MPD1    C314137   2.769   0.466  10.677 -0.3157 -0.1282  0.0897
    3MPD1    C414138   2.849   0.481  10.560 -0.4534 -0.1384  0.0302
    3MPD1    C514139   2.807   0.420  10.445 -0.6879 -0.1114 -0.5629
    3MPD1     H14140   2.600   0.364  10.767  1.7918 -0.9671  0.4072
    3MPD1    H114141   2.919   0.564  10.552 -1.3780  0.8918  2.5994
    3MPD1    H214142   2.651   0.314  10.353 -1.6060  0.7937  0.1827
    3MPD1    H314143   2.852   0.459  10.354  0.2909 -0.7525 -0.3507
    3MPD1     N14144   2.793   0.540  10.797  0.0419 -0.0989  0.2543
    3MPD1    H514145   2.723   0.523  10.869  0.1030 -0.9063  0.1249
    3MPD1    N114146   2.511   0.234  10.561 -0.3925 -0.2803  0.4539
    3MPD1    H614147   2.490   0.196  10.652 -3.2567  0.1970 -0.0103
    3MPD1    H714148   2.509   0.157  10.494 -0.8599 -0.0113  0.1563
    4MPD2     C14149   3.009   1.240  11.316 -0.1180  0.2187 -1.0681
    4MPD2    C114150   3.141   1.262  11.354 -0.0638  0.6459  0.0201
    4MPD2    C214151   3.230   1.310  11.256  0.4762 -0.1648  0.3027
    4MPD2    C314152   3.194   1.337  11.129  0.5997 -0.5972  0.1901
    4MPD2    C414153   3.065   1.319  11.090 -0.4240 -0.3135 -0.4860
    4MPD2    C514154   2.977   1.272  11.182  0.5783  0.7366  0.0063
    4MPD2     H14155   3.331   1.334  11.285 -0.2042  3.7399 -0.5878
    4MPD2    H114156   3.033   1.340  10.989 -1.3409  0.8671  0.0409
    4MPD2    H214157   2.934   1.197  11.382 -0.7301  3.8728  0.5807
    4MPD2    H314158   2.875   1.246  11.154  0.0583  0.5429  2.0369
    4MPD2     N14159   3.276   1.397  11.035 -0.6487  0.5518  0.7656
    4MPD2    H514160   3.244   1.393  10.939 -0.2827 -0.7336  0.7007
    4MPD2    N114161   3.195   1.217  11.470 -0.2236  0.1523 -0.1660
    4MPD2    H714162   3.296   1.226  11.473 -0.1715 -1.2682  1.9990
    5TMC3    C114163   3.241   1.112  11.677  0.5762 -0.2823 -0.1125
    5TMC3    C214164   3.240   0.986  11.717  0.2291 -0.3109 -0.6493
    5TMC3    C314165   3.360   0.939  11.758 -0.2639  0.4408 -0.5326
    5TMC3    C414166   3.353   1.191  11.666  0.1087 -0.7448  0.0097
    5TMC3    C514167   3.475   1.129  11.683 -0.1118  0.1950 -0.1956
    5TMC3    C614168   3.477   1.004  11.739  0.1274 -0.3494 -0.4661
    5TMC3     C14169   3.140   1.150  11.576 -0.1627 -0.1240  0.2474
    5TMC3     O14170   3.028   1.104  11.589  0.0838 -0.5711  0.0401
    5TMC3     H14171   3.153   0.921  11.715 -0.4983  0.5779  2.6662
    5TMC3    H114172   3.349   1.296  11.641  1.3008 -0.0869  2.5065
    5TMC3    H214173   3.575   0.977  11.777  0.5889  0.9336 -0.7455
    5TMC3    C714174   3.579   1.161  11.590  0.1659 -0.0818 -0.4994
    5TMC3    C814175   3.373   0.796  11.798 -0.2609  0.1172 -0.0345
    5TMC3    O114176   3.563   1.272  11.546 -0.1193  0.2850 -0.1256
    5TMC3    O214177   3.471   0.732  11.768 -0.6943  0.2711 -0.3201
    6TMC3    C114178   2.834   0.834  11.081  0.1653  0.1452 -0.0003
    6TMC3    C214179   2.811   0.734  10.984 -0.4851 -0.3754 -0.2972
    6TMC3    C314180   2.923   0.662  10.946  0.2428 -0.0405  0.9720
    6TMC3    C414181   2.965   0.872  11.111 -0.0978  0.6972 -0.1839
    6TMC3    C514182   3.066   0.787  11.081 -0.8942 -0.1090 -0.1840
    6TMC3    C614183   3.050   0.686  10.991  0.9099 -0.2032  0.4126
    6TMC3     C14184   2.735   0.940  11.106  0.3404 -0.6307 -0.9270
    6TMC3     O14185   2.675   0.969  11.002  0.7797 -0.2234 -0.0831
    6TMC3     H14186   2.707   0.709  10.964 -0.6192  0.9709 -1.3456
    6TMC3    H114187   2.984   0.941  11.192  1.0588 -1.2377  1.2074
    6TMC3    H214188   3.131   0.631  10.945  0.0958 -0.4185 -0.7268
    6TMC3    C714189   3.197   0.843  11.099  0.0110 -0.6020 -0.3641
    6TMC3    C814190   2.918   0.580  10.829 -0.4921  0.3119 -0.0201
    6TMC3    O114191   3.202   0.964  11.110  0.7240 -0.3224 -0.4719
    6TMC3    O214192   3.015   0.574  10.760  0.3922 -0.4649 -0.1088
    7MPD2     C14193   3.921   1.055  11.224  0.6115 -0.6475 -0.2601
    7MPD2    C114194   3.827   1.158  11.237 -0.3396 -0.0328 -0.8608
    7MPD2    C214195   3.740   1.157  11.342 -0.0744 -0.5218  1.1671
    7MPD2    C314196   3.748   1.051  11.434  0.0233  0.5687  0.1106
    7MPD2    C414197   3.841   0.946  11.420 -0.1084 -0.8746  0.0969
    7MPD2    C514198   3.926   0.953  11.314  0.2334  0.3303 -0.7169
    7MPD2     H14199   3.664   1.234  11.356  0.8593  0.6545 -0.2154
    7MPD2    H114200   3.840   0.852  11.475 -0.5378 -0.1830  1.2560
    7MPD2    H214201   3.982   1.043  11.135 -0.3039 -1.5035 -0.7631
    7MPD2    H314202   3.990   0.867  11.300 -1.3251 -1.0906  0.9185
    7MPD2     N14203   3.660   1.058  11.551  0.0639  0.2528  0.0052
    7MPD2    H514204   3.660   0.971  11.604 -3.0853  1.7428  2.4208
    7MPD2    N114205   3.830   1.257  11.136 -0.0867 -0.5535  0.5881
    7MPD2    H714206   3.891   1.259  11.055 -0.5195  1.8907  0.3096
    8TMC3    C114207   3.717   1.410  11.008  0.3089 -0.1149 -0.9184
    8TMC3    C214208   3.707   1.302  10.920  0.6233  0.1265 -0.3609
    8TMC3    C314209   3.591   1.279  10.863  0.4566  0.2508  0.1015
    8TMC3    C414210   3.612   1.492  11.027 -1.0242 -1.0018  0.2594
    8TMC3    C514211   3.490   1.476  10.962 -0.1857 -0.0632 -0.4221
    8TMC3    C614212   3.481   1.364  10.884 -0.0179  0.4576 -0.1119
    8TMC3     C14213   3.746   1.361  11.143 -0.7467  0.0628 -0.1007
    8TMC3     O14214   3.711   1.427  11.242 -0.3614 -0.4079  0.2021
    8TMC3     H14215   3.789   1.240  10.885 -0.5490 -0.8265 -1.4137
    8TMC3    H114216   3.620   1.581  11.088  1.0138 -0.4413 -0.8190
    8TMC3    H214217   3.388   1.327  10.843 -0.6582  0.3947  1.4013
    8TMC3    C714218   3.388   1.467  11.068 -0.1228  1.0369 -0.1034
    8TMC3    C814219   3.551   1.143  10.873  0.9708  0.2140 -0.3798
    8TMC3    O114220   3.416   1.524  11.172  0.2530 -0.2597  0.5863
    8TMC3    O214221   3.444   1.121  10.820 -0.3479 -0.1270  0.2164
    9MPD2     C14222   3.687   0.851  11.062  0.1940 -0.6673 -0.2148
    9MPD2    C114223   3.591   0.941  11.015 -0.1070 -0.2653  0.9670
    9MPD2    C214224   3.460   0.902  11.009  0.4093  0.4336  0.5992
    9MPD2    C314225   3.426   0.782  11.077  0.4579 -0.1751  0.6636
    9MPD2    C414226   3.524   0.700  11.119  0.1643 -0.3899 -0.4528
    9MPD2    C514227   3.657   0.725  11.106  0.5522  0.3748 -0.3474
    9MPD2     H14228   3.382   0.969  10.974  0.1536 -0.5411 -0.6939
    9MPD2    H114229   3.493   0.601  11.148 -0.4068  0.2077  0.9879
    9MPD2    H214230   3.790   0.884  11.060  0.3108 -1.1006 -1.4479
    9MPD2    H314231   3.734   0.658  11.142  0.4031 -0.6237 -1.8941
    9MPD2     N14232   3.297   0.748  11.100  0.1533  0.0174 -0.3521
    9MPD2    H514233   3.268   0.662  11.145 -0.1430  0.5186  0.4121
    9MPD2    N114234   3.638   1.063  10.953 -0.4504 -0.1436  0.0626
    9MPD2    H714235   3.728   1.093  10.989  0.7764 -1.1433 -2.2389
    1MPD1     C14236   3.581   4.479  16.870  0.5251 -0.8096 -0.7282
    1MPD1    C114237   3.620   4.362  16.924  0.4215 -0.2502 -0.2255
    1MPD1    C214238   3.535   4.256  16.905 -0.2615  0.4784 -0.2076
    1MPD1    C314239   3.416   4.261  16.838  0.2278  0.2941  0.0862
    1MPD1    C414240   3.374   4.384  16.788  0.0123 -0.0517 -0.5427
    1MPD1    C514241   3.464   4.487  16.807 -0.2054  0.0668 -0.6355
    1MPD1     H14242   3.563   4.160  16.946 -2.4670 -0.2166 -0.3499
    1MPD1    H114243   3.279   4.403  16.739 -0.4395  1.7074  1.0056
    1MPD1    H214244   3.647   4.564  16.878 -1.2645  0.6732 -1.6647
    1MPD1    H314245   3.450   4.580  16.753 -0.9535  0.3256  0.0044
    1MPD1     N14246   3.337   4.146  16.822 -0.0019  0.1719 -0.3343
    1MPD1    H514247   3.249   4.154  16.772  1.6224 -0.4386 -3.2965
    1MPD1    N114248   3.752   4.341  16.963  0.3438 -0.1077  0.1811
    1MPD1    H614249   3.771   4.260  17.022 -0.4730 -2.4108 -2.6903
    1MPD1    H714250   3.797   4.426  16.995  1.2988  1.1251 -4.4349
    2MPD1     C14251   2.807   4.055  16.159  0.0433 -0.5280  0.1942
    2MPD1    C114252   2.924   4.117  16.199 -0.0604  0.0365  1.2182
    2MPD1    C214253   2.994   4.085  16.317 -0.5041  0.2488 -0.2720
    2MPD1    C314254   2.937   3.993  16.404 -0.8336 -0.5001 -0.4817
    2MPD1    C414255   2.820   3.929  16.367  0.2167 -0.5895 -0.6654
    2MPD1    C514256   2.754   3.963  16.247  0.3641  0.0941 -0.1143
    2MPD1     H14257   3.091   4.130  16.335 -1.7695  3.2827 -0.9784
    2MPD1    H114258   2.778   3.854  16.433 -0.9919  0.4324 -0.2931
    2MPD1    H214259   2.757   4.085  16.068 -1.4960  0.7013  1.4465
    2MPD1    H314260   2.663   3.908  16.228  0.2025  1.0293 -2.1281
    2MPD1     N14261   2.998   3.971  16.527  0.1485  0.4953  0.0007
    2MPD1    H514262   3.076   4.032  16.548 -0.9978  1.1642  2.2849
    2MPD1    N114263   2.983   4.203  16.103 -0.9269  0.4729 -0.2566
    2MPD1    H614264   3.044   4.273  16.143  0.4624  0.3233 -2.1220
    2MPD1    H714265   2.912   4.251  16.048  0.4082  0.7492 -1.7368
    3TCq2    C114266   2.965   3.875  16.623  0.3944 -0.2750 -1.2856
    3TCq2    O214267   2.886   3.781  16.606  0.5985  0.1308 -0.4897
    3TCq2    C214268   3.041   3.878  16.746 -0.0933  0.0523 -0.4466
    3TCq2    C314269   3.016   3.780  16.839  0.0291 -0.4217 -0.5545
    3TCq2    C414270   3.122   3.736  16.915 -0.7823  0.1333 -0.1737
    3TCq2    C514271   3.233   3.812  16.927 -0.0095 -0.6766  0.2368
    3TCq2    C614272   3.248   3.924  16.845  0.0336  0.5017  0.3470
    3TCq2    C714273   3.152   3.956  16.753 -0.4698  0.2800 -0.3759
    3TCq2    C814274   3.356   4.022  16.880  0.4026  0.3618  0.3529
    3TCq2    O414275   3.453   3.982  16.942 -0.5323 -0.3226 -0.2900
    3TCq2    C914276   3.100   3.639  17.011  0.5764  0.2002  0.3711
    3TCq2    O514277   3.183   3.628  17.105 -0.7068  0.3878  0.5935
    3TCq2    O614278   2.977   3.598  17.016 -0.4985 -0.3553 -0.1956
    3TCq2    H214279   2.914   3.745  16.847 -0.3737  0.7649 -0.6115
    3TCq2    H314280   3.311   3.788  16.998  0.7316 -0.0997 -0.3799
    3TCq2    H414281   3.157   4.037  16.681 -1.0556 -0.0025 -0.7288
    1TCq1    O114282   0.318   2.945  13.014 -0.4614  0.2035  0.3982
    1TCq1    C114283   0.450   2.945  13.039  0.6641  0.2433 -1.1582
    1TCq1    O214284   0.504   2.864  13.109 -0.3493  0.7899  0.0938
    1TCq1    C214285   0.515   3.050  12.957  0.3628  0.5721 -0.1804
    1TCq1    C314286   0.451   3.089  12.842  0.3375 -0.2554  0.1404
    1TCq1    C414287   0.520   3.130  12.737 -0.0923 -0.2014 -0.3424
    1TCq1    C514288   0.656   3.145  12.742 -0.1771  0.2591  0.4231
    1TCq1    C614289   0.718   3.120  12.863  0.6078 -0.0654  0.0576
    1TCq1    C714290   0.652   3.059  12.969  0.1524  0.3720  0.6431
    1TCq1    C814291   0.860   3.120  12.873 -0.5654 -0.1002  0.0994
    1TCq1    O414292   0.931   3.125  12.776  0.4366 -0.1645  0.0513
    1TCq1    C914293   0.451   3.151  12.615  0.4366 -0.2128  0.1100
    1TCq1    O514294   0.332   3.119  12.609 -0.4751  0.0425  0.2789
    1TCq1    O614295   0.517   3.216  12.528 -0.0721 -0.4780 -0.2255
    1TCq1    H114296   0.295   3.040  13.006  0.1174  0.1377 -2.1320
    1TCq1    H214297   0.344   3.086  12.828  0.7326  0.6947 -2.9960
    1TCq1    H314298   0.715   3.187  12.662 -1.5113  0.2489 -0.5656
    1TCq1    H414299   0.699   3.015  13.056 -2.1485 -0.0050  1.7096
    2MPD2     C14300   1.130   3.200  12.976 -0.2742 -0.9103  0.1222
    2MPD2    C114301   1.006   3.224  13.039  0.2682 -0.3121  0.2524
    2MPD2    C214302   0.998   3.326  13.138  0.7573 -0.3435  0.1230
    2MPD2    C314303   1.110   3.388  13.185  0.7028 -0.0636 -0.3068
    2MPD2    C414304   1.229   3.352  13.126 -0.5275  0.4544 -0.5331
    2MPD2    C514305   1.235   3.263  13.024 -0.1487 -0.8651  0.1403
    2MPD2     H14306   0.901   3.350  13.178  0.7198 -1.3362  0.6178
    2MPD2    H114307   1.320   3.402  13.156 -0.1515 -0.8455  0.4863
    2MPD2    H214308   1.151   3.132  12.894 -2.1331 -0.8313 -0.4321
    2MPD2    H314309   1.331   3.254  12.974 -0.2883  0.9913 -0.4651
    2MPD2     N14310   1.110   3.465  13.301  0.1456 -0.7387 -0.0986
    2MPD2    H514311   1.017   3.500  13.325  0.6204 -0.2886  1.0996
    2MPD2    N114312   0.884   3.171  12.998 -0.1260 -0.7574 -0.7751
    2MPD2    H714313   0.804   3.214  13.044  0.9857  0.3911  0.0843
    3TCq1    O114314   0.927   3.890  13.376  0.5266  0.3552  0.4054
    3TCq1    C114315   0.935   3.853  13.502  0.1372 -0.3732 -0.2938
    3TCq1    O214316   0.880   3.918  13.592 -0.3856 -0.4059 -0.8346
    3TCq1    C214317   1.065   3.793  13.526  0.3298  0.0152 -0.4643
    3TCq1    C314318   1.110   3.797  13.656 -0.6208  0.6521 -0.2915
    3TCq1    C414319   1.205   3.701  13.689  0.1252  0.4035 -0.0985
    3TCq1    C514320   1.251   3.606  13.599 -0.2402  1.0740  0.6759
    3TCq1    C614321   1.197   3.608  13.470 -0.2967 -0.3891  0.2022
    3TCq1    C714322   1.102   3.697  13.434 -0.1524 -0.6107  0.2884
    3TCq1    C814323   1.220   3.498  13.378  0.5351 -0.3614 -0.1174
    3TCq1    O414324   1.321   3.432  13.390 -0.0609 -0.5359  0.4831
    3TCq1    C914325   1.269   3.715  13.818  0.1378  0.0958  0.0619
    3TCq1    O514326   1.226   3.793  13.905  0.2514 -0.2579 -0.0891
    3TCq1    O614327   1.368   3.650  13.840  0.4715  0.1640 -0.4926
    3TCq1    H114328   0.959   3.824  13.311  0.9910  1.7282 -0.7661
    3TCq1    H214329   1.071   3.860  13.735  0.5629  0.7304  0.2269
    3TCq1    H314330   1.327   3.534  13.629 -1.2034  0.4988  1.7448
    3TCq1    H414331   1.049   3.703  13.339 -0.1813  1.4554  0.4367
    1MPD2     C14332   1.049   4.378  15.070 -0.4936 -0.7257 -0.3265
    1MPD2    C114333   0.922   4.314  15.067  0.0527  0.7006  0.0196
    1MPD2    C214334   0.920   4.178  15.032  0.6979 -0.0090  0.0910
    1MPD2    C314335   1.035   4.105  15.015 -0.1972 -0.2627 -0.2858
    1MPD2    C414336   1.154   4.172  15.019 -0.6258  0.5772 -0.3546
    1MPD2    C514337   1.164   4.305  15.045 -0.0046 -0.0619 -0.3595
    1MPD2     H14338   0.829   4.123  15.008 -0.0082  0.3435  1.9909
    1MPD2    H114339   1.248   4.123  14.998 -0.5490  0.4292  0.3218
    1MPD2    H214340   1.060   4.485  15.085 -2.5093 -0.1486 -2.8171
    1MPD2    H314341   1.262   4.350  15.034  0.7506 -1.5228  0.4051
    1MPD2     N14342   1.021   3.973  14.987 -0.3144  0.5825  0.1278
    1MPD2    H514343   0.926   3.942  14.968 -0.2789  1.1966 -1.0251
    1MPD2    N114344   0.801   4.390  15.085 -0.4257  0.1588 -0.2056
    1MPD2    H714345   0.816   4.489  15.099  1.6059 -0.1996  0.1345
    2TMC3    C114346   0.563   4.419  15.129 -0.3780  0.3211 -0.1025
    2TMC3    C214347   0.458   4.346  15.183  0.0341 -0.0957 -0.2881
    2TMC3    C314348   0.337   4.358  15.125  0.3743 -0.2825  0.9351
    2TMC3    C414349   0.545   4.514  15.039 -0.0250  0.3336 -0.4910
    2TMC3    C514350   0.413   4.545  15.002 -0.4045  0.0387  0.1922
    2TMC3    C614351   0.312   4.465  15.047  0.2281  0.1714  0.3448
    2TMC3     C14352   0.676   4.328  15.111 -0.0194  0.1875 -0.4877
    2TMC3     O14353   0.652   4.209  15.126  0.2487 -0.0088 -0.3907
    2TMC3     H14354   0.486   4.265  15.249 -0.4991  0.6901  0.9008
    2TMC3    H114355   0.629   4.573  15.004 -0.3657 -0.1869 -2.1779
    2TMC3    H214356   0.215   4.461  14.998  0.8819  0.6877 -0.9838
    2TMC3    C714357   0.367   4.675  14.969 -0.3660 -0.3333  0.8518
    2TMC3    C814358   0.284   4.232  15.064  0.0561 -0.4918  0.5705
    2TMC3    O114359   0.251   4.698  15.000  0.0466 -0.1571 -0.1424
    2TMC3    O214360   0.172   4.229  15.012 -0.7716 -0.1343  0.2888
    3TCq1    O114361   1.138   0.571  14.837  0.2854 -0.4104  0.2992
    3TCq1    C114362   1.170   0.508  14.723  0.9425 -0.5396 -0.2587
    3TCq1    O214363   1.285   0.511  14.677 -0.3135 -0.1334  0.8535
    3TCq1    C214364   1.056   0.550  14.640 -0.1198  0.9847  0.3612
    3TCq1    C314365   1.081   0.617  14.535 -0.4164 -0.0242 -0.4230
    3TCq1    C414366   0.975   0.684  14.473  0.3449  0.8955 -0.2738
    3TCq1    C514367   0.845   0.668  14.513 -0.4442 -0.2333 -0.3889
    3TCq1    C614368   0.822   0.594  14.618  0.7245  0.7243 -0.6094
    3TCq1    C714369   0.925   0.526  14.680 -0.2654 -0.2038 -0.2673
    3TCq1    C814370   0.680   0.549  14.646  0.7571  0.0675 -0.3235
    3TCq1    O414371   0.591   0.616  14.596 -0.6678  0.5516 -0.7295
    3TCq1    C914372   1.010   0.754  14.353 -0.2967  0.0399  0.8039
    3TCq1    O514373   1.134   0.758  14.322 -0.0114 -0.6267 -0.1852
    3TCq1    O614374   0.922   0.825  14.304  0.0787 -0.1031 -0.1364
    3TCq1    H114375   1.046   0.600  14.855  0.6557 -0.3001  2.0888
    3TCq1    H214376   1.178   0.657  14.511 -1.1805  2.2242  0.2272
    3TCq1    H314377   0.766   0.716  14.457 -2.6277 -2.3598  0.8447
    3TCq1    H414378   0.900   0.469  14.769  1.4257  2.0630  1.6552
    4MPD2     C14379   0.427   0.410  14.740  0.3782 -0.2540  0.5159
    4MPD2    C114380   0.551   0.376  14.782  0.6770  0.0209 -0.2818
    4MPD2    C214381   0.552   0.253  14.848 -0.4380 -0.1942  0.4680
    4MPD2    C314382   0.445   0.172  14.878  0.7105  0.1215 -0.5291
    4MPD2    C414383   0.323   0.218  14.836 -0.2473 -1.0965  0.4184
    4MPD2    C514384   0.314   0.339  14.770  0.4967 -0.5881  0.2909
    4MPD2     H14385   0.652   0.219  14.875  0.8171  3.7566  0.8722
    4MPD2    H114386   0.231   0.164  14.851 -0.8218 -0.5656 -1.2011
    4MPD2    H214387   0.409   0.502  14.686  0.5140  0.1131  1.0973
    4MPD2    H314388   0.216   0.371  14.736  0.7914 -1.3976 -1.3307
    4MPD2     N14389   0.467   0.043  14.935 -0.1621 -0.2635  0.5733
    4MPD2    H514390   0.563   0.014  14.953 -0.4157 -0.5772  1.4242
    4MPD2    N114391   0.670   0.441  14.731 -0.3594  0.5544  1.1281
    4MPD2    H714392   0.759   0.401  14.761  0.0873  2.0227  1.7819
    5TMC2    C114393   0.847   3.698  14.920  1.1689 -0.2451 -0.5834
    5TMC2    C214394   0.853   3.612  15.028  0.3356  0.8898 -0.5809
    5TMC2    C314395   0.974   3.592  15.088  0.3055  0.4829  0.2312
    5TMC2    C414396   0.958   3.763  14.881 -0.0303  0.1610  0.7292
    5TMC2    C514397   1.073   3.749  14.949  0.5059  0.2531 -0.1006
    5TMC2    C614398   1.075   3.674  15.060 -0.0272 -0.4446  0.0502
    5TMC2     C14399   0.730   3.785  14.916  0.7585 -0.4478 -0.5670
    5TMC2     O14400   0.756   3.904  14.903  0.0406  0.1171  0.4859
    5TMC2     H14401   0.760   3.576  15.070  1.8352 -0.9813  1.0783
    5TMC2    H114402   0.948   3.827  14.794 -0.1937 -1.7931 -0.6862
    5TMC2    H214403   1.167   3.687  15.117  0.9139 -0.3227 -1.4844
    5TMC2    C714404   1.125   3.880  14.981  0.0137  0.3861 -0.1461
    5TMC2    C814405   0.982   3.492  15.189 -0.1456  0.2039 -0.0466
    5TMC2    O114406   1.237   3.881  15.030 -0.3452  0.0981 -0.1426
    5TMC2    O214407   0.914   3.391  15.198 -0.8409  0.2074  0.2361
    5TMC2    O514408   1.076   3.527  15.278  0.5034 -0.3069 -0.1233
    5TMC2    H514409   1.094   3.623  15.283  1.2749 -0.3937 -1.2752
    6MPD2     C14410   0.255   3.951  14.956 -0.1423  0.2588  0.2104
    6MPD2    C114411   0.373   4.003  15.007 -0.6900 -0.6231 -0.3581
    6MPD2    C214412   0.487   3.934  14.992 -0.0964 -0.5107  0.2260
    6MPD2    C314413   0.493   3.801  14.952  0.2244  0.4571  0.2778
    6MPD2    C414414   0.372   3.743  14.922  0.6817 -0.4251  0.3970
    6MPD2    C514415   0.258   3.815  14.925  0.2358 -0.1345  0.6448
    6MPD2     H14416   0.577   3.975  15.036 -0.8564  0.3350  0.9744
    6MPD2    H114417   0.354   3.640  14.894  1.6562  0.0370 -1.9563
    6MPD2    H214418   0.163   4.008  14.958 -0.3938 -0.0730 -1.4830
    6MPD2    H314419   0.162   3.768  14.907  1.0489 -1.3937 -0.3963
    6MPD2     N14420   0.609   3.722  14.931  0.2621 -0.1338  0.3433
    6MPD2    H514421   0.611   3.624  14.905 -1.9087  0.1727 -0.9491
    6MPD2    N114422   0.379   4.134  15.066  0.5123 -0.2050  0.2318
    6MPD2    H714423   0.474   4.158  15.091  0.3422 -0.0179  0.7045
  945NH4     N114424   4.009   2.280   9.298  0.1893 -0.0986 -0.5244
  945NH4     H214425   3.999   2.338   9.212  2.1526  0.6147 -0.2777
  945NH4     H314426   3.931   2.309   9.361  2.1398  1.1986  1.2799
  945NH4     H414427   4.100   2.307   9.340 -0.7337 -1.1943  2.1831
  945NH4     H514428   3.999   2.180   9.274 -4.2777 -0.4345  2.6321
  946SOD     NA14429   3.541   1.557   0.191 -0.2198 -0.0452  0.0021
  947SOD     NA14430   1.660   4.468  15.502  0.3338  0.4013  0.1441
  948SOD     NA14431   1.528   1.616  13.129  0.4900 -0.2171  0.3601
  949SOD     NA14432   2.133   1.187  16.795 -0.1988  0.3347  0.4024
  950SOD     NA14433   3.705   1.797   0.903 -0.0499  0.5387  0.6385
  951SOD     NA14434   1.120   3.093  10.742 -0.2528 -0.3183 -0.2117
  952SOD     NA14435   1.950   2.886   7.491  0.3238  0.0144  0.0767
  953SOD     NA14436   2.404   3.483  11.176 -0.6216  0.3388 -0.0770
  954SOD     NA14437   1.350   0.749  14.281  0.2007  0.1671  0.0407
  955SOD     NA14438   2.415   4.540  16.472  0.1776 -0.0804 -0.3044
  956SOD     NA14439   4.338   2.338  13.248 -0.0690 -0.2526  0.4541
  957SOD     NA14440   3.904   4.077   8.236  0.2333  0.1768  0.0234
  958SOD     NA14441   3.312   3.563  15.107  0.7766  0.0313 -0.1755
  959SOD     NA14442   4.031   2.541   4.039 -0.4661 -0.3345  0.6156
  960SOD     NA14443   1.236   1.208  10.851 -0.1782 -0.1149  0.9125
  961SOD     NA14444   0.831   2.882  10.199  0.3346  0.1139  0.2743
  962SOD     NA14445   1.949   4.013   2.257  0.2713 -0.4434  0.5131
  963SOD     NA14446   4.306   1.789   2.032  0.0191  0.0691 -0.0364
  964SOD     NA14447   1.504   3.882  12.229 -0.5742 -0.0830  0.2407
  965SOD     NA14448   3.324   1.695  11.298 -0.0146 -0.2719 -0.0447
  966SOD     NA14449   1.830   4.140   4.481 -0.2534  0.1300  0.0298
  967SOD     NA14450   0.438   2.745  10.449  0.4318  0.3680 -0.5336
  968SOD     NA14451   0.896   1.279  10.495  0.3938  0.4386 -0.1679
  969SOD     NA14452   1.516   3.798  11.887  0.0711  0.3062  0.1473
  970SOD     NA14453   4.140   4.187  10.982 -0.0147 -0.2172  0.1420
  971SOD     NA14454   2.545   2.411   0.339  0.0490 -0.5120  0.2903
  972SOD     NA14455   3.554   4.398  15.053 -0.1509 -0.1170  0.1153
  973SOD     NA14456   1.667   3.360  11.877 -0.1339 -0.2439  0.0960
  974SOD     NA14457   0.486   1.847   2.189  0.0674  0.6090  0.1765
  975SOD     NA14458   1.333   1.648   4.843 -0.0936 -0.1742  0.0954
  976SOD     NA14459   1.562   3.380  13.286 -0.1580  0.3350 -0.1289
  977SOD     NA14460   1.390   3.681  14.055 -0.0141  0.2384  0.2825
  978SOD     NA14461   1.392   3.522  11.841  0.0833 -0.0515  0.4383
  979SOD     NA14462   3.608   0.861   1.299  0.0205 -0.5577 -0.3882
  980SOD     NA14463   3.560   2.422  12.374 -0.0773  0.2070 -0.2587
  981SOD     NA14464   1.956   3.095   2.810  0.2107 -0.5913  0.0767
  982SOD     NA14465   3.509   3.326   7.396  0.1987 -0.3120 -0.1471
  983SOD     NA14466   0.555   0.697  16.426 -0.3873  0.0521 -0.0381
  984SOD     NA14467   3.160   4.433   0.095  0.5795  0.0815 -0.2076
  985SOD     NA14468   0.831   0.357  10.782 -0.1403  0.3003  0.2711
  986SOD     NA14469   3.363   4.119  15.104  0.3113 -0.0811  0.5338
  987SOD     NA14470   0.209   3.751   4.085 -0.2291  0.0544  0.3151
  988SOD     NA14471   2.289   2.101  16.650 -0.1906  0.0329 -0.1615
  989SOD     NA14472   0.879   3.802  10.450  0.1109 -0.0751 -0.2196
  990SOD     NA14473   0.746   4.452   0.328  0.1538 -0.3986 -0.0665
  991SOD     NA14474   3.090   3.400  14.833  0.2177  0.1249  0.2671
  992SOD     NA14475   2.078   1.441   3.610 -0.3418 -0.4003 -0.0125
  993SOD     NA14476   1.863   2.994  12.521 -0.0844  0.4473 -0.5434
  994SOD     NA14477   2.841   0.157  13.674  0.0404  0.1034 -0.2960
  995SOD     NA14478   0.844   4.261  10.931  0.2275 -0.6520 -0.7233
  996SOD     NA14479   3.508   1.815  15.064 -0.2522  0.0028 -0.7531
  997SOD     NA14480   2.716   0.153   8.630  0.5808  0.0863 -0.1074
  998SOD     NA14481   0.402   4.251  11.520  0.6180 -0.4931 -0.3742
  999SOD     NA14482   1.473   4.692  10.932 -0.4541 -0.5831  0.2020
 1000SOD     NA14483   3.683   2.399  13.726  0.0364  0.6073  0.0010
 1001SOD     NA14484   1.565   3.611  13.820 -0.0072 -0.2414 -0.3776
 1002SOD     NA14485   1.341   4.579   8.351 -0.4679 -0.7445 -0.2184
 1003SOD     NA14486   3.706   0.623   0.933  0.4789  0.1620 -0.5277
 1004SOD     NA14487   3.804   1.705  15.128 -0.4559  0.4611 -0.4013
 1005SOD     NA14488   2.542   3.424  15.233  0.5100 -0.3881 -0.5734
 1006SOD     NA14489   0.695   4.341  12.666  1.0499 -0.2870  0.3078
 1007SOD     NA14490   3.033   1.229   1.920 -0.4452  0.0836  0.0890
 1008SOD     NA14491   2.753   0.752   2.899  0.4050  0.0195  0.0065
 1009SOD     NA14492   0.121   2.200  11.833  0.2581  0.3421  0.2851
 1010SOD     NA14493   4.590   3.897  10.185  0.1477 -0.5094 -0.0558
 1011SOL     OW14494   4.635   2.591   9.561  0.6243 -0.3261  0.4187
 1011SOL    HW114495   4.678   2.629   9.638  1.2963  0.0680 -0.1558
 1011SOL    HW214496   4.608   2.506   9.596 -0.4576 -0.4345 -0.6935
 1012SOL     OW14497   1.440   1.369   9.680  0.1098 -0.2750 -0.0063
 1012SOL    HW114498   1.528   1.349   9.710  0.6942 -0.3230 -1.7534
 1012SOL    HW214499   1.442   1.465   9.675 -1.2441 -0.2798 -0.9115
 1013SOL     OW14500   1.599   4.540   8.707 -0.2383 -0.4004  0.4474
 1013SOL    HW114501   1.670   4.552   8.770 -0.1673  1.7228 -0.0435
 1013SOL    HW214502   1.545   4.607   8.749  0.1832 -1.2624  2.3630
 1014SOL     OW14503   4.073   0.246   3.267 -0.3075  0.3211  0.2523
 1014SOL    HW114504   3.982   0.245   3.295 -0.8053 -1.9666 -1.3917
 1014SOL    HW214505   4.093   0.339   3.266  0.3687  0.1814  0.5563
 1015SOL     OW14506   3.981   4.356   7.481 -0.1632  0.1529 -0.6971
 1015SOL    HW114507   4.074   4.336   7.482 -0.4872 -1.2431  0.4241
 1015SOL    HW214508   3.961   4.390   7.393  0.7629  0.9223 -0.6094
 1016SOL     OW14509   1.835   0.082   3.532  0.1166 -0.5002  0.0552
 1016SOL    HW114510   1.903   0.123   3.585  0.4846  0.2479 -0.9863
 1016SOL    HW214511   1.860   4.710   3.541 -1.7420 -1.0062 -0.0146
 1017SOL     OW14512   2.830   0.087   0.889 -0.0904 -0.1399  0.7954
 1017SOL    HW114513   2.754   0.125   0.933 -1.0574 -3.5289  2.0579
 1017SOL    HW214514   2.895   0.147   0.927 -0.6522  0.5588  0.6605
 1018SOL     OW14515   3.559   1.308  11.935  0.2554  0.8363 -0.3789
 1018SOL    HW114516   3.551   1.319  12.030  0.1901 -0.1110 -0.2772
 1018SOL    HW214517   3.643   1.262  11.929  0.0229  0.4671 -0.7516
 1019SOL     OW14518   4.139   0.336   2.688 -0.0196 -0.0246 -0.0103
 1019SOL    HW114519   4.083   0.343   2.610 -0.1291  1.0128  0.1538
 1019SOL    HW214520   4.170   0.426   2.699 -3.8922  1.3522 -0.3638
 1020SOL     OW14521   1.517   0.570   2.270  0.3617 -0.4508  0.2238
 1020SOL    HW114522   1.589   0.602   2.324  2.5297 -3.0213 -1.1402
 1020SOL    HW214523   1.523   0.479   2.300 -0.2308 -0.8584 -0.8863
 1021SOL     OW14524   4.128   3.975   7.068 -0.4780  0.6364 -0.0772
 1021SOL    HW114525   4.165   3.961   7.156 -2.5674  0.5201  0.7892
 1021SOL    HW214526   4.102   4.067   7.062 -1.6617  0.5065  2.9417
 1022SOL     OW14527   0.397   0.726  14.161  0.1992  0.0016 -0.3459
 1022SOL    HW114528   0.493   0.724  14.165  0.2211  3.3321  0.7539
 1022SOL    HW214529   0.378   0.782  14.086 -1.6306 -0.1445  0.0049
 1023SOL     OW14530   4.194   0.923  15.973  0.2733 -0.2726 -0.2182
 1023SOL    HW114531   4.134   0.984  15.929  0.2293  1.8274  2.7435
 1023SOL    HW214532   4.149   0.940  16.056  2.6035 -0.2206  1.0331
 1024SOL     OW14533   3.819   2.789   6.277 -0.4204  0.4075  0.2127
 1024SOL    HW114534   3.816   2.866   6.219 -2.2225  1.2433  1.4308
 1024SOL    HW214535   3.773   2.825   6.352  2.0258  1.0901  1.4035
 1025SOL     OW14536   2.934   1.030   6.978 -0.4058  0.1114  0.5415
 1025SOL    HW114537   2.876   1.026   6.902  0.8241  0.1584 -0.3978
 1025SOL    HW214538   2.872   1.068   7.041 -2.7662  1.0855 -2.3802
 1026SOL     OW14539   3.458   3.168   6.625  0.5547  0.5173 -0.1834
 1026SOL    HW114540   3.511   3.099   6.666 -0.9432 -1.1918 -1.0772
 1026SOL    HW214541   3.493   3.245   6.669  2.6723  0.4885 -1.8353
 1027SOL     OW14542   4.272   2.117   4.536 -0.8140  0.4560 -0.4935
 1027SOL    HW114543   4.217   2.039   4.545 -0.5704  0.4372  0.8445
 1027SOL    HW214544   4.362   2.089   4.557 -0.7338  1.7715  0.9287
 1028SOL     OW14545   0.959   1.317   2.914 -0.2866  0.5295 -0.1357
 1028SOL    HW114546   1.048   1.289   2.896 -0.6095  0.2043 -1.2175
 1028SOL    HW214547   0.927   1.227   2.922  0.9464 -0.1751 -3.3196
 1029SOL     OW14548   1.375   2.457   2.875  0.5212  0.4076  0.5651
 1029SOL    HW114549   1.369   2.432   2.783  1.2761 -0.0703  0.6480
 1029SOL    HW214550   1.460   2.418   2.892  0.0020 -1.2565 -0.6167
 1030SOL     OW14551   1.467   4.496   7.558 -0.3441  0.4007  0.0495
 1030SOL    HW114552   1.407   4.430   7.594  0.0188 -0.2723 -0.5916
 1030SOL    HW214553   1.541   4.466   7.611  0.2474 -2.5235 -2.4687
 1031SOL     OW14554   3.675   1.365   6.719 -0.4698 -0.0319  0.5814
 1031SOL    HW114555   3.581   1.365   6.700 -0.2229 -1.9395 -0.6843
 1031SOL    HW214556   3.669   1.397   6.809  0.5739 -0.2574  0.7333
 1032SOL     OW14557   2.062   4.425   5.846 -0.1270  0.2276 -0.2741
 1032SOL    HW114558   2.000   4.369   5.799 -0.3574  0.2372  0.0237
 1032SOL    HW214559   2.024   4.508   5.820 -0.3605  0.8837  2.1771
 1033SOL     OW14560   3.121   2.810   9.542 -0.0101  0.3040  0.1170
 1033SOL    HW114561   3.053   2.764   9.591  0.4114  0.0578  0.4602
 1033SOL    HW214562   3.202   2.769   9.571  0.8232  0.5678 -1.7984
 1034SOL     OW14563   0.180   1.051   9.652  0.0807 -0.4116  0.2323
 1034SOL    HW114564   0.145   0.965   9.676 -2.0795  0.4563  0.2135
 1034SOL    HW214565   0.114   1.088   9.594  2.2267  1.0438 -1.3049
 1035SOL     OW14566   3.479   2.754   8.596  0.3670 -0.1802 -0.3071
 1035SOL    HW114567   3.417   2.683   8.580 -1.2780  1.6536 -1.9738
 1035SOL    HW214568   3.438   2.812   8.661 -0.7516 -0.6992 -0.5555
 1036SOL     OW14569   1.588   4.031   0.701  0.7169  1.0361 -0.1013
 1036SOL    HW114570   1.600   4.090   0.776  0.0836 -0.0066  0.8171
 1036SOL    HW214571   1.664   3.973   0.705  1.5966  2.1971  0.0890
 1037SOL     OW14572   1.238   4.391   3.567  0.3828 -0.4938  0.2812
 1037SOL    HW114573   1.158   4.390   3.618  0.2746 -0.6847  0.1068
 1037SOL    HW214574   1.246   4.480   3.533 -0.6841 -0.6178 -0.2900
 1038SOL     OW14575   4.030   1.848   6.738  0.3893  0.4253  0.0505
 1038SOL    HW114576   4.007   1.933   6.699 -0.9047 -0.0648 -0.2449
 1038SOL    HW214577   3.983   1.799   6.670 -0.8409  1.2518  0.2985
 1039SOL     OW14578   0.356   0.132   3.001  0.5189 -0.1535  0.1118
 1039SOL    HW114579   0.329   0.082   2.923 -1.1998 -0.2044  0.7423
 1039SOL    HW214580   0.444   0.093   3.006  0.4968 -0.0712  1.0071
 1040SOL     OW14581   1.561   4.046   7.369 -0.4126  0.4975 -0.1814
 1040SOL    HW114582   1.575   4.126   7.319  3.1446 -0.5972 -0.9097
 1040SOL    HW214583   1.629   4.062   7.433 -1.9968 -1.5158  1.9891
 1041SOL     OW14584   0.675   4.120   9.578  0.5264 -0.2540 -0.1552
 1041SOL    HW114585   0.769   4.116   9.594  0.6551 -1.0190 -1.0921
 1041SOL    HW214586   0.673   4.193   9.516  1.3932  0.6286  0.8620
 1042SOL     OW14587   0.495   3.043   4.222  0.0722 -0.2216 -0.3092
 1042SOL    HW114588   0.499   3.051   4.127 -0.7923 -3.6931 -0.6087
 1042SOL    HW214589   0.582   3.062   4.257 -0.0627 -0.0675 -0.0581
 1043SOL     OW14590   3.168   4.120   5.052 -0.2003 -0.4579  0.3477
 1043SOL    HW114591   3.127   4.081   4.975 -0.6681 -3.0609  1.8934
 1043SOL    HW214592   3.121   4.076   5.123  0.2934 -1.6594 -0.0689
 1044SOL     OW14593   3.682   3.351   7.877 -0.9265  0.9402  0.0481
 1044SOL    HW114594   3.777   3.350   7.863 -0.7777 -0.1526  1.2233
 1044SOL    HW214595   3.658   3.281   7.816  0.6888  0.0941  0.3629
 1045SOL     OW14596   0.719   4.097   4.693  0.0941  0.6510  0.1839
 1045SOL    HW114597   0.627   4.070   4.684  0.0115  1.1274 -0.3803
 1045SOL    HW214598   0.732   4.092   4.787  2.0902 -1.5042 -0.2018
 1046SOL     OW14599   3.911   4.176  10.933 -0.2711 -0.1897 -0.1377
 1046SOL    HW114600   3.896   4.187  10.839  0.2826  0.7070 -0.1201
 1046SOL    HW214601   3.822   4.181  10.967  0.1637 -1.6840  1.2349
 1047SOL     OW14602   2.685   1.459   8.914  0.0397 -0.4923 -0.0155
 1047SOL    HW114603   2.625   1.467   8.988  0.9233  0.0114  0.6381
 1047SOL    HW214604   2.689   1.548   8.879 -2.7578  0.3705  1.8260
 1048SOL     OW14605   1.625   0.628   1.168 -0.6167 -0.0212  0.7615
 1048SOL    HW114606   1.609   0.589   1.082  0.8671  0.2879  0.3496
 1048SOL    HW214607   1.596   0.718   1.153  2.4776  0.5559 -1.7991
 1049SOL     OW14608   1.611   1.526   7.303 -0.7869  0.5349 -0.0418
 1049SOL    HW114609   1.691   1.579   7.304  2.0716 -3.7778  1.0688
 1049SOL    HW214610   1.566   1.566   7.228 -0.3465 -2.4798 -1.8798
 1050SOL     OW14611   4.371   1.425   1.205  0.1003  0.5370 -0.2285
 1050SOL    HW114612   4.443   1.362   1.212 -0.2187  0.2694  0.6011
 1050SOL    HW214613   4.420   1.508   1.200 -0.7205  1.1039  1.1723
 1051SOL     OW14614   1.035   1.248   4.018  0.1249 -0.9463  0.1410
 1051SOL    HW114615   1.036   1.341   4.044 -1.3014 -0.3121 -2.0789
 1051SOL    HW214616   1.104   1.236   3.952  0.9799 -0.7758  1.0003
 1052SOL     OW14617   0.692   1.168   2.986 -0.1665  0.2733  0.0298
 1052SOL    HW114618   0.607   1.197   3.020 -0.4913 -0.9771  0.2812
 1052SOL    HW214619   0.695   1.204   2.897 -2.4152  1.0139  0.2545
 1053SOL     OW14620   1.653   0.242   2.698 -0.6794 -0.2558  0.6796
 1053SOL    HW114621   1.721   0.297   2.659  0.1590 -0.9264  1.1988
 1053SOL    HW214622   1.576   0.298   2.686 -1.8324 -1.9879  0.0246
 1054SOL     OW14623   2.302   3.909  13.365  0.0287  0.6046 -0.0257
 1054SOL    HW114624   2.351   3.885  13.444 -1.2811 -1.1292  0.2531
 1054SOL    HW214625   2.347   3.847  13.309 -0.8879  2.4554 -2.8004
 1055SOL     OW14626   1.611   0.594   8.342  0.4751  0.0048 -0.1775
 1055SOL    HW114627   1.654   0.598   8.428 -2.0217 -0.5491  1.0821
 1055SOL    HW214628   1.519   0.588   8.365 -0.2438  0.1332 -3.0409
 1056SOL     OW14629   0.201   3.145   8.387 -0.0602  0.8445  1.0228
 1056SOL    HW114630   0.295   3.162   8.389  0.2225 -1.0787  3.8626
 1056SOL    HW214631   0.189   3.137   8.292 -2.9642 -2.1324  1.6299
 1057SOL     OW14632   0.235   2.228  10.958 -0.1439 -0.6251 -0.2192
 1057SOL    HW114633   0.223   2.323  10.953  0.2733 -0.6390 -1.5449
 1057SOL    HW214634   0.263   2.205  10.870 -0.6334 -0.0089 -0.5346
 1058SOL     OW14635   2.464   3.498  10.659  0.9976  0.0355 -0.2328
 1058SOL    HW114636   2.454   3.592  10.648  0.2294 -0.0642 -0.3692
 1058SOL    HW214637   2.371   3.473  10.657  1.3709 -1.1130 -3.0989
 1059SOL     OW14638   2.336   0.190   5.266  0.1827  0.2427  0.5646
 1059SOL    HW114639   2.243   0.195   5.289  0.4044  0.8332  1.3099
 1059SOL    HW214640   2.334   0.115   5.207  0.5979  2.2887 -2.0435
 1060SOL     OW14641   0.790   2.449   7.751 -0.5221  0.1144 -0.4365
 1060SOL    HW114642   0.719   2.483   7.697 -0.8825  1.3235  0.7986
 1060SOL    HW214643   0.832   2.530   7.781 -1.5542  0.4743  0.0329
 1061SOL     OW14644   2.620   3.632   7.041 -0.4531 -0.3004  0.6817
 1061SOL    HW114645   2.683   3.559   7.043  0.7223  0.6554 -1.2744
 1061SOL    HW214646   2.536   3.589   7.054 -0.2927 -0.7047  0.4153
 1062SOL     OW14647   3.985   3.306   4.042  0.0330  0.1872  0.0752
 1062SOL    HW114648   4.030   3.292   3.959  1.0611  0.7063  0.5419
 1062SOL    HW214649   3.944   3.387   4.013 -1.0471 -1.1701 -2.1591
 1063SOL     OW14650   2.957   2.379   7.640  0.2722 -0.4852 -0.1871
 1063SOL    HW114651   2.935   2.360   7.731  0.2857 -0.5347 -0.1940
 1063SOL    HW214652   3.037   2.328   7.632  0.4237 -0.3999  0.8408
 1064SOL     OW14653   0.013   1.422   5.343 -0.3634 -0.2019 -0.2887
 1064SOL    HW114654   4.651   1.462   5.313  0.7028  0.8903 -1.7318
 1064SOL    HW214655   0.078   1.430   5.273  0.7897  0.2984  0.8530
 1065SOL     OW14656   3.102   3.345   0.612  0.5463 -0.0183  0.2928
 1065SOL    HW114657   3.028   3.404   0.598  0.0872 -0.6546  0.0595
 1065SOL    HW214658   3.168   3.394   0.562 -2.5309  2.7027 -1.1191
 1066SOL     OW14659   0.177   4.093   9.831  0.5919  0.4857  0.0015
 1066SOL    HW114660   0.223   4.111   9.749  0.1529  2.4764  0.1675
 1066SOL    HW214661   0.108   4.160   9.833 -0.7473 -0.9747  1.7771
 1067SOL     OW14662   0.310   0.830  16.045  0.8574  0.1217  0.6752
 1067SOL    HW114663   0.274   0.816  16.133 -0.2242 -3.3883 -0.2890
 1067SOL    HW214664   0.262   0.779  15.980 -0.4482 -0.8282  2.3740
 1068SOL     OW14665   3.369   2.498  12.774 -0.0592  0.4073 -0.0115
 1068SOL    HW114666   3.345   2.524  12.863  0.6793 -0.1306  0.3335
 1068SOL    HW214667   3.311   2.552  12.719 -1.1019 -0.0807  0.6041
 1069SOL     OW14668   0.574   1.250   1.308 -0.5072  0.4612  0.4316
 1069SOL    HW114669   0.517   1.174   1.322  0.6234 -0.5500 -0.5231
 1069SOL    HW214670   0.635   1.208   1.248  0.4010 -0.8463  2.2740
 1070SOL     OW14671   3.568   0.597   1.925 -0.9748 -0.4578  0.1777
 1070SOL    HW114672   3.485   0.627   1.888  0.2101 -0.2441 -2.2945
 1070SOL    HW214673   3.626   0.671   1.906 -0.6145 -0.8241 -0.1632
 1071SOL     OW14674   4.205   4.677   2.813  0.1658 -0.4662 -0.0789
 1071SOL    HW114675   4.149   4.605   2.840  1.4389 -1.1940  0.6574
 1071SOL    HW214676   4.178   0.033   2.864  0.3902 -1.2016  1.1316
 1072SOL     OW14677   4.296   0.739  16.156 -0.1589 -0.3715 -0.6121
 1072SOL    HW114678   4.242   0.784  16.091 -0.6059 -0.2767 -0.1710
 1072SOL    HW214679   4.291   0.785  16.239 -1.7808 -0.6806 -0.5387
 1073SOL     OW14680   2.745   3.990   9.746  0.1210  0.2244 -0.3285
 1073SOL    HW114681   2.762   3.901   9.717  0.2551  0.4341 -0.9064
 1073SOL    HW214682   2.765   4.048   9.672  0.8337  0.8058  0.3242
 1074SOL     OW14683   3.527   0.919   4.601 -0.0521  0.2351  0.2037
 1074SOL    HW114684   3.547   0.826   4.608 -0.3851  0.1896  0.5399
 1074SOL    HW214685   3.588   0.959   4.664  1.0998  0.3346 -0.9638
 1075SOL     OW14686   0.131   3.557   7.581 -0.0964 -0.0222 -0.7721
 1075SOL    HW114687   0.100   3.647   7.577  1.0555  0.3754 -0.6669
 1075SOL    HW214688   0.213   3.562   7.532 -0.7867 -0.3634 -1.9948
 1076SOL     OW14689   4.341   4.576  14.405  0.4859 -0.1737 -0.2444
 1076SOL    HW114690   4.291   4.653  14.430 -1.7436 -1.8056  0.3735
 1076SOL    HW214691   4.429   4.611  14.394  0.7786  0.1748  3.1236
 1077SOL     OW14692   0.706   0.446  16.036 -0.2859  0.1422  0.0432
 1077SOL    HW114693   0.742   0.364  16.002 -1.4301  0.3581 -1.7087
 1077SOL    HW214694   0.747   0.503  15.971 -1.2607 -1.0104 -1.6029
 1078SOL     OW14695   2.597   1.122   4.113  0.2716 -0.5060 -0.1360
 1078SOL    HW114696   2.596   1.196   4.174  1.9202  0.2047 -0.9600
 1078SOL    HW214697   2.690   1.103   4.117  0.7240  2.0531  1.4771
 1079SOL     OW14698   3.678   4.661   0.683  0.6866 -0.4108  0.1358
 1079SOL    HW114699   3.671   4.578   0.731 -0.8968  0.5804  1.5915
 1079SOL    HW214700   3.771   4.683   0.681  0.4673  0.3776 -1.7041
 1080SOL     OW14701   0.283   1.103  12.589 -0.3990 -0.1295 -0.2527
 1080SOL    HW114702   0.265   1.193  12.564 -0.7969 -0.2839 -0.5215
 1080SOL    HW214703   0.198   1.058  12.588 -1.1242  1.2295  1.2794
 1081SOL     OW14704   2.023   3.748   8.867 -0.0646 -0.5559 -0.3269
 1081SOL    HW114705   2.095   3.752   8.930  0.0286  2.0776 -0.5786
 1081SOL    HW214706   2.068   3.758   8.783 -2.0101  2.1590 -1.0555
 1082SOL     OW14707   3.330   3.244   8.487 -0.1683  0.1944 -0.1101
 1082SOL    HW114708   3.380   3.199   8.419  1.1386  0.1935  0.8666
 1082SOL    HW214709   3.387   3.304   8.535 -3.1785  2.5186  0.5790
 1083SOL     OW14710   1.072   3.779  15.364  0.5885  0.0309  0.0059
 1083SOL    HW114711   1.111   3.862  15.393  0.0710 -0.1975  1.3549
 1083SOL    HW214712   0.996   3.764  15.419  0.4573 -1.3474 -0.5542
 1084SOL     OW14713   0.549   0.234   4.278  0.4956  0.0199  0.4468
 1084SOL    HW114714   0.502   0.174   4.221  2.5224  1.6485 -2.9355
 1084SOL    HW214715   0.487   0.242   4.350  0.3560 -1.0932  0.4495
 1085SOL     OW14716   1.629   4.012  15.695  0.4271 -0.4006 -0.4235
 1085SOL    HW114717   1.649   3.991  15.603 -3.3107 -2.7622 -0.6958
 1085SOL    HW214718   1.623   3.925  15.736 -1.2929 -0.4618 -0.8223
 1086SOL     OW14719   4.612   4.246  10.446  0.2408  0.3648 -0.4728
 1086SOL    HW114720   4.613   4.268  10.539  0.8320  0.0243 -0.3959
 1086SOL    HW214721   4.567   4.325  10.415 -2.0246 -1.5732 -2.0625
 1087SOL     OW14722   0.155   1.942  14.211  0.5213 -0.0172 -0.1017
 1087SOL    HW114723   0.208   1.872  14.250  0.0550  0.7123  1.7951
 1087SOL    HW214724   0.221   2.008  14.192  0.0509  0.8951  1.5172
 1088SOL     OW14725   2.218   0.612   4.556 -0.2775  0.0560  0.3293
 1088SOL    HW114726   2.219   0.583   4.647  0.8772 -0.0655  0.2766
 1088SOL    HW214727   2.280   0.686   4.558 -1.2664  0.9131 -0.8774
 1089SOL     OW14728   4.046   1.779   0.689  0.1261 -0.3587 -0.4295
 1089SOL    HW114729   4.093   1.848   0.642  0.1061  0.0152  0.1064
 1089SOL    HW214730   3.986   1.843   0.728  1.6893 -0.0720  1.4924
 1090SOL     OW14731   4.279   0.102   7.536  0.1452  0.0407 -0.4241
 1090SOL    HW114732   4.217   0.086   7.608 -1.8607  1.1071 -1.8963
 1090SOL    HW214733   4.363   0.077   7.573 -0.5463 -0.8786  0.5361
 1091SOL     OW14734   0.420   1.302   6.184 -0.9033  0.3288 -0.1767
 1091SOL    HW114735   0.471   1.359   6.240 -0.8423  1.1633 -1.0982
 1091SOL    HW214736   0.447   1.214   6.213  0.3710  0.9536  0.5188
 1092SOL     OW14737   2.989   0.289   7.202  0.4931 -0.0392 -0.0737
 1092SOL    HW114738   2.994   0.254   7.113 -0.2186 -0.5705  0.0965
 1092SOL    HW214739   2.958   0.209   7.245 -0.3113  0.8363  0.9721
 1093SOL     OW14740   1.854   0.258   7.466 -0.1139 -0.3684  0.3163
 1093SOL    HW114741   1.846   0.345   7.503  0.7361 -0.6079  1.0832
 1093SOL    HW214742   1.767   0.233   7.436  0.3681 -3.2169  1.2680
 1094SOL     OW14743   3.193   0.075  12.184 -0.3000  0.3051 -0.4965
 1094SOL    HW114744   3.170   4.712  12.225 -1.2582  0.9003  0.1801
 1094SOL    HW214745   3.289   0.078  12.185 -0.2739 -0.1200 -1.5813
 1095SOL     OW14746   0.409   3.818  12.008  0.3376 -0.3628  0.0423
 1095SOL    HW114747   0.425   3.780  11.922 -3.0393  2.2280 -1.7421
 1095SOL    HW214748   0.326   3.780  12.034 -0.0847  1.0091  0.7078
 1096SOL     OW14749   0.974   3.739   0.881 -0.3190  0.1629 -0.5879
 1096SOL    HW114750   1.059   3.749   0.838 -0.3441 -2.2690 -1.2226
 1096SOL    HW214751   0.995   3.789   0.960  1.7502  0.1600 -1.1439
 1097SOL     OW14752   2.140   0.156   8.620 -0.0289  0.0776  0.0760
 1097SOL    HW114753   2.070   0.112   8.572 -2.1034  0.5426  2.6791
 1097SOL    HW214754   2.089   0.218   8.673 -0.8809  0.7428 -1.5304
 1098SOL     OW14755   1.571   0.230   1.111  0.1267  0.0225  0.0551
 1098SOL    HW114756   1.596   0.267   1.027  1.2273  2.3381  1.4014
 1098SOL    HW214757   1.477   0.248   1.119  0.0078 -1.1536  1.2982
 1099SOL     OW14758   4.638   2.334   4.090 -0.0397  0.0290  0.3556
 1099SOL    HW114759   4.593   2.315   4.008  2.4969  1.7524 -1.4244
 1099SOL    HW214760   4.694   2.405   4.060 -1.9355  1.6798  0.6990
 1100SOL     OW14761   1.937   2.114  14.206 -0.5512  0.4907 -0.0377
 1100SOL    HW114762   1.862   2.055  14.202 -0.3369  0.2920 -1.3175
 1100SOL    HW214763   1.967   2.099  14.295  0.5905 -0.5359 -0.5960
 1101SOL     OW14764   4.537   1.608   3.563  0.3609 -0.2497 -0.3368
 1101SOL    HW114765   4.494   1.556   3.631 -1.2618  1.3377 -0.1634
 1101SOL    HW214766   4.484   1.687   3.570  0.1406 -0.4269  0.0077
 1102SOL     OW14767   4.112   1.227   5.431 -0.2794 -0.3585 -0.0367
 1102SOL    HW114768   4.091   1.302   5.376 -0.0158  0.8527  1.5394
 1102SOL    HW214769   4.152   1.159   5.376 -0.3211 -1.6245  1.5129
 1103SOL     OW14770   1.296   0.326   6.508 -0.4820 -0.0871  0.4311
 1103SOL    HW114771   1.325   0.246   6.551  0.6965  0.7561  1.2071
 1103SOL    HW214772   1.365   0.389   6.533  0.4719 -0.4330 -1.3485
 1104SOL     OW14773   4.175   1.174   7.705  0.0638  0.0083  0.4471
 1104SOL    HW114774   4.244   1.233   7.735 -0.0165  1.2814 -1.9282
 1104SOL    HW214775   4.134   1.241   7.651  0.2513 -0.1826  0.0687
 1105SOL     OW14776   0.131   4.448   5.304  0.3821 -0.4083  0.2015
 1105SOL    HW114777   0.109   4.532   5.263  0.2416 -0.8161 -0.5543
 1105SOL    HW214778   0.089   4.384   5.247 -0.5207  1.4393 -1.2030
 1106SOL     OW14779   2.033   3.194  13.166 -0.0378  0.3285  0.1453
 1106SOL    HW114780   1.940   3.198  13.189  0.1336 -0.9880  1.0351
 1106SOL    HW214781   2.037   3.223  13.075  0.1249  0.4051  0.1773
 1107SOL     OW14782   1.118   1.569  10.018  0.2817  0.5386 -0.8089
 1107SOL    HW114783   1.135   1.629   9.946  0.1816  0.8741 -0.5521
 1107SOL    HW214784   1.070   1.627  10.077  1.3591 -0.5253  1.1356
 1108SOL     OW14785   1.030   0.607   1.202  0.1021 -0.5678 -0.2062
 1108SOL    HW114786   1.111   0.560   1.183  1.4670  0.9788  1.8976
 1108SOL    HW214787   0.992   0.609   1.114  1.8850 -1.0686 -0.9758
 1109SOL     OW14788   0.034   0.377   3.720  0.2226 -0.0794 -0.2007
 1109SOL    HW114789   4.701   0.301   3.695 -0.5880 -0.1142  1.6340
 1109SOL    HW214790   4.686   0.442   3.707  0.5401  0.8572  2.8693
 1110SOL     OW14791   2.323   1.081  13.927 -0.0540 -0.1006 -0.0475
 1110SOL    HW114792   2.312   1.006  13.869 -0.5945  0.2314 -0.3769
 1110SOL    HW214793   2.413   1.110  13.915 -1.3034  4.3488  1.4541
 1111SOL     OW14794   4.251   4.419   5.161  0.0650  0.7176 -0.1414
 1111SOL    HW114795   4.187   4.353   5.188  2.6448 -2.4960 -1.8544
 1111SOL    HW214796   4.274   4.453   5.248 -3.6264  1.3841  0.5549
 1112SOL     OW14797   3.875   4.365   8.455 -1.0282  0.5306  0.4357
 1112SOL    HW114798   3.805   4.360   8.520 -1.0627  2.6852  0.5580
 1112SOL    HW214799   3.932   4.426   8.501  2.1212 -1.3372 -1.0223
 1113SOL     OW14800   1.351   1.700   3.920  0.0730 -0.3006  0.1210
 1113SOL    HW114801   1.276   1.646   3.945 -1.0215  2.2572  2.3156
 1113SOL    HW214802   1.337   1.700   3.825  1.4479 -1.0531 -0.0879
 1114SOL     OW14803   4.280   1.149   4.620  0.3771 -0.5457  0.5732
 1114SOL    HW114804   4.225   1.074   4.596  0.6545 -0.7112  0.4552
 1114SOL    HW214805   4.229   1.228   4.605  1.5433  0.1347  0.2263
 1115SOL     OW14806   4.259   2.478   7.034  0.5639 -0.2877  0.0668
 1115SOL    HW114807   4.345   2.456   7.000 -0.2406  1.8611 -3.3486
 1115SOL    HW214808   4.230   2.551   6.979  0.2680 -0.3686  0.1143
 1116SOL     OW14809   3.297   2.275  14.948  0.4525 -0.4019  0.1436
 1116SOL    HW114810   3.331   2.301  14.862 -1.6749  2.7001  0.2270
 1116SOL    HW214811   3.303   2.364  14.983  0.6759 -0.1563 -0.5142
 1117SOL     OW14812   3.624   2.201   5.130  0.6873  0.1541  0.1489
 1117SOL    HW114813   3.702   2.227   5.080 -0.8460  0.8762 -1.8892
 1117SOL    HW214814   3.617   2.117   5.084  1.3346  0.5451 -0.6673
 1118SOL     OW14815   2.593   2.146   8.852  0.7690  0.3831 -0.8668
 1118SOL    HW114816   2.520   2.120   8.908  1.0522  1.9426  0.2127
 1118SOL    HW214817   2.663   2.169   8.912  1.8915  0.3533 -2.1673
 1119SOL     OW14818   0.065   3.999   8.110  0.0375  0.2280  0.0837
 1119SOL    HW114819   0.105   4.008   8.196  0.6175 -0.4972 -0.1134
 1119SOL    HW214820   4.700   3.974   8.148  0.4645 -1.7157 -0.2458
 1120SOL     OW14821   3.210   2.142   2.152 -0.2739 -0.4483  0.2789
 1120SOL    HW114822   3.302   2.155   2.175 -0.1319 -0.3302 -0.3386
 1120SOL    HW214823   3.218   2.084   2.077 -2.2934 -1.0676  0.5495
 1121SOL     OW14824   2.247   3.340  16.106  0.1994  0.0492 -0.0226
 1121SOL    HW114825   2.325   3.344  16.161  0.5801  2.0189 -0.7416
 1121SOL    HW214826   2.189   3.394  16.159  2.0152 -0.6405  2.6649
 1122SOL     OW14827   1.491   1.085   3.402  0.4511  0.0344  0.2728
 1122SOL    HW114828   1.485   1.147   3.329 -0.6063 -1.2360 -0.7094
 1122SOL    HW214829   1.439   1.012   3.368  0.4587 -1.4969  3.5167
 1123SOL     OW14830   0.442   2.522   7.259 -0.2559  0.7662 -0.2187
 1123SOL    HW114831   0.430   2.520   7.354  2.4317 -0.0391  0.0904
 1123SOL    HW214832   0.537   2.517   7.257 -0.3411 -0.8500 -0.3010
 1124SOL     OW14833   1.033   1.498   2.675  0.3110  0.0308  0.0715
 1124SOL    HW114834   1.081   1.419   2.653  0.5539  0.0463  0.5473
 1124SOL    HW214835   0.952   1.469   2.718  0.9313 -0.3442  0.9727
 1125SOL     OW14836   2.675   1.001   4.434 -0.3751  0.6919  0.5751
 1125SOL    HW114837   2.708   1.089   4.452 -0.5320  1.3246 -2.2574
 1125SOL    HW214838   2.716   0.985   4.349 -0.1857 -0.3204  0.8497
 1126SOL     OW14839   2.506   4.589  11.127  0.1177 -0.1642  0.0092
 1126SOL    HW114840   2.445   4.560  11.195  0.0704  1.7521  0.7588
 1126SOL    HW214841   2.510   4.514  11.067 -1.2754 -1.2684  1.3112
 1127SOL     OW14842   1.635   2.732   3.264 -0.0170 -0.3608  0.3873
 1127SOL    HW114843   1.729   2.750   3.255 -0.3522  0.3792 -1.6748
 1127SOL    HW214844   1.606   2.809   3.215  2.3983  0.6463  0.5451
 1128SOL     OW14845   3.132   3.882   3.409  0.2961  0.0153  0.1338
 1128SOL    HW114846   3.200   3.873   3.475  1.1531  0.0723 -0.7473
 1128SOL    HW214847   3.074   3.942   3.456  0.3778 -1.7838  2.5021
 1129SOL     OW14848   1.543   3.097  14.858  0.1185  0.2533 -0.2093
 1129SOL    HW114849   1.622   3.089  14.912 -0.0537 -1.6294 -0.2477
 1129SOL    HW214850   1.562   3.168  14.796  0.9260 -0.4527 -0.7683
 1130SOL     OW14851   2.881   2.250   8.106 -0.4423 -0.3045  0.1685
 1130SOL    HW114852   2.907   2.161   8.129  0.3343 -0.3744 -0.9703
 1130SOL    HW214853   2.791   2.247   8.138 -0.5093  1.1287  0.1316
 1131SOL     OW14854   1.965   1.232   3.647  0.3138  0.0931 -0.6136
 1131SOL    HW114855   2.030   1.164   3.664 -0.3841 -0.1778  0.9997
 1131SOL    HW214856   1.925   1.202   3.565 -0.9422  1.4599 -0.4988
 1132SOL     OW14857   0.138   0.334  12.478  0.2647  0.5743 -0.1117
 1132SOL    HW114858   0.069   0.388  12.440 -0.3859  1.3910  2.2885
 1132SOL    HW214859   0.154   0.391  12.553 -0.8065  2.6947 -1.4910
 1133SOL     OW14860   4.002   4.176   6.954 -0.2783  0.1785 -0.1186
 1133SOL    HW114861   4.044   4.179   6.868 -0.2757 -1.7761 -0.1740
 1133SOL    HW214862   3.985   4.269   6.969 -3.6719 -0.3572 -0.7870
 1134SOL     OW14863   4.567   1.130   7.747 -0.2870 -0.4873  0.1316
 1134SOL    HW114864   4.474   1.110   7.748 -0.1764 -0.9403  1.2046
 1134SOL    HW214865   4.590   1.139   7.839  0.5190  0.7125 -0.1829
 1135SOL     OW14866   1.506   2.271   2.207  0.4825  0.1409  0.0468
 1135SOL    HW114867   1.428   2.303   2.252 -0.5998 -0.9238 -1.0923
 1135SOL    HW214868   1.509   2.181   2.239 -0.8325  0.1663  0.2365
 1136SOL     OW14869   0.822   0.401   4.481  0.0281  0.3257 -0.4756
 1136SOL    HW114870   0.836   0.369   4.392  0.0000  3.3907 -1.5932
 1136SOL    HW214871   0.816   0.496   4.465 -1.0063  0.1039 -1.4034
 1137SOL     OW14872   1.206   1.292   9.284 -0.0020 -0.1508  0.4010
 1137SOL    HW114873   1.119   1.267   9.253  0.8490 -0.6357 -1.5965
 1137SOL    HW214874   1.191   1.316   9.375  0.6895 -0.7806  0.6824
 1138SOL     OW14875   0.815   2.066   6.876  0.1506 -0.2642 -0.4881
 1138SOL    HW114876   0.744   2.128   6.861 -0.6694 -1.0236  0.3098
 1138SOL    HW214877   0.879   2.098   6.812 -1.5216  0.2722 -1.8922
 1139SOL     OW14878   0.640   3.315   6.962 -0.2406  0.1267  0.4935
 1139SOL    HW114879   0.729   3.329   6.993  0.0063 -1.7801  0.6438
 1139SOL    HW214880   0.593   3.371   7.024 -0.3757  1.2114 -0.5836
 1140SOL     OW14881   1.276   1.727   5.043  0.7663 -0.1043  0.3130
 1140SOL    HW114882   1.224   1.760   5.116 -2.4899 -1.5525 -1.2965
 1140SOL    HW214883   1.363   1.735   5.080  0.7129 -0.1280  0.4454
 1141SOL     OW14884   2.575   3.773   1.742  0.2822  0.0211 -0.3102
 1141SOL    HW114885   2.551   3.716   1.669  0.7712 -1.1854  0.4669
 1141SOL    HW214886   2.649   3.829   1.720 -0.1193  0.4065 -0.6751
 1142SOL     OW14887   3.799   3.791   2.830  0.0073 -0.2429  0.1737
 1142SOL    HW114888   3.877   3.738   2.812 -0.0556 -0.3796  0.3102
 1142SOL    HW214889   3.728   3.730   2.814 -2.4736  2.8060 -0.4356
 1143SOL     OW14890   1.458   0.915   7.727 -0.3216  0.2700 -0.3440
 1143SOL    HW114891   1.422   0.949   7.646  3.2652  3.1935 -0.6763
 1143SOL    HW214892   1.387   0.852   7.742  0.1639  0.0467  0.9905
 1144SOL     OW14893   3.273   3.422   7.401  0.3926 -0.7821 -0.1602
 1144SOL    HW114894   3.222   3.423   7.320 -0.0852  0.8203  0.1467
 1144SOL    HW214895   3.215   3.441   7.476  1.1620  5.0921 -1.0474
 1145SOL     OW14896   1.315   1.341  16.811 -0.4845 -0.6122  0.0698
 1145SOL    HW114897   1.231   1.379  16.834  0.2603  0.7207  0.6171
 1145SOL    HW214898   1.294   1.248  16.814  2.4498 -1.1946  2.5077
 1146SOL     OW14899   4.668   0.084   3.919 -0.0626  0.2760 -0.3649
 1146SOL    HW114900   4.694   0.172   3.946  0.7343 -0.3807  0.9704
 1146SOL    HW214901   4.594   0.095   3.858 -1.8851 -1.4484  1.5328
 1147SOL     OW14902   4.626   3.092  12.284 -0.6978  0.1882  0.3629
 1147SOL    HW114903   4.718   3.105  12.262 -0.8096  1.0931  0.4316
 1147SOL    HW214904   4.630   3.136  12.369  0.5002  2.1905 -0.7371
 1148SOL     OW14905   4.601   1.229   9.077  0.1667 -0.0517 -0.0392
 1148SOL    HW114906   4.646   1.206   9.159 -0.0858  1.9570  0.6696
 1148SOL    HW214907   4.602   1.324   9.088 -3.0453  0.3898 -3.7595
 1149SOL     OW14908   3.443   1.933   8.154 -0.0978 -0.1304 -0.2389
 1149SOL    HW114909   3.495   1.862   8.115  1.1588 -0.7332  2.5289
 1149SOL    HW214910   3.442   1.994   8.080 -0.8028  0.3321  0.1582
 1150SOL     OW14911   2.230   0.830   3.924  0.1351 -0.2778 -0.7940
 1150SOL    HW114912   2.194   0.843   4.011 -1.7014 -1.1508 -1.4129
 1150SOL    HW214913   2.316   0.806   3.959  0.9461 -0.4445 -2.9023
 1151SOL     OW14914   1.208   1.347   2.511 -0.1618 -0.3249  0.4363
 1151SOL    HW114915   1.205   1.347   2.415 -0.8370  0.0039  0.4576
 1151SOL    HW214916   1.223   1.441   2.525 -0.2365 -0.1412 -0.7255
 1152SOL     OW14917   2.150   4.231   0.559 -0.8925 -0.5406 -0.1618
 1152SOL    HW114918   2.059   4.218   0.586 -1.1336 -0.5001 -0.9445
 1152SOL    HW214919   2.195   4.219   0.642 -0.3999 -0.4712 -0.4157
 1153SOL     OW14920   3.461   3.164   7.886  0.1070  0.4326 -0.4697
 1153SOL    HW114921   3.410   3.242   7.903 -0.1904  0.0605  0.3619
 1153SOL    HW214922   3.486   3.142   7.976  0.9614 -1.0166 -1.0449
 1154SOL     OW14923   2.073   4.641   2.623 -0.0456  0.5934  0.1144
 1154SOL    HW114924   2.034   4.669   2.540  1.5751  1.0159 -0.5184
 1154SOL    HW214925   2.026   4.690   2.690 -1.5448 -1.0467  0.2432
 1155SOL     OW14926   3.838   4.233  12.539  0.4757  0.4964 -0.5109
 1155SOL    HW114927   3.771   4.300  12.552  0.6697  0.3049  1.4305
 1155SOL    HW214928   3.917   4.284  12.555  0.9855 -0.1323 -0.9967
 1156SOL     OW14929   4.211   2.474   5.784 -0.2397 -0.2959  0.1127
 1156SOL    HW114930   4.160   2.452   5.706 -1.3844  0.7589  0.5623
 1156SOL    HW214931   4.251   2.391   5.809  0.5078 -0.2233 -0.8212
 1157SOL     OW14932   0.350   3.052   1.494  0.0572  0.0540  0.0651
 1157SOL    HW114933   0.261   3.017   1.498  0.1592 -0.3019 -0.7599
 1157SOL    HW214934   0.343   3.147   1.492  2.0592  0.1811 -0.8987
 1158SOL     OW14935   2.880   4.580   2.976 -0.2819  0.2359 -0.9556
 1158SOL    HW114936   2.865   4.660   3.026 -0.2296  0.9914 -2.1611
 1158SOL    HW214937   2.889   4.526   3.055  1.0868  1.8948  0.0318
 1159SOL     OW14938   0.976   4.645   2.081 -0.0617 -0.1399 -0.1369
 1159SOL    HW114939   0.934   4.563   2.106  1.9592 -0.5417  1.9913
 1159SOL    HW214940   0.894   4.693   2.089 -1.1213 -2.4050  2.2366
 1160SOL     OW14941   3.236   3.327   5.214  0.2283  0.8308 -0.4856
 1160SOL    HW114942   3.183   3.252   5.241  3.1866 -0.9472  0.3667
 1160SOL    HW214943   3.214   3.397   5.276 -2.9657  0.5988 -1.3891
 1161SOL     OW14944   0.757   1.082   6.404 -0.3026  0.1704 -0.0059
 1161SOL    HW114945   0.765   1.147   6.474 -0.5892 -0.4828  0.6322
 1161SOL    HW214946   0.837   1.031   6.419 -0.2752  0.5043  0.9603
 1162SOL     OW14947   3.859   2.509   3.641 -0.0086  0.2161 -0.0310
 1162SOL    HW114948   3.905   2.558   3.573 -0.3309 -0.0649 -0.4581
 1162SOL    HW214949   3.765   2.527   3.642  0.2668  1.5583  0.7729
 1163SOL     OW14950   2.039   3.343   3.883  0.7324 -0.1038  0.5404
 1163SOL    HW114951   2.115   3.396   3.910  1.5915 -1.1812  0.2402
 1163SOL    HW214952   2.014   3.294   3.960 -1.7690  0.8493  0.3262
 1164SOL     OW14953   0.690   1.921   0.249 -0.3139 -0.2043  0.0201
 1164SOL    HW114954   0.648   1.999   0.213 -0.2710 -0.9515 -1.6298
 1164SOL    HW214955   0.620   1.863   0.279 -1.4226 -0.1011 -2.3642
 1165SOL     OW14956   4.542   0.898  13.765 -0.0581 -0.0255  0.4076
 1165SOL    HW114957   4.465   0.952  13.785 -1.0743 -1.3182  0.0028
 1165SOL    HW214958   4.537   0.908  13.670 -0.4891  1.0021  0.5370
 1166SOL     OW14959   2.850   0.590  13.730 -0.5362  0.0307 -0.2718
 1166SOL    HW114960   2.849   0.680  13.763 -1.4281  0.3026 -1.0398
 1166SOL    HW214961   2.936   0.559  13.759 -1.0339 -0.9317  0.1932
 1167SOL     OW14962   1.438   3.561  10.925  0.0058  0.5371  0.4960
 1167SOL    HW114963   1.460   3.644  10.966  2.0906 -0.4616  1.3984
 1167SOL    HW214964   1.463   3.583  10.835  0.8023  0.1580  0.6258
 1168SOL     OW14965   0.471   3.679   7.950  0.0129 -0.2331 -0.4495
 1168SOL    HW114966   0.497   3.767   7.923 -2.4563  0.4631 -0.5720
 1168SOL    HW214967   0.414   3.643   7.882 -1.2048 -0.0548  0.4674
 1169SOL     OW14968   1.361   0.544   3.954 -0.2157 -0.0483  0.1437
 1169SOL    HW114969   1.368   0.484   4.028  0.2901 -0.1522  0.0106
 1169SOL    HW214970   1.362   0.473   3.889 -0.7201  1.4288 -1.4890
 1170SOL     OW14971   1.803   2.020   3.446  0.5670 -0.3048  0.5421
 1170SOL    HW114972   1.719   1.992   3.484  0.7694  0.7346  1.7322
 1170SOL    HW214973   1.772   2.101   3.406 -1.4924  0.7601  4.3443
 1171SOL     OW14974   2.229   2.940  11.563 -0.2790  0.0704  0.4810
 1171SOL    HW114975   2.274   3.000  11.504 -2.8813  0.2932 -1.2628
 1171SOL    HW214976   2.301   2.915  11.621  1.0080  0.0100 -1.1441
 1172SOL     OW14977   4.558   1.077   2.908 -0.3905  0.1490 -0.5054
 1172SOL    HW114978   4.542   1.131   2.830 -2.7040  1.6714  1.0135
 1172SOL    HW214979   4.628   1.130   2.948 -1.7478  0.1302  1.9289
 1173SOL     OW14980   0.796   2.678   0.480 -0.7422  0.2767 -0.4313
 1173SOL    HW114981   0.731   2.748   0.490  0.0395  0.9267  0.2464
 1173SOL    HW214982   0.853   2.698   0.555 -0.0949 -0.8804 -0.6145
 1174SOL     OW14983   3.817   1.663   1.056  0.2253  0.7663 -0.2991
 1174SOL    HW114984   3.910   1.673   1.034  0.6354 -0.2076  1.0098
 1174SOL    HW214985   3.827   1.571   1.080 -1.1752  0.5901 -0.4290
 1175SOL     OW14986   4.618   3.282   6.602 -0.2568  0.0978  0.3041
 1175SOL    HW114987   4.696   3.246   6.559 -1.2953 -0.1889 -1.3313
 1175SOL    HW214988   4.654   3.335   6.674 -0.1255  1.5556 -0.8309
 1176SOL     OW14989   2.620   0.211  16.910  0.0058  0.0535  0.2174
 1176SOL    HW114990   2.678   0.142  16.940  2.1385  2.2575  1.1539
 1176SOL    HW214991   2.680   0.248  16.846  2.5433 -2.8985  0.8987
 1177SOL     OW14992   1.244   4.296   7.124 -0.1626 -0.1396  0.3968
 1177SOL    HW114993   1.197   4.221   7.161 -1.3383 -0.0468 -0.8945
 1177SOL    HW214994   1.254   4.271   7.032 -0.4835  1.1990  0.0086
 1178SOL     OW14995   1.414   2.888   1.234 -0.3359 -0.1237 -0.0180
 1178SOL    HW114996   1.371   2.884   1.319  0.3891 -0.0974  0.3538
 1178SOL    HW214997   1.507   2.871   1.246 -0.1860  1.5857  1.2604
 1179SOL     OW14998   1.309   0.942   5.979  0.0986  0.5279 -0.4581
 1179SOL    HW114999   1.337   1.000   5.908  2.4881  0.8677  0.7478
 1179SOL    HW215000   1.267   1.008   6.035 -0.3691 -0.5350  0.4342
 1180SOL     OW15001   4.653   2.099  11.920 -0.1479  0.5458 -0.0797
 1180SOL    HW115002   4.598   2.055  11.856 -0.6331  1.2206 -0.1280
 1180SOL    HW215003   4.586   2.140  11.975  2.1729  1.5496  2.0152
 1181SOL     OW15004   1.278   3.348   3.469  0.1277  0.5563 -0.6269
 1181SOL    HW115005   1.210   3.369   3.533  3.9763  0.2213  3.5706
 1181SOL    HW215006   1.230   3.301   3.402 -0.9374 -0.5282  0.8929
 1182SOL     OW15007   1.077   3.454   3.155 -0.6889  0.9206 -0.0346
 1182SOL    HW115008   1.092   3.515   3.083  1.4068  2.1503  1.4573
 1182SOL    HW215009   1.090   3.517   3.226 -0.2685 -1.0308  1.6399
 1183SOL     OW15010   3.936   4.526   8.943  0.1305  0.2136  0.4947
 1183SOL    HW115011   4.003   4.529   9.010 -1.1830 -0.7100  1.8552
 1183SOL    HW215012   3.853   4.535   8.991  0.6084  1.8537  0.9991
 1184SOL     OW15013   1.302   1.698   3.651  0.1394 -0.2993 -0.5412
 1184SOL    HW115014   1.257   1.631   3.599  1.5486 -1.2753 -0.4919
 1184SOL    HW215015   1.350   1.735   3.577  1.5839  0.8286  0.9831
 1185SOL     OW15016   3.991   1.492   5.354 -0.1427 -0.6440 -0.8508
 1185SOL    HW115017   4.003   1.511   5.447 -1.3293 -0.0277 -0.8233
 1185SOL    HW215018   3.999   1.580   5.317 -1.7011 -0.4463 -0.7357
 1186SOL     OW15019   0.588   4.319  15.938 -0.1506  0.0118  0.5386
 1186SOL    HW115020   0.636   4.379  15.995  0.3945  2.4957 -2.5702
 1186SOL    HW215021   0.612   4.231  15.968  2.3330  0.5700  0.1644
 1187SOL     OW15022   1.534   3.637   7.808 -0.1460 -0.0833  0.3339
 1187SOL    HW115023   1.486   3.557   7.786 -0.4207 -0.0504  0.8172
 1187SOL    HW215024   1.473   3.703   7.777  0.2105  0.2650  0.3761
 1188SOL     OW15025   3.371   0.241   6.474  0.5205 -0.2517 -0.1748
 1188SOL    HW115026   3.439   0.200   6.527 -0.2843 -0.5756  0.6050
 1188SOL    HW215027   3.309   0.171   6.451 -0.8196  0.0368  2.5999
 1189SOL     OW15028   1.542   4.018  11.810  0.2244 -0.2267  0.3607
 1189SOL    HW115029   1.528   4.103  11.768 -3.7625 -1.3377 -0.6001
 1189SOL    HW215030   1.627   4.039  11.848 -0.4453  0.4748  1.4564
 1190SOL     OW15031   2.372   1.686  16.403  0.4637  0.3861 -0.4236
 1190SOL    HW115032   2.431   1.620  16.366  4.4095  2.2143  2.6402
 1190SOL    HW215033   2.325   1.712  16.324  0.0728 -0.2370 -0.4019
 1191SOL     OW15034   3.494   0.315   4.207  0.1036 -0.1941 -0.2508
 1191SOL    HW115035   3.579   0.328   4.248  0.2246  1.2226 -0.9272
 1191SOL    HW215036   3.472   0.225   4.230  0.4657 -0.3064 -0.3471
 1192SOL     OW15037   2.476   1.903  13.158 -0.1366  0.3003  0.4932
 1192SOL    HW115038   2.501   1.912  13.250  0.0690 -1.5354  0.6189
 1192SOL    HW215039   2.504   1.813  13.139  2.3871  1.4635 -1.3258
 1193SOL     OW15040   3.960   2.911   2.591  0.2652  0.1879 -0.2648
 1193SOL    HW115041   4.012   2.831   2.582  1.5404  1.1533 -1.5160
 1193SOL    HW215042   3.879   2.874   2.557  0.4408 -1.5659  1.1937
 1194SOL     OW15043   0.561   2.443   6.606  0.3346 -0.4404  0.0882
 1194SOL    HW115044   0.530   2.528   6.636  0.5618 -0.1793 -0.4182
 1194SOL    HW215045   0.480   2.411   6.568 -0.4514 -0.4716  1.7595
 1195SOL     OW15046   3.748   3.684   1.865  0.0427 -0.3237 -0.0274
 1195SOL    HW115047   3.832   3.669   1.822 -1.4798  0.5232 -3.3128
 1195SOL    HW215048   3.707   3.746   1.805  1.3000  0.8541  0.3514
 1196SOL     OW15049   2.835   4.121   3.952  0.2948 -0.3047 -0.5958
 1196SOL    HW115050   2.911   4.084   3.907  1.1906  1.4380 -0.5196
 1196SOL    HW215051   2.844   4.216   3.939  0.7793 -0.7079 -3.3016
 1197SOL     OW15052   2.198   2.233   2.062 -0.3646  0.1867 -0.0437
 1197SOL    HW115053   2.119   2.200   2.020 -0.4465  0.2565  0.0560
 1197SOL    HW215054   2.185   2.327   2.059  0.5295  0.2962 -0.3756
 1198SOL     OW15055   3.816   1.689   0.497 -0.3776 -0.0115 -0.6909
 1198SOL    HW115056   3.748   1.757   0.506  0.5954  0.8424  0.2130
 1198SOL    HW215057   3.887   1.753   0.486 -0.3328 -0.8170 -5.3010
 1199SOL     OW15058   4.474   2.055   7.635  0.1846  0.6411 -0.4867
 1199SOL    HW115059   4.504   2.000   7.707  0.7405  1.7880  0.1484
 1199SOL    HW215060   4.392   2.015   7.608 -0.2741  0.8491  0.6185
 1200SOL     OW15061   0.102   3.133  17.039 -0.1367  0.3639 -0.5779
 1200SOL    HW115062   0.186   3.089  17.056 -1.0166 -0.8469  0.6913
 1200SOL    HW215063   0.038   3.063  17.024  0.7551 -0.1653 -1.9538
 1201SOL     OW15064   0.625   2.292   2.079 -0.1593 -0.6269  0.3717
 1201SOL    HW115065   0.570   2.296   2.001 -0.7626  0.2748  0.8610
 1201SOL    HW215066   0.713   2.312   2.045 -0.5225 -0.2456 -0.3382
 1202SOL     OW15067   4.240   3.684   8.614  0.3091  0.5134  0.7998
 1202SOL    HW115068   4.278   3.713   8.531 -3.1433  0.9151 -0.6210
 1202SOL    HW215069   4.314   3.648   8.664 -0.6434 -2.5498  0.0159
 1203SOL     OW15070   2.676   3.902   9.374  0.0504  0.5193 -0.1070
 1203SOL    HW115071   2.744   3.835   9.368 -0.7375 -0.3133  0.2596
 1203SOL    HW215072   2.605   3.856   9.418  0.3491 -0.0220 -0.1929
 1204SOL     OW15073   0.133   2.370  12.949 -0.2800 -0.3863 -0.6696
 1204SOL    HW115074   0.088   2.301  12.998  0.7654 -0.8281 -0.3458
 1204SOL    HW215075   0.087   2.449  12.979 -0.3148 -1.1335  1.2654
 1205SOL     OW15076   2.535   0.518   8.667  0.5033  0.1111  0.1775
 1205SOL    HW115077   2.481   0.564   8.603  2.5119 -0.8290 -2.2049
 1205SOL    HW215078   2.595   0.589   8.692 -0.2946  1.3188 -1.3273
 1206SOL     OW15079   3.469   0.699   9.330 -0.4102  0.2394 -0.3693
 1206SOL    HW115080   3.487   0.784   9.289  0.6199  0.4715  0.5697
 1206SOL    HW215081   3.509   0.708   9.416  2.5310 -2.5057 -1.4663
 1207SOL     OW15082   2.716   3.384  14.627  0.0603  0.2302  0.4405
 1207SOL    HW115083   2.792   3.419  14.579 -1.1778  1.6470 -0.4708
 1207SOL    HW215084   2.688   3.455  14.683 -1.9994  0.7153 -1.2262
 1208SOL     OW15085   3.923   1.553   6.163  0.1133 -0.3355 -0.1857
 1208SOL    HW115086   4.002   1.519   6.206  0.3339  1.7173  1.0558
 1208SOL    HW215087   3.961   1.572   6.078 -1.0126 -0.1228 -0.6438
 1209SOL     OW15088   1.859   1.954  17.406  0.1102  0.0836 -0.1592
 1209SOL    HW115089   1.920   1.981  17.337 -2.3928  2.8663 -1.2648
 1209SOL    HW215090   1.786   2.012  17.385 -0.7896 -1.0812 -0.2276
 1210SOL     OW15091   1.755   1.995   7.931 -0.1541  0.3052 -0.2600
 1210SOL    HW115092   1.740   1.908   7.894  1.0159 -0.4863  1.1028
 1210SOL    HW215093   1.681   1.992   7.991 -0.2256 -0.2332 -0.3699
 1211SOL     OW15094   2.810   3.259   3.978  0.6064  0.0136  0.2362
 1211SOL    HW115095   2.878   3.204   4.016  0.0206 -0.7339  0.2253
 1211SOL    HW215096   2.737   3.236   4.036  0.2848  0.2097 -0.0852
 1212SOL     OW15097   4.571   3.986  14.702 -0.3835 -0.0982 -0.0152
 1212SOL    HW115098   4.583   3.959  14.793 -3.4691 -1.5503 -0.0171
 1212SOL    HW215099   4.526   3.908  14.667 -0.0521  0.3308 -1.3884
 1213SOL     OW15100   4.608   3.981   9.961 -0.4490  0.3010  0.1225
 1213SOL    HW115101   4.529   3.972   9.909 -0.6697 -0.7873  0.6491
 1213SOL    HW215102   4.665   3.928   9.906  0.0236  1.8264 -0.8600
 1214SOL     OW15103   3.555   4.281  11.489 -0.6059  0.1605  0.8500
 1214SOL    HW115104   3.601   4.238  11.416 -1.2441  0.4240  0.2990
 1214SOL    HW215105   3.484   4.326  11.444  1.1891 -0.9161 -3.1353
 1215SOL     OW15106   3.827   2.758   0.297  0.4949 -0.0424  0.4103
 1215SOL    HW115107   3.825   2.772   0.392  0.7303  0.2626  0.3715
 1215SOL    HW215108   3.810   2.850   0.275 -0.4803  0.4042  3.0303
 1216SOL     OW15109   3.413   2.141  13.568 -0.6048 -0.2853 -0.0369
 1216SOL    HW115110   3.461   2.131  13.650  1.9068  0.7059 -1.3836
 1216SOL    HW215111   3.337   2.085  13.582 -1.8086  1.7676  1.7035
 1217SOL     OW15112   1.874   3.873   5.431 -0.0805  0.4406 -0.4760
 1217SOL    HW115113   1.889   3.780   5.448  1.5663  0.2570 -2.9713
 1217SOL    HW215114   1.960   3.905   5.404  0.3764  0.3958  0.8854
 1218SOL     OW15115   3.862   3.774  15.599  0.4632  0.6385  0.2855
 1218SOL    HW115116   3.802   3.705  15.572  0.6773  0.2488  0.8015
 1218SOL    HW215117   3.798   3.842  15.618  1.8062  1.1144  3.1332
 1219SOL     OW15118   4.016   2.801   8.301  0.1289 -0.1905  0.5165
 1219SOL    HW115119   3.964   2.881   8.296 -0.6550 -0.7745 -0.8393
 1219SOL    HW215120   3.955   2.747   8.351  0.1909  0.4178  1.2435
 1220SOL     OW15121   1.537   0.476   4.584  0.2683  0.3553 -0.4201
 1220SOL    HW115122   1.606   0.437   4.530 -0.9012 -0.5595 -1.2323
 1220SOL    HW215123   1.464   0.478   4.523 -1.4241  0.0630  1.6287
 1221SOL     OW15124   2.052   1.475   6.893 -0.0059 -0.6895 -0.4200
 1221SOL    HW115125   2.061   1.461   6.799  1.5794  2.9070 -0.8313
 1221SOL    HW215126   1.970   1.430   6.912  0.1287 -1.5561 -1.9451
 1222SOL     OW15127   0.627   4.686   3.676 -0.2267 -0.2373  0.8456
 1222SOL    HW115128   0.585   4.692   3.590  1.3085 -1.7221 -0.0026
 1222SOL    HW215129   0.557   4.635   3.718 -0.2151 -1.5880 -0.7643
 1223SOL     OW15130   3.198   1.840   9.441 -0.6365  0.3264 -0.0738
 1223SOL    HW115131   3.189   1.917   9.497  2.4994  0.6517 -0.0532
 1223SOL    HW215132   3.130   1.782   9.475 -0.8717  1.6480  1.6996
 1224SOL     OW15133   1.934   3.597  13.712  0.4358 -0.2801  1.1674
 1224SOL    HW115134   1.882   3.675  13.696  0.6272 -0.4188 -0.1602
 1224SOL    HW215135   1.890   3.571  13.793  1.3425  0.6983  1.9742
 1225SOL     OW15136   0.771   1.921   4.519 -0.1061  0.6680  0.1923
 1225SOL    HW115137   0.760   2.016   4.525 -1.5697  0.4424  1.2013
 1225SOL    HW215138   0.760   1.913   4.424  0.2225  0.7563  0.1480
 1226SOL     OW15139   3.788   3.932   4.704 -0.1609  0.2552  0.7348
 1226SOL    HW115140   3.769   3.928   4.798  0.0219 -1.5200  0.6952
 1226SOL    HW215141   3.708   3.898   4.664  0.0367  0.1922  0.3931
 1227SOL     OW15142   1.888   1.747   4.425 -0.3013  0.4743 -0.5229
 1227SOL    HW115143   1.825   1.801   4.472  1.3551  1.1029  0.9780
 1227SOL    HW215144   1.836   1.730   4.346  0.5215 -1.1286 -0.7279
 1228SOL     OW15145   3.282   4.363  12.473 -0.0056 -0.0983 -0.2794
 1228SOL    HW115146   3.274   4.367  12.568 -1.5338  1.1409 -0.4633
 1228SOL    HW215147   3.298   4.271  12.456 -0.7696 -0.2796  0.0052
 1229SOL     OW15148   3.524   4.364   6.296 -0.7871 -0.4703 -0.2601
 1229SOL    HW115149   3.518   4.458   6.279  0.5034 -0.7659 -2.2551
 1229SOL    HW215150   3.472   4.322   6.228  0.5281 -1.0358 -0.9027
 1230SOL     OW15151   1.625   2.175  12.329  0.1949 -0.6034  0.0328
 1230SOL    HW115152   1.530   2.177  12.329  0.1920 -0.8634 -0.5990
 1230SOL    HW215153   1.645   2.247  12.269 -2.1772 -1.3208 -1.6033
 1231SOL     OW15154   0.852   0.994   7.473  0.2596 -0.1504  0.0873
 1231SOL    HW115155   0.771   1.015   7.519  1.3762  2.0669  1.0433
 1231SOL    HW215156   0.902   1.075   7.484  0.0908 -0.2404  1.4934
 1232SOL     OW15157   0.210   0.924   3.637  0.2156 -0.2781  0.3765
 1232SOL    HW115158   0.180   1.005   3.596 -1.7946 -0.9904  0.4591
 1232SOL    HW215159   0.275   0.963   3.696 -1.1371  0.5422  1.3218
 1233SOL     OW15160   2.852   3.376   2.071  0.4480  0.9263 -0.1223
 1233SOL    HW115161   2.872   3.442   2.137  1.0791 -0.2518  0.8750
 1233SOL    HW215162   2.940   3.354   2.039 -0.8202  0.2986 -3.1844
 1234SOL     OW15163   0.427   3.042   3.956  0.3626  0.8605 -0.1493
 1234SOL    HW115164   0.460   2.968   3.906 -0.6684 -1.6876  2.9611
 1234SOL    HW215165   0.346   2.996   3.977  0.8254 -1.0142 -2.4922
 1235SOL     OW15166   4.678   0.073   7.323  0.2875 -0.2193  0.3995
 1235SOL    HW115167   0.020   0.125   7.271 -0.5492  0.5060  0.1425
 1235SOL    HW215168   0.003   0.040   7.401 -0.9838  0.4151  1.3893
 1236SOL     OW15169   4.188   2.803   7.141  0.1224 -0.0883  0.1633
 1236SOL    HW115170   4.149   2.750   7.211 -1.1067  1.3878  0.5690
 1236SOL    HW215171   4.149   2.885   7.168 -0.4038 -0.3911  0.3270
 1237SOL     OW15172   1.281   1.477   8.340  0.8526 -0.3257 -0.3435
 1237SOL    HW115173   1.229   1.551   8.308  2.7777  0.1475 -2.3784
 1237SOL    HW215174   1.301   1.521   8.423  0.7223  0.6139 -0.8045
 1238SOL     OW15175   1.432   1.754  12.037 -0.6539 -0.3963  0.3286
 1238SOL    HW115176   1.500   1.821  12.034  0.2032 -1.2135  1.5707
 1238SOL    HW215177   1.480   1.676  12.067 -0.2849 -0.9105 -1.5717
 1239SOL     OW15178   0.489   3.556   0.664 -0.7734 -0.4318  0.2750
 1239SOL    HW115179   0.569   3.567   0.714 -0.8071 -2.6696  0.8315
 1239SOL    HW215180   0.442   3.506   0.730  0.3985 -2.0257 -0.1075
 1240SOL     OW15181   2.354   1.088  14.235 -0.1269  0.5343 -0.5498
 1240SOL    HW115182   2.374   1.181  14.240 -0.1117  0.6435 -2.6389
 1240SOL    HW215183   2.349   1.092  14.140  0.1749 -0.7639 -0.6208
 1241SOL     OW15184   0.378   0.525  14.421 -0.3606  0.0556 -0.1876
 1241SOL    HW115185   0.375   0.599  14.360  0.4246 -0.4218 -0.8003
 1241SOL    HW215186   0.458   0.545  14.470 -1.6927  1.4507  1.4400
 1242SOL     OW15187   0.659   3.703  10.450  0.2623  0.0800 -0.6013
 1242SOL    HW115188   0.592   3.754  10.406  1.9676  2.8692 -0.0179
 1242SOL    HW215189   0.604   3.642  10.500 -1.6797  0.2978 -2.5088
 1243SOL     OW15190   0.355   1.963   0.220 -0.8114 -0.3047 -0.1548
 1243SOL    HW115191   0.339   1.888   0.277 -1.6189  1.1346  1.5494
 1243SOL    HW215192   0.265   1.954   0.189 -0.0968 -3.0288 -1.3757
 1244SOL     OW15193   1.525   3.330   1.542  0.2431 -0.3103  0.4435
 1244SOL    HW115194   1.597   3.268   1.553  0.7448 -0.2990 -2.6808
 1244SOL    HW215195   1.570   3.397   1.491 -0.8331  0.9042  1.0968
 1245SOL     OW15196   2.865   3.449   2.827 -0.2287 -0.0665 -0.0077
 1245SOL    HW115197   2.915   3.380   2.784  1.8967  0.8793  0.9186
 1245SOL    HW215198   2.822   3.489   2.752 -0.4449  0.7700  0.5592
 1246SOL     OW15199   1.414   3.584   9.318 -0.0404 -0.0486 -0.0655
 1246SOL    HW115200   1.497   3.541   9.339 -0.4014 -1.3272 -1.2788
 1246SOL    HW215201   1.447   3.661   9.274  0.8589 -0.4951 -0.1644
 1247SOL     OW15202   3.241   3.078   2.118  0.4250  0.4240 -0.0896
 1247SOL    HW115203   3.326   3.033   2.116 -1.0845 -2.4376  0.4604
 1247SOL    HW215204   3.244   3.135   2.041  1.1313  0.3688 -0.1047
 1248SOL     OW15205   1.732   4.662   3.314  0.4316 -0.4223  0.3475
 1248SOL    HW115206   1.758   0.010   3.377  3.8182 -0.7017 -0.7016
 1248SOL    HW215207   1.646   4.694   3.287  0.0099 -1.3534  0.5977
 1249SOL     OW15208   2.247   0.114   6.116 -0.8143 -0.4141  0.2542
 1249SOL    HW115209   2.268   0.201   6.150 -0.7434  0.1980 -1.3360
 1249SOL    HW215210   2.310   0.110   6.043 -1.5073  2.6579 -0.5384
 1250SOL     OW15211   0.945   4.257   0.308  0.4263  0.2354  0.3196
 1250SOL    HW115212   1.013   4.205   0.266  0.9903 -0.2191  1.8034
 1250SOL    HW215213   0.987   4.281   0.391 -0.9114  0.4474  0.9266
 1251SOL     OW15214   3.962   2.198  15.052  0.1668 -0.4717  0.4291
 1251SOL    HW115215   3.883   2.246  15.075  1.2152  0.6914  1.6063
 1251SOL    HW215216   4.011   2.192  15.134 -0.7758  1.0454  1.0961
 1252SOL     OW15217   4.554   1.087   1.411 -0.1346  0.6191 -0.4888
 1252SOL    HW115218   4.556   1.080   1.507 -0.4099 -0.8987 -0.5946
 1252SOL    HW215219   4.646   1.064   1.400  0.3109  1.3708  1.5637
 1253SOL     OW15220   0.366   3.380  11.917  0.6155 -0.4284  0.0280
 1253SOL    HW115221   0.370   3.419  12.005  0.3550 -2.0678  0.7717
 1253SOL    HW215222   0.304   3.441  11.876  1.8867  1.4517  0.9025
 1254SOL     OW15223   1.150   2.808   2.329  1.1274 -0.0610  0.5543
 1254SOL    HW115224   1.102   2.761   2.262  1.8493 -1.7066  1.1811
 1254SOL    HW215225   1.123   2.897   2.308  2.7489  0.2414 -0.2495
 1255SOL     OW15226   0.873   2.609   0.759  0.0848 -0.4516 -0.6077
 1255SOL    HW115227   0.790   2.590   0.801 -0.5699 -0.5471 -1.9441
 1255SOL    HW215228   0.911   2.650   0.837  0.1456  0.2235 -0.9951
 1256SOL     OW15229   3.471   4.497   3.296 -0.2599 -0.1079  0.4153
 1256SOL    HW115230   3.495   4.585   3.324  2.4886 -0.1606 -1.7609
 1256SOL    HW215231   3.384   4.515   3.261 -0.0342  0.7773  0.3239
 1257SOL     OW15232   0.958   0.190  14.675  0.7110 -0.3614 -0.3407
 1257SOL    HW115233   0.968   0.241  14.755 -2.3155  1.0244 -0.8314
 1257SOL    HW215234   0.904   0.117  14.705  0.7798 -0.8120 -1.3086
 1258SOL     OW15235   1.900   4.556   5.501  0.1572  0.4183  0.2292
 1258SOL    HW115236   1.809   4.586   5.493 -0.4904 -1.4364  0.7981
 1258SOL    HW215237   1.923   4.585   5.589 -0.7961  1.2250  0.2188
 1259SOL     OW15238   2.894   1.653  11.014  0.1767 -0.1850  0.0003
 1259SOL    HW115239   2.897   1.617  10.925 -3.4849  0.3793 -0.3539
 1259SOL    HW215240   2.813   1.614  11.047  1.0300  0.8589  3.2787
 1260SOL     OW15241   2.461   2.023  11.163 -0.1311  0.5806 -0.2682
 1260SOL    HW115242   2.543   1.973  11.161  0.3720  1.3852  0.1973
 1260SOL    HW215243   2.398   1.960  11.129  0.6847 -0.9496  0.9919
 1261SOL     OW15244   3.485   0.536   0.978  0.0267  0.1161  0.2246
 1261SOL    HW115245   3.459   0.447   0.953  1.9248 -1.0427  2.2750
 1261SOL    HW215246   3.487   0.586   0.897  4.5411 -0.4207  0.0157
 1262SOL     OW15247   0.798   1.603   7.296 -0.1977  0.0406  0.1584
 1262SOL    HW115248   0.789   1.558   7.212 -1.7595 -0.1757  0.4463
 1262SOL    HW215249   0.821   1.691   7.268  3.4914 -0.6832  0.8043
 1263SOL     OW15250   3.392   2.800   4.829 -0.0434  0.2860  0.2114
 1263SOL    HW115251   3.474   2.848   4.818  0.5165 -0.6592  0.2756
 1263SOL    HW215252   3.346   2.864   4.884 -0.8175 -0.4634  0.4304
 1264SOL     OW15253   0.931   1.125   8.678  0.1648  0.4961 -0.2847
 1264SOL    HW115254   1.011   1.155   8.720 -0.2488  0.5429  0.4774
 1264SOL    HW215255   0.943   1.031   8.666 -0.0369  0.7347 -2.3574
 1265SOL     OW15256   3.143   2.264  10.023 -0.1118  0.3272  0.2464
 1265SOL    HW115257   3.095   2.263  10.106 -0.9696 -1.4014 -0.2937
 1265SOL    HW215258   3.109   2.183   9.987 -1.6147  1.2147 -0.3487
 1266SOL     OW15259   0.169   1.092   0.196 -0.0116  0.3440 -0.4195
 1266SOL    HW115260   0.237   1.081   0.130 -0.8979 -0.9719 -1.0888
 1266SOL    HW215261   0.186   1.026   0.263 -1.1637  0.7056  0.2351
 1267SOL     OW15262   4.129   3.666   3.738 -0.5880 -0.1352 -0.6507
 1267SOL    HW115263   4.174   3.682   3.821  0.1468 -0.3390 -1.0082
 1267SOL    HW215264   4.182   3.600   3.693 -0.5579  0.9088 -2.1214
 1268SOL     OW15265   3.216   0.625   1.044 -0.4598  0.0932 -0.2739
 1268SOL    HW115266   3.311   0.629   1.032 -0.4686  1.2233  0.0461
 1268SOL    HW215267   3.194   0.604   0.953 -0.3393  0.4166 -0.3766
 1269SOL     OW15268   2.536   3.399   3.945 -0.1893 -0.4046  0.9322
 1269SOL    HW115269   2.594   3.323   3.940  0.1023 -0.2148  1.4607
 1269SOL    HW215270   2.573   3.448   3.871  0.1479  0.1202  1.4494
 1270SOL     OW15271   4.632   2.297   3.498 -0.1063  0.0123  0.2318
 1270SOL    HW115272   4.600   2.208   3.483  3.5381 -1.1635 -0.5071
 1270SOL    HW215273   4.682   2.318   3.419  0.2492 -0.8349  0.2386
 1271SOL     OW15274   3.994   3.326   6.629 -0.0125 -0.1810  0.4239
 1271SOL    HW115275   3.964   3.235   6.626  1.7787 -0.7426 -1.0023
 1271SOL    HW215276   3.951   3.360   6.707 -0.3612 -0.0699  0.1854
 1272SOL     OW15277   4.093   1.700   2.865 -0.8266  0.1927  0.1563
 1272SOL    HW115278   4.063   1.617   2.903 -0.2281 -0.2779 -0.3903
 1272SOL    HW215279   4.168   1.669   2.814 -0.3987 -0.9060  1.4643
 1273SOL     OW15280   2.237   4.175  15.911  0.3316  0.2891  0.2708
 1273SOL    HW115281   2.214   4.172  15.818  0.4625 -1.3000  0.2881
 1273SOL    HW215282   2.324   4.136  15.910  0.1430 -0.1283  0.0810
 1274SOL     OW15283   2.531   0.437   9.199  0.9121 -0.6571 -0.7017
 1274SOL    HW115284   2.436   0.433   9.208  1.1462 -0.5121  1.7570
 1274SOL    HW215285   2.543   0.394   9.114  1.3100  0.8458 -1.4005
 1275SOL     OW15286   0.530   0.936  10.116  0.0335  0.1258 -0.1275
 1275SOL    HW115287   0.506   0.849  10.148 -2.7501  0.4938 -1.1860
 1275SOL    HW215288   0.593   0.969  10.180 -0.5925 -0.9133  1.0461
 1276SOL     OW15289   3.453   2.886   2.081 -0.6062 -0.0710 -0.4439
 1276SOL    HW115290   3.426   2.892   1.990 -0.0161 -0.2258 -0.6283
 1276SOL    HW215291   3.546   2.863   2.078  0.1926  3.1024  0.2471
 1277SOL     OW15292   2.725   4.171   7.068  0.5187 -0.1909  0.5307
 1277SOL    HW115293   2.632   4.192   7.067  0.9888  1.9630  1.7636
 1277SOL    HW215294   2.761   4.239   7.013  0.8101  0.6564  1.7646
 1278SOL     OW15295   1.514   4.342  15.380  0.0961  0.0870  0.1536
 1278SOL    HW115296   1.518   4.284  15.304 -0.8048  0.2579 -0.0219
 1278SOL    HW215297   1.479   4.280  15.444  1.5139  0.4572  1.3163
 1279SOL     OW15298   1.314   2.715  10.983  0.5762  0.0592  0.3921
 1279SOL    HW115299   1.226   2.677  10.990  1.1958 -1.1280  1.7613
 1279SOL    HW215300   1.345   2.665  10.907  1.8970  0.2706  0.7979
 1280SOL     OW15301   4.252   0.297   4.618 -0.3776  0.3591 -0.5888
 1280SOL    HW115302   4.209   0.214   4.596  2.7689 -1.6419  0.8602
 1280SOL    HW215303   4.178   0.345   4.655 -0.0414 -0.2572  0.9122
 1281SOL     OW15304   1.002   1.085   9.583 -0.5060 -0.6224 -0.1817
 1281SOL    HW115305   1.063   1.155   9.607  1.6055 -2.0533 -1.3787
 1281SOL    HW215306   0.926   1.136   9.556 -1.2286 -0.6317  1.7821
 1282SOL     OW15307   4.653   4.435   0.673  0.0231  0.0702  0.2150
 1282SOL    HW115308   4.691   4.517   0.641 -2.5365  1.6204  1.1432
 1282SOL    HW215309   4.657   4.450   0.768  2.6966 -1.8462  0.4057
 1283SOL     OW15310   1.719   4.488   4.070 -0.0495  0.0656  0.1368
 1283SOL    HW115311   1.669   4.532   4.001 -0.5946 -3.6231 -1.7874
 1283SOL    HW215312   1.679   4.402   4.060 -1.4689  1.0007 -2.2468
 1284SOL     OW15313   1.684   3.965   7.986 -0.3303 -0.1723 -0.5432
 1284SOL    HW115314   1.706   3.934   7.898  1.1195  0.4545 -0.4050
 1284SOL    HW215315   1.704   3.885   8.035 -2.4840 -0.2137  0.2349
 1285SOL     OW15316   3.734   2.030   8.233 -0.2467  0.1652 -0.2974
 1285SOL    HW115317   3.824   2.050   8.208  0.0092 -0.5311  0.0665
 1285SOL    HW215318   3.727   1.945   8.277 -1.5939  2.1883  3.4561
 1286SOL     OW15319   3.339   2.741  10.249  0.5225  0.5154  0.1897
 1286SOL    HW115320   3.354   2.835  10.256 -3.2261  1.2979 -2.2997
 1286SOL    HW215321   3.334   2.744  10.154 -0.7125 -2.5904  0.1732
 1287SOL     OW15322   0.402   2.256   1.265 -0.2218 -0.5068  0.0613
 1287SOL    HW115323   0.488   2.267   1.306  1.6141  0.4854 -4.0275
 1287SOL    HW215324   0.356   2.194   1.321 -1.6813 -0.6980 -1.3612
 1288SOL     OW15325   1.229   0.130   7.965 -0.1758 -0.0471 -0.0160
 1288SOL    HW115326   1.307   0.150   7.913 -0.5187  1.8708  0.1967
 1288SOL    HW215327   1.149   0.138   7.912 -1.1221 -1.5206  1.1832
 1289SOL     OW15328   1.497   4.552   1.501 -0.3616  0.1447  0.1298
 1289SOL    HW115329   1.545   4.574   1.580  0.5633 -1.9701  0.1548
 1289SOL    HW215330   1.457   4.637   1.483 -0.2115  0.1920  0.0094
 1290SOL     OW15331   3.926   4.179  13.759 -0.2517 -0.4854 -0.4063
 1290SOL    HW115332   3.913   4.266  13.723  1.8825 -0.6038 -1.4599
 1290SOL    HW215333   3.904   4.123  13.684 -0.8316  1.6019 -1.7878
 1291SOL     OW15334   2.093   0.900   1.254  0.2007  0.4724  0.2951
 1291SOL    HW115335   2.026   0.951   1.207 -0.3357 -0.9480 -0.4767
 1291SOL    HW215336   2.054   0.877   1.338  0.6664 -1.5850 -0.0406
 1292SOL     OW15337   3.593   1.553   1.778  0.6572  0.2821  0.1235
 1292SOL    HW115338   3.507   1.513   1.785  0.5528  0.7529  1.5822
 1292SOL    HW215339   3.597   1.559   1.682  0.1815  0.4776  0.1141
 1293SOL     OW15340   2.436   4.103   2.329  0.2547  0.1452 -0.1171
 1293SOL    HW115341   2.498   4.175   2.320  1.5867 -1.1242 -1.0422
 1293SOL    HW215342   2.428   4.076   2.238  1.1594 -0.0243 -0.1459
 1294SOL     OW15343   1.823   3.225   5.267 -0.2636  0.3568  0.1271
 1294SOL    HW115344   1.749   3.164   5.266  1.7659 -2.1153  0.9443
 1294SOL    HW215345   1.876   3.212   5.188 -1.2685  1.5122 -0.7327
 1295SOL     OW15346   4.517   2.400   6.954  0.4511  0.1414 -0.1596
 1295SOL    HW115347   4.508   2.334   6.886  2.5809 -1.9911  1.6319
 1295SOL    HW215348   4.609   2.395   6.979 -0.0895 -1.8838  1.3889
 1296SOL     OW15349   3.859   0.826   5.982  0.0814  0.4690  0.3008
 1296SOL    HW115350   3.891   0.791   6.065 -0.6911  2.1749  1.3355
 1296SOL    HW215351   3.783   0.880   6.006 -1.7222 -1.1933 -1.6731
 1297SOL     OW15352   0.241   4.541   1.799  0.2353 -0.4523  0.4657
 1297SOL    HW115353   0.197   4.577   1.723 -0.5656  0.3283  1.3018
 1297SOL    HW215354   0.261   4.450   1.775  0.5657 -0.1756 -0.2789
 1298SOL     OW15355   3.916   4.151   5.869  0.5311 -0.8053 -0.5520
 1298SOL    HW115356   3.838   4.107   5.834 -0.6815  1.4854 -0.7767
 1298SOL    HW215357   3.871   4.210   5.930  1.5267  1.0268 -1.5738
 1299SOL     OW15358   3.526   1.622  15.487 -0.3204 -0.2359 -0.3862
 1299SOL    HW115359   3.522   1.577  15.572  2.3389  1.8594  0.8537
 1299SOL    HW215360   3.466   1.695  15.498 -0.3313 -0.0671 -1.5556
 1300SOL     OW15361   1.074   4.338   2.028 -0.6592  0.1600 -0.0059
 1300SOL    HW115362   1.121   4.405   2.077 -2.2795  0.9834  0.4189
 1300SOL    HW215363   0.988   4.375   2.011  0.4074  2.8775  0.4684
 1301SOL     OW15364   1.884   3.953   6.149  0.4085 -0.3996  0.2535
 1301SOL    HW115365   1.954   3.890   6.168  2.1274  1.4072 -0.0030
 1301SOL    HW215366   1.931   3.983   6.071  3.7780  1.8812  3.1260
 1302SOL     OW15367   4.504   1.976   7.896  0.2026  0.2967 -0.3250
 1302SOL    HW115368   4.492   1.930   7.979 -2.7041 -1.1434 -1.5570
 1302SOL    HW215369   4.521   2.060   7.939 -1.5623  1.6871 -2.3346
 1303SOL     OW15370   3.305   3.331   9.518  0.4864 -0.2567  0.4608
 1303SOL    HW115371   3.256   3.248   9.515 -0.4744  0.3655 -1.2639
 1303SOL    HW215372   3.291   3.368   9.605 -1.3671 -0.1048  0.1022
 1304SOL     OW15373   0.161   0.338  16.314  1.0558  0.3782  0.2522
 1304SOL    HW115374   0.094   0.330  16.382 -0.4140  2.2758 -0.9663
 1304SOL    HW215375   0.171   0.433  16.316 -3.6731  0.8613  0.6462
 1305SOL     OW15376   4.098   1.219   9.215  0.0264 -0.0131  0.2379
 1305SOL    HW115377   4.056   1.162   9.152 -1.3044  0.5570  0.6098
 1305SOL    HW215378   4.030   1.284   9.233 -0.3135  0.1334 -1.6511
 1306SOL     OW15379   3.387   1.653  12.843  0.2162  0.3370  0.1835
 1306SOL    HW115380   3.308   1.601  12.860  0.3146  1.1951  3.1925
 1306SOL    HW215381   3.373   1.669  12.750  2.1195 -0.3790 -0.2102
 1307SOL     OW15382   2.594   4.481   3.208 -0.2388 -0.4833  0.2963
 1307SOL    HW115383   2.560   4.449   3.292  0.9011 -0.0545  0.9202
 1307SOL    HW215384   2.658   4.549   3.227  1.9379 -3.0241  1.9772
 1308SOL     OW15385   0.034   2.070   9.515 -0.0867 -0.0303  0.4901
 1308SOL    HW115386   4.663   2.091   9.538 -0.2149  0.8094 -0.8149
 1308SOL    HW215387   0.049   2.002   9.581  0.3275 -0.5351 -0.1250
 1309SOL     OW15388   0.936   0.853   2.421  0.3275 -0.3681  0.6777
 1309SOL    HW115389   0.854   0.885   2.386 -0.4462 -1.8549  1.1021
 1309SOL    HW215390   0.992   0.928   2.402 -1.2195 -0.1910 -3.1634
 1310SOL     OW15391   1.489   3.555   6.495 -0.3805  0.0882  0.5738
 1310SOL    HW115392   1.542   3.631   6.472 -1.2156  0.1451 -1.1328
 1310SOL    HW215393   1.410   3.598   6.526 -1.5520 -2.7344  1.4904
 1311SOL     OW15394   0.440   2.367   9.652  0.2450 -0.1739 -0.0637
 1311SOL    HW115395   0.476   2.456   9.647  0.8518 -0.6467 -3.9972
 1311SOL    HW215396   0.373   2.360   9.584  1.1615 -1.9522 -0.7885
 1312SOL     OW15397   2.319   2.207   7.697 -0.5167 -0.8202  0.2940
 1312SOL    HW115398   2.315   2.201   7.792 -0.5578 -1.7269  0.2345
 1312SOL    HW215399   2.281   2.120   7.689  1.9511 -1.7660 -1.0399
 1313SOL     OW15400   3.620   2.432   8.186  0.3212  0.1324  0.0803
 1313SOL    HW115401   3.665   2.489   8.249 -2.5900  0.1733  2.1230
 1313SOL    HW215402   3.686   2.446   8.118 -0.1369  2.5969  0.1530
 1314SOL     OW15403   0.325   2.307  12.775  0.6132  0.0676 -0.1609
 1314SOL    HW115404   0.401   2.318  12.831  0.6275  1.2383 -0.4109
 1314SOL    HW215405   0.262   2.338  12.841  0.1544 -0.3986 -0.3764
 1315SOL     OW15406   2.330   3.538   6.730 -0.0406 -0.0934  0.1785
 1315SOL    HW115407   2.242   3.558   6.698  0.1159  1.0536  0.4736
 1315SOL    HW215408   2.386   3.558   6.656  1.6900  1.3280  1.8603
 1316SOL     OW15409   0.172   3.650   0.867 -0.4699 -0.4145  0.1426
 1316SOL    HW115410   0.259   3.639   0.904 -0.0595  0.4430 -0.5756
 1316SOL    HW215411   0.176   3.587   0.795  0.4373 -1.2039  0.8939
 1317SOL     OW15412   2.819   0.258   5.542  0.0815 -0.1966 -0.2935
 1317SOL    HW115413   2.819   0.228   5.451 -1.6501  0.1709 -0.4278
 1317SOL    HW215414   2.774   0.340   5.523 -0.6992 -0.1731  1.6698
 1318SOL     OW15415   4.083   1.441   2.984  0.1741 -0.4711  0.5073
 1318SOL    HW115416   4.073   1.368   3.045  0.1110  0.1898  1.2841
 1318SOL    HW215417   4.065   1.391   2.904 -2.1305  0.2770  0.5543
 1319SOL     OW15418   0.885   1.960   5.034  0.0535  0.5127 -0.5834
 1319SOL    HW115419   0.874   2.053   5.052  1.7203  0.5479  0.3069
 1319SOL    HW215420   0.798   1.939   5.069  0.8531  0.3895  1.3254
 1320SOL     OW15421   3.705   0.158   3.889  0.1304 -0.0853 -0.0064
 1320SOL    HW115422   3.615   0.177   3.863  0.8341  1.0312 -1.6072
 1320SOL    HW215423   3.756   0.221   3.837  2.7295 -1.8323  0.4160
 1321SOL     OW15424   0.003   2.036  16.741 -0.2527 -0.5884  0.6226
 1321SOL    HW115425   0.037   1.960  16.693  1.1874 -1.0727  2.4559
 1321SOL    HW215426   0.046   2.022  16.825 -0.7106 -2.1347  0.6016
 1322SOL     OW15427   3.517   1.670   8.403  0.0622  0.3402  0.3589
 1322SOL    HW115428   3.518   1.582   8.364 -0.6401 -0.5545  2.3082
 1322SOL    HW215429   3.538   1.710   8.319  0.5285  0.0462  0.3343
 1323SOL     OW15430   0.542   2.565   7.760  0.3259 -0.5739  0.1407
 1323SOL    HW115431   0.596   2.603   7.828 -0.5145  0.4678  0.2180
 1323SOL    HW215432   0.507   2.484   7.798 -1.9773 -0.2383 -1.2614
 1324SOL     OW15433   0.356   2.552   2.343  0.4610  0.1524 -0.0753
 1324SOL    HW115434   0.276   2.559   2.396 -0.6500  0.5732 -1.8048
 1324SOL    HW215435   0.328   2.612   2.274 -1.2055 -0.8431 -0.2704
 1325SOL     OW15436   2.975   4.521   5.324  0.1472 -0.3110 -0.0556
 1325SOL    HW115437   2.979   4.475   5.240  1.1508  2.3821 -1.4633
 1325SOL    HW215438   3.044   4.582   5.300 -0.8172 -0.4088 -3.0860
 1326SOL     OW15439   3.394   2.374   9.988  0.3692 -0.0525 -0.2338
 1326SOL    HW115440   3.431   2.356  10.075 -0.8877 -0.7809  0.1546
 1326SOL    HW215441   3.302   2.349   9.997  0.2563  0.2181 -0.6546
 1327SOL     OW15442   3.635   0.334   5.267  0.2635 -0.5934  0.7125
 1327SOL    HW115443   3.618   0.263   5.204  1.9009 -0.3643  0.0219
 1327SOL    HW215444   3.628   0.410   5.210  1.8941 -1.5772 -0.7957
 1328SOL     OW15445   2.720   3.866   6.164  0.2337  0.1571  0.0797
 1328SOL    HW115446   2.811   3.873   6.192  0.0602 -1.7257  1.0906
 1328SOL    HW215447   2.692   3.787   6.210 -0.2074  0.1035 -0.2810
 1329SOL     OW15448   1.169   2.494   4.697 -0.0261  0.3381 -0.2180
 1329SOL    HW115449   1.146   2.492   4.789  0.0064 -0.9716 -0.2468
 1329SOL    HW215450   1.081   2.517   4.667 -0.6533 -2.4922 -0.5506
 1330SOL     OW15451   2.851   3.031   3.434 -0.0919 -0.6115 -0.1527
 1330SOL    HW115452   2.810   3.117   3.443  1.0204 -0.5020  4.0279
 1330SOL    HW215453   2.915   3.028   3.505 -0.3928 -1.1812  0.0959
 1331SOL     OW15454   0.049   0.264   2.963  0.4638  0.0405  0.2478
 1331SOL    HW115455   0.019   0.308   2.883 -1.7843 -0.5180  0.8016
 1331SOL    HW215456   0.080   0.184   2.919  2.5516  1.1639 -0.3317
 1332SOL     OW15457   2.350   0.265   8.941 -0.0760  0.4612  0.2805
 1332SOL    HW115458   2.279   0.202   8.925 -0.4738  0.0268  3.7323
 1332SOL    HW215459   2.426   0.223   8.901  1.3674  1.5124  1.9272
 1333SOL     OW15460   4.540   3.857  16.837 -0.8551  0.2439 -0.3668
 1333SOL    HW115461   4.568   3.766  16.829 -1.8473 -0.0626 -0.3351
 1333SOL    HW215462   4.506   3.872  16.749  1.6501  1.9244 -1.0366
 1334SOL     OW15463   3.553   0.620   9.580  0.1706 -0.6236  0.2778
 1334SOL    HW115464   3.563   0.536   9.536  2.8555  0.3722 -0.9798
 1334SOL    HW215465   3.485   0.586   9.638  0.2378 -1.5361 -0.1892
 1335SOL     OW15466   3.114   2.310  15.933 -0.9851  0.3974 -0.6004
 1335SOL    HW115467   3.186   2.266  15.887 -1.0075 -0.9571  0.6864
 1335SOL    HW215468   3.063   2.346  15.860  0.9914 -0.4026 -2.4174
 1336SOL     OW15469   0.569   0.451   8.037  0.2948  0.0490  0.1303
 1336SOL    HW115470   0.586   0.539   8.070 -0.5947 -0.6009  2.3148
 1336SOL    HW215471   0.551   0.405   8.119  0.7010 -1.3987 -0.5836
 1337SOL     OW15472   0.343   2.536  13.136 -0.5851 -0.0466 -0.6765
 1337SOL    HW115473   0.307   2.599  13.074 -0.9035  0.0920 -0.3507
 1337SOL    HW215474   0.383   2.472  13.077  1.9276  0.9191  0.0126
 1338SOL     OW15475   4.261   2.607   4.626 -0.4114  0.0911  0.3619
 1338SOL    HW115476   4.222   2.693   4.609 -0.1200  0.3074  0.7938
 1338SOL    HW215477   4.184   2.550   4.618 -1.1575  1.3862 -1.6183
 1339SOL     OW15478   1.598   1.072   7.901  0.1590 -0.0202 -0.5411
 1339SOL    HW115479   1.560   1.021   7.829 -0.7150  0.0303 -0.1073
 1339SOL    HW215480   1.551   1.022   7.968 -0.9452  1.2678 -0.3566
 1340SOL     OW15481   1.274   0.874   4.179  0.0454  0.7702  0.2050
 1340SOL    HW115482   1.226   0.950   4.210 -0.3353 -0.6878  3.1773
 1340SOL    HW215483   1.314   0.845   4.261 -0.4999  0.0229  0.1977
 1341SOL     OW15484   3.074   0.557  10.254 -0.0097 -0.1770 -0.4300
 1341SOL    HW115485   3.170   0.556  10.257 -0.0264 -1.8161 -0.5817
 1341SOL    HW215486   3.061   0.649  10.279  3.2817  0.3071 -0.4553
 1342SOL     OW15487   4.451   4.234  14.248  0.8595 -1.0494  0.4337
 1342SOL    HW115488   4.365   4.200  14.275  0.3344  0.0526  0.1334
 1342SOL    HW215489   4.495   4.245  14.332  1.3831  1.9300 -0.2512
 1343SOL     OW15490   1.812   2.529   1.701  0.0329 -0.5266 -0.0903
 1343SOL    HW115491   1.859   2.545   1.783 -0.0422 -2.0396  0.2449
 1343SOL    HW215492   1.729   2.487   1.721 -0.3939  0.2156 -0.3296
 1344SOL     OW15493   0.095   0.306   1.916 -0.3802  0.0477  1.0550
 1344SOL    HW115494   0.136   0.234   1.867 -1.1489  0.2902  0.0503
 1344SOL    HW215495   0.022   0.324   1.857 -0.8376 -0.5836  1.4238
 1345SOL     OW15496   3.958   0.592  14.296 -0.5348 -0.1226  0.2179
 1345SOL    HW115497   3.911   0.542  14.363 -0.2639 -2.4271 -1.3102
 1345SOL    HW215498   3.884   0.614  14.238 -0.3429 -2.3593 -0.8958
 1346SOL     OW15499   1.172   3.253  10.407 -0.2365 -0.1308 -0.4882
 1346SOL    HW115500   1.079   3.269  10.388 -0.6956 -2.1752  0.0048
 1346SOL    HW215501   1.194   3.324  10.467 -1.6105 -0.3583  0.3016
 1347SOL     OW15502   2.459   4.147   5.692  0.2580  0.5538  0.1159
 1347SOL    HW115503   2.473   4.240   5.712  1.3677  0.7618 -1.6902
 1347SOL    HW215504   2.401   4.133   5.768 -0.3116  0.6536 -0.3007
 1348SOL     OW15505   1.756   4.399   6.718 -0.4543  0.2804  0.2960
 1348SOL    HW115506   1.828   4.372   6.661 -1.2655 -2.8972  0.8053
 1348SOL    HW215507   1.689   4.338   6.688  0.1352 -0.8438  1.2589
 1349SOL     OW15508   1.829   4.687   7.980  0.0963  0.7505  0.2302
 1349SOL    HW115509   1.761   0.025   8.014 -0.6777  1.0005 -1.7845
 1349SOL    HW215510   1.839   0.017   7.899 -1.7396 -0.2030 -0.5594
 1350SOL     OW15511   4.620   2.843   1.007  0.3110  0.1978  0.7447
 1350SOL    HW115512   4.632   2.753   0.978 -1.1077  0.3999 -0.4859
 1350SOL    HW215513   4.591   2.878   0.923  1.3254  1.9730  1.1322
 1351SOL     OW15514   3.982   1.714   7.367 -0.1928 -0.2939  0.3060
 1351SOL    HW115515   4.045   1.642   7.354  1.1554  0.5414  2.1872
 1351SOL    HW215516   3.902   1.663   7.360 -0.6514 -0.0196  3.2342
 1352SOL     OW15517   0.032   3.053   3.001 -0.4018 -0.3837 -0.5713
 1352SOL    HW115518   0.121   3.017   3.000  0.2231  1.1764 -2.1315
 1352SOL    HW215519   0.029   3.059   2.906  0.2781 -0.1475 -0.5809
 1353SOL     OW15520   0.361   4.156   2.200  0.0806 -0.3498 -1.1010
 1353SOL    HW115521   0.434   4.197   2.247 -1.4162 -0.0956  0.9853
 1353SOL    HW215522   0.306   4.226   2.164  2.4629  1.1618 -1.8057
 1354SOL     OW15523   0.735   4.265   6.672  0.2636  0.2009 -0.6465
 1354SOL    HW115524   0.734   4.325   6.746 -2.4400 -1.6307  0.8063
 1354SOL    HW215525   0.771   4.186   6.713  0.7008  1.3417  1.1392
 1355SOL     OW15526   3.013   3.675   7.512  0.8203 -0.6720  0.5646
 1355SOL    HW115527   3.016   3.673   7.608  0.9878 -1.3655  0.5424
 1355SOL    HW215528   2.918   3.666   7.502  1.0858 -1.2064 -1.5175
 1356SOL     OW15529   1.089   0.609   4.329 -0.1001 -0.0193  0.4367
 1356SOL    HW115530   1.007   0.635   4.369  1.6059  2.3458  2.4112
 1356SOL    HW215531   1.071   0.616   4.235  0.3221 -0.0957  0.3492
 1357SOL     OW15532   3.671   3.658   7.910 -0.2912  0.2136  0.0697
 1357SOL    HW115533   3.629   3.579   7.876  1.2526 -0.4855 -0.2084
 1357SOL    HW215534   3.678   3.644   8.004 -1.3832  1.7813  0.4050
 1358SOL     OW15535   2.623   1.716   3.505  0.7346 -0.4893 -0.0652
 1358SOL    HW115536   2.690   1.774   3.541  1.1320 -0.0517 -1.4798
 1358SOL    HW215537   2.558   1.775   3.468  0.2765  0.0512  1.6131
 1359SOL     OW15538   0.192   2.020  10.717  0.0267 -0.0782 -0.5437
 1359SOL    HW115539   0.231   1.944  10.675 -0.5681  0.5070 -2.1822
 1359SOL    HW215540   0.143   1.977  10.787  1.8923 -0.8388  0.2824
 1360SOL     OW15541   0.436   4.388  10.650 -0.0430  0.3911  0.1449
 1360SOL    HW115542   0.390   4.471  10.663  1.7612  1.0404  2.5786
 1360SOL    HW215543   0.427   4.365  10.558  1.1825 -1.8088  0.5741
 1361SOL     OW15544   0.906   2.091   8.753  0.5600 -0.2808 -0.0671
 1361SOL    HW115545   0.898   2.167   8.810  2.7763  0.2266 -0.4416
 1361SOL    HW215546   0.931   2.028   8.822  0.7217  1.7690  1.7341
 1362SOL     OW15547   3.041   1.005   1.866 -0.2028 -0.2485 -0.0322
 1362SOL    HW115548   3.032   0.951   1.944  1.9992 -0.3902  0.1498
 1362SOL    HW215549   3.027   0.936   1.801 -1.4772  2.3256 -2.5247
 1363SOL     OW15550   1.810   2.538  12.568  0.2031  0.2180 -0.3596
 1363SOL    HW115551   1.773   2.451  12.581 -0.8128  0.8404  0.9799
 1363SOL    HW215552   1.734   2.595  12.583  1.7023  2.3328 -0.7594
 1364SOL     OW15553   2.144   2.328   4.323  0.5867  0.4798 -0.5029
 1364SOL    HW115554   2.068   2.358   4.374  0.9972 -1.2280  1.1275
 1364SOL    HW215555   2.213   2.390   4.344  1.9629 -1.6231  1.2162
 1365SOL     OW15556   3.354   4.487   5.167  0.2304 -0.0441  0.1707
 1365SOL    HW115557   3.367   4.393   5.180  1.7238  0.2251  0.6583
 1365SOL    HW215558   3.432   4.508   5.115  0.0679 -1.6525 -0.7295
 1366SOL     OW15559   1.709   3.468   1.381 -0.0429 -0.3557 -0.5556
 1366SOL    HW115560   1.739   3.546   1.334 -0.7473 -1.5963 -3.0993
 1366SOL    HW215561   1.717   3.406   1.308 -1.0212 -1.4868  0.2982
 1367SOL     OW15562   1.511   2.938   8.588 -0.1090  0.4096  0.2779
 1367SOL    HW115563   1.488   3.009   8.528  2.3214  1.7614  0.9443
 1367SOL    HW215564   1.526   2.996   8.662 -0.3127  0.4484  0.2902
 1368SOL     OW15565   0.857   0.201   5.462 -0.2219  0.2564 -0.4479
 1368SOL    HW115566   0.800   0.158   5.398  1.2877  0.6095 -2.0396
 1368SOL    HW215567   0.856   0.132   5.529 -0.8612 -0.1054 -0.8281
 1369SOL     OW15568   0.846   4.154  10.720  0.6695  0.3246 -0.2163
 1369SOL    HW115569   0.783   4.225  10.710  0.6767  0.5920  1.7825
 1369SOL    HW215570   0.924   4.191  10.679  1.1799 -0.5211 -0.0147
 1370SOL     OW15571   0.472   4.681   1.824 -0.0644 -0.1032  0.3963
 1370SOL    HW115572   0.545   4.629   1.857 -0.7717  0.0737  2.2283
 1370SOL    HW215573   0.398   4.620   1.831 -2.1427  2.3364 -0.2706
 1371SOL     OW15574   0.249   2.271   8.366 -0.0142  0.5351  1.1037
 1371SOL    HW115575   0.296   2.237   8.442  1.0350 -1.0780 -0.2585
 1371SOL    HW215576   0.249   2.365   8.384 -0.5805  0.9133 -0.8634
 1372SOL     OW15577   4.526   2.185   5.146 -0.3120  0.4766 -0.0637
 1372SOL    HW115578   4.544   2.279   5.136 -1.8124  0.6954 -0.7013
 1372SOL    HW215579   4.593   2.147   5.091 -0.8788  0.8800 -1.0291
 1373SOL     OW15580   4.079   0.178   1.611 -0.3922  0.0049 -0.2767
 1373SOL    HW115581   4.151   0.119   1.632 -1.4985 -2.4440 -3.3014
 1373SOL    HW215582   4.058   0.137   1.527 -0.5733  0.2630 -0.3578
 1374SOL     OW15583   2.847   2.966   5.948 -0.3881 -0.1656 -0.2781
 1374SOL    HW115584   2.804   2.993   5.866  0.2602  1.6908 -0.0174
 1374SOL    HW215585   2.816   3.030   6.012  3.0380  0.1587  1.0043
 1375SOL     OW15586   4.492   1.714   8.515  0.3545 -0.1496  0.3180
 1375SOL    HW115587   4.559   1.718   8.583  0.3606 -0.2231  0.3173
 1375SOL    HW215588   4.550   1.686   8.444 -1.1814 -1.6520 -0.3532
 1376SOL     OW15589   1.475   4.331   6.640 -0.2133 -0.2821  0.0504
 1376SOL    HW115590   1.393   4.288   6.665 -0.3839  0.8361  1.4491
 1376SOL    HW215591   1.490   4.317   6.547  1.8280 -2.7509  0.7295
 1377SOL     OW15592   0.905   4.027   3.195 -0.2650 -0.5423 -0.3825
 1377SOL    HW115593   0.913   3.984   3.111  0.0325  1.3381 -1.3223
 1377SOL    HW215594   0.833   4.087   3.175 -0.8909 -0.3602  2.3144
 1378SOL     OW15595   0.226   2.636   8.215  0.0827  0.2284 -0.0284
 1378SOL    HW115596   0.264   2.567   8.269 -1.1633 -1.2650 -1.0547
 1378SOL    HW215597   0.149   2.655   8.270  1.7785  2.9408  1.3863
 1379SOL     OW15598   3.022   0.228   6.928  0.5083  0.1830  0.1574
 1379SOL    HW115599   3.003   0.177   6.849 -2.2098  1.6144 -0.1134
 1379SOL    HW215600   2.984   0.310   6.896 -0.8133 -0.0317  1.1647
 1380SOL     OW15601   3.555   3.835   4.562  0.7919 -0.3017  0.9379
 1380SOL    HW115602   3.504   3.784   4.624  0.4769 -0.3341  0.6544
 1380SOL    HW215603   3.586   3.771   4.498 -1.4482  1.3719 -1.8209
 1381SOL     OW15604   3.604   0.108   7.385 -0.4707 -0.0125  0.4441
 1381SOL    HW115605   3.577   0.198   7.367  1.9573  0.9892  1.7906
 1381SOL    HW215606   3.625   0.112   7.478 -0.8782 -1.0172  0.5770
 1382SOL     OW15607   1.065   0.295   2.504 -0.7212 -0.1764 -0.6078
 1382SOL    HW115608   1.014   0.257   2.433 -1.5890 -0.4741  0.1825
 1382SOL    HW215609   0.991   0.322   2.559 -0.1322  1.9358 -0.8325
 1383SOL     OW15610   4.119   2.508  15.073  0.4466 -0.3629 -0.2930
 1383SOL    HW115611   4.209   2.484  15.049  0.5856 -0.0865 -0.0468
 1383SOL    HW215612   4.106   2.455  15.151 -0.0251  1.6211  0.9864
 1384SOL     OW15613   0.339   3.586   7.388  0.0999  0.1511 -0.4088
 1384SOL    HW115614   0.320   3.609   7.297  0.2414 -0.1680 -0.5180
 1384SOL    HW215615   0.428   3.552   7.379  1.7074  3.8434  1.4352
 1385SOL     OW15616   2.722   3.189  14.815  0.3783 -0.2322 -0.6704
 1385SOL    HW115617   2.731   3.248  14.740 -0.1639 -2.0515 -2.1701
 1385SOL    HW215618   2.683   3.112  14.773  2.0580  0.0684 -2.7543
 1386SOL     OW15619   2.586   4.316  16.056 -0.8598 -0.2147 -0.8966
 1386SOL    HW115620   2.601   4.333  16.149 -0.9969  1.9337 -1.2612
 1386SOL    HW215621   2.511   4.373  16.037  0.7573  1.6810 -1.5726
 1387SOL     OW15622   1.476   1.852   6.092  0.1381 -0.0781 -0.0592
 1387SOL    HW115623   1.537   1.889   6.028 -1.0965  0.1527 -1.1123
 1387SOL    HW215624   1.458   1.765   6.056 -2.5367  0.0043  1.0364
 1388SOL     OW15625   3.470   0.729   1.412  0.4812  0.0770  0.6378
 1388SOL    HW115626   3.410   0.659   1.385 -1.3049  1.6561  0.4922
 1388SOL    HW215627   3.438   0.729   1.502 -1.1254  0.3513  0.0759
 1389SOL     OW15628   4.601   3.892   7.908 -0.3118  0.0909 -0.3997
 1389SOL    HW115629   4.582   3.823   7.843  1.7470 -2.1369  1.3758
 1389SOL    HW215630   4.696   3.895   7.900 -0.6421  1.8647 -3.8166
 1390SOL     OW15631   4.263   1.847   8.443 -0.0880  0.2851  0.1908
 1390SOL    HW115632   4.348   1.813   8.472  1.0509  1.1341 -2.1583
 1390SOL    HW215633   4.282   1.892   8.361  2.1397  0.7500  0.9550
 1391SOL     OW15634   4.071   3.556   3.358  0.1399  0.1097 -0.1508
 1391SOL    HW115635   4.063   3.648   3.381 -2.2218  0.2993 -1.7727
 1391SOL    HW215636   4.007   3.546   3.288  0.7797 -2.7616 -0.3391
 1392SOL     OW15637   3.627   2.446   1.369 -0.5124 -0.4543 -0.0435
 1392SOL    HW115638   3.618   2.451   1.274  0.3011  0.8131 -0.0504
 1392SOL    HW215639   3.703   2.390   1.380  0.8654  1.1612 -1.3587
 1393SOL     OW15640   4.039   1.923   6.360 -0.1779 -0.0485  0.0068
 1393SOL    HW115641   4.086   1.997   6.323 -0.7533  0.0266 -0.5893
 1393SOL    HW215642   4.000   1.962   6.438 -3.2656  0.4184 -1.7359
 1394SOL     OW15643   2.718   3.779   4.556  0.5410  0.3010 -0.4898
 1394SOL    HW115644   2.794   3.766   4.501 -0.5730 -0.6361 -1.7950
 1394SOL    HW215645   2.736   3.720   4.630 -1.5970  2.1209  1.5212
 1395SOL     OW15646   2.721   2.480  10.948 -0.7408 -0.0630  0.2530
 1395SOL    HW115647   2.645   2.537  10.962 -0.8330  0.2026 -1.3077
 1395SOL    HW215648   2.763   2.491  11.034  2.2239  0.1159 -1.2180
 1396SOL     OW15649   3.960   0.958  12.211 -0.0249  0.4590  0.3004
 1396SOL    HW115650   3.870   0.924  12.213 -0.1058  0.6480 -0.1428
 1396SOL    HW215651   3.959   1.035  12.269 -0.4898  0.5158  0.2177
 1397SOL     OW15652   1.086   4.398   4.151  0.5799  0.2181 -0.1746
 1397SOL    HW115653   1.100   4.485   4.115  0.8600  0.5823  0.8079
 1397SOL    HW215654   1.061   4.425   4.239 -1.9576 -1.6542 -0.3209
 1398SOL     OW15655   4.044   0.695   5.393  0.9665 -0.7738 -0.8104
 1398SOL    HW115656   4.087   0.626   5.342 -1.5175 -1.8468 -1.4951
 1398SOL    HW215657   4.043   0.655   5.480  2.6970  0.9587 -0.0160
 1399SOL     OW15658   1.928   0.393   3.013 -0.9217 -0.3378 -0.3743
 1399SOL    HW115659   1.902   0.459   2.948  3.7150  0.5393 -1.3119
 1399SOL    HW215660   1.858   0.333   2.987 -1.7986  1.3278 -1.9213
 1400SOL     OW15661   2.384   0.499   3.054  0.6897  0.0867 -0.3589
 1400SOL    HW115662   2.374   0.458   2.968  1.7736  0.2940 -0.5782
 1400SOL    HW215663   2.297   0.506   3.094  0.5620 -1.0718 -0.4432
 1401SOL     OW15664   0.018   3.405   3.812 -0.7907  0.4533 -0.1654
 1401SOL    HW115665   0.087   3.340   3.827 -0.7647  0.7091  0.7920
 1401SOL    HW215666   0.060   3.484   3.846  0.3701 -0.1577 -0.1717
 1402SOL     OW15667   2.983   2.214   2.290  0.2515  0.8075  0.1048
 1402SOL    HW115668   3.061   2.180   2.245  1.6466  0.8187  2.5100
 1402SOL    HW215669   2.927   2.140   2.312  0.9891 -0.1697 -1.2423
 1403SOL     OW15670   1.517   4.409  15.694 -0.2377  0.7725 -0.6763
 1403SOL    HW115671   1.433   4.390  15.652 -0.3775 -1.7282  0.7207
 1403SOL    HW215672   1.491   4.471  15.762 -2.0778 -0.2711 -0.4204
 1404SOL     OW15673   0.754   1.609  15.857  0.3253 -0.0860  0.5264
 1404SOL    HW115674   0.722   1.519  15.871 -0.7819  0.3106  0.5593
 1404SOL    HW215675   0.732   1.626  15.765  1.1565  1.8058  0.6928
 1405SOL     OW15676   3.308   1.932  17.114 -0.0642 -0.3861 -0.2160
 1405SOL    HW115677   3.257   2.010  17.133 -0.2959 -0.4222 -0.6858
 1405SOL    HW215678   3.343   1.963  17.030 -0.5253 -1.0931 -0.6634
 1406SOL     OW15679   2.989   1.989  14.914 -0.3429 -0.0337  0.0691
 1406SOL    HW115680   2.905   1.960  14.950 -0.5238  0.0854 -0.2535
 1406SOL    HW215681   3.023   1.913  14.867  1.3126  1.5854 -1.3842
 1407SOL     OW15682   3.638   4.347   3.107 -0.6583 -1.0925  0.4639
 1407SOL    HW115683   3.687   4.427   3.124 -1.6013 -0.4015 -0.0768
 1407SOL    HW215684   3.582   4.353   3.185  1.4230  0.6003  1.8062
 1408SOL     OW15685   4.104   1.518   0.764 -0.2677  0.6324 -0.0102
 1408SOL    HW115686   4.086   1.523   0.857 -0.3604 -0.2647  0.0266
 1408SOL    HW215687   4.107   1.612   0.748  1.6165  0.5804  0.0760
 1409SOL     OW15688   0.241   1.393   8.589 -0.3243 -0.2591 -0.0425
 1409SOL    HW115689   0.326   1.370   8.550 -0.3878 -1.3510  0.4552
 1409SOL    HW215690   0.218   1.468   8.535 -0.8531  0.3582  1.0362
 1410SOL     OW15691   4.332   0.939   1.318  0.4672  0.3163 -0.1731
 1410SOL    HW115692   4.282   1.020   1.306 -0.5574 -0.7358 -3.2017
 1410SOL    HW215693   4.409   0.959   1.371  0.1491 -3.0672  1.5634
 1411SOL     OW15694   2.657   2.880  16.769  0.5843  0.1761  0.2903
 1411SOL    HW115695   2.737   2.918  16.734 -0.7167  0.8672 -1.9328
 1411SOL    HW215696   2.639   2.819  16.697 -1.0585 -0.2007  1.0068
 1412SOL     OW15697   1.307   0.249   1.150  0.9724  0.0764  0.1861
 1412SOL    HW115698   1.244   0.234   1.220  0.2557  0.6944 -0.3272
 1412SOL    HW215699   1.285   0.338   1.121  0.7153  0.2876  1.0386
 1413SOL     OW15700   0.366   2.651   6.712 -0.5985  0.2872  0.1631
 1413SOL    HW115701   0.274   2.678   6.713 -1.3985 -2.3788 -1.5494
 1413SOL    HW215702   0.400   2.697   6.789 -0.4787 -0.1028  0.3414
 1414SOL     OW15703   2.256   1.207  12.903 -0.1307  0.1247 -0.1022
 1414SOL    HW115704   2.292   1.190  12.816 -0.2245 -1.1146  0.1019
 1414SOL    HW215705   2.227   1.298  12.901  1.6828  0.6758 -2.8829
 1415SOL     OW15706   1.247   2.463   6.882  0.3896 -0.1729  0.4958
 1415SOL    HW115707   1.229   2.525   6.812 -0.4665 -2.3817 -1.2315
 1415SOL    HW215708   1.158   2.452   6.915  0.1011  0.9107  0.0739
 1416SOL     OW15709   4.309   0.730  12.423 -0.3682 -0.5468  0.2279
 1416SOL    HW115710   4.240   0.787  12.456  1.0272  1.3337 -0.1047
 1416SOL    HW215711   4.337   0.683  12.501  2.8526 -1.5028 -1.5208
 1417SOL     OW15712   3.372   2.798   5.269 -0.1080  0.6948  1.0220
 1417SOL    HW115713   3.318   2.719   5.275 -2.1660  2.1069  1.2619
 1417SOL    HW215714   3.455   2.764   5.300 -0.6084  0.3079  1.9483
 1418SOL     OW15715   0.669   3.749   5.840 -0.3966 -0.0820  0.0966
 1418SOL    HW115716   0.761   3.727   5.825 -0.3894  0.0657 -0.0660
 1418SOL    HW215717   0.678   3.841   5.865  0.3364  0.0834 -0.7993
 1419SOL     OW15718   0.149   0.971   7.800  0.4608  0.2523  0.0684
 1419SOL    HW115719   0.080   0.905   7.816  1.3488 -1.0620 -1.5177
 1419SOL    HW215720   0.089   1.040   7.772 -3.2386 -2.8213  0.2308
 1420SOL     OW15721   4.674   0.441  10.851 -0.0116  0.5104  0.8119
 1420SOL    HW115722   4.623   0.375  10.898 -1.4176  1.1549  0.1869
 1420SOL    HW215723   4.683   0.507  10.919 -3.4662  1.8133  0.0241
 1421SOL     OW15724   3.588   0.918   3.201  0.1041  0.0335  0.5353
 1421SOL    HW115725   3.495   0.918   3.221  0.1920  1.9398  0.9955
 1421SOL    HW215726   3.599   1.010   3.174 -1.5308 -1.2336 -4.3997
 1422SOL     OW15727   2.442   0.801   4.541 -0.2039  0.0722  0.1417
 1422SOL    HW115728   2.480   0.738   4.603  1.4337  0.3813 -0.5443
 1422SOL    HW215729   2.521   0.827   4.494  0.3712 -1.5777  0.1880
 1423SOL     OW15730   2.804   2.898  17.031 -0.2827  0.2399 -0.0404
 1423SOL    HW115731   2.725   2.870  16.984  0.5675  2.1219 -2.5979
 1423SOL    HW215732   2.795   2.991  17.052  1.1110  0.3136  0.2104
 1424SOL     OW15733   0.853   3.380   5.671  0.2758 -0.8102  0.1909
 1424SOL    HW115734   0.794   3.317   5.713 -0.4386  0.8533  1.6447
 1424SOL    HW215735   0.786   3.410   5.610 -0.5717 -1.7249  0.6714
 1425SOL     OW15736   1.267   3.069  16.059  0.1826  1.0490 -0.1874
 1425SOL    HW115737   1.306   3.003  16.116 -0.7974  0.0077 -0.7298
 1425SOL    HW215738   1.324   3.145  16.050  1.3167  0.1381 -0.6795
 1426SOL     OW15739   4.649   1.318   4.880  0.1765 -0.4051 -0.5080
 1426SOL    HW115740   4.581   1.376   4.915 -0.0916 -0.4232 -1.0090
 1426SOL    HW215741   4.606   1.281   4.804 -0.2256 -0.1284 -0.4125
 1427SOL     OW15742   1.921   4.138  15.439  0.1680  0.1766 -0.2461
 1427SOL    HW115743   1.882   4.176  15.518 -3.4860  0.2421 -2.0571
 1427SOL    HW215744   1.947   4.218  15.394 -2.0874  2.0520  1.7493
 1428SOL     OW15745   0.186   1.494   0.774  0.3802  0.4974  0.1709
 1428SOL    HW115746   0.123   1.487   0.846  0.9053 -1.4839  0.4482
 1428SOL    HW215747   0.262   1.516   0.827 -1.3865  1.1553  2.4025
 1429SOL     OW15748   0.609   1.654  12.900  0.1791  0.1182  0.4425
 1429SOL    HW115749   0.659   1.620  12.975 -0.5741  0.9788  1.3284
 1429SOL    HW215750   0.667   1.645  12.824  1.2961 -0.1532  1.3178
 1430SOL     OW15751   0.929   4.278   8.823  0.6391 -0.1731 -0.5771
 1430SOL    HW115752   1.018   4.315   8.826  1.7400 -2.8109  0.0223
 1430SOL    HW215753   0.885   4.342   8.878  1.7741 -1.2813  1.6690
 1431SOL     OW15754   4.197   2.847   8.820 -0.3629 -0.0856  0.6211
 1431SOL    HW115755   4.235   2.761   8.800 -0.4806  0.2406 -1.0647
 1431SOL    HW215756   4.105   2.823   8.827 -0.8968  1.5843 -0.5841
 1432SOL     OW15757   0.300   3.307   1.551  0.1520 -0.0482  0.3773
 1432SOL    HW115758   0.254   3.371   1.605 -0.0585 -2.4137  3.0194
 1432SOL    HW215759   0.380   3.357   1.567 -1.1357  2.3779 -0.8033
 1433SOL     OW15760   1.313   3.703   1.554  0.0485  0.2300 -0.0529
 1433SOL    HW115761   1.219   3.717   1.564 -0.2370 -2.0534  0.6251
 1433SOL    HW215762   1.322   3.694   1.459  0.2548 -1.8026  0.1608
 1434SOL     OW15763   0.168   3.327   4.842 -0.1618  0.3924 -0.3035
 1434SOL    HW115764   0.155   3.288   4.929 -1.4071 -1.0872 -1.1520
 1434SOL    HW215765   0.094   3.387   4.833 -0.3710  0.0448 -0.9302
 1435SOL     OW15766   0.208   2.192   3.068  0.4942  0.3490  0.1453
 1435SOL    HW115767   0.231   2.127   3.001  1.7961  1.2860 -0.3168
 1435SOL    HW215768   0.152   2.140   3.126 -1.4081  1.3793 -0.7697
 1436SOL     OW15769   4.294   3.227   7.326 -0.5752 -0.1514 -0.0053
 1436SOL    HW115770   4.371   3.188   7.368 -1.4817 -0.2419  1.5621
 1436SOL    HW215771   4.276   3.309   7.371  0.9153  0.9816 -1.4642
 1437SOL     OW15772   4.091   3.933   7.679  0.1631  0.1004  0.2792
 1437SOL    HW115773   4.159   3.951   7.743 -0.7355 -0.5795  1.4204
 1437SOL    HW215774   4.007   3.947   7.723 -1.8306 -0.3797 -3.3785
 1438SOL     OW15775   1.960   2.115   3.661 -0.1590  0.1803 -0.0802
 1438SOL    HW115776   1.916   2.094   3.578 -0.3229 -5.8894  1.5161
 1438SOL    HW215777   1.914   2.196   3.682 -1.6760 -1.0068  1.1477
 1439SOL     OW15778   0.969   2.432   5.234 -0.4704  0.4440  0.6147
 1439SOL    HW115779   0.982   2.396   5.322  1.5186 -0.4598 -0.0400
 1439SOL    HW215780   1.059   2.458   5.215 -0.2112 -1.5076 -0.8634
 1440SOL     OW15781   0.852   1.546   9.629  0.7199 -0.6978 -0.3108
 1440SOL    HW115782   0.767   1.506   9.613  1.8072 -1.9815 -2.8373
 1440SOL    HW215783   0.865   1.524   9.721 -2.5609 -0.0548  0.3167
 1441SOL     OW15784   4.331   0.661   1.468 -0.0490 -0.4930 -0.0991
 1441SOL    HW115785   4.239   0.638   1.477 -0.1317  0.0480  0.4111
 1441SOL    HW215786   4.322   0.698   1.380  3.1715 -0.0797 -0.2722
 1442SOL     OW15787   2.402   0.902   2.735 -0.3003 -0.4752  0.6105
 1442SOL    HW115788   2.430   0.972   2.676 -0.6740 -0.1408  0.8297
 1442SOL    HW215789   2.487   0.879   2.772 -0.6640 -2.0432  0.4748
 1443SOL     OW15790   1.031   4.021  13.947  0.3561  0.2206 -0.4859
 1443SOL    HW115791   1.099   3.959  13.920  1.8312  1.0488  1.3385
 1443SOL    HW215792   0.952   3.967  13.957  0.7634 -0.1640  0.6727
 1444SOL     OW15793   1.200   3.217   4.055  0.7032 -0.4039 -0.1315
 1444SOL    HW115794   1.134   3.156   4.021 -1.9521  1.7994  1.1267
 1444SOL    HW215795   1.236   3.239   3.969 -1.0898 -3.1921 -1.6103
 1445SOL     OW15796   1.508   2.701   5.972 -0.4522 -0.4156 -0.0799
 1445SOL    HW115797   1.426   2.673   6.014 -0.0839  0.6282  1.3011
 1445SOL    HW215798   1.507   2.796   5.980 -0.4394 -0.6092  2.2789
 1446SOL     OW15799   2.593   3.734  10.019 -0.3396  0.0843  0.0113
 1446SOL    HW115800   2.660   3.793  10.052 -0.3439  0.6826 -1.0600
 1446SOL    HW215801   2.547   3.724  10.102  0.9809  0.2229  0.7677
 1447SOL     OW15802   2.583   2.687   3.949  0.1736  0.6304  0.0510
 1447SOL    HW115803   2.570   2.697   4.043  0.3633  1.1917  0.0140
 1447SOL    HW215804   2.675   2.710   3.944 -0.1287  1.7603 -0.3491
 1448SOL     OW15805   0.320   3.620  10.037  0.5744  0.3652 -0.0283
 1448SOL    HW115806   0.327   3.573  10.120 -4.4084 -1.1700 -0.4826
 1448SOL    HW215807   0.322   3.546   9.976  0.0552  0.2914  0.0482
 1449SOL     OW15808   4.445   4.715   7.738  0.7207  0.7325  0.4678
 1449SOL    HW115809   4.429   4.642   7.797 -1.9683  1.4650  0.6282
 1449SOL    HW215810   4.539   4.696   7.729  0.5472  0.7113 -1.4908
 1450SOL     OW15811   3.517   2.482   2.865 -0.3938 -0.1115  0.1912
 1450SOL    HW115812   3.423   2.489   2.884 -0.6668 -1.4419 -0.6723
 1450SOL    HW215813   3.512   2.417   2.795 -2.2654 -0.6277  0.7895
 1451SOL     OW15814   4.414   3.212   6.389  0.0446 -0.0793  0.3022
 1451SOL    HW115815   4.420   3.117   6.404 -2.2951 -0.1370  0.9950
 1451SOL    HW215816   4.451   3.246   6.470 -2.5479  0.9716  1.0407
 1452SOL     OW15817   3.666   2.927   6.462  0.0609  0.4325  0.1906
 1452SOL    HW115818   3.632   3.010   6.430  0.6251  1.4253  2.1629
 1452SOL    HW215819   3.587   2.897   6.507 -0.0484  0.6037  0.1129
 1453SOL     OW15820   2.582   0.715  13.057 -0.3799 -0.2583  0.1634
 1453SOL    HW115821   2.591   0.704  12.962 -0.2497  1.1408  0.0121
 1453SOL    HW215822   2.674   0.698  13.078  0.0219  0.3594 -1.1123
 1454SOL     OW15823   3.469   2.644  14.432 -0.2176  0.7706 -0.2787
 1454SOL    HW115824   3.517   2.661  14.513 -1.3201  0.3622  0.4579
 1454SOL    HW215825   3.388   2.681  14.468  0.1899  0.3332  1.0603
 1455SOL     OW15826   0.796   4.707  14.777  0.0002 -0.2875 -0.7179
 1455SOL    HW115827   0.866   4.642  14.766  0.7848  0.2746  0.9810
 1455SOL    HW215828   0.811   4.719  14.870 -1.9448  0.3889 -0.4999
 1456SOL     OW15829   3.656   2.896  16.234  0.2561  0.1031 -0.3385
 1456SOL    HW115830   3.685   2.937  16.316  1.5802 -0.0069 -0.7454
 1456SOL    HW215831   3.736   2.919  16.185 -0.7953 -1.5182 -2.8076
 1457SOL     OW15832   0.979   2.794   8.901  0.9941  0.2390 -0.0009
 1457SOL    HW115833   0.949   2.883   8.917  0.8603 -0.4355  3.3418
 1457SOL    HW215834   0.928   2.772   8.822  0.4530  0.6384  0.2422
 1458SOL     OW15835   0.635   4.318   7.935  0.2429  0.1560 -0.4003
 1458SOL    HW115836   0.637   4.244   7.995  2.1206 -0.9688 -1.8612
 1458SOL    HW215837   0.706   4.369   7.973 -1.0644  1.5224  0.2478
 1459SOL     OW15838   1.736   0.990   5.215  0.6035 -0.4860  0.4139
 1459SOL    HW115839   1.770   0.925   5.276 -0.6424 -1.5198  0.0184
 1459SOL    HW215840   1.745   0.943   5.132 -0.1618 -0.7088  0.4541
 1460SOL     OW15841   1.777   1.942  13.369 -0.0312 -0.1966  0.4185
 1460SOL    HW115842   1.850   1.909  13.422  0.0136 -0.7533  0.0056
 1460SOL    HW215843   1.703   1.923  13.427  0.3779 -0.4767  0.8463
 1461SOL     OW15844   3.542   1.940   1.742  0.1107  0.0176  0.2792
 1461SOL    HW115845   3.508   2.016   1.789 -0.5061  0.2229 -0.5078
 1461SOL    HW215846   3.464   1.887   1.723 -1.1198  2.1967 -0.7547
 1462SOL     OW15847   0.889   3.038   2.772 -0.0493 -0.4250  0.6120
 1462SOL    HW115848   0.905   2.954   2.815  1.1310  1.0977  3.1566
 1462SOL    HW215849   0.983   3.058   2.764 -0.4022  0.7851 -0.4108
 1463SOL     OW15850   0.895   2.913   6.754 -0.0365  0.0448  0.0428
 1463SOL    HW115851   0.931   2.989   6.707 -2.5348  0.7511 -0.7675
 1463SOL    HW215852   0.808   2.952   6.771  0.8688  2.1590 -0.1178
 1464SOL     OW15853   1.951   4.370   7.092 -0.0513 -0.0471  0.7214
 1464SOL    HW115854   1.904   4.288   7.079  0.2974 -0.2937  1.0108
 1464SOL    HW215855   1.942   4.386   7.186 -1.1555 -1.0073  0.7810
 1465SOL     OW15856   1.085   0.633   0.807  0.1805 -0.5541 -0.2461
 1465SOL    HW115857   1.002   0.646   0.853 -0.0052  0.6145 -0.9006
 1465SOL    HW215858   1.123   0.553   0.845 -3.0648 -0.9689  2.1074
 1466SOL     OW15859   2.945   3.915   8.669 -0.2352 -0.2250  0.1086
 1466SOL    HW115860   2.934   3.842   8.730  0.7878  1.1413  1.9469
 1466SOL    HW215861   2.860   3.932   8.629  0.6650  1.2462 -1.1841
 1467SOL     OW15862   1.742   0.405   1.268  0.1252  0.0268  0.0503
 1467SOL    HW115863   1.711   0.495   1.258  0.8304  0.3011  0.3416
 1467SOL    HW215864   1.730   0.360   1.184  0.7795 -0.5022  0.2470
 1468SOL     OW15865   3.953   0.310   6.142 -0.0106  0.3357  0.1550
 1468SOL    HW115866   4.016   0.369   6.185 -0.0591 -0.2814  1.0756
 1468SOL    HW215867   3.917   0.263   6.217  0.8389  0.0875  0.4173
 1469SOL     OW15868   1.644   4.478   5.194 -0.1883  0.0922  0.5467
 1469SOL    HW115869   1.612   4.510   5.279  1.4863  0.8282  0.9093
 1469SOL    HW215870   1.651   4.384   5.211 -0.6004 -0.2117 -0.9948
 1470SOL     OW15871   2.710   2.998   2.220  0.3884  0.0082 -0.0359
 1470SOL    HW115872   2.699   2.903   2.226 -0.4503  0.0589 -0.6611
 1470SOL    HW215873   2.800   3.017   2.194  0.7637  1.1246  2.0669
 1471SOL     OW15874   2.357   3.298   6.878  0.0521  0.0204  0.3682
 1471SOL    HW115875   2.319   3.253   6.802 -2.2923  3.4164 -0.4650
 1471SOL    HW215876   2.347   3.387   6.844  2.7590 -0.0908 -0.7534
 1472SOL     OW15877   2.679   1.017   7.890  0.1875 -0.5238 -0.6146
 1472SOL    HW115878   2.619   1.045   7.960 -0.9613 -1.4832 -1.2182
 1472SOL    HW215879   2.710   0.933   7.925 -0.0947 -1.7238 -3.2769
 1473SOL     OW15880   2.227   0.179  10.201  0.1067  0.3599  0.4333
 1473SOL    HW115881   2.239   0.259  10.252  0.2790  1.3445 -1.1521
 1473SOL    HW215882   2.251   0.215  10.116  1.3415 -2.2533 -0.2994
 1474SOL     OW15883   1.379   3.619   8.868 -0.3949  0.2052 -0.2536
 1474SOL    HW115884   1.339   3.671   8.799 -1.8531 -0.0961  0.3651
 1474SOL    HW215885   1.470   3.615   8.838 -0.4848 -1.5967 -0.3154
 1475SOL     OW15886   1.805   4.264   4.282  0.1083  0.0074  0.1871
 1475SOL    HW115887   1.736   4.242   4.220 -0.1002  1.2485 -0.0175
 1475SOL    HW215888   1.860   4.314   4.222 -0.2895 -0.9844 -1.0063
 1476SOL     OW15889   4.190   3.528  11.077  0.2242  0.2580 -0.2197
 1476SOL    HW115890   4.096   3.514  11.090  0.4709 -1.0030  0.1665
 1476SOL    HW215891   4.212   3.450  11.027  1.7293  0.8910 -0.5446
 1477SOL     OW15892   2.515   4.521   2.797  0.3088  0.2221 -0.1712
 1477SOL    HW115893   2.472   4.597   2.756  0.0003  1.4779  2.4158
 1477SOL    HW215894   2.485   4.522   2.889  1.3101 -0.4033  0.1523
 1478SOL     OW15895   4.030   0.115  10.444 -0.0108  0.3096 -0.2833
 1478SOL    HW115896   3.974   0.039  10.456 -2.0029  2.0432  1.4097
 1478SOL    HW215897   4.089   0.080  10.377  0.1847  1.4058 -0.6943
 1479SOL     OW15898   0.449   2.055   5.848  0.8166  0.1865 -0.6153
 1479SOL    HW115899   0.464   1.988   5.781  2.9432 -0.0784  0.1217
 1479SOL    HW215900   0.409   2.123   5.794 -1.7129  0.5966  1.7509
 1480SOL     OW15901   0.012   1.677   0.654 -0.1963 -0.3705  0.2114
 1480SOL    HW115902   0.093   1.639   0.688 -1.4160 -4.5459 -1.5344
 1480SOL    HW215903   4.664   1.610   0.661 -1.8207  1.0178 -1.9783
 1481SOL     OW15904   0.262   4.241   2.874  0.5438 -0.1331 -0.5164
 1481SOL    HW115905   0.226   4.190   2.801  0.4464 -3.0181  1.5884
 1481SOL    HW215906   0.185   4.276   2.918 -0.1591  0.0362 -1.8833
 1482SOL     OW15907   1.819   4.424  15.303  0.8010  0.2420 -0.1661
 1482SOL    HW115908   1.821   4.341  15.255  1.7905  1.1914 -1.7353
 1482SOL    HW215909   1.897   4.469  15.273  1.0336 -0.1670 -0.1769
 1483SOL     OW15910   2.562   1.587   1.069  0.0139 -0.0133  0.0336
 1483SOL    HW115911   2.483   1.545   1.104  1.4848 -3.1950 -0.4896
 1483SOL    HW215912   2.561   1.665   1.124  0.3224  1.2871 -1.8075
 1484SOL     OW15913   1.797   3.927   1.267 -0.1907  0.3748  0.7096
 1484SOL    HW115914   1.887   3.946   1.291  0.1939  0.5372 -0.8928
 1484SOL    HW215915   1.786   3.976   1.185 -0.6124 -0.2402  0.3984
 1485SOL     OW15916   3.558   3.376   2.888 -0.2314 -0.2048 -0.3249
 1485SOL    HW115917   3.587   3.449   2.833  0.5708 -1.4818 -1.6149
 1485SOL    HW215918   3.598   3.306   2.835 -1.5549 -2.2276  1.3619
 1486SOL     OW15919   1.467   0.400   5.008 -0.4478  0.4005 -0.1171
 1486SOL    HW115920   1.437   0.314   4.980 -0.5312  0.3459  0.1329
 1486SOL    HW215921   1.385   0.445   5.031 -1.1888 -0.6007 -0.7656
 1487SOL     OW15922   0.048   0.796   2.636 -0.3373  0.0470 -0.3291
 1487SOL    HW115923   4.682   0.817   2.599 -0.8867 -0.2909  0.7563
 1487SOL    HW215924   0.075   0.883   2.667 -1.0919  0.5866 -1.1665
 1488SOL     OW15925   4.673   1.144   9.514  0.1258  0.1504  0.5600
 1488SOL    HW115926   4.697   1.226   9.472  2.0080 -0.1247  1.1112
 1488SOL    HW215927   4.581   1.153   9.540  0.5517  1.9205  1.4285
 1489SOL     OW15928   3.270   0.637  17.396  0.1794 -0.2136 -0.0111
 1489SOL    HW115929   3.230   0.707  17.344  0.2157 -0.6245 -0.5852
 1489SOL    HW215930   3.359   0.663  17.371 -0.0575  1.1803  0.5692
 1490SOL     OW15931   1.898   3.763   4.757 -0.4790 -0.1198  0.3897
 1490SOL    HW115932   1.861   3.722   4.835  0.4219 -0.5582  0.5792
 1490SOL    HW215933   1.957   3.696   4.722 -1.2828 -0.3802 -0.4891
 1491SOL     OW15934   2.671   4.512   2.025  0.3021  0.1769 -0.0296
 1491SOL    HW115935   2.672   4.580   1.958  1.7596  0.8907  0.7111
 1491SOL    HW215936   2.736   4.534   2.093 -1.4078 -1.0567  2.0082
 1492SOL     OW15937   4.526   2.210   8.061 -0.0186 -0.0311  0.1490
 1492SOL    HW115938   4.570   2.205   8.146  0.2616 -0.4997 -0.0256
 1492SOL    HW215939   4.565   2.285   8.017  1.4240 -0.2502  1.0508
 1493SOL     OW15940   3.282   3.663   5.743 -0.2734  0.6453  0.1384
 1493SOL    HW115941   3.218   3.682   5.675 -0.8188  2.5275  1.1992
 1493SOL    HW215942   3.308   3.572   5.724 -1.5750  0.9103 -2.9338
 1494SOL     OW15943   1.390   0.517   6.679  0.0844 -0.1070 -0.3093
 1494SOL    HW115944   1.469   0.499   6.730  1.0353  0.6622 -1.5231
 1494SOL    HW215945   1.368   0.605   6.711 -0.3891 -0.4419  0.2872
 1495SOL     OW15946   3.711   0.764  11.651 -0.4393 -0.2781  0.3771
 1495SOL    HW115947   3.724   0.700  11.581  0.1519  0.2126  0.0319
 1495SOL    HW215948   3.622   0.749  11.682 -0.3674 -1.4594  0.0007
 1496SOL     OW15949   1.302   1.641   5.497  0.4612  0.2806  0.2902
 1496SOL    HW115950   1.287   1.731   5.469  1.4756  0.0714 -0.9702
 1496SOL    HW215951   1.256   1.597   5.425 -0.7747 -0.6360  1.6556
 1497SOL     OW15952   2.316   2.642   4.919  0.2238  0.1160  0.2074
 1497SOL    HW115953   2.230   2.607   4.896  1.5729 -3.5432  0.7045
 1497SOL    HW215954   2.379   2.585   4.874 -0.9205 -1.1045  0.1459
 1498SOL     OW15955   3.397   4.537   5.627 -0.4160  0.1303 -0.5046
 1498SOL    HW115956   3.337   4.526   5.554 -0.3139 -0.6513 -0.4698
 1498SOL    HW215957   3.464   4.583   5.577  0.1064 -0.3735 -0.2767
 1499SOL     OW15958   2.732   3.411   3.049  0.4360 -0.5606  0.5997
 1499SOL    HW115959   2.792   3.413   2.975 -0.4630 -1.9123 -0.1627
 1499SOL    HW215960   2.646   3.394   3.011  0.9622  2.9497 -2.0621
 1500SOL     OW15961   0.579   4.310   5.566  0.3035 -0.3537  0.2619
 1500SOL    HW115962   0.568   4.239   5.503 -1.2451  1.5320 -1.6118
 1500SOL    HW215963   0.526   4.275   5.638  0.3938 -0.4735  0.2690
 1501SOL     OW15964   2.206   0.475   5.415  0.8828  0.3881 -0.3205
 1501SOL    HW115965   2.297   0.494   5.391  1.2558  0.9061  1.5317
 1501SOL    HW215966   2.161   0.542   5.365  3.6751  2.1489 -0.5004
 1502SOL     OW15967   1.476   3.328  11.731  0.0303  0.2532 -0.7339
 1502SOL    HW115968   1.486   3.281  11.648  1.9696  1.4749 -1.1913
 1502SOL    HW215969   1.410   3.274  11.774  0.2268  0.6781  0.0905
 1503SOL     OW15970   0.369   0.483   4.161 -0.5324  0.0522 -0.6064
 1503SOL    HW115971   0.309   0.417   4.196  0.7710 -1.3916 -1.1133
 1503SOL    HW215972   0.372   0.456   4.069  0.9601 -3.3193  0.4326
 1504SOL     OW15973   2.714   0.510   2.062 -0.1534 -0.2281  0.1434
 1504SOL    HW115974   2.788   0.511   2.124 -0.1107 -0.0591  0.0885
 1504SOL    HW215975   2.641   0.486   2.118  0.6350 -0.6141  1.0042
 1505SOL     OW15976   2.082   2.321   5.521 -0.2972  0.3337  0.3815
 1505SOL    HW115977   2.053   2.296   5.609 -2.6626  0.7104 -0.2766
 1505SOL    HW215978   2.142   2.249   5.502 -1.2612 -0.4186  0.1717
 1506SOL     OW15979   3.766   4.243  10.050  0.3587 -0.8218  0.4337
 1506SOL    HW115980   3.675   4.226  10.024 -0.1909  2.5619  0.0942
 1506SOL    HW215981   3.758   4.258  10.144  0.6778 -2.4039  0.7070
 1507SOL     OW15982   4.139   4.409  11.025 -0.2747 -0.1225 -0.4666
 1507SOL    HW115983   4.144   4.498  10.990 -0.7854 -0.6221 -1.8048
 1507SOL    HW215984   4.106   4.406  11.115 -0.1329 -0.6415 -0.4346
 1508SOL     OW15985   3.227   1.922  12.850 -0.0881  0.0786 -0.5533
 1508SOL    HW115986   3.239   1.987  12.920  1.2634 -0.2026 -0.5318
 1508SOL    HW215987   3.293   1.859  12.877 -2.1081 -2.7367 -2.2096
 1509SOL     OW15988   3.319   0.240   4.841 -0.3601  0.6482 -0.3585
 1509SOL    HW115989   3.263   0.284   4.905  0.0038  4.0241 -2.3469
 1509SOL    HW215990   3.270   0.160   4.822  0.8893 -0.1794 -0.0566
 1510SOL     OW15991   0.670   4.348  10.785 -0.1068 -0.0592  0.0546
 1510SOL    HW115992   0.584   4.369  10.749 -0.0616  1.5715  0.8848
 1510SOL    HW215993   0.699   4.439  10.790 -0.0130  0.0684 -3.0204
 1511SOL     OW15994   3.254   1.876   2.747 -0.5957  0.5300  0.3088
 1511SOL    HW115995   3.258   1.780   2.749  3.7144  0.7122  0.0628
 1511SOL    HW215996   3.315   1.894   2.819  0.8859 -0.5062 -0.6815
 1512SOL     OW15997   4.093   3.390   7.539  0.0112  0.1165  0.0945
 1512SOL    HW115998   4.003   3.409   7.564 -0.3158 -3.2638  1.3732
 1512SOL    HW215999   4.096   3.295   7.535 -1.1881  0.1472 -1.4126
 1513SOL     OW16000   4.380   0.257  11.800 -0.2048  0.3380 -0.1566
 1513SOL    HW116001   4.303   0.262  11.743 -1.1762 -4.2918  0.7083
 1513SOL    HW216002   4.359   0.177  11.848  0.8950 -0.0236 -0.2762
 1514SOL     OW16003   2.665   2.753  17.227 -0.1339  0.2557  0.6494
 1514SOL    HW116004   2.733   2.816  17.200 -1.9721  1.9046 -0.1532
 1514SOL    HW216005   2.702   2.698  17.295 -2.5384 -0.7903  1.0870
 1515SOL     OW16006   4.242   0.836   4.592  0.4902 -0.9497  0.7519
 1515SOL    HW116007   4.256   0.742   4.600 -0.4268 -0.8779  3.1528
 1515SOL    HW216008   4.208   0.850   4.681 -0.1636  1.2219  0.1756
 1516SOL     OW16009   2.901   0.093   3.140  0.8385  0.2830 -0.2725
 1516SOL    HW116010   2.818   0.140   3.147  0.2307 -1.0368  1.2887
 1516SOL    HW216011   2.928   0.077   3.230  0.4648  1.5031  0.0499
 1517SOL     OW16012   0.487   1.437  10.353  0.8576  0.8618  0.0056
 1517SOL    HW116013   0.464   1.501  10.286 -1.7070 -1.2082 -1.1048
 1517SOL    HW216014   0.481   1.502  10.423  0.6898  0.6438  0.1939
 1518SOL     OW16015   3.301   2.654   1.339  0.3485 -0.1837  0.4500
 1518SOL    HW116016   3.372   2.602   1.303 -1.5591 -0.2407 -3.2174
 1518SOL    HW216017   3.264   2.599   1.408  1.4763 -1.2504  0.1865
 1519SOL     OW16018   1.288   2.083  13.732 -0.3975  0.0062 -0.4330
 1519SOL    HW116019   1.374   2.118  13.707  0.2081 -0.4954  0.9180
 1519SOL    HW216020   1.241   2.150  13.682 -0.1196 -1.4293 -2.5783
 1520SOL     OW16021   0.749   2.785   7.046 -0.1473  0.2652 -0.3321
 1520SOL    HW116022   0.690   2.849   7.085  1.1326  2.7785 -2.5462
 1520SOL    HW216023   0.773   2.836   6.969  1.5059 -0.7322 -0.4813
 1521SOL     OW16024   3.996   2.075   2.769  0.2698  0.4998  0.2743
 1521SOL    HW116025   3.991   2.045   2.678  0.5570  2.4267 -0.3672
 1521SOL    HW216026   4.025   2.166   2.759 -0.8286  0.6971 -1.1616
 1522SOL     OW16027   1.223   2.766   8.966 -0.2122 -0.1941  0.2668
 1522SOL    HW116028   1.140   2.766   8.918 -0.2219  1.3929  0.2529
 1522SOL    HW216029   1.208   2.849   9.012 -0.1187  0.6573 -1.2215
 1523SOL     OW16030   4.676   0.850   2.028 -0.2157  0.5541  0.2378
 1523SOL    HW116031   0.027   0.812   2.081  0.1713  1.1506  0.1573
 1523SOL    HW216032   4.706   0.819   1.942 -1.2239  0.7840 -0.1995
 1524SOL     OW16033   3.842   4.316   9.150 -0.1011 -0.2343  0.1793
 1524SOL    HW116034   3.907   4.383   9.166 -0.3926  0.0641  0.1168
 1524SOL    HW216035   3.880   4.276   9.071  0.3581  0.0977  0.2364
 1525SOL     OW16036   2.941   0.383   4.894 -0.1731 -0.0377 -0.1684
 1525SOL    HW116037   2.965   0.407   4.984 -0.5766  2.2164 -0.6500
 1525SOL    HW216038   2.977   0.295   4.894 -0.8512 -0.3159 -0.0446
 1526SOL     OW16039   2.337   1.679   6.355  0.0845 -0.4006 -0.4151
 1526SOL    HW116040   2.275   1.699   6.426  1.1172 -2.7085  1.1171
 1526SOL    HW216041   2.413   1.732   6.380 -0.0465 -0.1217 -0.6097
 1527SOL     OW16042   3.268   2.427  12.131  0.0825  0.7328  0.5967
 1527SOL    HW116043   3.355   2.424  12.171  1.4511 -0.6501 -2.5359
 1527SOL    HW216044   3.208   2.477  12.186 -1.0251  0.1732 -0.0990
 1528SOL     OW16045   1.300   1.119  10.662 -0.3083  0.5133  0.0402
 1528SOL    HW116046   1.392   1.107  10.637 -0.0550  0.5921  0.9194
 1528SOL    HW216047   1.258   1.040  10.627  1.7684  0.1437 -1.6199
 1529SOL     OW16048   0.469   2.343   1.001 -0.1981 -0.1540 -0.3300
 1529SOL    HW116049   0.557   2.380   1.008  0.2312 -1.1497 -0.5324
 1529SOL    HW216050   0.453   2.328   1.094 -1.4697  1.9061 -0.2204
 1530SOL     OW16051   4.184   4.563   4.034 -0.4641 -0.0687 -0.0605
 1530SOL    HW116052   4.273   4.572   4.001 -0.0676  3.0029  1.8080
 1530SOL    HW216053   4.158   4.654   4.023 -2.5529 -0.6464  0.2353
 1531SOL     OW16054   2.226   0.741   3.234  0.6090 -0.7380  0.1928
 1531SOL    HW116055   2.277   0.744   3.153  0.4853  0.5734  0.1633
 1531SOL    HW216056   2.177   0.660   3.220  0.9565 -0.7166 -1.1762
 1532SOL     OW16057   1.149   4.199   6.053 -0.1972 -0.1684 -0.4793
 1532SOL    HW116058   1.090   4.132   6.019 -1.5467  0.4413  0.6427
 1532SOL    HW216059   1.231   4.176   6.010  1.0490 -1.7058  2.7302
 1533SOL     OW16060   3.717   1.438   0.235 -0.0085  0.2142  0.5250
 1533SOL    HW116061   3.761   1.466   0.315  0.0876  3.4666 -0.6662
 1533SOL    HW216062   3.732   1.343   0.238 -1.6943  0.0274  3.0811
 1534SOL     OW16063   4.227   4.507   6.444 -0.1462  0.3348  0.0975
 1534SOL    HW116064   4.284   4.436   6.472  0.5731  0.9071  0.0807
 1534SOL    HW216065   4.251   4.576   6.505  2.1424  0.4412 -0.9067
 1535SOL     OW16066   2.492   2.489  16.653 -0.2880 -0.0863 -0.1078
 1535SOL    HW116067   2.501   2.569  16.600 -1.7370  1.2769  1.6710
 1535SOL    HW216068   2.497   2.523  16.742 -0.9036  0.6356 -0.3454
 1536SOL     OW16069   3.898   0.476   5.229 -0.6155 -0.0800  0.6119
 1536SOL    HW116070   3.844   0.397   5.226 -1.3333  0.5069 -2.0514
 1536SOL    HW216071   3.924   0.492   5.319 -0.7242 -0.8648  0.7888
 1537SOL     OW16072   0.376   1.150   2.818 -0.1968 -0.9432  0.2683
 1537SOL    HW116073   0.418   1.070   2.787  0.3465 -0.9554  1.0626
 1537SOL    HW216074   0.371   1.133   2.912  0.5704  1.0600  0.6676
 1538SOL     OW16075   3.876   0.381   2.984  0.0273  0.4151  0.4118
 1538SOL    HW116076   3.840   0.469   2.976  0.9076  0.7972  0.6847
 1538SOL    HW216077   3.831   0.344   2.908  2.0750 -1.0837 -0.0582
 1539SOL     OW16078   2.710   2.541  12.207 -0.8410 -0.2507  0.6642
 1539SOL    HW116079   2.672   2.454  12.204  0.2762 -0.6945 -0.6230
 1539SOL    HW216080   2.756   2.561  12.289 -0.2641  1.8187 -0.1595
 1540SOL     OW16081   0.626   2.994   2.630  0.6703  0.0548  0.0573
 1540SOL    HW116082   0.601   2.927   2.694  0.4333 -0.6365 -0.7649
 1540SOL    HW216083   0.720   2.986   2.646  0.2917  0.1267  2.3620
 1541SOL     OW16084   4.206   1.120  11.095  0.1258  0.0368  0.2750
 1541SOL    HW116085   4.244   1.077  11.019 -0.3518  1.6439 -0.8591
 1541SOL    HW216086   4.134   1.174  11.062  1.5108  1.9600  0.3558
 1542SOL     OW16087   0.166   2.669   8.879  0.1384 -0.4041  0.6100
 1542SOL    HW116088   0.109   2.710   8.945  0.3536  1.3660 -0.3099
 1542SOL    HW216089   0.246   2.669   8.931 -0.7784 -1.7734  2.0328
 1543SOL     OW16090   1.420   2.603   4.346 -0.3828  0.6183 -0.5110
 1543SOL    HW116091   1.473   2.614   4.267  0.6317 -0.8205 -0.0220
 1543SOL    HW216092   1.333   2.597   4.306 -1.1319  0.5645  1.1516
 1544SOL     OW16093   1.825   3.169  13.612 -0.5316 -0.1544  0.3600
 1544SOL    HW116094   1.836   3.236  13.680  1.3700 -0.7072  0.5771
 1544SOL    HW216095   1.761   3.115  13.659  1.9526 -1.5225  2.1105
 1545SOL     OW16096   3.079   0.542   5.825 -0.7319  0.0682  0.9359
 1545SOL    HW116097   3.089   0.448   5.839  0.0554  0.1928  1.1634
 1545SOL    HW216098   2.983   0.547   5.831 -0.8247 -1.4144  0.7733
 1546SOL     OW16099   3.144   0.434   4.507  0.1213  0.6175 -0.0227
 1546SOL    HW116100   3.152   0.480   4.423 -2.2343 -1.3613 -1.3057
 1546SOL    HW216101   3.062   0.467   4.545 -1.1928 -0.9573 -1.5226
 1547SOL     OW16102   1.376   4.616  11.825 -0.3836 -0.1091  1.8644
 1547SOL    HW116103   1.430   4.684  11.784 -0.8092 -0.2924  0.9975
 1547SOL    HW216104   1.435   4.546  11.854 -1.8815 -2.1970 -0.1843
 1548SOL     OW16105   0.906   3.651   7.494 -0.7145  0.1586  0.2197
 1548SOL    HW116106   0.984   3.606   7.528 -0.3421  1.5218  1.1881
 1548SOL    HW216107   0.942   3.740   7.494 -0.3861  0.0360 -1.8192
 1549SOL     OW16108   3.926   3.228   3.410 -0.1816  0.1282  0.0424
 1549SOL    HW116109   3.933   3.154   3.470 -0.2535 -2.4515 -3.1126
 1549SOL    HW216110   3.832   3.250   3.407 -0.7132 -1.9945  0.8370
 1550SOL     OW16111   0.328   1.105   5.507  0.7303  0.5842 -0.8765
 1550SOL    HW116112   0.282   1.031   5.468 -1.8848  2.0186 -0.5213
 1550SOL    HW216113   0.253   1.165   5.504 -1.7876 -2.5942 -1.4581
 1551SOL     OW16114   0.830   3.824   2.818 -0.8092 -0.0475 -0.6868
 1551SOL    HW116115   0.778   3.893   2.860  1.2612  1.7345 -1.0483
 1551SOL    HW216116   0.848   3.853   2.729  0.1548  3.8585  0.7556
 1552SOL     OW16117   1.905   1.468   4.451  0.0165 -0.5987 -0.1102
 1552SOL    HW116118   1.978   1.474   4.513 -0.0769  1.3974 -0.1936
 1552SOL    HW216119   1.868   1.556   4.457 -2.0444 -1.3619 -1.6703
 1553SOL     OW16120   1.488   0.517   0.919  0.0444  0.1428 -0.1351
 1553SOL    HW116121   1.518   0.468   0.843  1.4690  1.4895 -0.4511
 1553SOL    HW216122   1.451   0.595   0.878  0.5213  1.5811  2.1601
 1554SOL     OW16123   3.474   2.864   6.245 -0.1588  0.0365 -0.0958
 1554SOL    HW116124   3.406   2.919   6.205 -0.9341 -0.7096  0.1944
 1554SOL    HW216125   3.515   2.932   6.298 -0.9288  1.1072 -0.8587
 1555SOL     OW16126   3.677   0.232   5.523 -0.2077  0.5949  0.6003
 1555SOL    HW116127   3.667   0.269   5.435 -1.8213  0.1013  0.5786
 1555SOL    HW216128   3.739   0.298   5.555 -0.1920 -0.1290  2.0635
 1556SOL     OW16129   2.776   0.473   4.148  0.5411 -0.2738 -0.4606
 1556SOL    HW116130   2.771   0.526   4.227  1.3641 -0.3442 -0.3655
 1556SOL    HW216131   2.683   0.449   4.145  0.2622  0.5838  1.7567
 1557SOL     OW16132   0.856   1.549   8.370  0.2054  0.1486  0.0293
 1557SOL    HW116133   0.842   1.599   8.450 -0.2055  1.2541 -0.7329
 1557SOL    HW216134   0.876   1.465   8.412 -0.4441 -0.7065 -1.3693
 1558SOL     OW16135   0.322   0.615  11.911  0.3695 -0.1241 -0.3667
 1558SOL    HW116136   0.254   0.570  11.860  1.1798 -0.4734 -1.1263
 1558SOL    HW216137   0.406   0.580  11.881  1.1864  2.2945 -0.8646
 1559SOL     OW16138   2.318   0.457   5.113 -0.8289  0.0704 -0.1657
 1559SOL    HW116139   2.375   0.383   5.136 -2.3956 -0.5190  1.8316
 1559SOL    HW216140   2.350   0.537   5.154  1.6079 -0.9242 -0.1101
 1560SOL     OW16141   2.345   1.113   6.245  0.1302 -0.1175  0.2955
 1560SOL    HW116142   2.288   1.156   6.310 -1.5832 -1.7143 -0.1597
 1560SOL    HW216143   2.363   1.026   6.281  0.0169  0.1193  0.9384
 1561SOL     OW16144   3.744   3.201   2.750  0.0411 -0.0646 -0.2319
 1561SOL    HW116145   3.801   3.179   2.676 -2.7327  2.0762 -3.0376
 1561SOL    HW216146   3.661   3.154   2.740  0.4067 -0.7736  0.0453
 1562SOL     OW16147   0.860   2.956   7.856  0.2716  0.3398  0.5225
 1562SOL    HW116148   0.840   3.010   7.779 -0.0371 -1.7302 -0.8409
 1562SOL    HW216149   0.946   2.994   7.873  0.3471  0.9063 -1.0672
 1563SOL     OW16150   0.674   0.884   7.238 -0.2416  1.0072  0.2117
 1563SOL    HW116151   0.604   0.944   7.264 -1.7953 -1.2490  1.2292
 1563SOL    HW216152   0.747   0.942   7.220  0.7652 -0.0917  0.7234
 1564SOL     OW16153   0.906   2.699  14.569 -0.0444  0.3578 -0.3212
 1564SOL    HW116154   0.886   2.711  14.661 -0.0002 -0.8361 -0.1591
 1564SOL    HW216155   0.833   2.643  14.545  0.6914 -0.5410 -0.4796
 1565SOL     OW16156   0.044   3.804   7.545 -0.1914 -0.7039 -0.1789
 1565SOL    HW116157   0.094   3.853   7.610  2.1345 -2.4136 -0.6912
 1565SOL    HW216158   4.710   3.872   7.504  0.1434 -1.6452 -2.1672
 1566SOL     OW16159   0.542   2.171   2.335 -0.1322 -0.4536  0.4031
 1566SOL    HW116160   0.495   2.108   2.281 -1.0131  0.5923 -0.0504
 1566SOL    HW216161   0.578   2.225   2.265 -0.9066  0.2613  0.5585
 1567SOL     OW16162   2.224   3.251   7.842 -0.2988 -0.0597  0.0615
 1567SOL    HW116163   2.238   3.165   7.804  0.4763 -1.7584  4.1399
 1567SOL    HW216164   2.264   3.296   7.768 -0.5443  0.4647  0.2391
 1568SOL     OW16165   4.413   0.817   8.499 -0.4293  0.0934  0.1028
 1568SOL    HW116166   4.379   0.906   8.486 -0.6918 -0.1127 -0.6383
 1568SOL    HW216167   4.505   0.841   8.488  0.2945 -1.5976  2.5478
 1569SOL     OW16168   3.539   1.180   4.987  0.1612 -0.0564 -0.3514
 1569SOL    HW116169   3.446   1.178   5.012  0.2740  1.4583  0.1778
 1569SOL    HW216170   3.548   1.085   4.975 -0.6647  0.1075 -2.3829
 1570SOL     OW16171   2.946   2.284   4.430  0.0184 -0.7798 -0.2660
 1570SOL    HW116172   2.889   2.207   4.422 -0.6815 -0.2831 -0.1152
 1570SOL    HW216173   2.898   2.345   4.375  0.7285  0.6359  0.6818
 1571SOL     OW16174   3.015   3.941   4.172  0.1756  0.2217 -0.2949
 1571SOL    HW116175   3.084   3.988   4.126  1.0504  1.3303  2.1776
 1571SOL    HW216176   3.008   3.864   4.115 -2.6394  0.9763 -0.9992
 1572SOL     OW16177   1.329   2.261   7.244 -0.3332 -0.8691 -0.1231
 1572SOL    HW116178   1.375   2.266   7.328 -0.4501 -0.6917 -0.0694
 1572SOL    HW216179   1.383   2.319   7.189  2.6081 -2.1712  1.3899
 1573SOL     OW16180   4.456   2.132   3.919  0.3012 -0.0805  0.0670
 1573SOL    HW116181   4.485   2.204   3.863 -1.0220  1.4366  1.3209
 1573SOL    HW216182   4.445   2.064   3.853  0.8451  0.2387 -0.3577
 1574SOL     OW16183   0.068   3.541   0.562 -0.0677 -0.5963 -0.5532
 1574SOL    HW116184   0.104   3.628   0.548 -0.8698  0.0917  1.5973
 1574SOL    HW216185   4.703   3.552   0.518  0.1623 -1.3167 -1.1659
 1575SOL     OW16186   1.833   4.297   5.738 -0.0466  0.2591 -0.1778
 1575SOL    HW116187   1.774   4.335   5.673  1.1339  2.5629  0.1065
 1575SOL    HW216188   1.771   4.232   5.773  1.3234 -1.2058 -0.4688
 1576SOL     OW16189   4.213   4.250  16.122 -0.5003  0.3756  0.6414
 1576SOL    HW116190   4.153   4.272  16.050 -0.9384  1.4575  1.3450
 1576SOL    HW216191   4.278   4.194  16.081 -0.0137  0.9088  0.6905
 1577SOL     OW16192   3.413   4.310   7.555 -0.6420 -0.2163 -0.1877
 1577SOL    HW116193   3.354   4.248   7.598 -1.9000  0.3320 -1.1480
 1577SOL    HW216194   3.493   4.257   7.553 -1.0928 -0.8929 -0.4335
 1578SOL     OW16195   2.287   0.650  13.339 -0.5275  0.3704  0.1802
 1578SOL    HW116196   2.366   0.704  13.332 -0.4406  0.3829  1.2695
 1578SOL    HW216197   2.263   0.636  13.247 -0.8061 -2.8407  0.7162
 1579SOL     OW16198   3.900   1.927   0.888  0.0966 -0.7384 -0.2005
 1579SOL    HW116199   3.894   2.021   0.867  0.2489 -0.3085  1.6610
 1579SOL    HW216200   3.946   1.930   0.972  0.2419 -0.9077 -0.2757
 1580SOL     OW16201   0.068   3.847   4.499  0.9263 -0.3621 -0.5024
 1580SOL    HW116202   0.151   3.842   4.547 -0.0345 -2.9122  0.9184
 1580SOL    HW216203   0.031   3.913   4.557  0.7879 -1.1580  0.3168
 1581SOL     OW16204   3.721   4.117   6.152 -0.3881  0.4688 -0.1504
 1581SOL    HW116205   3.729   4.148   6.243  0.1316  1.8645 -0.6696
 1581SOL    HW216206   3.730   4.198   6.102  0.5510  0.2273 -0.3673
 1582SOL     OW16207   0.031   4.042   4.909 -0.3913  0.7439  0.1471
 1582SOL    HW116208   0.051   4.013   4.998 -1.4463  1.8842  0.7574
 1582SOL    HW216209   0.089   4.115   4.886 -1.4420  1.9746  1.3933
 1583SOL     OW16210   2.688   0.038  12.001  0.1352  0.3201 -0.1178
 1583SOL    HW116211   2.655   0.025  11.912 -0.8508 -1.3300  0.4926
 1583SOL    HW216212   2.765   0.092  11.981  0.9486 -0.2488  1.4564
 1584SOL     OW16213   4.306   3.470   7.716  0.1803  0.8221 -0.2598
 1584SOL    HW116214   4.254   3.412   7.661  0.4508  0.3979 -0.0655
 1584SOL    HW216215   4.300   3.551   7.665  1.9088  0.9084 -0.3178
 1585SOL     OW16216   0.415   0.363   2.885  0.4971 -0.0709  0.6764
 1585SOL    HW116217   0.394   0.286   2.939  0.0104 -0.7627 -0.4973
 1585SOL    HW216218   0.371   0.439   2.923  1.1637  0.1792  0.9281
 1586SOL     OW16219   1.285   3.833  16.430 -0.1668  0.1343  0.1124
 1586SOL    HW116220   1.293   3.917  16.384 -1.0862  0.2193  0.1017
 1586SOL    HW216221   1.305   3.863  16.518 -1.2737  0.2067  0.3393
 1587SOL     OW16222   0.178   3.325   0.686  0.0675 -0.0072  0.3392
 1587SOL    HW116223   0.132   3.404   0.656  2.2433  1.3232  0.4975
 1587SOL    HW216224   0.132   3.253   0.644 -0.7216  0.0088  1.1729
 1588SOL     OW16225   4.685   2.023   2.494 -0.0160 -0.1781  0.3588
 1588SOL    HW116226   0.034   2.023   2.428 -0.1174 -0.9220  0.2537
 1588SOL    HW216227   4.719   2.093   2.549 -1.8275  0.0086  1.2573
 1589SOL     OW16228   2.204   0.665   9.365 -0.6260 -0.1489 -0.1031
 1589SOL    HW116229   2.167   0.753   9.376  0.1985  0.0152  1.3075
 1589SOL    HW216230   2.128   0.621   9.327  0.2693 -1.1303 -0.7576
 1590SOL     OW16231   2.779   0.058   5.741 -1.1437 -0.1477  0.4491
 1590SOL    HW116232   2.837   4.715   5.696  1.1651  0.9634  1.8565
 1590SOL    HW216233   2.807   0.140   5.700 -0.2167 -1.2529 -1.1542
 1591SOL     OW16234   4.516   3.436   8.393  0.0816 -0.4454 -0.2207
 1591SOL    HW116235   4.461   3.374   8.440  0.0379  1.3486  2.0986
 1591SOL    HW216236   4.597   3.407   8.434  0.4286  0.6155 -0.1539
 1592SOL     OW16237   3.975   3.392   8.078  0.0018  0.2322 -0.1004
 1592SOL    HW116238   3.993   3.298   8.089 -1.7467 -0.0715  0.1052
 1592SOL    HW216239   3.936   3.411   8.163 -0.1914  2.4632 -0.7021
 1593SOL     OW16240   4.032   3.665   0.727  0.0922 -0.1545 -0.8921
 1593SOL    HW116241   4.090   3.596   0.695  1.6642  0.4713  0.5633
 1593SOL    HW216242   3.941   3.639   0.713 -0.0251 -1.3703  2.0039
 1594SOL     OW16243   2.509   1.559   4.446 -0.2735 -0.1217  0.6953
 1594SOL    HW116244   2.452   1.523   4.514 -0.4381  1.3277  1.3243
 1594SOL    HW216245   2.452   1.612   4.391 -1.5435 -0.9274  1.2547
 1595SOL     OW16246   4.412   4.488   4.756  0.8587  0.0583  0.3474
 1595SOL    HW116247   4.334   4.460   4.805  0.9978 -1.4752 -0.2915
 1595SOL    HW216248   4.390   4.470   4.665  1.4671 -1.2173  0.4455
 1596SOL     OW16249   1.949   1.664   4.875 -0.2119  0.0295  0.1774
 1596SOL    HW116250   1.961   1.645   4.968  1.0938 -0.9130 -0.1904
 1596SOL    HW216251   1.869   1.613   4.864  1.0382 -1.8716 -0.1858
 1597SOL     OW16252   2.401   4.196   3.372 -0.1161  0.2788 -0.2972
 1597SOL    HW116253   2.450   4.114   3.380  0.3230  0.5957  0.2299
 1597SOL    HW216254   2.327   4.158   3.325  0.3003 -0.9256  0.0278
 1598SOL     OW16255   1.374   1.227   3.609 -0.4191 -0.0967  0.5444
 1598SOL    HW116256   1.404   1.158   3.550  1.7720  0.1918  1.3222
 1598SOL    HW216257   1.448   1.286   3.621 -0.6632  0.2199  0.5129
 1599SOL     OW16258   3.974   2.328   4.038 -0.1341  0.1540  0.4214
 1599SOL    HW116259   3.979   2.255   4.100  1.5167  0.0969  0.2250
 1599SOL    HW216260   3.943   2.269   3.970 -3.2566  0.1463  1.8221
 1600SOL     OW16261   0.549   0.401   8.887 -0.1026  0.2086 -0.0660
 1600SOL    HW116262   0.511   0.412   8.975 -1.0664 -0.2454 -0.4319
 1600SOL    HW216263   0.628   0.455   8.893 -0.2265  0.3157  0.6697
 1601SOL     OW16264   4.137   3.195  13.154  0.3754  0.1579 -0.0785
 1601SOL    HW116265   4.100   3.179  13.241  1.1287  1.1226  0.4243
 1601SOL    HW216266   4.087   3.275  13.136 -1.4151 -0.9497  0.0153
 1602SOL     OW16267   1.229   2.324  11.748  0.1599 -0.6526 -0.5639
 1602SOL    HW116268   1.295   2.262  11.779  2.6374  2.2827  0.0381
 1602SOL    HW216269   1.284   2.367  11.682  0.7408 -0.9372 -0.2630
 1603SOL     OW16270   3.339   4.541   4.779 -0.0389  0.2360 -0.2514
 1603SOL    HW116271   3.256   4.577   4.809  0.8903  1.1342  1.2902
 1603SOL    HW216272   3.342   4.585   4.694  1.7239 -0.9204 -0.7892
 1604SOL     OW16273   4.687   0.911   5.169  0.0780 -0.4299 -0.4241
 1604SOL    HW116274   4.633   0.978   5.129  0.1701 -0.0702  0.0451
 1604SOL    HW216275   0.033   0.903   5.100  0.3396  2.2537 -0.5043
 1605SOL     OW16276   0.001   3.999  14.406  0.6108 -0.2186 -0.1772
 1605SOL    HW116277   0.061   4.069  14.382 -0.7105  0.9770 -0.0129
 1605SOL    HW216278   0.054   3.930  14.446  2.0348  1.2023  0.3601
 1606SOL     OW16279   2.305   3.797   1.488 -0.1708  0.4757 -0.0823
 1606SOL    HW116280   2.359   3.775   1.412  0.2895  0.5939  0.2080
 1606SOL    HW216281   2.336   3.886   1.505  1.3177  0.4276 -2.5088
 1607SOL     OW16282   0.109   4.415   0.411  0.2928  0.4831 -0.0274
 1607SOL    HW116283   0.052   4.460   0.349  0.9679  0.9221 -0.3300
 1607SOL    HW216284   0.059   4.436   0.490 -1.2376 -1.6395 -0.4555
 1608SOL     OW16285   0.178   0.913   5.821 -0.0566  0.4109 -0.1444
 1608SOL    HW116286   0.216   0.876   5.742  1.3121  1.6932 -0.0861
 1608SOL    HW216287   0.193   1.005   5.799 -1.1353  0.3401 -1.1637
 1609SOL     OW16288   0.244   0.687   5.183  0.2319 -0.0736  0.3094
 1609SOL    HW116289   0.332   0.715   5.209 -0.4211  2.1053  0.1635
 1609SOL    HW216290   0.225   0.626   5.255 -0.9846 -3.1133 -2.5662
 1610SOL     OW16291   4.381   0.701   4.039  0.3325  0.2502  0.1197
 1610SOL    HW116292   4.396   0.640   4.112 -2.0258  2.5481  2.5244
 1610SOL    HW216293   4.448   0.763   4.066  1.3500 -0.9749  0.3957
 1611SOL     OW16294   2.393   0.200   2.428 -0.3159  0.9272 -0.4403
 1611SOL    HW116295   2.380   0.202   2.522 -3.1392 -3.0267 -0.7285
 1611SOL    HW216296   2.488   0.186   2.420 -0.2901  1.0667 -0.3670
 1612SOL     OW16297   2.549   2.185   9.488 -0.1521 -0.2197  0.0438
 1612SOL    HW116298   2.455   2.178   9.466  0.1069 -0.1703 -1.0987
 1612SOL    HW216299   2.586   2.121   9.426 -1.4375 -1.0424  0.1123
 1613SOL     OW16300   3.321   3.528  11.576 -0.4301  0.2157 -0.1919
 1613SOL    HW116301   3.366   3.609  11.553  1.5084 -0.1801  2.2242
 1613SOL    HW216302   3.371   3.462  11.528  1.3815  1.6429 -0.2449
 1614SOL     OW16303   1.240   4.452   0.741  0.6944  0.4052  0.1186
 1614SOL    HW116304   1.235   4.545   0.722  0.1376  0.3178 -0.1410
 1614SOL    HW216305   1.281   4.458   0.828 -0.7052  0.6926  0.7516
 1615SOL     OW16306   3.356   1.717   6.730  0.3648 -0.1181 -0.0942
 1615SOL    HW116307   3.402   1.801   6.731 -0.2697  0.2234  0.6195
 1615SOL    HW216308   3.266   1.750   6.735  0.3576 -0.1202 -0.2338
 1616SOL     OW16309   3.213   1.736  10.755  0.3813  0.3388  0.3056
 1616SOL    HW116310   3.119   1.749  10.758  0.1358 -1.6815  1.6241
 1616SOL    HW216311   3.231   1.740  10.849  0.7262 -0.5831  0.2874
 1617SOL     OW16312   3.397   0.927  11.362  0.2709  0.1091  0.0505
 1617SOL    HW116313   3.388   0.913  11.267 -0.3689 -0.1282  0.1484
 1617SOL    HW216314   3.484   0.887  11.371  0.2132 -0.0298 -0.0117
 1618SOL     OW16315   2.428   0.945   0.690 -0.0936 -0.3752  0.2520
 1618SOL    HW116316   2.415   0.867   0.636  4.0521  0.3062 -1.6627
 1618SOL    HW216317   2.337   0.962   0.716 -0.1230 -2.4339  1.5478
 1619SOL     OW16318   2.131   1.620  16.559 -0.3050  0.5340 -0.1388
 1619SOL    HW116319   2.203   1.677  16.587 -1.1279  0.4048  2.2529
 1619SOL    HW216320   2.096   1.664  16.481 -1.4988  0.4311  0.3350
 1620SOL     OW16321   4.483   2.337   7.615 -0.2018 -0.3623 -0.1046
 1620SOL    HW116322   4.570   2.350   7.577 -0.2844 -0.5345 -0.3508
 1620SOL    HW216323   4.486   2.242   7.617 -1.1247 -0.4007 -0.6155
 1621SOL     OW16324   2.862   4.385   6.910 -0.0194 -0.1571  0.1394
 1621SOL    HW116325   2.913   4.401   6.831  0.6589  0.4873  0.7120
 1621SOL    HW216326   2.785   4.440   6.899 -0.9768 -1.6885 -0.8765
 1622SOL     OW16327   3.737   2.054   4.621  0.3817 -0.3280 -0.3840
 1622SOL    HW116328   3.800   2.037   4.551  0.3793 -0.4883 -0.3459
 1622SOL    HW216329   3.669   2.099   4.571  1.7540  1.2640 -0.8108
 1623SOL     OW16330   0.958   3.269   8.172  0.3826  0.6757 -0.0222
 1623SOL    HW116331   1.007   3.189   8.191  2.3355  1.6039 -1.0970
 1623SOL    HW216332   0.903   3.238   8.100 -0.8163 -0.0679  1.2099
 1624SOL     OW16333   1.633   2.174   0.223  0.0922 -0.4320  0.4330
 1624SOL    HW116334   1.539   2.159   0.217  0.0083  0.3970 -0.2148
 1624SOL    HW216335   1.676   2.113   0.163 -2.8061 -0.7426 -1.2836
 1625SOL     OW16336   1.420   1.690  12.929 -0.1554 -0.0462 -0.2595
 1625SOL    HW116337   1.444   1.629  12.860  1.8759  0.4888 -0.0521
 1625SOL    HW216338   1.367   1.748  12.875  1.8443  0.3586 -1.7909
 1626SOL     OW16339   1.261   4.288   2.489 -0.6383 -0.2029  0.8658
 1626SOL    HW116340   1.260   4.364   2.547  0.7556 -0.1133  0.7799
 1626SOL    HW216341   1.246   4.334   2.406 -0.2826 -0.5104  0.6311
 1627SOL     OW16342   2.247   0.583   6.877 -0.4502  0.3540  0.3639
 1627SOL    HW116343   2.279   0.568   6.788 -1.0898  1.5261 -0.0683
 1627SOL    HW216344   2.290   0.510   6.923 -0.7378 -1.5235 -2.3690
 1628SOL     OW16345   3.633   1.848   9.197 -0.1264 -0.1946 -0.6895
 1628SOL    HW116346   3.663   1.783   9.134 -0.4272 -1.2120  0.2283
 1628SOL    HW216347   3.683   1.820   9.274 -0.3670  0.3705 -0.3246
 1629SOL     OW16348   3.560   2.814   7.452  0.3748  0.2531  0.1919
 1629SOL    HW116349   3.547   2.869   7.529  0.6551 -0.1586  0.5353
 1629SOL    HW216350   3.465   2.814   7.440  0.1713  0.3384  1.7825
 1630SOL     OW16351   3.671   2.268   3.406 -0.0584 -0.2969  0.0966
 1630SOL    HW116352   3.740   2.326   3.374 -0.2981  0.2441  0.5650
 1630SOL    HW216353   3.638   2.317   3.481 -1.1038  0.9529 -1.1717
 1631SOL     OW16354   2.644   2.354   6.732 -0.1160 -0.2918 -0.7542
 1631SOL    HW116355   2.571   2.316   6.781  0.3452  1.4202  1.2433
 1631SOL    HW216356   2.694   2.276   6.709 -0.8635 -0.5683 -1.4347
 1632SOL     OW16357   3.781   2.685   7.702 -0.2573 -0.1384 -0.4231
 1632SOL    HW116358   3.689   2.707   7.711 -0.4696 -1.6382  0.9705
 1632SOL    HW216359   3.778   2.650   7.613  0.7535 -1.0028 -0.1216
 1633SOL     OW16360   0.911   1.943  17.090 -0.1772  0.2039  0.0959
 1633SOL    HW116361   0.861   1.929  17.010  0.4603  0.8714 -0.4174
 1633SOL    HW216362   0.919   2.038  17.087  0.6238  0.1599  0.7293
 1634SOL     OW16363   3.879   2.598   2.157  0.0795 -0.4891  0.1843
 1634SOL    HW116364   3.913   2.627   2.072  2.0119 -2.8964  0.1499
 1634SOL    HW216365   3.789   2.617   2.133  0.5994  0.3387 -1.0974
 1635SOL     OW16366   2.106   2.514   7.845 -0.2024 -0.4205 -0.5888
 1635SOL    HW116367   2.104   2.608   7.827 -0.3579 -0.5752 -1.3848
 1635SOL    HW216368   2.054   2.509   7.925  1.0128 -3.1310  0.0180
 1636SOL     OW16369   4.326   2.917  10.837 -0.4088  0.2194  0.1898
 1636SOL    HW116370   4.282   2.984  10.784  1.8301  2.1045  0.6657
 1636SOL    HW216371   4.285   2.928  10.923 -0.7522  1.9264 -0.1742
 1637SOL     OW16372   2.051   1.800   7.492  0.2545 -0.0282 -0.4083
 1637SOL    HW116373   1.996   1.866   7.449 -1.8104  1.0381  3.7937
 1637SOL    HW216374   1.984   1.738   7.521  0.9869 -0.3547  0.5717
 1638SOL     OW16375   2.041   2.815   5.201 -0.5979 -0.0766  0.3544
 1638SOL    HW116376   1.974   2.776   5.258  0.5678  0.9511  2.4492
 1638SOL    HW216377   2.024   2.776   5.115 -1.0499  1.9260 -0.4560
 1639SOL     OW16378   2.000   2.989   6.023  0.1944  0.8431 -0.1062
 1639SOL    HW116379   2.017   3.014   5.932 -0.3011  0.2407 -0.3628
 1639SOL    HW216380   2.084   2.970   6.064 -0.7290  0.2015  1.4721
 1640SOL     OW16381   1.986   2.953   2.990  0.5083  0.0298 -0.9757
 1640SOL    HW116382   2.080   2.961   3.004  0.4157 -2.1378  0.8978
 1640SOL    HW216383   1.956   2.958   3.080 -1.4153  1.1979 -1.6898
 1641SOL     OW16384   1.318   1.296  16.546 -0.1535 -0.4109  0.5942
 1641SOL    HW116385   1.339   1.308  16.639 -2.2522  1.4324  0.8311
 1641SOL    HW216386   1.354   1.377  16.511  0.7704 -1.0522  0.0755
 1642SOL     OW16387   2.555   0.602   5.949  0.2050  0.0243  0.1234
 1642SOL    HW116388   2.506   0.593   6.030 -1.3321 -1.0343 -0.9402
 1642SOL    HW216389   2.540   0.693   5.922 -1.2800 -0.2497  0.0209
 1643SOL     OW16390   4.379   0.972   5.493  0.5492  0.1332  0.0636
 1643SOL    HW116391   4.389   0.892   5.442 -1.0508 -0.3374  0.4733
 1643SOL    HW216392   4.399   1.040   5.428  1.8170  0.5986  0.9475
 1644SOL     OW16393   3.181   3.004  14.460  0.6851  0.3889 -0.4069
 1644SOL    HW116394   3.236   2.977  14.533 -0.6389  1.1005  0.8611
 1644SOL    HW216395   3.254   3.009  14.399  1.3438 -0.7905  0.3009
 1645SOL     OW16396   0.660   1.475   1.047 -0.2740 -0.4474 -0.4678
 1645SOL    HW116397   0.753   1.493   1.033 -0.3193  0.6834  0.6279
 1645SOL    HW216398   0.655   1.408   1.116  2.6021 -1.2020 -0.9773
 1646SOL     OW16399   3.526   3.399   8.637  0.3716  0.0293 -0.3792
 1646SOL    HW116400   3.594   3.374   8.700  0.9517  2.0832 -0.1919
 1646SOL    HW216401   3.550   3.491   8.625  0.9733 -0.3089 -1.7521
 1647SOL     OW16402   2.069   0.312   4.603  0.2049  0.2154 -0.0804
 1647SOL    HW116403   2.002   0.247   4.582  0.4969 -0.6746  1.7088
 1647SOL    HW216404   2.117   0.276   4.678  0.1970 -0.2687 -0.3103
 1648SOL     OW16405   2.386   4.137   2.053 -0.1057  0.0295 -0.1280
 1648SOL    HW116406   2.384   4.146   1.957  0.7000  1.8866  0.0250
 1648SOL    HW216407   2.417   4.227   2.066 -0.2782 -0.0815  0.9847
 1649SOL     OW16408   4.139   2.517   8.587 -0.2935  0.3890 -0.1640
 1649SOL    HW116409   4.212   2.554   8.636 -1.8055  0.7187  1.8433
 1649SOL    HW216410   4.099   2.469   8.660 -1.7539  1.1971 -0.4154
 1650SOL     OW16411   0.186   1.391   4.168 -0.1295  0.2922 -0.6917
 1650SOL    HW116412   0.113   1.435   4.123 -2.3517 -0.3373  2.2944
 1650SOL    HW216413   0.268   1.404   4.121  0.2829  1.8835  0.4824
 1651SOL     OW16414   4.200   0.617   6.744 -0.0881 -0.2070 -0.0664
 1651SOL    HW116415   4.274   0.676   6.730  0.1362 -0.2258  1.0345
 1651SOL    HW216416   4.244   0.538   6.774 -1.9844 -0.5646  1.7675
 1652SOL     OW16417   1.539   2.414   6.476 -0.2677 -1.0226 -0.1763
 1652SOL    HW116418   1.458   2.403   6.526 -1.2197 -0.1672 -1.5062
 1652SOL    HW216419   1.572   2.476   6.540  0.6152  0.2930 -1.9161
 1653SOL     OW16420   0.903   0.259   5.114  0.6671 -0.2364 -0.2134
 1653SOL    HW116421   0.974   0.209   5.154  0.2344 -0.4599  0.2835
 1653SOL    HW216422   0.914   0.338   5.167  0.4380  0.4311 -1.1760
 1654SOL     OW16423   0.917   0.402   8.372 -0.1303 -0.7379  0.2766
 1654SOL    HW116424   0.901   0.341   8.444 -0.2556  0.8348  1.6042
 1654SOL    HW216425   0.836   0.449   8.393  1.5406  1.6748  1.3300
 1655SOL     OW16426   4.339   4.028   7.521  0.0337 -0.6841  0.3227
 1655SOL    HW116427   4.283   4.023   7.444 -0.4419  1.6256  0.4984
 1655SOL    HW216428   4.274   4.006   7.587 -1.6392 -0.2965 -1.2111
 1656SOL     OW16429   3.352   1.584   5.336  0.2009 -0.3063  0.3345
 1656SOL    HW116430   3.419   1.533   5.289 -0.1528 -0.2087 -0.2762
 1656SOL    HW216431   3.301   1.509   5.366  2.0067 -1.2062  1.2116
 1657SOL     OW16432   1.030   4.088   0.627 -0.2622  0.3224 -0.3541
 1657SOL    HW116433   0.937   4.064   0.630  0.2113 -1.3794  1.2523
 1657SOL    HW216434   1.019   4.183   0.621  1.8242  0.5220 -0.9763
 1658SOL     OW16435   2.954   3.550   5.078 -0.0661  0.4124  0.3406
 1658SOL    HW116436   2.891   3.483   5.103  0.8232 -0.0120  1.4885
 1658SOL    HW216437   2.949   3.622   5.141 -0.4727 -1.7160  2.7363
 1659SOL     OW16438   1.513   0.311  14.035 -0.4594 -0.1462 -0.7778
 1659SOL    HW116439   1.566   0.311  13.956  0.7095  0.2155  0.0044
 1659SOL    HW216440   1.480   0.400  14.029  0.5064  0.1723 -1.4558
 1660SOL     OW16441   3.464   2.381   5.346  0.3621  0.0590 -0.2229
 1660SOL    HW116442   3.440   2.296   5.384 -0.1451 -0.8907 -2.6996
 1660SOL    HW216443   3.536   2.411   5.401  0.6101 -1.8659  0.4830
 1661SOL     OW16444   0.281   3.690   4.310 -0.0274 -0.1156  0.8370
 1661SOL    HW116445   0.354   3.639   4.345 -0.5046 -1.2712  0.1654
 1661SOL    HW216446   0.251   3.753   4.375  0.3065  0.1870  0.6999
 1662SOL     OW16447   0.654   4.505  17.463  0.2841  0.2385  0.2167
 1662SOL    HW116448   0.596   4.473  17.532  1.3392 -1.5512  0.2656
 1662SOL    HW216449   0.739   4.461  17.467  0.1364 -0.1910 -1.1523
 1663SOL     OW16450   3.179   4.066  14.574  0.9118  0.4220  0.1553
 1663SOL    HW116451   3.085   4.060  14.590  0.8634  1.1874  0.1514
 1663SOL    HW216452   3.210   4.011  14.647 -3.1146 -0.2292  1.3630
 1664SOL     OW16453   0.741   3.124   7.336 -0.5503  0.0262  0.3531
 1664SOL    HW116454   0.809   3.190   7.323  0.1774 -0.5061  1.4430
 1664SOL    HW216455   0.708   3.101   7.249 -4.2308  1.2520  1.4333
 1665SOL     OW16456   0.412   4.394   1.456  0.1183  0.0225 -0.0241
 1665SOL    HW116457   0.348   4.360   1.519  1.6060 -0.5019  1.2099
 1665SOL    HW216458   0.481   4.341   1.495  0.2081 -0.8695 -1.4167
 1666SOL     OW16459   0.781   2.491   1.702 -0.0623 -0.2914 -0.2766
 1666SOL    HW116460   0.761   2.575   1.661  2.7243  0.3296 -0.4211
 1666SOL    HW216461   0.868   2.504   1.741 -0.7057  2.4595  0.2538
 1667SOL     OW16462   0.791   3.804   7.975 -0.0375  0.1755  0.0864
 1667SOL    HW116463   0.806   3.726   8.030  0.3105 -0.7480 -1.3208
 1667SOL    HW216464   0.807   3.873   8.039 -1.1794  2.4292 -2.0800
 1668SOL     OW16465   1.680   0.384   7.063  0.1252  0.3131 -0.3245
 1668SOL    HW116466   1.692   0.468   7.108  0.6331 -0.0518  0.2317
 1668SOL    HW216467   1.773   0.364   7.049  0.0850  0.0301 -0.1951
 1669SOL     OW16468   3.728   3.805   6.019 -0.7635 -0.0913  0.3998
 1669SOL    HW116469   3.789   3.816   6.093 -2.7067  1.7317  1.7338
 1669SOL    HW216470   3.791   3.804   5.947 -0.6805 -0.4215  0.4748
 1670SOL     OW16471   2.277   2.665   8.283 -0.6662 -0.2625 -0.1360
 1670SOL    HW116472   2.296   2.595   8.345  0.1303 -1.4396 -1.6933
 1670SOL    HW216473   2.298   2.735   8.344 -2.2583 -0.1197  0.2450
 1671SOL     OW16474   3.805   3.693   6.902 -0.4691  0.0112 -0.2673
 1671SOL    HW116475   3.809   3.696   6.998 -1.6404  0.7885 -0.2446
 1671SOL    HW216476   3.746   3.767   6.889 -0.7338 -0.0728  0.4704
 1672SOL     OW16477   4.154   2.481   4.231 -0.0703  0.3439  0.0302
 1672SOL    HW116478   4.180   2.566   4.266 -1.9543 -0.3201  3.0424
 1672SOL    HW216479   4.144   2.421   4.305  0.7841 -0.1289 -0.2353
 1673SOL     OW16480   1.052   3.117  12.274 -0.0513  0.2039 -0.1349
 1673SOL    HW116481   0.979   3.178  12.271 -2.1645 -2.3768 -0.8535
 1673SOL    HW216482   1.062   3.086  12.185 -2.6523  0.2583 -0.4396
 1674SOL     OW16483   3.624   3.554   6.536  0.2443 -0.3791  0.5050
 1674SOL    HW116484   3.575   3.636   6.547 -2.9703 -2.1876 -0.4839
 1674SOL    HW216485   3.587   3.489   6.596 -2.2075  0.8757  0.3625
 1675SOL     OW16486   4.585   2.194  15.698  0.6464  0.0690  0.3681
 1675SOL    HW116487   4.662   2.197  15.641  1.2809 -1.8780  1.1109
 1675SOL    HW216488   4.612   2.260  15.762 -1.1779  0.8711  0.3159
 1676SOL     OW16489   1.861   1.786   3.305  0.2117  0.1474  0.4702
 1676SOL    HW116490   1.861   1.853   3.237 -0.0365  0.1868  0.5103
 1676SOL    HW216491   1.870   1.851   3.375  1.9403 -0.3920  0.7562
 1677SOL     OW16492   1.424   0.093   6.095 -0.1496 -0.3201  0.0604
 1677SOL    HW116493   1.402   0.153   6.024  0.3761 -0.3283 -0.1100
 1677SOL    HW216494   1.462   0.018   6.049  1.5926  1.5427 -1.5404
 1678SOL     OW16495   3.065   3.580   7.241 -0.2009 -0.7259 -0.2113
 1678SOL    HW116496   3.049   3.602   7.332 -0.0651  0.8583 -0.5735
 1678SOL    HW216497   3.067   3.670   7.209 -0.4226 -1.5467 -2.5363
 1679SOL     OW16498   0.856   3.438  12.420  0.0276 -0.0086 -0.6625
 1679SOL    HW116499   0.932   3.383  12.440  0.8550  0.9891 -1.0382
 1679SOL    HW216500   0.875   3.519  12.468 -1.0218 -0.0824 -0.1127
 1680SOL     OW16501   0.638   0.644  17.318  0.1498 -0.4322  0.3826
 1680SOL    HW116502   0.688   0.723  17.336 -2.1399  0.5975  2.2301
 1680SOL    HW216503   0.598   0.661  17.233  0.3308 -0.4807  0.2883
 1681SOL     OW16504   0.272   0.253   2.276  0.3993 -0.0456  0.0952
 1681SOL    HW116505   0.182   0.261   2.309  0.2587 -1.1141 -0.0210
 1681SOL    HW216506   0.303   0.339   2.305  1.8880 -1.2339  2.0062
 1682SOL     OW16507   2.093   2.839  13.030 -0.7448 -0.5412  0.5717
 1682SOL    HW116508   2.127   2.771  12.971 -0.3163 -1.1426  1.5088
 1682SOL    HW216509   2.175   2.882  13.052 -0.3929 -1.1245  0.3964
 1683SOL     OW16510   3.379   0.515   8.805 -0.2050  0.4215 -0.2577
 1683SOL    HW116511   3.419   0.429   8.817 -0.0582  0.1237 -3.0081
 1683SOL    HW216512   3.445   0.577   8.774  1.8067 -1.4384  0.2528
 1684SOL     OW16513   3.558   2.394   8.974  0.4425  0.2529 -0.1017
 1684SOL    HW116514   3.557   2.299   8.960 -3.1242  0.4111 -0.8105
 1684SOL    HW216515   3.527   2.419   8.887 -1.3916  3.8071  1.5683
 1685SOL     OW16516   1.113   1.112   4.241 -0.4815 -0.0390  0.4025
 1685SOL    HW116517   1.031   1.091   4.285  0.4188 -1.9597  1.1719
 1685SOL    HW216518   1.090   1.132   4.150  1.1793  0.4056  0.0721
 1686SOL     OW16519   4.495   3.890  17.426  0.0706 -0.2860  0.1711
 1686SOL    HW116520   4.418   3.912  17.375  0.0615 -0.6850  0.0090
 1686SOL    HW216521   4.498   3.964  17.486 -2.1879 -0.5306  0.5729
 1687SOL     OW16522   0.105   1.491   3.816  0.2323  0.2113 -0.3051
 1687SOL    HW116523   0.199   1.505   3.828  0.7986 -1.5189 -2.8588
 1687SOL    HW216524   0.078   1.523   3.903 -1.0366 -0.4733 -0.4514
 1688SOL     OW16525   3.925   3.524   3.119  0.1283  0.1341  0.0582
 1688SOL    HW116526   3.955   3.557   3.035 -0.3038  3.9394  1.4176
 1688SOL    HW216527   3.931   3.429   3.109 -1.5247 -0.1272  1.3995
 1689SOL     OW16528   3.788   4.048   8.430  0.0929 -0.5440 -0.3610
 1689SOL    HW116529   3.732   4.032   8.506 -0.0743  2.1769  0.0982
 1689SOL    HW216530   3.865   3.992   8.443  0.6419 -0.1919 -2.1059
 1690SOL     OW16531   2.441   3.534   8.021  0.2369 -0.6392 -0.6591
 1690SOL    HW116532   2.464   3.613   8.071  0.5951 -1.9551  1.2724
 1690SOL    HW216533   2.526   3.500   7.993  0.8113 -1.4774  2.0981
 1691SOL     OW16534   4.578   0.427   5.544  0.7394 -0.0327 -0.8065
 1691SOL    HW116535   4.633   0.390   5.475  3.1538  0.5534  0.8086
 1691SOL    HW216536   4.578   0.350   5.600 -2.1520 -0.3000 -1.1577
 1692SOL     OW16537   0.511   3.006   9.051 -0.4631  0.2312  0.2470
 1692SOL    HW116538   0.566   2.995   9.128  0.0862  0.7881 -0.0687
 1692SOL    HW216539   0.453   3.082   9.066 -1.5032 -0.5585  0.2352
 1693SOL     OW16540   3.058   3.270   2.410 -0.0094 -0.7870  0.2434
 1693SOL    HW116541   3.124   3.231   2.354  1.5848 -0.5506  1.9538
 1693SOL    HW216542   3.084   3.362   2.416 -1.1526 -0.5256  1.4543
 1694SOL     OW16543   0.317   2.682  12.077 -0.3162  0.1499 -0.4835
 1694SOL    HW116544   0.229   2.672  12.114 -0.7430  2.2675 -0.9169
 1694SOL    HW216545   0.347   2.757  12.128  1.0889 -0.6350 -0.1701
 1695SOL     OW16546   4.104   1.068   6.671  0.0099 -0.3876  0.0469
 1695SOL    HW116547   4.127   1.014   6.746  0.0937 -1.7517 -0.9607
 1695SOL    HW216548   4.152   1.147   6.696 -0.2561  0.7579 -3.0517
 1696SOL     OW16549   2.721   2.399   3.949 -0.0931 -0.5570 -0.4724
 1696SOL    HW116550   2.787   2.334   3.924  0.2263  0.2403 -1.7203
 1696SOL    HW216551   2.730   2.463   3.878 -0.4545 -0.5454 -0.5090
 1697SOL     OW16552   0.858   3.850   4.925  0.1250  0.1654  0.0458
 1697SOL    HW116553   0.804   3.927   4.945  2.8359  2.4977 -1.6393
 1697SOL    HW216554   0.866   3.852   4.830 -0.6681 -0.2049 -0.0266
 1698SOL     OW16555   1.775   1.128   0.324 -0.2136  0.6041  0.3885
 1698SOL    HW116556   1.742   1.218   0.321 -1.0703  0.3178  1.2031
 1698SOL    HW216557   1.751   1.103   0.235 -0.7052  0.3034  0.6050
 1699SOL     OW16558   0.241   4.132   5.430  0.4323 -0.7946 -0.0843
 1699SOL    HW116559   0.234   4.088   5.515  0.1826 -0.7012 -0.0567
 1699SOL    HW216560   0.161   4.105   5.385  0.2333  0.6496 -0.6049
 1700SOL     OW16561   1.203   1.489   5.251 -0.2284 -0.3266 -0.1134
 1700SOL    HW116562   1.290   1.456   5.227 -1.0854 -1.8173 -1.1404
 1700SOL    HW216563   1.157   1.471   5.169  0.5204 -0.7899 -0.4328
 1701SOL     OW16564   0.719   1.076  10.931  0.7239  0.1184  0.1888
 1701SOL    HW116565   0.715   1.163  10.892 -1.6144 -0.0556  0.0223
 1701SOL    HW216566   0.730   1.103  11.022 -5.0454  1.5877  0.4684
 1702SOL     OW16567   3.581   0.230   3.639 -0.2026 -1.0840 -0.5702
 1702SOL    HW116568   3.633   0.310   3.627  1.9584 -2.3562  0.1838
 1702SOL    HW216569   3.502   0.277   3.665  1.0153  1.2682 -1.1900
 1703SOL     OW16570   1.379   2.133   2.773  0.1923 -0.2043 -0.4245
 1703SOL    HW116571   1.357   2.135   2.866 -0.1140 -0.8290 -0.4811
 1703SOL    HW216572   1.303   2.176   2.736  2.0384  2.2058 -1.3656
 1704SOL     OW16573   4.549   0.067  15.960  0.5872  0.3590  0.5403
 1704SOL    HW116574   4.480   0.036  15.901 -0.0441  0.2725  1.3279
 1704SOL    HW216575   4.620   0.064  15.896  0.2676  0.3544  0.1865
 1705SOL     OW16576   4.451   4.429   5.684 -0.4600 -0.4225 -0.2187
 1705SOL    HW116577   4.470   4.505   5.738 -2.6148  0.6505 -0.9863
 1705SOL    HW216578   4.376   4.397   5.734 -0.9415 -0.8789 -1.2320
 1706SOL     OW16579   1.929   2.030   7.350 -0.2118 -0.4206 -0.0596
 1706SOL    HW116580   1.965   2.116   7.329  0.5552 -1.1442 -1.7769
 1706SOL    HW216581   1.878   2.052   7.428  1.6277  2.8478  0.1910
 1707SOL     OW16582   0.779   3.573  10.095 -0.2448 -0.2997 -0.1961
 1707SOL    HW116583   0.873   3.588  10.092 -0.7620  3.1462  0.0478
 1707SOL    HW216584   0.749   3.655  10.136  2.1085 -0.2660  1.4477
 1708SOL     OW16585   0.115   2.292   7.300 -0.0864  0.1693 -0.0520
 1708SOL    HW116586   0.070   2.264   7.380  2.0566 -1.9251  0.4296
 1708SOL    HW216587   0.173   2.366   7.318  0.9745 -0.9280  0.9998
 1709SOL     OW16588   3.330   3.093   4.600 -0.3447  0.2001 -0.2834
 1709SOL    HW116589   3.291   3.066   4.516 -0.5825 -0.3915  0.0174
 1709SOL    HW216590   3.420   3.067   4.578 -0.2268  0.4727 -0.1180
 1710SOL     OW16591   2.394   2.550   1.770 -0.3839  0.3511 -0.3734
 1710SOL    HW116592   2.433   2.619   1.716  1.6370 -0.4338  0.0725
 1710SOL    HW216593   2.326   2.596   1.819 -0.4035 -1.3297  1.1852
 1711SOL     OW16594   2.211   1.995   6.434  0.1331 -0.2921  0.2274
 1711SOL    HW116595   2.128   1.950   6.451  1.2103 -1.7005  1.7617
 1711SOL    HW216596   2.242   1.941   6.361  0.1741  0.3040 -0.1979
 1712SOL     OW16597   0.774   2.167  13.964 -0.3459 -0.0436  0.4505
 1712SOL    HW116598   0.746   2.257  13.944 -3.0263 -0.5859  1.6769
 1712SOL    HW216599   0.728   2.142  14.044 -2.8408 -2.6979 -1.8144
 1713SOL     OW16600   3.528   1.586   2.148  0.0568 -0.4870  0.0706
 1713SOL    HW116601   3.453   1.526   2.154 -1.3719  1.1920 -0.9565
 1713SOL    HW216602   3.509   1.653   2.213  1.0510 -0.4765  0.3495
 1714SOL     OW16603   2.686   2.081   8.587 -0.1246 -0.3903 -0.3035
 1714SOL    HW116604   2.631   2.004   8.605  2.9852 -1.2453  5.4646
 1714SOL    HW216605   2.695   2.102   8.680  1.6841 -0.1988 -0.5241
 1715SOL     OW16606   3.439   0.714   5.417 -0.2614 -0.0880  0.0750
 1715SOL    HW116607   3.441   0.674   5.504  2.3438  0.0569  0.0960
 1715SOL    HW216608   3.380   0.650   5.379  0.6372 -0.5970 -0.4532
 1716SOL     OW16609   3.071   1.716  12.508 -0.4404  0.1915  0.5333
 1716SOL    HW116610   3.025   1.759  12.436  0.6272 -0.8092 -0.7464
 1716SOL    HW216611   3.109   1.793  12.550  1.7793 -0.0315 -1.1012
 1717SOL     OW16612   1.580   3.201   8.677 -0.0813 -0.3023  0.2150
 1717SOL    HW116613   1.645   3.199   8.607  0.4676  0.9934  0.6903
 1717SOL    HW216614   1.627   3.226   8.756  0.8343  1.7640 -0.9864
 1718SOL     OW16615   3.290   4.411  12.758 -0.3261 -0.1732 -0.1785
 1718SOL    HW116616   3.278   4.340  12.820 -1.7770  1.9725  2.0232
 1718SOL    HW216617   3.374   4.444  12.789  0.3785  0.8178 -3.1552
 1719SOL     OW16618   4.639   2.647   2.374  0.1136  0.0794 -1.0718
 1719SOL    HW116619   4.568   2.696   2.414  0.0557 -1.8252  1.1308
 1719SOL    HW216620   4.632   2.676   2.282  1.4644 -0.2147 -1.2661
 1720SOL     OW16621   3.565   3.773   1.258 -0.1469  0.0693  0.0176
 1720SOL    HW116622   3.508   3.777   1.181  1.1260  2.5636 -0.7829
 1720SOL    HW216623   3.644   3.799   1.211 -0.4339  0.4792 -0.2392
 1721SOL     OW16624   0.883   0.707  12.575  0.4341 -0.4781  1.0145
 1721SOL    HW116625   0.918   0.666  12.496  0.8725  0.0297  0.9486
 1721SOL    HW216626   0.840   0.632  12.616 -1.3195 -0.4809 -0.8069
 1722SOL     OW16627   3.100   3.329  14.628  0.1097  0.1485  0.2574
 1722SOL    HW116628   3.126   3.392  14.560  0.5007 -3.2759 -2.7885
 1722SOL    HW216629   3.092   3.251  14.573  1.0545 -0.2431  0.6811
 1723SOL     OW16630   2.587   0.563   9.421 -0.4796 -0.4894 -0.2392
 1723SOL    HW116631   2.634   0.500   9.475  1.4288  0.6682 -0.5413
 1723SOL    HW216632   2.575   0.508   9.343  3.0106 -1.0445 -0.3968
 1724SOL     OW16633   1.397   2.484  11.580 -0.2064 -0.1397 -0.1671
 1724SOL    HW116634   1.360   2.525  11.502  0.5146  0.8327  0.0033
 1724SOL    HW216635   1.455   2.557  11.602 -0.0500 -0.7093  1.3244
 1725SOL     OW16636   4.402   3.514   8.758 -0.0318  0.4109  0.2838
 1725SOL    HW116637   4.400   3.472   8.844  0.5943 -0.0108  0.0960
 1725SOL    HW216638   4.394   3.436   8.702 -0.2841 -1.2501  2.6116
 1726SOL     OW16639   1.904   2.335   7.328 -0.3317  0.3320  0.0277
 1726SOL    HW116640   1.956   2.415   7.323  0.4330 -0.1410  0.4022
 1726SOL    HW216641   1.816   2.363   7.352 -0.8013 -1.9525  0.9526
 1727SOL     OW16642   3.166   4.271   7.325 -0.1303 -0.3164 -0.5604
 1727SOL    HW116643   3.110   4.285   7.248 -1.4189  1.7742  0.7640
 1727SOL    HW216644   3.229   4.342   7.333  1.0152 -1.5608  1.3182
 1728SOL     OW16645   0.775   0.744   8.598  0.7492 -0.3270  0.4044
 1728SOL    HW116646   0.849   0.801   8.580  0.0079  0.4902 -0.0483
 1728SOL    HW216647   0.723   0.791   8.663 -0.9563  0.2121 -1.3850
 1729SOL     OW16648   2.621   1.206  11.853 -0.0156  0.3100 -0.0137
 1729SOL    HW116649   2.700   1.230  11.903  0.3828 -0.6035 -0.2078
 1729SOL    HW216650   2.563   1.278  11.878 -0.5719 -1.2313  3.0648
 1730SOL     OW16651   1.440   1.582   2.306  0.0698 -0.1918  0.3344
 1730SOL    HW116652   1.509   1.611   2.366  0.1302 -1.8452  1.0694
 1730SOL    HW216653   1.359   1.598   2.355 -0.1357 -1.0759  0.2871
 1731SOL     OW16654   3.794   1.761  16.531 -0.4516  0.2817  0.2578
 1731SOL    HW116655   3.791   1.684  16.589  0.1739  0.4484  0.5169
 1731SOL    HW216656   3.699   1.769  16.526 -0.3722  0.2711 -1.2735
 1732SOL     OW16657   4.504   1.482   9.058  0.1954 -0.0114  0.1706
 1732SOL    HW116658   4.485   1.574   9.078 -0.3861  0.2531 -1.5273
 1732SOL    HW216659   4.419   1.438   9.063 -0.4292  0.9635 -1.6228
 1733SOL     OW16660   0.420   3.605   0.965  0.7424  0.5706 -0.5672
 1733SOL    HW116661   0.515   3.610   0.952  0.3859  2.1136 -2.6044
 1733SOL    HW216662   0.417   3.522   1.012 -0.7416  0.9197 -0.0333
 1734SOL     OW16663   2.100   1.414   1.722  0.2606 -0.7703  0.3722
 1734SOL    HW116664   2.080   1.322   1.704  2.2621 -1.1941  0.3586
 1734SOL    HW216665   2.052   1.422   1.804  0.5873 -2.9948  0.7833
 1735SOL     OW16666   0.381   0.668   7.377 -0.5912  0.3566  0.1370
 1735SOL    HW116667   0.309   0.731   7.373 -0.0186  1.0044 -0.0734
 1735SOL    HW216668   0.363   0.619   7.457  4.6317 -4.0696 -1.3719
 1736SOL     OW16669   4.211   4.267   2.799  0.5483 -0.2136  0.0496
 1736SOL    HW116670   4.260   4.335   2.752 -0.6545 -1.1331 -2.5007
 1736SOL    HW216671   4.155   4.234   2.728 -0.7241  1.9593  0.0510
 1737SOL     OW16672   4.295   1.201   8.199  0.6196 -0.4020 -0.0365
 1737SOL    HW116673   4.267   1.132   8.140  0.0657 -1.4369  1.4537
 1737SOL    HW216674   4.343   1.254   8.135  0.2757  0.0400  0.0725
 1738SOL     OW16675   0.638   4.352   5.079 -0.4544  1.0146  0.2324
 1738SOL    HW116676   0.555   4.329   5.120 -1.3899  2.1012 -1.0540
 1738SOL    HW216677   0.602   4.415   5.017  1.2993  0.2929 -1.5349
 1739SOL     OW16678   2.729   0.322  13.147 -0.2856 -0.5032 -0.5417
 1739SOL    HW116679   2.695   0.244  13.191 -1.2721  0.3824  0.2409
 1739SOL    HW216680   2.773   0.283  13.072  0.3222 -1.2013  0.1823
 1740SOL     OW16681   0.474   4.253   4.338  0.3624  0.2700  0.1298
 1740SOL    HW116682   0.545   4.273   4.401  1.5140 -0.0780 -1.0620
 1740SOL    HW216683   0.448   4.166   4.369  1.2711 -0.4306 -1.0804
 1741SOL     OW16684   4.265   0.867   6.178 -0.2860 -0.1235 -0.3086
 1741SOL    HW116685   4.261   0.886   6.271 -1.1046  0.9593 -0.5662
 1741SOL    HW216686   4.183   0.822   6.158 -0.7004  0.9360 -1.0065
 1742SOL     OW16687   2.765   1.356  14.041 -0.3638  0.0307 -0.2616
 1742SOL    HW116688   2.841   1.318  13.998  0.0257 -1.2771  1.5790
 1742SOL    HW216689   2.748   1.423  13.976 -0.5947  0.4341  0.2153
 1743SOL     OW16690   2.138   0.126   1.233 -0.3940  0.2767  0.8813
 1743SOL    HW116691   2.126   0.215   1.265  0.2450 -0.2252  2.5694
 1743SOL    HW216692   2.055   0.087   1.260 -1.4069  1.4021 -0.6781
 1744SOL     OW16693   1.312   3.697   0.978  0.4062  0.0874  0.1531
 1744SOL    HW116694   1.301   3.608   0.945  0.9389  0.3043 -0.5961
 1744SOL    HW216695   1.260   3.737   0.908 -0.3071 -1.2063 -0.0708
 1745SOL     OW16696   4.256   3.872   6.056 -0.0923 -0.6471 -0.3244
 1745SOL    HW116697   4.162   3.889   6.057 -0.3337 -1.9954  0.1474
 1745SOL    HW216698   4.258   3.787   6.100 -2.2051 -1.7376 -2.3595
 1746SOL     OW16699   1.789   0.834  14.632  0.6050  0.2445 -0.2566
 1746SOL    HW116700   1.857   0.767  14.635  2.6626  2.3958  1.5438
 1746SOL    HW216701   1.838   0.909  14.666  1.6608  0.1613 -1.6108
 1747SOL     OW16702   2.635   3.325  10.515  0.0286 -0.1474 -0.1773
 1747SOL    HW116703   2.700   3.332  10.586  1.8417 -2.2841 -1.6395
 1747SOL    HW216704   2.558   3.358  10.561  0.4415  1.5571 -0.7051
 1748SOL     OW16705   1.265   4.083   3.478  0.0615  0.5854 -0.3922
 1748SOL    HW116706   1.302   4.094   3.391 -0.6854 -1.8601 -1.0353
 1748SOL    HW216707   1.231   4.169   3.501 -1.0038 -0.4356  1.8657
 1749SOL     OW16708   1.190   0.684   7.056 -0.2224  0.1214 -0.0159
 1749SOL    HW116709   1.246   0.737   7.000  0.6613  0.3129  1.0502
 1749SOL    HW216710   1.252   0.634   7.108  0.0656  0.6358  0.1364
 1750SOL     OW16711   1.854   2.277   7.953  0.3820  0.3015 -0.2819
 1750SOL    HW116712   1.792   2.207   7.935 -0.0146 -0.0269  2.2783
 1750SOL    HW216713   1.935   2.228   7.965 -0.4411 -0.6293  1.5482
 1751SOL     OW16714   4.194   3.273   5.312 -0.8005  0.2159  0.5810
 1751SOL    HW116715   4.115   3.319   5.285 -1.0002 -0.1376  0.5598
 1751SOL    HW216716   4.241   3.351   5.342  0.6711  1.2362 -4.4101
 1752SOL     OW16717   0.986   1.226  12.527  0.4183  0.2417  0.2105
 1752SOL    HW116718   1.081   1.213  12.528  0.0561 -2.4152 -0.7399
 1752SOL    HW216719   0.959   1.134  12.527  3.2216 -0.5810 -1.6500
 1753SOL     OW16720   2.414   1.447   7.550 -0.4349 -0.6770  0.0538
 1753SOL    HW116721   2.471   1.498   7.607  0.1750 -1.4606  0.1525
 1753SOL    HW216722   2.439   1.357   7.571  0.8399 -0.1595  0.7082
 1754SOL     OW16723   2.751   1.200   9.351  0.3061 -0.0186 -0.1247
 1754SOL    HW116724   2.663   1.219   9.382 -0.3942 -0.2105 -2.0081
 1754SOL    HW216725   2.799   1.283   9.345 -0.0740  0.1364 -1.0419
 1755SOL     OW16726   4.263   2.232   5.157 -0.2958 -0.0810 -0.1273
 1755SOL    HW116727   4.338   2.183   5.124 -2.3177 -4.4916  1.9074
 1755SOL    HW216728   4.258   2.303   5.093  0.7976 -1.1758 -1.4310
 1756SOL     OW16729   2.848   4.078   1.279 -0.0922  0.2036  0.0474
 1756SOL    HW116730   2.813   3.989   1.281  0.4329 -0.0274 -1.3662
 1756SOL    HW216731   2.830   4.106   1.190  0.9660  0.7464 -0.0034
 1757SOL     OW16732   3.457   0.107   5.857  0.0434 -0.1486  0.1354
 1757SOL    HW116733   3.490   0.019   5.838  0.8750  0.2482 -0.2615
 1757SOL    HW216734   3.506   0.123   5.937 -0.7246  0.8880  0.3935
 1758SOL     OW16735   3.973   4.667   5.216  0.2869  0.0010  0.2789
 1758SOL    HW116736   3.881   4.655   5.240  0.0316 -0.1779 -0.7918
 1758SOL    HW216737   4.015   4.639   5.297 -1.6948  1.3277  1.7663
 1759SOL     OW16738   4.231   0.086  14.055  0.2888  0.4167  0.0690
 1759SOL    HW116739   4.287   0.126  14.121 -0.5269  1.9481 -0.1783
 1759SOL    HW216740   4.307   0.037  14.022  1.4519  1.8836  0.5788
 1760SOL     OW16741   4.324   2.909  14.164  0.4104 -0.7695 -0.2502
 1760SOL    HW116742   4.339   2.975  14.232  1.7498 -2.5911  1.2310
 1760SOL    HW216743   4.344   2.968  14.093 -0.1800 -1.5383 -1.0616
 1761SOL     OW16744   4.425   2.573  10.197 -0.4991  0.1322  0.1263
 1761SOL    HW116745   4.400   2.665  10.190 -1.0057  0.0633  1.0404
 1761SOL    HW216746   4.518   2.577  10.173  0.0602  0.4920  2.3351
 1762SOL     OW16747   4.023   4.541   7.259  0.1651 -0.2283 -0.2357
 1762SOL    HW116748   4.116   4.540   7.281  0.6139 -0.9746 -2.1502
 1762SOL    HW216749   4.015   4.636   7.261  0.9024 -0.2087  1.4185
 1763SOL     OW16750   1.800   2.688   1.475  0.3228  0.5539  0.2880
 1763SOL    HW116751   1.811   2.623   1.544  1.7345  0.1137 -0.3462
 1763SOL    HW216752   1.710   2.704   1.503 -0.3909 -1.2984 -0.9255
 1764SOL     OW16753   2.320   1.144  17.459  0.1603 -0.4195  0.3400
 1764SOL    HW116754   2.410   1.148  17.492  1.0657 -2.4700 -1.9039
 1764SOL    HW216755   2.255   1.141  17.530 -2.4538  0.7911 -2.0165
 1765SOL     OW16756   2.618   0.459  15.651  0.1864 -0.5263  0.0960
 1765SOL    HW116757   2.615   0.545  15.608 -0.8989  0.0367  1.2984
 1765SOL    HW216758   2.708   0.442  15.676  0.4775  0.4372 -0.2847
 1766SOL     OW16759   4.123   0.385  10.653  0.0991  0.2362 -0.4070
 1766SOL    HW116760   4.085   0.471  10.668 -1.5629 -0.1125 -2.6017
 1766SOL    HW216761   4.084   0.373  10.567 -0.6517  2.9150 -0.4266
 1767SOL     OW16762   4.085   0.752  15.271  0.0338 -0.0320  0.3238
 1767SOL    HW116763   4.039   0.730  15.351  0.6463  1.2969  1.0419
 1767SOL    HW216764   4.160   0.694  15.282  1.6257  1.1089 -4.3345
 1768SOL     OW16765   3.917   4.089  15.374  0.1035 -0.4523  0.5657
 1768SOL    HW116766   3.917   4.172  15.326 -2.2150 -1.3772 -1.0416
 1768SOL    HW216767   3.836   4.089  15.423  0.7318 -0.9731  1.5957
 1769SOL     OW16768   3.382   1.835   4.190  0.6787  0.1244  0.2905
 1769SOL    HW116769   3.306   1.805   4.239  0.5653 -0.9163 -0.5310
 1769SOL    HW216770   3.443   1.766   4.215 -0.5943 -1.3550 -0.6921
 1770SOL     OW16771   2.256   3.993   1.162  0.1376  0.0024 -0.1565
 1770SOL    HW116772   2.344   3.963   1.184 -0.3947 -1.1794  0.3363
 1770SOL    HW216773   2.269   4.085   1.183  2.0110 -0.9946  2.9701
 1771SOL     OW16774   4.269   2.938   9.270 -0.3112 -1.1201  0.3462
 1771SOL    HW116775   4.334   2.876   9.302  1.7010  0.7265 -0.2317
 1771SOL    HW216776   4.214   2.952   9.347 -1.8745  3.2331 -1.5561
 1772SOL     OW16777   3.167   0.345   9.543  0.3203  0.1126 -0.2829
 1772SOL    HW116778   3.108   0.315   9.612 -0.0130 -0.5180 -0.8448
 1772SOL    HW216779   3.110   0.403   9.492 -0.6058 -1.6507 -1.2527
 1773SOL     OW16780   2.949   1.472   8.947  0.1589  0.2591  0.1892
 1773SOL    HW116781   2.855   1.467   8.927 -0.1517  0.3391  1.6726
 1773SOL    HW216782   2.966   1.385   8.910 -2.6579  0.3736 -1.3864
 1774SOL     OW16783   1.825   3.791   2.866  0.0903  0.3883  0.2390
 1774SOL    HW116784   1.791   3.799   2.777 -0.2881  1.3872  0.4754
 1774SOL    HW216785   1.869   3.876   2.873 -1.2660  1.2851 -2.1653
 1775SOL     OW16786   2.188   2.131  14.089  0.2601 -0.5393  0.4366
 1775SOL    HW116787   2.181   2.040  14.060 -1.2143 -0.2214 -0.1848
 1775SOL    HW216788   2.098   2.139  14.119  0.6294  1.0097  1.1245
 1776SOL     OW16789   3.995   4.221   2.656 -0.1358 -0.2386 -0.2609
 1776SOL    HW116790   3.911   4.269   2.655  0.8158  1.3222 -3.9485
 1776SOL    HW216791   3.962   4.136   2.628 -2.1668 -0.1255  1.7194
 1777SOL     OW16792   4.465   1.679   1.305 -0.0479 -0.2627 -0.1208
 1777SOL    HW116793   4.543   1.646   1.259  0.9534  3.0264 -0.7704
 1777SOL    HW216794   4.504   1.683   1.392 -0.3082 -1.7044  0.0739
 1778SOL     OW16795   1.060   0.835  10.913 -0.5642  0.2188 -0.2846
 1778SOL    HW116796   1.037   0.791  10.996  0.8940 -1.7308 -0.9164
 1778SOL    HW216797   1.125   0.770  10.887  0.3255  0.5837  1.0378
 1779SOL     OW16798   1.721   3.938   2.646 -0.3794  0.0629  0.1852
 1779SOL    HW116799   1.700   3.948   2.553 -0.7513  2.0590  0.4948
 1779SOL    HW216800   1.739   4.027   2.675  1.4569 -1.5259  3.8745
 1780SOL     OW16801   1.351   2.786  11.753  0.0565 -0.1035 -0.2425
 1780SOL    HW116802   1.295   2.765  11.678 -1.0176 -0.7274  0.7324
 1780SOL    HW216803   1.325   2.725  11.822 -0.9784  0.2512 -0.3196
 1781SOL     OW16804   4.133   1.679   9.127  0.2986 -0.2539  0.5178
 1781SOL    HW116805   4.223   1.707   9.147  1.0855 -1.4403 -1.4079
 1781SOL    HW216806   4.084   1.670   9.209 -1.5103  0.4709 -0.4824
 1782SOL     OW16807   1.894   3.533   8.144  0.1290 -0.3000 -0.4895
 1782SOL    HW116808   1.805   3.566   8.145  0.2643  0.0647 -0.6090
 1782SOL    HW216809   1.891   3.456   8.200 -0.6526 -0.6426 -1.0089
 1783SOL     OW16810   4.141   3.599   0.258  0.5291  0.1442 -0.3320
 1783SOL    HW116811   4.189   3.652   0.322 -0.3640 -0.9788  1.2616
 1783SOL    HW216812   4.153   3.508   0.287 -1.4574  0.1074  0.3334
 1784SOL     OW16813   0.869   4.146   9.260 -0.2045  0.2033 -0.1971
 1784SOL    HW116814   0.825   4.129   9.177 -0.6853 -0.4448  0.1845
 1784SOL    HW216815   0.919   4.065   9.253 -0.3787  0.1939 -1.2959
 1785SOL     OW16816   3.264   2.951   8.149 -0.1513  0.1572 -0.6187
 1785SOL    HW116817   3.271   2.907   8.064 -0.0397 -0.1321 -0.4606
 1785SOL    HW216818   3.351   2.990   8.149  0.8578 -2.1205  0.3908
 1786SOL     OW16819   2.190   4.519   7.007 -0.0893 -0.2909 -0.1513
 1786SOL    HW116820   2.181   4.554   6.919  2.7534  0.1735 -0.2353
 1786SOL    HW216821   2.116   4.459   7.018  2.0296 -2.6787  1.1513
 1787SOL     OW16822   3.192   2.335   4.002 -0.0795  0.3452 -0.0188
 1787SOL    HW116823   3.162   2.331   4.093  2.1512 -3.3747  0.5695
 1787SOL    HW216824   3.147   2.260   3.965  1.3240 -1.0022  0.9648
 1788SOL     OW16825   3.569   1.095  15.831 -0.1886  0.2570 -0.1631
 1788SOL    HW116826   3.509   1.119  15.761 -3.5303  0.6824  2.8798
 1788SOL    HW216827   3.583   1.175  15.882  0.0258 -0.0237  0.2203
 1789SOL     OW16828   2.871   0.088   2.258  0.0620 -0.4378  0.0962
 1789SOL    HW116829   2.856   0.125   2.346  0.4119 -4.0432  1.6705
 1789SOL    HW216830   2.962   0.063   2.271 -0.0111 -1.0962 -0.6949
 1790SOL     OW16831   1.615   3.414   0.862 -0.0650 -0.0579 -0.0202
 1790SOL    HW116832   1.569   3.333   0.842 -0.1384 -0.1449  0.5000
 1790SOL    HW216833   1.544   3.462   0.904  0.4715  1.3850 -0.7182
 1791SOL     OW16834   3.055   2.656  16.989 -0.1580 -0.9117 -0.5354
 1791SOL    HW116835   3.055   2.727  17.054  0.3511 -2.0082  0.6465
 1791SOL    HW216836   3.050   2.589  17.057 -2.6154  0.3487  0.5263
 1792SOL     OW16837   0.388   2.162   8.579 -0.3959  0.2719 -0.1404
 1792SOL    HW116838   0.383   2.251   8.613  2.2955 -0.3273  1.8282
 1792SOL    HW216839   0.374   2.119   8.663 -0.7632 -0.6650 -0.6769
 1793SOL     OW16840   3.546   3.285   8.979  0.0427 -0.5183  0.4906
 1793SOL    HW116841   3.521   3.255   9.067  0.3984 -0.4553  0.6129
 1793SOL    HW216842   3.486   3.234   8.924  0.0568  0.8337 -0.7763
 1794SOL     OW16843   1.343   1.835   7.048  0.1443 -0.1048 -0.2123
 1794SOL    HW116844   1.298   1.899   6.993 -0.1822 -0.3302 -0.2045
 1794SOL    HW216845   1.281   1.765   7.029 -0.1725  0.7375 -2.3410
 1795SOL     OW16846   2.561   4.680   7.094 -0.1681 -0.2808  0.6368
 1795SOL    HW116847   2.513   4.598   7.105  1.3320 -1.2056  0.1340
 1795SOL    HW216848   2.540   4.719   7.179  1.9914  2.3759 -0.0503
 1796SOL     OW16849   3.542   3.647  15.177 -0.6071  0.0282  0.1068
 1796SOL    HW116850   3.517   3.708  15.246 -2.7766 -0.0592 -0.5989
 1796SOL    HW216851   3.629   3.635  15.213  0.6752  1.2429 -2.5702
 1797SOL     OW16852   2.417   2.863   6.411  0.0203  0.0045  0.3418
 1797SOL    HW116853   2.380   2.847   6.324 -0.1457  0.8467  0.2506
 1797SOL    HW216854   2.465   2.943   6.392 -2.0916  1.1120 -0.3916
 1798SOL     OW16855   2.854   1.532  12.495  0.2283  0.1417 -0.3341
 1798SOL    HW116856   2.943   1.563  12.508  0.1301  0.1408  0.3532
 1798SOL    HW216857   2.820   1.607  12.448  0.1807  0.3096 -0.0330
 1799SOL     OW16858   0.476   1.734  14.713  0.5396 -0.0566  0.1705
 1799SOL    HW116859   0.567   1.742  14.685  0.2389  1.4800 -0.3974
 1799SOL    HW216860   0.437   1.819  14.692 -0.6614 -0.5138  0.5413
 1800SOL     OW16861   4.598   3.723  17.224  0.2766  0.0077 -0.4980
 1800SOL    HW116862   4.633   3.780  17.156 -2.1578  1.8187 -0.2585
 1800SOL    HW216863   4.546   3.778  17.283  1.9375  1.1387 -0.0729
 1801SOL     OW16864   0.925   3.330   7.650  0.0181 -0.2774 -0.6133
 1801SOL    HW116865   0.984   3.392   7.693 -1.1767 -0.2455  0.9740
 1801SOL    HW216866   0.841   3.377   7.650 -1.3011 -2.6211 -2.8158
 1802SOL     OW16867   3.055   1.091   4.243  0.2255  0.0641  0.4069
 1802SOL    HW116868   3.128   1.153   4.232  0.2324  0.2949  1.8259
 1802SOL    HW216869   3.055   1.089   4.338 -0.1510  0.0294  0.4040
 1803SOL     OW16870   0.667   0.901   2.988  0.0865 -0.4520  0.2116
 1803SOL    HW116871   0.625   0.856   3.061  0.1239  0.8297  1.0187
 1803SOL    HW216872   0.676   0.994   3.010 -0.5807 -0.2259 -0.4858
 1804SOL     OW16873   1.570   2.394   1.701  0.8839 -0.1042  0.0970
 1804SOL    HW116874   1.533   2.342   1.630  0.2784  1.8100 -1.0103
 1804SOL    HW216875   1.522   2.356   1.775  1.2139 -0.2916  0.2136
 1805SOL     OW16876   2.286   3.900   6.491  0.2146 -0.0157  0.2820
 1805SOL    HW116877   2.354   3.938   6.546  0.0430 -0.3185  0.7063
 1805SOL    HW216878   2.314   3.812   6.466 -0.3082 -0.3836  0.9717
 1806SOL     OW16879   3.171   0.624   7.118 -0.1893 -0.5089 -0.4377
 1806SOL    HW116880   3.169   0.563   7.191  0.1991 -0.0966 -0.0800
 1806SOL    HW216881   3.201   0.705   7.160  0.6439  1.3895 -4.6436
 1807SOL     OW16882   1.039   2.966  17.085 -0.3363  0.4936 -0.2130
 1807SOL    HW116883   1.043   2.916  17.167 -0.7304  1.1288  0.1975
 1807SOL    HW216884   0.951   2.940  17.057 -0.5874 -1.4757  2.3494
 1808SOL     OW16885   0.665   1.267  17.319  0.5760  0.1166 -0.1199
 1808SOL    HW116886   0.637   1.188  17.273 -0.1598 -0.1175  0.7227
 1808SOL    HW216887   0.754   1.247  17.348  1.0984  1.0300 -1.1186
 1809SOL     OW16888   2.883   4.154  10.743 -0.3861 -0.2089 -0.2669
 1809SOL    HW116889   2.839   4.102  10.811  0.5482 -0.1946  0.3586
 1809SOL    HW216890   2.837   4.238  10.739 -0.2535 -0.2158 -1.9248
 1810SOL     OW16891   0.102   3.786   2.164 -0.0590 -0.3630 -0.2675
 1810SOL    HW116892   0.110   3.734   2.244  2.7129 -0.2571 -0.4773
 1810SOL    HW216893   0.007   3.797   2.165 -0.2383 -1.7031 -1.3218
 1811SOL     OW16894   0.407   2.820   7.272  0.1656  0.5573 -0.5703
 1811SOL    HW116895   0.474   2.752   7.271 -0.7695 -0.3776  0.4873
 1811SOL    HW216896   0.453   2.887   7.323 -0.1595  1.4140 -1.3826
 1812SOL     OW16897   3.373   2.020   8.404  0.3230 -0.2815  0.4699
 1812SOL    HW116898   3.445   1.992   8.459  0.3877  1.5481  1.3272
 1812SOL    HW216899   3.419   2.039   8.322 -2.9260 -1.1702 -1.5523
 1813SOL     OW16900   2.208   3.395   9.481  0.0911  0.1103 -0.4889
 1813SOL    HW116901   2.175   3.305   9.481 -0.3411  0.2702 -0.2479
 1813SOL    HW216902   2.137   3.444   9.440  0.2710  2.2881  1.8026
 1814SOL     OW16903   2.322   4.096   8.277  0.1257  0.1833  0.0314
 1814SOL    HW116904   2.307   4.002   8.268  2.7504  0.1634 -4.4298
 1814SOL    HW216905   2.262   4.123   8.346 -1.2798 -1.5031 -0.5362
 1815SOL     OW16906   2.964   1.077   8.129 -0.3021  0.1331  0.4206
 1815SOL    HW116907   3.023   1.153   8.121  1.3179 -1.4817 -2.7774
 1815SOL    HW216908   2.888   1.101   8.182  0.3816  0.9506  1.0520
 1816SOL     OW16909   3.318   0.883   8.928 -0.2696 -0.0029 -0.3068
 1816SOL    HW116910   3.406   0.851   8.950 -0.4005 -0.5521 -0.5734
 1816SOL    HW216911   3.282   0.885   9.017  0.7587  0.8053  0.0973
 1817SOL     OW16912   3.674   3.911   1.686 -0.4450 -0.3673 -0.1249
 1817SOL    HW116913   3.716   3.996   1.696  0.4528 -0.9307  0.9962
 1817SOL    HW216914   3.588   3.925   1.726 -0.6238  0.3214 -0.7703
 1818SOL     OW16915   1.932   3.294   5.524  0.6135 -0.1373  0.0799
 1818SOL    HW116916   1.900   3.384   5.531  1.9369  0.4660 -1.6018
 1818SOL    HW216917   1.871   3.262   5.457 -0.8567  2.3011  0.2267
 1819SOL     OW16918   0.774   4.514   7.403 -0.3849  0.0771  0.1835
 1819SOL    HW116919   0.861   4.512   7.362 -0.7315 -1.8781 -0.4364
 1819SOL    HW216920   0.722   4.504   7.324 -0.0682  0.1942 -0.0422
 1820SOL     OW16921   4.159   4.315   3.078 -0.7527  0.3431  0.2622
 1820SOL    HW116922   4.190   4.261   3.005 -2.6822 -0.1420 -0.1998
 1820SOL    HW216923   4.067   4.290   3.070 -1.1300  1.4088  1.3917
 1821SOL     OW16924   2.904   2.175   7.835  0.1893  0.3555  0.0521
 1821SOL    HW116925   2.876   2.213   7.919  2.3423 -1.5088  1.6375
 1821SOL    HW216926   2.825   2.176   7.781  2.3633  0.4047 -3.1092
 1822SOL     OW16927   0.373   4.541   2.563 -0.1646 -0.1940  0.4486
 1822SOL    HW116928   0.375   4.452   2.599  2.8241 -0.4963 -0.5109
 1822SOL    HW216929   0.421   4.533   2.480 -0.8898  1.0781 -0.1026
 1823SOL     OW16930   2.315   0.804   2.982  0.4602 -0.0680  0.3145
 1823SOL    HW116931   2.284   0.891   3.009  2.2426  1.1264 -1.5174
 1823SOL    HW216932   2.371   0.827   2.908  1.1709 -0.1358  0.8296
 1824SOL     OW16933   1.050   2.315   0.707  0.3116  0.4248  0.4338
 1824SOL    HW116934   0.972   2.291   0.657  0.1994 -1.0373  1.3060
 1824SOL    HW216935   1.100   2.237   0.687 -3.5375 -2.2646  1.3621
 1825SOL     OW16936   3.824   1.149   6.829  0.5918  0.4431 -0.0552
 1825SOL    HW116937   3.818   1.060   6.795 -1.8156  1.8115 -3.2328
 1825SOL    HW216938   3.766   1.202   6.775  1.7501 -1.8372 -3.5346
 1826SOL     OW16939   1.895   4.220   3.287 -0.6691  0.4125 -0.0440
 1826SOL    HW116940   1.853   4.142   3.251 -1.6936  0.4387  1.1225
 1826SOL    HW216941   1.848   4.236   3.369 -0.3852 -0.4395  0.2878
 1827SOL     OW16942   2.788   4.445   6.028 -0.1057 -0.6115  0.0974
 1827SOL    HW116943   2.796   4.540   6.037 -2.0555 -0.2985 -1.3714
 1827SOL    HW216944   2.810   4.439   5.935 -0.7959  2.8772 -0.2807
 1828SOL     OW16945   4.361   2.391  14.998 -1.1221 -0.2867  0.1591
 1828SOL    HW116946   4.451   2.418  15.016 -2.3616  3.2070  1.0084
 1828SOL    HW216947   4.382   2.342  14.918 -1.9399  2.2346 -1.5992
 1829SOL     OW16948   4.516   0.704   6.174  0.2388 -0.1670  0.4170
 1829SOL    HW116949   4.452   0.775   6.167  0.6276 -0.0276 -1.5324
 1829SOL    HW216950   4.553   0.710   6.086 -1.8842  0.0075 -0.4690
 1830SOL     OW16951   1.912   0.656   5.837  0.2310  0.4236  0.0510
 1830SOL    HW116952   1.838   0.715   5.849  1.5418  2.2612 -0.9297
 1830SOL    HW216953   1.867   0.592   5.782  0.2075  2.0083 -1.7826
 1831SOL     OW16954   0.621   1.173   7.323 -0.2136  0.1072  0.4382
 1831SOL    HW116955   0.610   1.144   7.414 -2.0241  1.6632  0.7111
 1831SOL    HW216956   0.547   1.229   7.303 -0.2396  1.0628  3.1460
 1832SOL     OW16957   1.659   4.254  12.457  0.5986 -0.6209  0.6745
 1832SOL    HW116958   1.616   4.314  12.518 -1.2352  0.1884 -1.4182
 1832SOL    HW216959   1.754   4.271  12.461  0.6797 -0.6213 -1.1591
 1833SOL     OW16960   2.857   0.465   6.058 -0.2222  0.2426 -0.1449
 1833SOL    HW116961   2.952   0.458   6.049 -0.4959 -0.4169 -2.6299
 1833SOL    HW216962   2.837   0.516   5.979 -0.8892  1.4709  0.8193
 1834SOL     OW16963   0.560   1.174   7.854 -0.3933 -0.6057  0.0564
 1834SOL    HW116964   0.584   1.110   7.921 -1.3012 -2.3167 -1.2422
 1834SOL    HW216965   0.622   1.246   7.862 -2.7749  1.6154 -1.7165
 1835SOL     OW16966   0.052   1.149   4.179 -0.5247  0.2017  0.2056
 1835SOL    HW116967   0.060   1.124   4.087 -1.2622 -0.6013  0.3665
 1835SOL    HW216968   0.116   1.220   4.185  1.0546 -1.2664  0.8276
 1836SOL     OW16969   1.618   4.231   8.275  0.3684 -1.4665 -0.2118
 1836SOL    HW116970   1.555   4.298   8.248  0.4235 -1.1440  0.4689
 1836SOL    HW216971   1.619   4.239   8.370  1.6260 -0.2646 -0.3302
 1837SOL     OW16972   0.074   1.219   5.495 -0.3682  0.3317  0.1639
 1837SOL    HW116973   0.034   1.244   5.579  0.6299  2.3571  0.0316
 1837SOL    HW216974   0.057   1.294   5.438  1.9471  1.4827  1.0035
 1838SOL     OW16975   4.314   4.056   4.277  0.0044 -0.5482  0.2429
 1838SOL    HW116976   4.335   4.060   4.370 -0.3173  1.6061  0.2284
 1838SOL    HW216977   4.219   4.066   4.287  0.2627  1.5933  0.4965
 1839SOL     OW16978   3.759   3.162  10.953 -0.7279  0.0244  0.2023
 1839SOL    HW116979   3.760   3.067  10.970  0.2539 -0.1540 -0.8879
 1839SOL    HW216980   3.767   3.198  11.041 -1.7917  0.4263  0.1302
 1840SOL     OW16981   2.452   2.606  16.909 -0.1014  0.5916 -0.0575
 1840SOL    HW116982   2.421   2.694  16.887  1.4610  0.8436 -1.2416
 1840SOL    HW216983   2.447   2.616  17.004  0.0570 -0.9274  0.1032
 1841SOL     OW16984   2.225   3.605   6.238 -0.5372  0.1583 -0.3913
 1841SOL    HW116985   2.254   3.678   6.183 -0.5761 -0.7084 -1.5528
 1841SOL    HW216986   2.141   3.591   6.195 -0.2168 -1.8354 -0.3390
 1842SOL     OW16987   2.700   0.001   8.460  0.4272  0.4508 -0.1882
 1842SOL    HW116988   2.753   4.656   8.414  1.9321  1.6605 -0.1829
 1842SOL    HW216989   2.619   0.017   8.411  0.5183  1.0627 -0.1410
 1843SOL     OW16990   3.848   0.357   3.805  0.1425 -0.3839 -0.7165
 1843SOL    HW116991   3.796   0.418   3.858 -0.6292 -0.4967 -1.3431
 1843SOL    HW216992   3.852   0.397   3.718 -0.4815  0.4624 -0.3553
 1844SOL     OW16993   2.128   2.859   1.223  0.0960  0.5945 -0.1500
 1844SOL    HW116994   2.150   2.850   1.316 -2.4527  2.5639  0.6593
 1844SOL    HW216995   2.090   2.773   1.209 -1.0264  0.9933  0.4590
 1845SOL     OW16996   3.329   0.934   7.448  0.7391 -0.1525  0.0866
 1845SOL    HW116997   3.262   1.001   7.463  1.5513  1.0920 -1.8676
 1845SOL    HW216998   3.376   0.932   7.531  0.5355 -2.6091  0.1372
 1846SOL     OW16999   3.114   1.810   6.688  0.2074  0.6706  0.0468
 1846SOL    HW117000   3.070   1.892   6.666 -0.1536  1.0036  1.9748
 1846SOL    HW217001   3.051   1.748   6.651 -0.4285  0.7995  0.9171
 1847SOL     OW17002   1.580   1.296  15.561  0.2484  0.1064  0.0534
 1847SOL    HW117003   1.670   1.289  15.594 -0.1170 -0.8191  0.8596
 1847SOL    HW217004   1.539   1.281  15.647  0.7233 -0.0099  0.2596
 1848SOL     OW17005   0.938   0.951   5.694 -0.7124 -0.3439  0.4995
 1848SOL    HW117006   0.843   0.942   5.703 -1.1018  0.8103 -2.1999
 1848SOL    HW217007   0.964   0.874   5.743 -2.1483 -1.8021 -0.9993
 1849SOL     OW17008   0.612   1.090   7.586 -0.0026 -0.2083  0.5150
 1849SOL    HW117009   0.605   1.086   7.681 -1.3794 -1.4049  0.3641
 1849SOL    HW217010   0.523   1.126   7.579 -0.6392 -1.8346  0.3148
 1850SOL     OW17011   1.738   1.827   6.963  0.4380 -0.7940  0.6470
 1850SOL    HW117012   1.710   1.759   7.024  0.2696 -0.9098  0.4389
 1850SOL    HW217013   1.665   1.845   6.903  1.0276  0.1286  0.2152
 1851SOL     OW17014   3.286   1.996  10.705 -0.0771 -0.3326  0.5530
 1851SOL    HW117015   3.376   2.001  10.674 -0.8477  0.0079 -1.6192
 1851SOL    HW217016   3.265   1.904  10.716 -2.1393 -0.1261 -1.6924
 1852SOL     OW17017   2.994   3.894   3.803  0.6764  0.3821 -0.2000
 1852SOL    HW117018   3.086   3.869   3.802  0.6114  0.1765 -1.1050
 1852SOL    HW217019   2.960   3.824   3.859 -0.0703  0.4644 -0.5521
 1853SOL     OW17020   2.807   1.658  13.244  0.3500 -0.1233  0.4141
 1853SOL    HW117021   2.739   1.646  13.178  0.1843 -2.1620  0.9524
 1853SOL    HW217022   2.745   1.655  13.316 -0.9410 -1.4055 -0.7361
 1854SOL     OW17023   2.735   0.394   6.992  0.0591  0.5059 -0.0314
 1854SOL    HW117024   2.808   0.426   6.938  0.0637 -0.4009 -0.5584
 1854SOL    HW217025   2.698   0.477   7.021 -2.0176 -1.1143  1.9588
 1855SOL     OW17026   1.898   0.388  11.268  0.3621  0.0076 -0.0165
 1855SOL    HW117027   1.861   0.313  11.316  0.6023 -0.5758 -0.7476
 1855SOL    HW217028   1.864   0.372  11.180  1.5393  1.1545 -0.6831
 1856SOL     OW17029   0.110   3.022   8.604  0.0222  0.2572 -0.7990
 1856SOL    HW117030   0.127   3.075   8.526  1.3349  0.7186 -0.1886
 1856SOL    HW217031   0.176   2.956   8.583  0.4172  0.0314  1.2067
 1857SOL     OW17032   1.364   1.063   5.197  0.2283  0.5063  0.1481
 1857SOL    HW117033   1.312   1.060   5.117 -0.4837 -0.0140  0.6255
 1857SOL    HW217034   1.385   1.156   5.195  1.8450  0.1841  1.2436
 1858SOL     OW17035   1.310   2.385   5.469 -0.0093 -0.1803 -0.9342
 1858SOL    HW117036   1.227   2.416   5.506 -1.4861 -0.0732 -4.3253
 1858SOL    HW217037   1.339   2.316   5.528  1.2997  0.3082 -1.0036
 1859SOL     OW17038   3.031   1.582   6.579  0.0561 -0.1241  0.1905
 1859SOL    HW117039   3.038   1.493   6.614 -0.9960 -0.6346 -0.8567
 1859SOL    HW217040   3.095   1.582   6.508  0.3974  0.5106  0.4997
 1860SOL     OW17041   1.192   0.574  10.193  0.0666  0.3195 -0.2492
 1860SOL    HW117042   1.202   0.553  10.100  2.4289  0.7816 -0.0930
 1860SOL    HW217043   1.103   0.540  10.205 -0.1866  1.4480  1.0236
 1861SOL     OW17044   2.754   2.529   4.590 -0.5782  0.4808  0.0534
 1861SOL    HW117045   2.843   2.556   4.570 -0.1813 -1.1662 -0.3781
 1861SOL    HW217046   2.767   2.435   4.607  0.3817  0.6375  0.2062
 1862SOL     OW17047   0.843   1.664  12.731  0.4295  0.5127 -0.0477
 1862SOL    HW117048   0.910   1.707  12.784  0.9548 -0.2001 -0.1317
 1862SOL    HW217049   0.892   1.588  12.701  0.0271  0.3445 -0.2782
 1863SOL     OW17050   4.463   2.366   5.464 -0.2385  0.0689 -0.3701
 1863SOL    HW117051   4.455   2.372   5.560  0.7875 -0.6592 -0.2413
 1863SOL    HW217052   4.376   2.332   5.444 -0.9304  1.4222  0.3220
 1864SOL     OW17053   2.780   4.433  13.566  0.2858 -0.1145  0.7680
 1864SOL    HW117054   2.756   4.362  13.507  0.6939  0.4093 -0.0264
 1864SOL    HW217055   2.773   4.514  13.516  0.0246 -0.8307 -0.3503
 1865SOL     OW17056   0.779   0.473  12.064 -0.2520  0.1938  0.0758
 1865SOL    HW117057   0.855   0.508  12.018 -0.1586 -0.3463 -0.1848
 1865SOL    HW217058   0.710   0.523  12.020  0.5898  0.4173 -0.9975
 1866SOL     OW17059   1.546   2.226   0.826  0.1272 -0.1597  0.5428
 1866SOL    HW117060   1.489   2.292   0.865 -1.0676  0.1209 -1.6693
 1866SOL    HW217061   1.512   2.211   0.738  0.1810  1.7297  0.2139
 1867SOL     OW17062   3.383   2.382   3.302  0.4427 -0.1891 -0.4636
 1867SOL    HW117063   3.365   2.304   3.250 -0.3752  0.2557 -0.8623
 1867SOL    HW217064   3.461   2.419   3.261 -1.0664  1.8939 -1.5120
 1868SOL     OW17065   1.631   1.006   2.751 -0.4598  0.1711 -0.5420
 1868SOL    HW117066   1.615   1.082   2.695  0.0236  0.7001  0.0332
 1868SOL    HW217067   1.632   1.049   2.836  1.3988  1.4954 -1.2077
 1869SOL     OW17068   3.575   2.499   3.140 -0.5791  0.5667 -0.4697
 1869SOL    HW117069   3.576   2.588   3.174 -0.7138 -0.0448  1.1278
 1869SOL    HW217070   3.538   2.507   3.052 -0.8992  0.1626 -0.3729
 1870SOL     OW17071   3.294   1.242   7.384 -0.2552 -0.2652  0.0091
 1870SOL    HW117072   3.333   1.190   7.313  1.4503  1.3888 -0.2496
 1870SOL    HW217073   3.199   1.227   7.381 -0.0702 -1.7837  1.4758
 1871SOL     OW17074   3.783   4.095  17.089  0.2332 -1.0312  0.3007
 1871SOL    HW117075   3.836   4.059  17.161 -0.2385 -1.3440  0.4957
 1871SOL    HW217076   3.787   4.033  17.016 -0.9596  2.1106 -2.4374
 1872SOL     OW17077   2.940   1.244  10.714 -0.1743  0.0548  0.7657
 1872SOL    HW117078   2.856   1.249  10.760  0.4208  2.9886  1.5242
 1872SOL    HW217079   2.998   1.190  10.767  0.2207 -0.7335 -0.4702
 1873SOL     OW17080   3.635   4.556  12.279  0.3891  0.0809  0.7298
 1873SOL    HW117081   3.647   4.585  12.369 -0.3478  0.7829  0.6082
 1873SOL    HW217082   3.632   4.463  12.301 -2.0746 -0.0330 -0.0639
 1874SOL     OW17083   0.372   1.165   7.070  0.6196  0.7536  0.4910
 1874SOL    HW117084   0.373   1.088   7.127  3.7425  2.0447  2.1850
 1874SOL    HW217085   0.326   1.229   7.123  0.1091  0.8230 -0.0440
 1875SOL     OW17086   0.697   1.864   1.142 -0.1975 -0.6747  0.3649
 1875SOL    HW117087   0.662   1.950   1.167  0.0214 -0.2281 -0.8569
 1875SOL    HW217088   0.668   1.847   1.053  0.6997  0.4229 -0.1406
 1876SOL     OW17089   3.215   3.453   3.517 -0.0076 -0.4309  0.5975
 1876SOL    HW117090   3.189   3.496   3.435  1.4474  0.0865  0.4167
 1876SOL    HW217091   3.176   3.507   3.585 -0.1852 -0.1623  0.2838
 1877SOL     OW17092   4.148   3.035  10.987 -0.0279  0.4586 -0.5314
 1877SOL    HW117093   4.137   3.076  10.901  0.1353  1.8663  0.1231
 1877SOL    HW217094   4.238   3.060  11.009 -0.2394 -1.1345  2.1438
 1878SOL     OW17095   1.035   0.065   1.610  0.5867 -0.0868 -0.3074
 1878SOL    HW117096   0.950   0.049   1.651  0.8555 -0.2334  0.1949
 1878SOL    HW217097   1.026   0.160   1.598 -1.9811 -0.1661  0.9811
 1879SOL     OW17098   3.026   1.173  17.605  0.1314  0.4628 -0.1235
 1879SOL    HW117099   3.029   1.078  17.609  4.4715  0.6415  0.7799
 1879SOL    HW217100   3.081   1.206  17.534  2.2359 -1.2583  0.7318
 1880SOL     OW17101   4.525   2.743   5.495 -0.6535  0.1459  0.3609
 1880SOL    HW117102   4.534   2.666   5.439  1.1001  1.1657 -0.7517
 1880SOL    HW217103   4.458   2.723   5.560 -1.6370  1.8868 -0.1206
 1881SOL     OW17104   3.297   2.347   6.806  0.4579  0.0831 -0.0981
 1881SOL    HW117105   3.299   2.298   6.888  1.7824 -2.0574 -1.4081
 1881SOL    HW217106   3.205   2.340   6.777  0.9738 -1.5757 -1.3487
 1882SOL     OW17107   0.220   4.477  13.033  0.4240  0.8424 -0.2087
 1882SOL    HW117108   0.158   4.406  13.018  2.7497 -0.6586 -2.7390
 1882SOL    HW217109   0.301   4.425  13.026  0.9769  1.7207 -0.3499
 1883SOL     OW17110   3.179   2.975   9.082 -0.5979 -0.2544 -0.2836
 1883SOL    HW117111   3.260   3.020   9.057 -0.5579  0.2441  0.7468
 1883SOL    HW217112   3.187   2.972   9.177 -0.2682  0.9892 -0.2644
 1884SOL     OW17113   1.973   1.816   7.160 -0.0246 -0.5954 -0.4066
 1884SOL    HW117114   1.938   1.882   7.220  1.6443 -0.3711  0.3075
 1884SOL    HW217115   1.918   1.824   7.082 -0.2470  1.8947  0.0091
 1885SOL     OW17116   3.683   2.541   6.217 -0.2694 -0.2022 -0.3136
 1885SOL    HW117117   3.731   2.624   6.214  0.5329 -0.6364  0.5448
 1885SOL    HW217118   3.629   2.543   6.296 -2.3247 -0.1276 -1.7306
 1886SOL     OW17119   4.390   0.263   9.290 -0.0944  0.2648 -0.1081
 1886SOL    HW117120   4.394   0.274   9.386  1.0975  1.8864 -0.3409
 1886SOL    HW217121   4.366   0.172   9.274 -1.4175  0.6567 -0.3079
 1887SOL     OW17122   0.748   0.781   1.209  0.1191 -0.2389 -0.6128
 1887SOL    HW117123   0.835   0.740   1.210 -0.7656 -2.1389 -0.2776
 1887SOL    HW217124   0.757   0.826   1.293  1.4021 -0.5723 -0.5660
 1888SOL     OW17125   4.022   0.263  14.026 -0.1711  0.1375  0.7138
 1888SOL    HW117126   4.066   0.340  14.061  0.5083 -0.2752  0.7599
 1888SOL    HW217127   4.097   0.204  14.021 -1.6308 -1.7577  1.4232
 1889SOL     OW17128   3.523   2.337  10.205 -0.3468  0.8784  0.4331
 1889SOL    HW117129   3.586   2.283  10.158 -1.8523  1.6231 -2.4458
 1889SOL    HW217130   3.516   2.299  10.293 -0.2324 -0.9376 -0.3450
 1890SOL     OW17131   1.583   3.195   9.170 -0.0342  0.2738 -0.5589
 1890SOL    HW117132   1.492   3.220   9.180  0.0529  1.1175 -1.8669
 1890SOL    HW217133   1.594   3.108   9.208  1.5142  0.4984 -0.4620
 1891SOL     OW17134   2.673   2.414  13.661  0.4437 -0.1333  0.0822
 1891SOL    HW117135   2.766   2.423  13.680  0.3648  0.4422  0.1968
 1891SOL    HW217136   2.625   2.473  13.719 -0.1894  0.7887 -1.3803
 1892SOL     OW17137   2.156   1.316  10.318  0.0940  0.2704  0.1490
 1892SOL    HW117138   2.091   1.385  10.312  1.4063  1.5504  0.5417
 1892SOL    HW217139   2.129   1.256  10.249 -0.3496  1.3987 -0.6452
 1893SOL     OW17140   2.557   3.029   1.897  0.2824  0.5989  0.0308
 1893SOL    HW117141   2.505   3.095   1.851 -0.4269  0.0369  0.0254
 1893SOL    HW217142   2.511   3.027   1.981  0.3992  0.8948  0.1052
 1894SOL     OW17143   2.054   0.970  14.068 -0.4530 -0.3167  0.2929
 1894SOL    HW117144   2.110   0.946  14.142  0.1006 -0.7268 -0.2603
 1894SOL    HW217145   2.096   0.936  13.990 -0.0493  1.4202 -0.2547
 1895SOL     OW17146   3.457   1.150   8.836 -0.2524 -0.1250 -0.5120
 1895SOL    HW117147   3.373   1.197   8.832  0.5134  1.3601  0.6969
 1895SOL    HW217148   3.453   1.074   8.779  1.5902 -0.7806  0.2258
 1896SOL     OW17149   3.647   3.736  11.113 -0.4909 -0.4578 -0.8512
 1896SOL    HW117150   3.688   3.673  11.053 -1.5049 -3.1273  1.2291
 1896SOL    HW217151   3.554   3.734  11.089 -0.9095 -3.5531  1.0522
 1897SOL     OW17152   2.200   3.162   3.742 -0.1023 -0.2336  0.0843
 1897SOL    HW117153   2.251   3.120   3.812 -1.5086 -0.5111  0.9463
 1897SOL    HW217154   2.149   3.222   3.796  1.3761 -1.0725  2.4497
 1898SOL     OW17155   2.708   2.241  15.964 -0.0257 -0.0171 -0.9108
 1898SOL    HW117156   2.754   2.270  15.885  0.3684  1.6187 -0.0853
 1898SOL    HW217157   2.646   2.189  15.913  0.2946 -2.0315  0.7458
 1899SOL     OW17158   4.124   2.426  11.079  0.0402  0.2620 -0.2968
 1899SOL    HW117159   4.124   2.506  11.027  0.1981  0.7069  0.3861
 1899SOL    HW217160   4.133   2.467  11.165 -0.0832 -0.8376  0.2444
 1900SOL     OW17161   0.893   1.396   2.047 -0.3269 -0.0580 -0.0392
 1900SOL    HW117162   0.858   1.307   2.037 -0.0923 -0.0941 -0.5133
 1900SOL    HW217163   0.967   1.398   1.987 -1.1012  0.0616 -0.9948
 1901SOL     OW17164   3.477   0.052   4.253 -0.0751  0.1500  0.0611
 1901SOL    HW117165   3.458   0.016   4.339 -0.1366  1.2770  0.5217
 1901SOL    HW217166   3.567   0.020   4.249  1.9029  5.5508  1.9672
 1902SOL     OW17167   3.869   3.550   8.272  0.4432 -0.4159  0.1224
 1902SOL    HW117168   3.921   3.594   8.339 -0.9079  0.6028  0.5017
 1902SOL    HW217169   3.894   3.595   8.191  0.7302 -0.9743 -0.0998
 1903SOL     OW17170   0.807   4.050   8.979  0.1095  0.1373 -0.0975
 1903SOL    HW117171   0.711   4.049   8.983  0.1702  1.8373  1.8204
 1903SOL    HW217172   0.821   4.119   8.915  0.5613  0.3425  0.2252
 1904SOL     OW17173   3.443   4.164   5.012  0.1699  0.3476 -0.2237
 1904SOL    HW117174   3.459   4.123   5.097 -0.1769  4.1364  1.6589
 1904SOL    HW217175   3.350   4.141   5.009  0.0744  1.1173 -2.8645
 1905SOL     OW17176   0.487   1.497  16.169 -0.5362 -0.6384  0.3833
 1905SOL    HW117177   0.563   1.547  16.198 -1.1793  1.0174 -0.7775
 1905SOL    HW217178   0.420   1.563  16.151  0.5310  0.2399 -0.3007
 1906SOL     OW17179   2.626   4.329   1.696  0.0574  0.4200  0.1879
 1906SOL    HW117180   2.533   4.350   1.684 -0.7001 -2.1322  1.5463
 1906SOL    HW217181   2.654   4.306   1.607 -0.5734  0.9983 -0.1636
 1907SOL     OW17182   1.118   3.430   4.641  0.1512 -0.3642 -0.0039
 1907SOL    HW117183   1.159   3.506   4.683  2.5529 -1.4278 -0.4327
 1907SOL    HW217184   1.071   3.386   4.713 -0.8470  0.8739  0.0913
 1908SOL     OW17185   1.296   2.896   3.151 -0.1074 -0.0751  0.7082
 1908SOL    HW117186   1.379   2.930   3.118 -1.3211  0.4381 -1.7978
 1908SOL    HW217187   1.269   2.833   3.084 -0.0506  0.0723  0.5491
 1909SOL     OW17188   4.053   3.644   7.400  0.2423  0.0751 -0.0027
 1909SOL    HW117189   4.032   3.578   7.466  2.4020 -0.4018  0.2042
 1909SOL    HW217190   4.088   3.592   7.328  0.6309 -0.1096  0.3222
 1910SOL     OW17191   1.621   2.245   4.469  0.7325 -0.2515 -0.0996
 1910SOL    HW117192   1.535   2.287   4.459 -0.3775 -1.8483  2.6786
 1910SOL    HW217193   1.602   2.203   4.552  2.3154  1.9751  1.3878
 1911SOL     OW17194   2.368   3.940   4.897 -0.8211  0.1690  0.5328
 1911SOL    HW117195   2.367   3.918   4.990  0.3090  1.1226  0.7635
 1911SOL    HW217196   2.274   3.924   4.884 -0.2361 -0.9567 -2.1050
 1912SOL     OW17197   2.991   2.804   4.257 -0.4595  0.0282 -0.1948
 1912SOL    HW117198   3.048   2.727   4.258 -1.2690 -0.6144 -2.2975
 1912SOL    HW217199   2.952   2.787   4.342 -1.3592 -1.3462 -0.8756
 1913SOL     OW17200   1.010   3.868   4.331 -0.7577 -0.2761 -0.2115
 1913SOL    HW117201   0.978   3.874   4.241 -0.4741  1.3732 -0.2068
 1913SOL    HW217202   1.095   3.826   4.313 -0.3769 -0.1937  1.3503
 1914SOL     OW17203   1.985   1.534  16.191  0.4045  0.0637  0.1488
 1914SOL    HW117204   1.998   1.620  16.231  1.1523  0.5059 -1.0584
 1914SOL    HW217205   1.950   1.477  16.260  1.1485 -2.0443 -1.2167
 1915SOL     OW17206   4.496   2.062   3.409  0.1983 -0.1649 -0.0970
 1915SOL    HW117207   4.419   2.119   3.403  0.5533  0.9065  5.6589
 1915SOL    HW217208   4.456   1.987   3.365  0.4861  0.7532 -1.9730
 1916SOL     OW17209   3.804   4.347   7.253  0.0824  0.2161  0.2332
 1916SOL    HW117210   3.743   4.419   7.270  0.7723  1.0391 -0.8083
 1916SOL    HW217211   3.867   4.403   7.207  0.7233 -0.9277 -0.2701
 1917SOL     OW17212   0.792   1.471   7.582 -0.2859 -0.2131 -0.4807
 1917SOL    HW117213   0.822   1.555   7.547 -0.1852  0.2535  0.7239
 1917SOL    HW217214   0.774   1.483   7.675 -0.7957  0.6205 -0.6887
 1918SOL     OW17215   3.645   0.319   2.215  0.3046 -0.5665 -0.3552
 1918SOL    HW117216   3.589   0.246   2.187 -0.4573 -1.0260  2.3242
 1918SOL    HW217217   3.719   0.306   2.156  0.2686  0.5181 -0.6374
 1919SOL     OW17218   0.792   0.874   1.471  0.1633 -0.4345  0.0583
 1919SOL    HW117219   0.733   0.945   1.496 -2.2021 -2.3442 -0.0411
 1919SOL    HW217220   0.783   0.817   1.547 -0.5359  0.2260  0.4695
 1920SOL     OW17221   1.740   3.617   0.705  0.1078 -0.7197  0.2716
 1920SOL    HW117222   1.725   3.532   0.747  0.5041 -0.3398  1.1915
 1920SOL    HW217223   1.830   3.636   0.731 -0.0582  1.2505 -0.5740
 1921SOL     OW17224   2.336   2.042   1.575 -0.3595  0.0936 -0.0702
 1921SOL    HW117225   2.344   1.994   1.657 -1.8673  1.0077  0.6267
 1921SOL    HW217226   2.406   2.104   1.595 -0.7739  1.0617 -1.5970
 1922SOL     OW17227   3.754   1.985   0.168  0.4570 -0.0284  0.1334
 1922SOL    HW117228   3.713   2.071   0.184 -0.1820 -0.8148  2.8295
 1922SOL    HW217229   3.835   2.002   0.121  0.6753  1.4117  1.0189
 1923SOL     OW17230   0.012   0.316   2.495  0.2938  1.0499 -0.1322
 1923SOL    HW117231   0.027   0.234   2.540  1.4597  0.9813 -0.6465
 1923SOL    HW217232   4.663   0.290   2.433 -0.1408 -0.0041  0.8003
 1924SOL     OW17233   3.289   2.185   6.354 -0.5315 -0.2692  0.2401
 1924SOL    HW117234   3.312   2.103   6.396 -1.6630 -1.4277 -1.4065
 1924SOL    HW217235   3.262   2.238   6.430  0.7180 -0.7795  1.0465
 1925SOL     OW17236   1.443   1.853   7.876  0.9819 -0.3924 -0.9495
 1925SOL    HW117237   1.455   1.888   7.788  1.1603  2.9344  0.4092
 1925SOL    HW217238   1.457   1.760   7.855  0.8265 -1.1320  2.2297
 1926SOL     OW17239   2.300   0.096   1.015  0.1138 -0.2359 -0.5524
 1926SOL    HW117240   2.241   0.083   1.088  0.9347  0.8228  0.3030
 1926SOL    HW217241   2.318   0.190   1.027  1.5008 -0.6066  0.2517
 1927SOL     OW17242   1.003   0.244   4.215  0.5858 -0.8986  0.3522
 1927SOL    HW117243   1.046   0.277   4.136  0.3311 -2.2208 -0.3384
 1927SOL    HW217244   0.914   0.270   4.192  1.2923  1.2007 -0.0655
 1928SOL     OW17245   4.315   0.779   2.297 -0.5310  0.2826  0.5935
 1928SOL    HW117246   4.351   0.739   2.217  0.1997 -2.3849  2.2440
 1928SOL    HW217247   4.332   0.697   2.343  1.5948  0.1009 -0.5199
 1929SOL     OW17248   3.891   0.271   2.051 -0.3958  0.2320  0.1861
 1929SOL    HW117249   3.926   0.359   2.038 -1.8662  0.5560 -1.5330
 1929SOL    HW217250   3.910   0.225   1.969 -0.4981 -1.5558  1.1666
 1930SOL     OW17251   4.441   3.055   8.785  0.1430 -0.1703 -0.3741
 1930SOL    HW117252   4.412   3.089   8.870 -0.6467 -0.1098 -0.6729
 1930SOL    HW217253   4.387   2.977   8.783  0.3686 -0.3380 -0.0134
 1931SOL     OW17254   0.516   1.194  12.197  0.2012 -0.1037 -0.1439
 1931SOL    HW117255   0.591   1.182  12.256  2.3658  0.7630 -2.7117
 1931SOL    HW217256   0.463   1.237  12.265  0.3985 -1.5846  0.9701
 1932SOL     OW17257   1.251   1.147  12.429  0.5087  0.5230  0.1350
 1932SOL    HW117258   1.342   1.119  12.434  0.6194  0.7605 -0.5169
 1932SOL    HW217259   1.204   1.066  12.411  1.5838  0.2470 -1.4545
 1933SOL     OW17260   0.421   2.909   5.184  0.4257 -0.1138 -0.5916
 1933SOL    HW117261   0.419   2.949   5.271  0.5574 -1.4786  0.0424
 1933SOL    HW217262   0.398   2.818   5.204 -3.7919  1.1408  0.2798
 1934SOL     OW17263   2.294   2.188   9.433 -0.2936 -0.1551  0.0348
 1934SOL    HW117264   2.241   2.204   9.511  0.1315 -0.4124  0.3773
 1934SOL    HW217265   2.278   2.269   9.384 -1.8393  0.9795  2.4141
 1935SOL     OW17266   4.106   3.804   3.140 -0.3568 -0.2697  0.7519
 1935SOL    HW117267   4.025   3.803   3.088  0.7905  0.2123 -1.0222
 1935SOL    HW217268   4.070   3.819   3.228 -1.6782  3.7993 -0.4815
 1936SOL     OW17269   3.935   1.424   2.553 -0.2071 -0.4377  0.2183
 1936SOL    HW117270   3.934   1.505   2.502  0.7164 -1.3761 -1.2824
 1936SOL    HW217271   4.027   1.401   2.539  0.5150  1.6115  1.5062
 1937SOL     OW17272   3.239   0.447   4.203 -0.0078  0.1803  0.0786
 1937SOL    HW117273   3.214   0.512   4.138 -3.7314 -1.2319  0.0733
 1937SOL    HW217274   3.334   0.452   4.197  0.1611 -1.2427  1.5002
 1938SOL     OW17275   3.167   0.160   2.450  0.6382  0.4699 -0.0228
 1938SOL    HW117276   3.092   0.183   2.505  1.5269  1.5945  0.7054
 1938SOL    HW217277   3.206   0.245   2.427  0.4221  1.5575  3.6662
 1939SOL     OW17278   0.315   1.229   1.028 -0.1829 -0.3624  0.3625
 1939SOL    HW117279   0.346   1.310   0.989 -1.0164 -0.4187 -0.4198
 1939SOL    HW217280   0.352   1.163   0.970  0.0298  0.5285 -0.5122
 1940SOL     OW17281   0.995   0.704   9.181 -0.0242 -0.0601  0.2172
 1940SOL    HW117282   1.011   0.612   9.160  0.3356 -0.0978  0.6621
 1940SOL    HW217283   1.042   0.748   9.110 -0.2452  2.2233  1.5009
 1941SOL     OW17284   3.045   2.948   4.517  0.0509  0.4140 -0.0591
 1941SOL    HW117285   3.111   2.886   4.547  0.4759 -0.9603 -3.8951
 1941SOL    HW217286   3.075   2.953   4.427 -0.9375  1.2959 -0.3364
 1942SOL     OW17287   2.456   2.010   4.422  0.1996 -0.0789  0.4426
 1942SOL    HW117288   2.467   1.921   4.388 -1.5929  1.1088 -3.2729
 1942SOL    HW217289   2.411   2.047   4.346  0.3711 -1.0043 -0.1099
 1943SOL     OW17290   0.398   2.720   3.178  0.3074  0.2112 -0.8816
 1943SOL    HW117291   0.396   2.645   3.238  1.2211  0.5327 -0.4667
 1943SOL    HW217292   0.305   2.741   3.167  0.3881  1.3124  0.6422
 1944SOL     OW17293   1.967   3.911  15.237 -0.2450 -0.1583  0.3581
 1944SOL    HW117294   1.885   3.867  15.216 -0.3411  0.4238 -0.4791
 1944SOL    HW217295   1.928   3.998  15.243 -1.0552 -0.3630 -2.0364
 1945SOL     OW17296   3.278   1.388   9.285  0.2028  0.1526 -0.1252
 1945SOL    HW117297   3.296   1.482   9.285 -3.1497  0.7751 -1.4281
 1945SOL    HW217298   3.214   1.376   9.356 -0.1943  2.3249 -0.1178
 1946SOL     OW17299   1.512   4.421   3.149  0.1578 -0.3667 -0.1454
 1946SOL    HW117300   1.603   4.389   3.149 -0.4056 -1.9707  1.0804
 1946SOL    HW217301   1.482   4.371   3.225  1.8157 -0.2892  0.5597
 1947SOL     OW17302   3.416   0.416   3.420 -0.7205 -0.1471 -0.2141
 1947SOL    HW117303   3.331   0.458   3.436 -0.1740  0.9243 -0.1283
 1947SOL    HW217304   3.396   0.324   3.438 -0.3712  0.2183  2.0201
 1948SOL     OW17305   3.296   2.339   1.075 -0.3983 -0.6956 -0.3468
 1948SOL    HW117306   3.338   2.333   0.989  0.0079 -2.3359 -0.0207
 1948SOL    HW217307   3.204   2.336   1.048 -0.8701  0.5677  1.0827
 1949SOL     OW17308   0.103   2.007  14.999  0.0652  0.2187 -0.1783
 1949SOL    HW117309   0.144   2.038  15.080  1.5100  1.6173 -1.4333
 1949SOL    HW217310   0.046   1.939  15.033  0.7128  1.0087  2.4943
 1950SOL     OW17311   3.789   1.482  16.649  0.3330  0.2751 -0.2293
 1950SOL    HW117312   3.697   1.490  16.677 -0.0205 -1.7249 -0.7966
 1950SOL    HW217313   3.789   1.400  16.600  1.5311  0.3725 -0.3956
 1951SOL     OW17314   1.961   2.107   8.683  0.6343 -0.4871 -0.9204
 1951SOL    HW117315   1.896   2.139   8.621 -1.3119 -1.4891  0.6121
 1951SOL    HW217316   1.982   2.186   8.733  0.6129 -3.1639  3.3137
 1952SOL     OW17317   2.091   4.110  15.689 -0.0509 -0.2861 -0.3997
 1952SOL    HW117318   2.036   4.051  15.741 -0.4705 -1.7765 -2.5638
 1952SOL    HW217319   2.110   4.063  15.609  1.9178 -0.6356  0.2870
 1953SOL     OW17320   2.017   4.241   7.611 -0.2430  0.7205  0.6269
 1953SOL    HW117321   1.962   4.171   7.648  0.8706 -1.1515 -1.2600
 1953SOL    HW217322   2.082   4.240   7.682  1.2710 -1.1125 -0.7715
 1954SOL     OW17323   1.650   3.551  16.273 -0.1579 -0.2575 -0.1380
 1954SOL    HW117324   1.562   3.589  16.265 -0.0994 -1.0315 -4.3876
 1954SOL    HW217325   1.634   3.483  16.338  2.4368  0.3741  1.1564
 1955SOL     OW17326   1.204   3.759   0.757 -0.2617  0.2115  0.4610
 1955SOL    HW117327   1.207   3.846   0.717  0.4870  0.5404  1.2289
 1955SOL    HW217328   1.262   3.704   0.703 -1.0415 -0.8493  0.7072
 1956SOL     OW17329   2.978   1.937  13.389  0.1755 -0.1507  0.7298
 1956SOL    HW117330   2.960   1.898  13.475  0.9024 -0.4865  0.7299
 1956SOL    HW217331   2.926   2.017  13.380 -1.2355 -1.0668  0.6049
 1957SOL     OW17332   2.660   0.587  12.417  0.4368 -0.3345 -0.2787
 1957SOL    HW117333   2.678   0.499  12.450 -0.7633 -0.3028  0.4577
 1957SOL    HW217334   2.568   0.576  12.396  0.8607 -1.7769 -1.3207
 1958SOL     OW17335   3.035   2.475  12.769  0.3173  0.0732 -0.5803
 1958SOL    HW117336   3.086   2.548  12.735  0.8560 -0.7774 -1.6214
 1958SOL    HW217337   2.988   2.438  12.693 -1.7439 -0.4076  0.9309
 1959SOL     OW17338   4.275   3.235   4.064  0.8648  0.0041 -0.1362
 1959SOL    HW117339   4.182   3.232   4.084  0.7367  2.1089 -0.3790
 1959SOL    HW217340   4.277   3.330   4.053  1.6946 -0.0620 -0.5355
 1960SOL     OW17341   0.756   1.287   6.593  0.4071 -0.3141  0.0779
 1960SOL    HW117342   0.716   1.360   6.639  0.0958 -1.3515  1.4627
 1960SOL    HW217343   0.831   1.339   6.564  0.6834 -0.7128  0.0778
 1961SOL     OW17344   1.502   2.172   0.567 -0.5926  0.3499  0.1618
 1961SOL    HW117345   1.470   2.240   0.508 -0.3178 -0.2166 -0.6425
 1961SOL    HW217346   1.578   2.147   0.514 -0.9324  2.9847 -1.5602
 1962SOL     OW17347   2.750   1.612   3.310  0.2241  0.3899  0.4665
 1962SOL    HW117348   2.779   1.545   3.372  0.3617 -1.3438 -1.4631
 1962SOL    HW217349   2.715   1.673   3.375 -2.2296 -0.0847 -0.4289
 1963SOL     OW17350   0.423   1.137  15.775  0.2795  0.3637  0.0784
 1963SOL    HW117351   0.421   1.147  15.870 -1.3722  0.0368  0.0830
 1963SOL    HW217352   0.393   1.222  15.743  0.0173  0.8765  1.7075
 1964SOL     OW17353   3.779   0.489   4.214 -0.2565  0.4305  0.1015
 1964SOL    HW117354   3.852   0.449   4.262  0.0168 -1.6817 -2.1127
 1964SOL    HW217355   3.800   0.459   4.126  1.2236  1.5657  0.0517
 1965SOL     OW17356   2.305   0.656  14.018  0.1132 -0.3718 -0.4656
 1965SOL    HW117357   2.259   0.702  13.948 -1.4940  0.0329  0.8750
 1965SOL    HW217358   2.279   0.704  14.097  1.5849 -0.8333  0.2924
 1966SOL     OW17359   0.880   3.029   0.586  0.5590  0.2436  0.2477
 1966SOL    HW117360   0.910   3.109   0.631  3.2748  0.6195 -2.1990
 1966SOL    HW217361   0.839   2.983   0.659 -1.6657 -1.0254 -1.8361
 1967SOL     OW17362   1.328   0.473  16.559  0.2918  0.1045 -0.0078
 1967SOL    HW117363   1.256   0.522  16.598 -0.4793 -1.6564  0.7389
 1967SOL    HW217364   1.355   0.429  16.640  1.9012  0.7868 -0.1699
 1968SOL     OW17365   1.521   3.887  15.005  0.0612  0.0218 -0.0851
 1968SOL    HW117366   1.436   3.861  14.968 -1.2905  2.9589  1.0082
 1968SOL    HW217367   1.555   3.933  14.929 -0.6117  0.0248 -0.3875
 1969SOL     OW17368   0.532   2.964   4.505  0.1873  0.2782 -0.1795
 1969SOL    HW117369   0.472   3.001   4.440  1.3619  0.2397 -1.2899
 1969SOL    HW217370   0.468   2.948   4.574  0.2227 -0.7248 -0.3722
 1970SOL     OW17371   0.822   0.168   1.166 -0.7145 -0.4642  0.2986
 1970SOL    HW117372   0.804   0.191   1.257  1.0749  1.3662  0.2060
 1970SOL    HW217373   0.801   0.075   1.176  0.7110 -1.2717 -4.0885
 1971SOL     OW17374   3.093   1.723   6.947 -0.1856 -0.2929  0.1918
 1971SOL    HW117375   3.097   1.778   6.869 -0.8562  0.7999  0.9285
 1971SOL    HW217376   3.002   1.698   6.935  0.1201 -0.5253 -1.6592
 1972SOL     OW17377   1.309   1.473  17.507  0.0593  0.4463  0.0679
 1972SOL    HW117378   1.220   1.447  17.482  0.7735 -1.0131 -0.9550
 1972SOL    HW217379   1.361   1.414  17.453 -0.0130  0.3019  0.1563
 1973SOL     OW17380   2.037   1.508   5.531  0.5722  0.5011  0.0960
 1973SOL    HW117381   2.128   1.485   5.514  0.4366  0.2776 -0.3132
 1973SOL    HW217382   2.046   1.506   5.627 -1.1483  2.1327  0.2959
 1974SOL     OW17383   3.135   2.405  12.492 -0.3126  0.1129  0.0240
 1974SOL    HW117384   3.192   2.482  12.490 -2.3337  1.7094  3.2939
 1974SOL    HW217385   3.054   2.456  12.491  0.6738  1.7009  1.1764
 1975SOL     OW17386   0.866   4.687   4.002  0.2250 -0.1413 -0.2904
 1975SOL    HW117387   0.832   4.623   3.940 -1.4217  1.8195 -1.4380
 1975SOL    HW217388   0.959   4.666   4.010  0.2150  0.7743  2.3115
 1976SOL     OW17389   1.784   0.154  11.167  0.5550  0.1171  0.3065
 1976SOL    HW117390   1.843   0.084  11.138  1.3971  1.1157 -0.4039
 1976SOL    HW217391   1.746   0.115  11.245 -3.3644 -0.8911 -2.0649
 1977SOL     OW17392   4.017   2.137   5.790 -0.5507 -0.1947 -0.6678
 1977SOL    HW117393   4.066   2.170   5.865  2.2830 -0.4809 -2.3790
 1977SOL    HW217394   4.039   2.043   5.795 -1.1122 -0.2607  0.4230
 1978SOL     OW17395   3.693   0.839   6.292  0.3052  0.0323  0.3783
 1978SOL    HW117396   3.621   0.830   6.355 -0.7035  1.3315 -0.5988
 1978SOL    HW217397   3.734   0.922   6.315  0.4549  0.2715 -0.7464
 1979SOL     OW17398   0.221   1.990  11.840 -0.2316  0.4442  0.6112
 1979SOL    HW117399   0.248   1.914  11.892  0.4177  0.6248  0.5339
 1979SOL    HW217400   0.197   1.942  11.760 -2.6205 -0.3172  1.7936
 1980SOL     OW17401   0.176   2.944   7.147  0.7062 -0.1485 -0.4296
 1980SOL    HW117402   0.106   2.955   7.211 -1.0211  1.5384 -2.6260
 1980SOL    HW217403   0.255   2.925   7.198 -0.3494 -2.4066  0.3449
 1981SOL     OW17404   0.020   2.491   8.711 -0.2066  0.0217  0.7126
 1981SOL    HW117405   0.041   2.416   8.767 -0.8302 -1.7818 -1.4643
 1981SOL    HW217406   0.051   2.563   8.767  1.1329 -1.0456  1.3486
 1982SOL     OW17407   2.274   0.571   5.705  0.5067 -0.0285  0.1206
 1982SOL    HW117408   2.237   0.483   5.699  0.7003 -0.0418 -0.8429
 1982SOL    HW217409   2.343   0.562   5.640  2.1192 -1.0947  2.0017
 1983SOL     OW17410   1.311   2.595   8.243  0.0825  0.4854 -0.4015
 1983SOL    HW117411   1.377   2.629   8.304 -0.3945 -2.3357  1.6950
 1983SOL    HW217412   1.244   2.576   8.310  0.7478  0.5116  0.2715
 1984SOL     OW17413   1.254   0.015   1.425 -0.7461 -0.0451  0.6343
 1984SOL    HW117414   1.197   0.085   1.393  0.3739 -0.6377 -2.6558
 1984SOL    HW217415   1.198   4.713   1.499 -1.9351 -1.2680 -0.6250
 1985SOL     OW17416   0.117   1.537   6.905  0.2096 -0.8535 -0.2250
 1985SOL    HW117417   0.158   1.532   6.819 -0.6926  0.0353 -0.7175
 1985SOL    HW217418   0.127   1.452   6.948 -1.7882 -0.4195  1.1462
 1986SOL     OW17419   4.018   3.470   2.634 -0.2235  0.0111 -0.5952
 1986SOL    HW117420   4.111   3.464   2.614  0.0452 -2.1354  1.2801
 1986SOL    HW217421   3.986   3.397   2.581  0.1634 -0.9891  0.5343
 1987SOL     OW17422   0.244   1.391   0.528 -0.0818 -0.3897 -0.2754
 1987SOL    HW117423   0.152   1.363   0.525 -0.0202 -0.3941 -2.0961
 1987SOL    HW217424   0.253   1.430   0.615 -0.1386  2.1510 -1.4328
 1988SOL     OW17425   4.189   0.538   7.437 -0.4839  0.1783 -0.2840
 1988SOL    HW117426   4.131   0.590   7.493 -0.2186  0.0281  0.1342
 1988SOL    HW217427   4.267   0.593   7.428  0.5170 -0.8720  1.9131
 1989SOL     OW17428   1.722   2.517   2.995  0.1048 -0.4697  0.1850
 1989SOL    HW117429   1.806   2.557   2.970 -1.3931  1.7795 -1.2825
 1989SOL    HW217430   1.658   2.587   2.979  0.9255 -0.1936 -1.9363
 1990SOL     OW17431   3.687   2.410   2.552 -0.2793 -1.0266 -0.4096
 1990SOL    HW117432   3.709   2.331   2.502  0.0173 -0.3303 -1.3881
 1990SOL    HW217433   3.639   2.361   2.618 -0.9867  1.7223  1.0858
 1991SOL     OW17434   2.321   2.737   2.785  0.0831  0.2929  0.2070
 1991SOL    HW117435   2.408   2.776   2.786  1.0920 -1.9522 -0.3209
 1991SOL    HW217436   2.276   2.778   2.859  0.6459  0.8701  0.2270
 1992SOL     OW17437   0.340   3.287  12.338 -0.0355 -0.6451  0.3373
 1992SOL    HW117438   0.386   3.370  12.322  0.1511 -1.0755 -1.2888
 1992SOL    HW217439   0.400   3.248  12.402  0.4675  0.0917  0.3089
 1993SOL     OW17440   4.695   1.874   2.878 -0.3093  0.0348 -0.1245
 1993SOL    HW117441   4.616   1.895   2.928  0.6489 -0.3098  1.5495
 1993SOL    HW217442   4.697   1.780   2.861 -0.0430 -0.3804  2.0776
 1994SOL     OW17443   1.273   4.402   1.499 -0.5106  0.0543 -0.2992
 1994SOL    HW117444   1.270   4.426   1.592  1.0166 -1.1380  0.0642
 1994SOL    HW217445   1.359   4.440   1.479 -0.3422 -0.7657 -1.1477
 1995SOL     OW17446   1.320   0.855  12.103  0.1813 -0.4601  0.0122
 1995SOL    HW117447   1.257   0.896  12.163 -0.7768 -1.7989 -0.0917
 1995SOL    HW217448   1.325   0.766  12.137 -1.0139 -1.2477 -1.8579
 1996SOL     OW17449   3.183   0.570   3.473 -0.1350 -0.1385  0.0263
 1996SOL    HW117450   3.161   0.644   3.528 -1.2501 -0.6122  0.2221
 1996SOL    HW217451   3.104   0.565   3.419 -0.9119 -0.5948  1.2031
 1997SOL     OW17452   3.552   0.781   2.957 -0.0864  0.5233  0.2672
 1997SOL    HW117453   3.580   0.816   3.042  0.5443  1.1078 -0.1788
 1997SOL    HW217454   3.629   0.726   2.941 -1.0109 -0.3178 -1.2681
 1998SOL     OW17455   2.854   4.392   3.906  0.7925 -0.7325  0.0913
 1998SOL    HW117456   2.815   4.477   3.927 -1.8528 -1.3273 -2.3879
 1998SOL    HW217457   2.945   4.418   3.895  0.1603  0.3411 -2.7660
 1999SOL     OW17458   0.614   1.462   5.227 -0.1094 -0.4387  0.6368
 1999SOL    HW117459   0.671   1.494   5.157  1.1761  0.2860  2.0099
 1999SOL    HW217460   0.631   1.520   5.302  0.8430  0.2484 -0.1106
 2000SOL     OW17461   4.139   2.698   9.690  0.0414  0.1706  0.4330
 2000SOL    HW117462   4.178   2.757   9.755  2.2264 -0.9822  0.1733
 2000SOL    HW217463   4.066   2.671   9.745  1.1660 -1.4662  1.1403
 2001SOL     OW17464   1.238   3.124   6.198  0.0067  0.4948 -0.3802
 2001SOL    HW117465   1.266   3.215   6.206  0.1196  0.4950 -0.7588
 2001SOL    HW217466   1.245   3.088   6.286 -0.5652  0.6946 -0.2508
 2002SOL     OW17467   4.486   2.506   5.966 -0.7800 -0.1450 -0.1475
 2002SOL    HW117468   4.462   2.598   5.968 -2.0433 -0.4855  0.4650
 2002SOL    HW217469   4.412   2.459   6.004 -1.2882 -0.9565 -2.1781
 2003SOL     OW17470   0.200   3.120   5.851  0.0210  0.2488 -0.0775
 2003SOL    HW117471   0.108   3.097   5.848  0.1472 -0.2247 -0.2748
 2003SOL    HW217472   0.218   3.122   5.945  1.2291  0.8696 -0.3204
 2004SOL     OW17473   1.615   0.294  15.055  0.4845 -0.2660  0.3056
 2004SOL    HW117474   1.595   0.381  15.090 -1.5605  0.2386 -2.1264
 2004SOL    HW217475   1.554   0.297  14.981 -0.6468 -1.4240  1.1840
 2005SOL     OW17476   0.248   3.363  12.691 -0.1512  0.7508  0.3764
 2005SOL    HW117477   0.267   3.270  12.681  2.3102  1.3099 -0.1009
 2005SOL    HW217478   0.203   3.380  12.608 -0.3626  0.3171  0.4021
 2006SOL     OW17479   4.039   3.563   4.887  0.0224  0.9912 -0.0380
 2006SOL    HW117480   4.069   3.653   4.902  0.9192  0.9196 -1.3571
 2006SOL    HW217481   3.952   3.558   4.927  0.3459 -2.0863  0.2712
 2007SOL     OW17482   3.183   0.145   5.785  0.2337  0.5163 -0.2319
 2007SOL    HW117483   3.162   0.213   5.849  1.9146  0.1521  0.7039
 2007SOL    HW217484   3.266   0.111   5.819  0.6840  1.8909  0.0343
 2008SOL     OW17485   0.948   3.167   5.407  1.0372 -0.1776 -0.5397
 2008SOL    HW117486   0.912   3.092   5.455  1.6799 -0.1730 -0.0509
 2008SOL    HW217487   0.870   3.199   5.363  0.1429 -1.2874  0.2290
 2009SOL     OW17488   0.110   0.478   6.099 -0.0821 -0.1136 -0.7874
 2009SOL    HW117489   0.145   0.524   6.175  0.6151 -0.7949 -0.6940
 2009SOL    HW217490   0.171   0.506   6.030 -0.5910  2.1904 -0.2893
 2010SOL     OW17491   3.009   4.263   7.111 -0.1401 -0.2204 -0.1236
 2010SOL    HW117492   3.002   4.170   7.089  1.2535 -0.0602 -1.2492
 2010SOL    HW217493   2.956   4.304   7.044 -0.1912  2.5133  1.5771
 2011SOL     OW17494   2.973   4.222   8.069 -0.3532  0.7393 -0.1983
 2011SOL    HW117495   2.893   4.239   8.020  0.1027  0.3262 -1.0931
 2011SOL    HW217496   2.997   4.137   8.031 -1.3178 -0.2802  1.4243
 2012SOL     OW17497   0.766   0.665   0.742  0.3899  0.8736 -0.4489
 2012SOL    HW117498   0.710   0.739   0.763  0.7440  1.0269 -0.0603
 2012SOL    HW217499   0.765   0.671   0.646  0.6184 -1.7936 -0.6376
 2013SOL     OW17500   1.372   1.517   0.790  0.8143  0.0142 -0.1441
 2013SOL    HW117501   1.379   1.495   0.697 -1.3469 -1.2467 -0.0062
 2013SOL    HW217502   1.337   1.606   0.785 -0.0639 -0.4211 -1.7023
 2014SOL     OW17503   0.159   0.723  16.679  0.9632 -0.1931  0.1815
 2014SOL    HW117504   0.153   0.793  16.745  2.8641  0.0591  0.0866
 2014SOL    HW217505   0.069   0.691  16.680  0.2910  1.6318 -2.2089
 2015SOL     OW17506   2.750   2.475   0.243 -0.0722  0.2500 -0.4890
 2015SOL    HW117507   2.784   2.412   0.179  0.7344  0.6422 -0.4403
 2015SOL    HW217508   2.796   2.554   0.216  0.8138  0.3222  1.2579
 2016SOL     OW17509   1.747   0.690   0.904  0.9459 -0.3260 -0.7614
 2016SOL    HW117510   1.703   0.698   0.820  0.1681 -0.4277 -0.3629
 2016SOL    HW217511   1.758   0.596   0.920 -0.3057  0.1293  2.8576
 2017SOL     OW17512   1.369   3.142   8.856 -0.6891  0.3721 -0.5291
 2017SOL    HW117513   1.387   3.227   8.898 -0.8966  0.3211 -0.3380
 2017SOL    HW217514   1.437   3.149   8.789  0.9225  0.6118  1.1299
 2018SOL     OW17515   4.374   0.313  14.460  0.1828  1.1618  0.2277
 2018SOL    HW117516   4.379   0.301  14.365  1.1917  2.7798  0.0797
 2018SOL    HW217517   4.464   0.340  14.478  1.0826 -2.1336  0.6849
 2019SOL     OW17518   4.272   3.030   2.586 -0.4779  0.5555  0.0188
 2019SOL    HW117519   4.193   3.048   2.535 -1.6609 -0.8718  1.3466
 2019SOL    HW217520   4.272   3.104   2.647 -0.0960 -1.2829  2.2513
 2020SOL     OW17521   1.569   2.557   6.711  0.2228  0.6139 -0.4989
 2020SOL    HW117522   1.532   2.640   6.740  0.3425  0.1973  0.8801
 2020SOL    HW217523   1.650   2.536   6.759 -0.3587 -1.9639 -0.6257
 2021SOL     OW17524   1.763   0.406   0.965  0.2598 -0.4174  0.0422
 2021SOL    HW117525   1.844   0.374   1.004 -0.1614 -1.0319  0.4040
 2021SOL    HW217526   1.759   0.336   0.899 -2.2880  0.2437 -0.5237
 2022SOL     OW17527   2.064   2.608   5.580  0.1646  0.2177 -0.3564
 2022SOL    HW117528   2.089   2.522   5.549 -1.3098 -0.5512  0.5425
 2022SOL    HW217529   2.133   2.666   5.549  1.2817 -1.6145 -1.2431
 2023SOL     OW17530   2.545   3.652  15.231 -0.3261 -0.2549 -0.4311
 2023SOL    HW117531   2.517   3.668  15.141  0.7358 -1.0544 -0.9040
 2023SOL    HW217532   2.622   3.709  15.235  0.2137 -1.0310  0.2417
 2024SOL     OW17533   2.964   3.125   9.159 -0.5260 -0.1928 -0.6777
 2024SOL    HW117534   3.036   3.079   9.116  0.6175 -0.4994  1.5730
 2024SOL    HW217535   2.950   3.056   9.224 -0.1503 -0.3816 -0.8030
 2025SOL     OW17536   4.458   3.651  14.295 -0.0309 -0.4636 -0.0143
 2025SOL    HW117537   4.506   3.705  14.232 -0.9070  1.2289  0.7560
 2025SOL    HW217538   4.445   3.718  14.362 -1.5372  0.2533 -1.0205
 2026SOL     OW17539   3.895   3.913   9.156  0.1173 -0.7467  0.3470
 2026SOL    HW117540   3.839   3.836   9.156 -0.2650 -0.4697  0.0930
 2026SOL    HW217541   3.939   3.901   9.071 -0.6818 -0.3660 -0.1224
 2027SOL     OW17542   0.379   3.184  10.038 -0.2449 -0.0080 -0.5268
 2027SOL    HW117543   0.360   3.113  10.099 -0.3691  1.1768  0.8145
 2027SOL    HW217544   0.288   3.206  10.021  0.3654  2.0300 -1.0768
 2028SOL     OW17545   3.810   0.646   2.904  0.4194  0.3473 -0.0752
 2028SOL    HW117546   3.880   0.704   2.874 -0.4627 -0.3098 -3.4007
 2028SOL    HW217547   3.764   0.637   2.820  0.9179 -0.0512 -0.3052
 2029SOL     OW17548   0.010   4.644  14.992  0.4348  0.5881 -0.1465
 2029SOL    HW117549   0.101   4.658  15.018  0.5624  0.5281 -0.5618
 2029SOL    HW217550   0.003   4.625  14.899 -1.6215 -0.5577  0.2474
 2030SOL     OW17551   4.044   0.892   1.763  0.1561 -0.3277 -0.6394
 2030SOL    HW117552   4.127   0.900   1.811 -0.5111 -0.8993  0.6141
 2030SOL    HW217553   4.059   0.939   1.681  2.1512 -1.9312 -1.2195
 2031SOL     OW17554   2.415   2.704  11.787  0.3436 -0.2191 -0.0315
 2031SOL    HW117555   2.435   2.693  11.694  0.2511 -0.5022 -0.0178
 2031SOL    HW217556   2.441   2.795  11.800  0.8206 -0.5291  1.1875
 2032SOL     OW17557   2.896   4.567   9.850 -0.0770 -0.3815 -0.0696
 2032SOL    HW117558   2.904   4.492   9.791 -0.9776  1.6217 -2.7299
 2032SOL    HW217559   2.820   4.608   9.809  0.8728 -0.2181 -1.6880
 2033SOL     OW17560   2.986   2.570   9.257  0.0983  0.2408 -1.0792
 2033SOL    HW117561   3.029   2.608   9.333 -0.4050  1.2614 -1.3001
 2033SOL    HW217562   2.961   2.638   9.194 -1.2292 -0.4382 -1.2849
 2034SOL     OW17563   4.344   0.182   5.268 -0.4651 -0.1623 -0.3857
 2034SOL    HW117564   4.294   0.193   5.187 -2.6775 -0.6702  0.8979
 2034SOL    HW217565   4.384   0.269   5.269 -2.3472  0.7121 -1.1626
 2035SOL     OW17566   0.107   2.864   6.430 -0.1308  0.9206  0.4643
 2035SOL    HW117567   0.193   2.889   6.463  0.1508  0.4881  0.0606
 2035SOL    HW217568   0.131   2.778   6.395 -3.2528  0.9404 -1.7923
 2036SOL     OW17569   3.596   0.414   2.471  0.3675 -0.2489  0.3505
 2036SOL    HW117570   3.629   0.383   2.387 -3.1387 -1.0628 -0.7411
 2036SOL    HW217571   3.563   0.327   2.492 -0.2299 -0.0885  0.0731
 2037SOL     OW17572   3.081   2.060   5.215  0.3401 -0.3868 -0.7748
 2037SOL    HW117573   3.075   2.071   5.310 -0.3716 -0.3391 -0.8220
 2037SOL    HW217574   3.174   2.076   5.199  0.6281  0.4971  1.7413
 2038SOL     OW17575   1.596   1.346   2.234 -0.3023 -0.1445 -0.1730
 2038SOL    HW117576   1.526   1.288   2.203  0.9600 -1.4288 -0.6407
 2038SOL    HW217577   1.544   1.408   2.286 -1.4172 -1.5503  0.3932
 2039SOL     OW17578   1.241   2.235   8.386 -0.1962 -0.7493 -0.7635
 2039SOL    HW117579   1.231   2.151   8.431 -1.5227  0.6496  1.5203
 2039SOL    HW217580   1.166   2.231   8.327  0.7124  0.1157 -1.9683
 2040SOL     OW17581   0.917   3.894   4.089 -0.4667  0.1854 -0.0312
 2040SOL    HW117582   0.834   3.942   4.086  0.6693  2.0094 -2.1983
 2040SOL    HW217583   0.929   3.868   3.998  1.2083 -1.3715  0.6417
 2041SOL     OW17584   3.855   1.117   5.299 -0.2015  0.2260 -0.1635
 2041SOL    HW117585   3.852   1.075   5.385  1.2889  0.4425 -0.0083
 2041SOL    HW217586   3.907   1.050   5.256 -2.3977 -1.4566 -0.1623
 2042SOL     OW17587   0.974   1.052   8.280 -0.2303  0.0035  0.0509
 2042SOL    HW117588   0.921   1.080   8.205  2.1117  2.4997 -0.6755
 2042SOL    HW217589   1.046   1.002   8.242  1.3117  1.9767  0.3525
 2043SOL     OW17590   2.421   3.792  13.631 -0.0658  0.3344  0.5697
 2043SOL    HW117591   2.509   3.827  13.645  0.8478 -1.4042 -0.7553
 2043SOL    HW217592   2.433   3.704  13.667  0.9859  0.2924  0.1324
 2044SOL     OW17593   4.425   4.136  13.688  0.2004  0.0143  0.0918
 2044SOL    HW117594   4.427   4.225  13.722  0.7569  0.8985 -2.2406
 2044SOL    HW217595   4.413   4.088  13.770  4.0317 -1.5558 -0.2506
 2045SOL     OW17596   3.759   4.646   6.414 -0.0347 -0.0033 -0.0060
 2045SOL    HW117597   3.687   4.647   6.350  1.2561  1.5566 -1.4692
 2045SOL    HW217598   3.816   4.573   6.389 -0.0997  0.0038 -0.1799
 2046SOL     OW17599   0.395   3.154   7.180  0.0631 -0.3996 -0.6932
 2046SOL    HW117600   0.302   3.129   7.175 -0.5198  1.1871  2.2166
 2046SOL    HW217601   0.374   3.230   7.234 -0.0228  0.5383 -2.0516
 2047SOL     OW17602   2.004   0.905   8.523 -0.3121  0.0496  0.0248
 2047SOL    HW117603   1.938   0.974   8.514 -0.9536 -0.3397  1.6697
 2047SOL    HW217604   2.038   0.923   8.610 -2.5220  0.2263  0.8528
 2048SOL     OW17605   2.278   1.538   5.197  0.1378  0.0623  0.8264
 2048SOL    HW117606   2.361   1.529   5.243  0.6612  0.1241 -0.1068
 2048SOL    HW217607   2.298   1.623   5.159  0.2918  0.2483  1.3263
 2049SOL     OW17608   4.320   1.178  14.459  0.5709  0.1882 -0.0803
 2049SOL    HW117609   4.407   1.143  14.441  0.7571  1.1167 -1.0041
 2049SOL    HW217610   4.314   1.175  14.555 -5.6571  1.2895 -0.4617
 2050SOL     OW17611   2.399   3.460   1.773 -0.6167  0.0236 -0.0492
 2050SOL    HW117612   2.392   3.540   1.825 -1.6351  2.4747 -3.9314
 2050SOL    HW217613   2.433   3.498   1.692  1.2833 -0.6363  0.4312
 2051SOL     OW17614   2.294   2.171   3.395  0.2156 -0.1303 -1.0221
 2051SOL    HW117615   2.292   2.078   3.416  0.9174  0.1761  0.4513
 2051SOL    HW217616   2.215   2.176   3.341 -2.2242 -0.8569  2.4360
 2052SOL     OW17617   3.737   1.945   6.017 -0.0884  0.1495 -0.5856
 2052SOL    HW117618   3.726   2.029   5.971 -0.5667  0.0882 -0.5872
 2052SOL    HW217619   3.744   1.973   6.108 -0.3051 -0.0549 -0.5049
 2053SOL     OW17620   0.134   1.707   4.456  0.1692  0.0795  0.2120
 2053SOL    HW117621   0.087   1.750   4.384 -0.1306  0.6390  0.7474
 2053SOL    HW217622   0.196   1.780   4.459 -1.6271  1.6100 -0.1630
 2054SOL     OW17623   4.175   4.197   5.745 -0.7422  0.1352  0.3061
 2054SOL    HW117624   4.168   4.275   5.801  1.0874 -0.0997  0.8779
 2054SOL    HW217625   4.087   4.165   5.762 -0.4687 -1.0072 -0.4325
 2055SOL     OW17626   3.905   3.964  12.518  0.3594 -0.0406  0.0028
 2055SOL    HW117627   3.888   4.058  12.523 -0.6416 -0.2442  0.4295
 2055SOL    HW217628   3.816   3.930  12.521  0.3249  0.0848  0.3907
 2056SOL     OW17629   0.812   2.554   4.911  0.5058  0.4419 -0.4894
 2056SOL    HW117630   0.787   2.644   4.888 -1.4257  0.2167  0.7813
 2056SOL    HW217631   0.726   2.515   4.923  0.7688  0.2379  0.6905
 2057SOL     OW17632   2.510   2.457   9.066 -0.0163  0.0234  0.0092
 2057SOL    HW117633   2.463   2.374   9.057 -1.4140  1.2481 -3.6399
 2057SOL    HW217634   2.592   2.427   9.107 -2.0948 -3.6955  1.4962
 2058SOL     OW17635   3.370   2.278  16.987  0.2569  0.6204 -0.7565
 2058SOL    HW117636   3.306   2.322  16.931 -2.0430 -2.2225 -0.3774
 2058SOL    HW217637   3.392   2.195  16.943  0.9896  0.8454 -0.8027
 2059SOL     OW17638   0.982   2.769  10.069 -0.4218  0.2040  0.1740
 2059SOL    HW117639   1.013   2.726  10.148  0.7650  2.1619  0.7721
 2059SOL    HW217640   1.064   2.782  10.021 -1.1517  0.4894 -0.9958
 2060SOL     OW17641   1.866   3.952  12.745  0.0988  0.5311  0.2608
 2060SOL    HW117642   1.936   3.925  12.804 -1.2125 -0.0918  1.5113
 2060SOL    HW217643   1.887   4.043  12.725 -2.4293  0.6461 -1.8484
 2061SOL     OW17644   4.373   2.042  14.047 -1.0567 -0.2152 -0.1609
 2061SOL    HW117645   4.338   1.963  14.006  1.5497 -0.8698 -1.1233
 2061SOL    HW217646   4.374   2.110  13.979 -0.5965 -0.0934 -0.0381
 2062SOL     OW17647   3.116   2.640   7.762  0.4242 -0.7578  0.0012
 2062SOL    HW117648   3.162   2.711   7.809  0.2452 -1.5218  1.3454
 2062SOL    HW217649   3.044   2.629   7.825 -1.4392  1.9224 -1.6731
 2063SOL     OW17650   2.017   0.320   2.067 -0.3833 -0.0914 -0.4089
 2063SOL    HW117651   1.947   0.299   2.129 -0.6695  2.0226 -0.0227
 2063SOL    HW217652   2.097   0.294   2.114  0.9237 -0.3397 -2.7706
 2064SOL     OW17653   0.691   0.752  14.195  0.3930 -0.3094 -0.2809
 2064SOL    HW117654   0.768   0.788  14.239 -0.7836  1.9340 -0.0710
 2064SOL    HW217655   0.736   0.686  14.141  0.3149  0.0312 -0.7709
 2065SOL     OW17656   2.030   3.516   4.270 -0.3644  0.2815 -0.0669
 2065SOL    HW117657   2.062   3.600   4.303 -2.5507  0.6115  1.1890
 2065SOL    HW217658   2.103   3.459   4.294  0.9137  1.2489 -1.6904
 2066SOL     OW17659   1.103   1.871   5.203  0.8148 -0.3119 -0.0092
 2066SOL    HW117660   1.071   1.926   5.130 -0.8210  0.7535  1.4956
 2066SOL    HW217661   1.021   1.825   5.220  0.8617 -0.6645 -0.7558
 2067SOL     OW17662   3.115   3.915   8.440  0.3416  0.7405  0.3703
 2067SOL    HW117663   3.086   4.000   8.406  0.7997 -0.5309 -3.1399
 2067SOL    HW217664   3.073   3.921   8.526  0.6148 -3.4754  0.7664
 2068SOL     OW17665   3.521   0.096   8.023  0.2336 -0.2658 -0.0789
 2068SOL    HW117666   3.558   0.014   7.992  2.2078  0.5980 -0.0274
 2068SOL    HW217667   3.603   0.146   8.023 -1.0572  1.8878 -1.1664
 2069SOL     OW17668   0.176   3.144  10.874 -0.2813 -0.0647 -0.1304
 2069SOL    HW117669   0.138   3.073  10.925  0.6748 -0.9163 -0.6196
 2069SOL    HW217670   0.147   3.112  10.788 -0.2601  0.3149 -0.2793
 2070SOL     OW17671   4.706   4.547  10.913  0.2492  0.4263 -0.5008
 2070SOL    HW117672   4.625   4.597  10.924 -1.0871 -2.2600  1.6043
 2070SOL    HW217673   4.717   4.539  11.007  3.0008 -1.1707 -0.9715
 2071SOL     OW17674   4.566   4.626   3.468 -0.3820  0.1975  0.3310
 2071SOL    HW117675   4.604   4.565   3.404 -1.2053  0.2047 -0.1730
 2071SOL    HW217676   4.622   4.621   3.545 -1.5371  0.2382  1.1779
 2072SOL     OW17677   2.600   0.754  16.133 -0.1454 -0.1422  0.0390
 2072SOL    HW117678   2.592   0.812  16.057  1.0087  0.2380  0.2167
 2072SOL    HW217679   2.562   0.811  16.200  0.6265 -0.6039  0.8649
 2073SOL     OW17680   2.939   1.275   7.485  0.2611  0.1780  0.3071
 2073SOL    HW117681   2.996   1.200   7.499 -0.9808 -0.5453  1.4273
 2073SOL    HW217682   2.850   1.241   7.497 -0.3041  1.5510  0.0600
 2074SOL     OW17683   2.691   4.281   6.616 -0.5967  0.1043 -0.0752
 2074SOL    HW117684   2.658   4.303   6.703  0.1711 -0.8466  0.4648
 2074SOL    HW217685   2.761   4.346   6.610 -2.2136  1.9264  0.7976
 2075SOL     OW17686   3.376   4.072  10.545 -0.2722  0.2874  0.2963
 2075SOL    HW117687   3.401   3.986  10.509 -0.8032  0.3176 -0.1495
 2075SOL    HW217688   3.286   4.056  10.574 -0.7099 -2.2786 -2.4194
 2076SOL     OW17689   4.093   3.537  13.735  0.2128  0.2028  0.0982
 2076SOL    HW117690   4.172   3.508  13.690  0.3208  1.7585 -0.7354
 2076SOL    HW217691   4.131   3.548  13.822  2.3953  2.2291 -1.1200
 2077SOL     OW17692   1.368   4.265  11.918 -0.3770 -0.1033 -0.2027
 2077SOL    HW117693   1.437   4.327  11.897  1.9776 -2.0385  1.6779
 2077SOL    HW217694   1.315   4.327  11.967 -0.5499  0.0178 -0.5498
 2078SOL     OW17695   3.654   2.078   1.050 -0.0342 -0.5044 -0.1794
 2078SOL    HW117696   3.711   2.142   1.008 -0.1911 -0.4268 -0.2692
 2078SOL    HW217697   3.598   2.043   0.981 -2.2148 -1.2296  1.9612
 2079SOL     OW17698   2.299   0.586   1.879  0.0004  0.0524 -0.3745
 2079SOL    HW117699   2.250   0.595   1.961 -0.1646 -0.7136 -0.3938
 2079SOL    HW217700   2.273   0.673   1.850  0.2062  0.6062  1.0751
 2080SOL     OW17701   1.725   3.077   2.346 -0.2928  0.4178  0.7587
 2080SOL    HW117702   1.704   3.109   2.259  0.6629 -0.9475  0.0152
 2080SOL    HW217703   1.720   2.985   2.319  2.3372  1.3181 -2.8292
 2081SOL     OW17704   1.200   2.166   7.968  0.2937 -0.0623  0.0796
 2081SOL    HW117705   1.144   2.096   7.935  0.7473  0.0190 -0.8649
 2081SOL    HW217706   1.156   2.178   8.052 -0.4029  0.0729 -0.3000
 2082SOL     OW17707   2.355   4.578   5.265 -0.2226 -0.5600  0.0258
 2082SOL    HW117708   2.312   4.575   5.350  0.6114  0.2031  0.4673
 2082SOL    HW217709   2.307   4.649   5.222 -1.1947 -0.0895  1.9227
 2083SOL     OW17710   2.509   2.818   8.753 -0.0653  0.4090  0.2620
 2083SOL    HW117711   2.430   2.765   8.760  1.6497 -2.3934 -1.5800
 2083SOL    HW217712   2.566   2.758   8.705  1.4384  1.5178  0.6596
 2084SOL     OW17713   1.792   2.752   7.396  0.4664  0.2100  0.0490
 2084SOL    HW117714   1.761   2.675   7.444  3.2970 -0.9303  0.0621
 2084SOL    HW217715   1.723   2.764   7.330 -0.9483  0.9331  1.6612
 2085SOL     OW17716   0.173   1.172   6.741 -0.0436  0.5465 -0.3742
 2085SOL    HW117717   0.154   1.191   6.649  1.6318  2.2603 -0.3647
 2085SOL    HW217718   0.259   1.214   6.734  0.5460 -1.0738 -2.8594
 2086SOL     OW17719   4.247   3.506  15.951 -0.2234  0.1004 -0.6898
 2086SOL    HW117720   4.247   3.437  15.885 -3.8633  2.3789 -3.0749
 2086SOL    HW217721   4.205   3.462  16.025  2.3731 -1.4039 -0.0958
 2087SOL     OW17722   1.974   4.619   8.623 -0.0289  0.3803  0.5937
 2087SOL    HW117723   1.954   4.676   8.697  0.2053 -1.2542  1.9216
 2087SOL    HW217724   2.028   4.554   8.668  1.7447  1.4518  0.0174
 2088SOL     OW17725   3.592   2.682   8.009  0.4065 -0.3024 -0.8237
 2088SOL    HW117726   3.656   2.611   8.017 -0.0194 -0.4532  1.1825
 2088SOL    HW217727   3.570   2.675   7.916 -2.3168 -1.9392 -0.0441
 2089SOL     OW17728   2.707   1.460   2.664 -0.3855 -0.0050  0.1188
 2089SOL    HW117729   2.662   1.392   2.613 -0.4654  0.3629 -0.3018
 2089SOL    HW217730   2.794   1.421   2.672 -0.0476  0.6507 -0.3679
 2090SOL     OW17731   2.578   1.540   2.889  0.2407  0.1351 -0.3313
 2090SOL    HW117732   2.661   1.567   2.927 -0.7440  1.3566  0.9576
 2090SOL    HW217733   2.605   1.514   2.801 -1.5543 -2.0053 -0.2630
 2091SOL     OW17734   1.332   0.240   5.317  0.0397 -0.0664  0.1262
 2091SOL    HW117735   1.407   0.300   5.324 -0.8111  0.8661  1.1259
 2091SOL    HW217736   1.306   0.239   5.409 -0.8977 -0.2193 -0.1469
 2092SOL     OW17737   3.303   3.664   8.609  0.2597 -0.3506 -0.4407
 2092SOL    HW117738   3.232   3.661   8.673 -1.0055 -0.0828 -1.8271
 2092SOL    HW217739   3.355   3.591   8.642  3.7932  2.3610 -0.0253
 2093SOL     OW17740   2.624   1.475   5.568 -0.3772  0.8007  0.2037
 2093SOL    HW117741   2.574   1.437   5.641  1.0193 -0.2857  0.6012
 2093SOL    HW217742   2.655   1.554   5.611  0.8853 -0.4305  1.5935
 2094SOL     OW17743   4.366   4.130   3.363  0.3899  0.2683 -0.4785
 2094SOL    HW117744   4.293   4.163   3.311  0.0814  2.5986  1.4421
 2094SOL    HW217745   4.379   4.048   3.315 -0.8108 -0.3811  0.3024
 2095SOL     OW17746   0.761   3.921   4.419 -0.0743  0.2064 -0.2498
 2095SOL    HW117747   0.745   3.844   4.473  1.5775 -0.8297 -1.2098
 2095SOL    HW217748   0.849   3.892   4.395 -1.1312 -2.8964 -0.3534
 2096SOL     OW17749   4.322   3.521   3.581 -0.3827 -0.1931  0.5650
 2096SOL    HW117750   4.275   3.471   3.515  0.2520  1.5708 -1.1922
 2096SOL    HW217751   4.362   3.586   3.523 -0.7741 -0.0466  0.4664
 2097SOL     OW17752   4.464   2.888  12.971 -0.5870 -0.4929 -0.1459
 2097SOL    HW117753   4.425   2.941  12.902 -0.9112  0.0447  0.4536
 2097SOL    HW217754   4.487   2.956  13.034 -0.1845 -0.1624 -0.6509
 2098SOL     OW17755   1.625   0.439   6.132 -0.3611  0.4583 -0.1963
 2098SOL    HW117756   1.588   0.484   6.208 -2.4872 -0.1915 -0.8373
 2098SOL    HW217757   1.558   0.372   6.115  1.0718  0.1806 -4.6542
 2099SOL     OW17758   1.697   1.906   4.517 -0.0817  0.4247 -0.0431
 2099SOL    HW117759   1.625   1.848   4.495  1.2446 -1.0283 -0.5504
 2099SOL    HW217760   1.662   1.962   4.586 -0.2172 -0.4929  0.6251
 2100SOL     OW17761   2.697   2.845   6.776 -0.1694 -0.5188 -0.0329
 2100SOL    HW117762   2.774   2.824   6.724  1.2518 -0.5115  2.0446
 2100SOL    HW217763   2.720   2.821   6.866 -2.9287 -0.9016  0.5816
 2101SOL     OW17764   3.597   3.688   0.528  0.6211  0.0635  0.2142
 2101SOL    HW117765   3.643   3.607   0.553 -0.1166 -0.7405 -1.0044
 2101SOL    HW217766   3.639   3.719   0.449 -0.3447  0.1047 -0.2854
 2102SOL     OW17767   1.555   2.688   8.680 -0.1259  0.6641  0.4490
 2102SOL    HW117768   1.515   2.768   8.646  0.8781  1.4332  1.0528
 2102SOL    HW217769   1.645   2.717   8.669 -0.0677  0.2765 -0.1030
 2103SOL     OW17770   1.912   1.337   6.576  0.0424  0.1537 -0.0637
 2103SOL    HW117771   1.906   1.415   6.521 -0.9209  1.7499  2.3269
 2103SOL    HW217772   1.883   1.371   6.660 -1.3368  0.8095 -0.8046
 2104SOL     OW17773   3.793   2.639   9.044  0.1912 -0.0299 -0.0336
 2104SOL    HW117774   3.710   2.628   9.090 -0.9955  2.0899 -1.6419
 2104SOL    HW217775   3.859   2.638   9.113  1.5343  1.7102 -1.2626
 2105SOL     OW17776   3.161   4.618  12.635 -0.6753  0.0804  0.1638
 2105SOL    HW117777   3.210   4.548  12.678 -0.7494  0.2155  0.4681
 2105SOL    HW217778   3.071   4.588  12.652 -0.6408 -0.5129 -0.6962
 2106SOL     OW17779   2.802   3.282   1.128  0.1004 -0.6036 -0.2407
 2106SOL    HW117780   2.897   3.265   1.133  0.0372 -0.8761  0.0110
 2106SOL    HW217781   2.772   3.197   1.158  1.0254 -0.3254  1.4987
 2107SOL     OW17782   4.411   0.444   5.843  0.6411 -0.2572  0.0377
 2107SOL    HW117783   4.316   0.433   5.854  0.5497  1.3584  0.7515
 2107SOL    HW217784   4.455   0.396   5.913  1.4905  1.1935  0.4944
 2108SOL     OW17785   3.838   4.213   3.918  0.2711  0.2486  0.0311
 2108SOL    HW117786   3.932   4.194   3.915 -0.0450 -1.2234 -0.4245
 2108SOL    HW217787   3.842   4.296   3.965 -2.2399 -0.4496  1.4867
 2109SOL     OW17788   3.280   3.786  14.366 -0.3920  0.0680 -0.1997
 2109SOL    HW117789   3.244   3.811  14.281 -2.3876  2.5973  1.4166
 2109SOL    HW217790   3.373   3.806  14.358 -0.7013  0.2803 -3.0231
 2110SOL     OW17791   1.672   4.276  14.050  0.0653 -0.0483 -0.8382
 2110SOL    HW117792   1.759   4.311  14.070 -0.9051  0.4660  2.4740
 2110SOL    HW217793   1.645   4.233  14.131  0.0766  0.2392 -0.6825
 2111SOL     OW17794   2.783   3.483   7.854 -0.2785  0.4523  0.0848
 2111SOL    HW117795   2.691   3.483   7.829 -0.4410  1.2413  0.6747
 2111SOL    HW217796   2.782   3.411   7.918 -2.1297 -0.3088 -0.8013
 2112SOL     OW17797   1.504   0.166   5.614  0.5867 -0.1561  0.3314
 2112SOL    HW117798   1.510   0.259   5.597 -0.5207 -0.4214 -1.4139
 2112SOL    HW217799   1.577   0.138   5.670  1.3786  0.5470 -0.3629
 2113SOL     OW17800   3.033   2.255   5.739 -0.3459 -0.3828  0.0732
 2113SOL    HW117801   3.091   2.321   5.777  1.4586 -1.8478 -0.1646
 2113SOL    HW217802   3.075   2.174   5.769  0.9057 -0.4126 -1.7680
 2114SOL     OW17803   0.797   1.672   2.742 -0.0577  0.1345 -0.4769
 2114SOL    HW117804   0.829   1.628   2.663 -0.9183 -1.5405  0.0945
 2114SOL    HW217805   0.801   1.764   2.718 -1.1075  0.1152 -0.7223
 2115SOL     OW17806   4.454   3.060   2.071 -0.0446  0.3662 -0.0118
 2115SOL    HW117807   4.407   3.070   1.988  0.1609 -0.5078 -0.2315
 2115SOL    HW217808   4.433   2.972   2.102 -0.1148 -0.2067 -1.6804
 2116SOL     OW17809   3.320   1.563   2.322  0.0078  0.6997  0.3441
 2116SOL    HW117810   3.281   1.579   2.408  0.5463 -1.0125  0.8947
 2116SOL    HW217811   3.255   1.544   2.255 -1.7228 -0.5731  2.4218
 2117SOL     OW17812   3.617   3.696   7.567  0.0218 -0.4127 -0.5609
 2117SOL    HW117813   3.524   3.707   7.588 -0.0204  0.5917 -1.2611
 2117SOL    HW217814   3.638   3.788   7.551  1.6471 -0.7522 -0.3273
 2118SOL     OW17815   4.531   3.275   9.286  0.3417 -0.3536  0.2552
 2118SOL    HW117816   4.566   3.188   9.266  0.6970 -0.1189 -0.1507
 2118SOL    HW217817   4.462   3.259   9.351  1.6596  0.3235  1.8400
 2119SOL     OW17818   4.333   0.797  10.568  0.3130  0.3531  0.3187
 2119SOL    HW117819   4.292   0.866  10.621  0.1219 -1.3715  2.4204
 2119SOL    HW217820   4.406   0.846  10.529  0.9135  0.2289  1.2734
 2120SOL     OW17821   1.533   3.807   2.135 -0.2806  0.1079 -0.3024
 2120SOL    HW117822   1.530   3.743   2.064  3.5448 -0.0311 -0.3172
 2120SOL    HW217823   1.589   3.870   2.090  1.0199 -0.3371  0.7069
 2121SOL     OW17824   3.362   1.126  17.386  0.5740 -0.7580  0.2813
 2121SOL    HW117825   3.281   1.173  17.407  2.0346  2.3535 -0.9714
 2121SOL    HW217826   3.407   1.158  17.464  1.0059 -0.4561 -0.0876
 2122SOL     OW17827   0.809   0.390   0.641  0.0265 -0.2985 -0.0518
 2122SOL    HW117828   0.798   0.364   0.732 -0.3389 -1.0055 -0.2951
 2122SOL    HW217829   0.805   0.486   0.647  3.0173 -0.1963  0.1311
 2123SOL     OW17830   1.463   1.950   7.608 -0.2647  0.1451  0.4802
 2123SOL    HW117831   1.372   1.923   7.611 -0.7894  1.7273 -0.6794
 2123SOL    HW217832   1.466   2.004   7.528 -1.2125  0.3875  0.6147
 2124SOL     OW17833   1.985   4.676   5.751 -0.5447 -0.2584  0.4997
 2124SOL    HW117834   1.974   4.700   5.843 -0.6156  2.7023 -0.2591
 2124SOL    HW217835   2.080   4.672   5.737 -0.8661 -0.9746 -1.4519
 2125SOL     OW17836   2.463   3.961  13.009  0.2185 -0.0744  0.0336
 2125SOL    HW117837   2.556   3.974  13.030  0.0443 -0.2583  0.9118
 2125SOL    HW217838   2.435   3.878  13.048 -0.2136  0.0045 -0.1065
 2126SOL     OW17839   1.791   2.829   4.243 -0.3877  0.0870  0.3843
 2126SOL    HW117840   1.833   2.746   4.219  1.1640  0.9562  0.1154
 2126SOL    HW217841   1.850   2.858   4.312  0.3188 -2.5160  0.8851
 2127SOL     OW17842   3.738   1.086   5.618  0.0126  0.0806  0.2488
 2127SOL    HW117843   3.769   1.018   5.558 -2.7654 -1.3978  0.5171
 2127SOL    HW217844   3.819   1.137   5.626  1.0461 -1.1252 -2.4759
 2128SOL     OW17845   0.872   0.712  16.659  0.2477  0.1336 -0.1450
 2128SOL    HW117846   0.814   0.711  16.582  0.4893  1.3205 -0.3378
 2128SOL    HW217847   0.912   0.798  16.650 -0.1630  0.3205 -0.1718
 2129SOL     OW17848   0.686   0.710   6.837  0.3571 -0.8491 -0.8349
 2129SOL    HW117849   0.761   0.657   6.809  1.2653  0.0714 -0.1393
 2129SOL    HW217850   0.715   0.731   6.926 -0.1038 -0.0858 -0.8619
 2130SOL     OW17851   1.670   2.519   8.392 -0.9628  0.3220  0.0440
 2130SOL    HW117852   1.597   2.464   8.361 -1.6617  1.3222 -0.0696
 2130SOL    HW217853   1.627   2.604   8.387 -1.2273  0.1997  0.2448
 2131SOL     OW17854   0.441   0.748   6.006 -0.0330  0.1470 -0.5519
 2131SOL    HW117855   0.434   0.840   5.981  3.1118  0.0639 -1.7186
 2131SOL    HW217856   0.517   0.747   6.064 -0.6051 -0.1875  0.1909
 2132SOL     OW17857   2.797   0.570   1.812 -0.8325 -0.0529  0.3379
 2132SOL    HW117858   2.750   0.552   1.893  3.1660 -0.5030  2.5420
 2132SOL    HW217859   2.768   0.491   1.765 -2.0679  1.4271 -1.3856
 2133SOL     OW17860   2.341   2.447   0.243  0.2831 -0.1553 -0.1855
 2133SOL    HW117861   2.295   2.371   0.280  0.9927 -0.7204 -0.4730
 2133SOL    HW217862   2.258   2.490   0.222  0.0272 -0.3370  0.4484
 2134SOL     OW17863   3.831   0.581   4.810  0.1905  0.0250 -0.6387
 2134SOL    HW117864   3.833   0.623   4.724 -0.1070  0.4308 -0.4514
 2134SOL    HW217865   3.804   0.652   4.869  0.1151 -0.8598  0.3944
 2135SOL     OW17866   0.146   4.620  17.126  0.3115 -0.1596  0.3101
 2135SOL    HW117867   0.190   4.675  17.061 -1.3742 -0.8013 -1.4035
 2135SOL    HW217868   0.072   4.675  17.150  1.9669  1.3200  2.0281
 2136SOL     OW17869   4.406   2.159  12.023 -0.2632 -0.5062 -0.5230
 2136SOL    HW117870   4.352   2.217  11.971  2.0225  0.2088 -2.1252
 2136SOL    HW217871   4.355   2.152  12.103  2.2931  2.4139  1.3319
 2137SOL     OW17872   1.217   0.709  15.094 -0.4634  0.6023  0.0666
 2137SOL    HW117873   1.232   0.618  15.118  2.3532  0.6995 -1.3388
 2137SOL    HW217874   1.162   0.688  15.019  0.7719 -0.2828 -0.5895
 2138SOL     OW17875   0.192   4.033  13.698  0.3513 -0.0469 -0.1546
 2138SOL    HW117876   0.171   4.070  13.612  0.8825 -1.0116 -0.7129
 2138SOL    HW217877   0.104   4.005  13.723  0.2370  2.1199  1.8240
 2139SOL     OW17878   0.372   0.375  10.927  0.2712 -0.4567  0.6096
 2139SOL    HW117879   0.397   0.382  10.835 -1.8919 -0.0256  0.0324
 2139SOL    HW217880   0.343   0.465  10.946 -1.1207 -0.8373  0.3178
 2140SOL     OW17881   3.625   0.479   8.443  0.0752 -0.2604  0.2224
 2140SOL    HW117882   3.655   0.570   8.441  0.4123 -0.3547  1.3276
 2140SOL    HW217883   3.537   0.472   8.480  0.2849  0.5307  0.8588
 2141SOL     OW17884   0.230   2.175  10.280  0.0704  1.0212  0.0001
 2141SOL    HW117885   0.323   2.190  10.263  0.0078 -0.9645 -2.0654
 2141SOL    HW217886   0.224   2.204  10.371 -0.6754 -0.2495  0.3563
 2142SOL     OW17887   1.726   2.794  17.298 -0.2963  0.3679 -0.0477
 2142SOL    HW117888   1.661   2.763  17.362 -0.0148 -0.0375  0.0341
 2142SOL    HW217889   1.744   2.714  17.250  2.2603  1.7114 -1.3193
 2143SOL     OW17890   4.688   4.276   6.231  0.1051  0.4980 -0.2081
 2143SOL    HW117891   4.628   4.268   6.305  1.7882  1.4716  1.2665
 2143SOL    HW217892   0.036   4.213   6.257  0.6269  0.7412 -0.9855
 2144SOL     OW17893   3.303   3.529  10.925  0.2549  0.7714 -0.6399
 2144SOL    HW117894   3.343   3.516  11.011 -0.6689  0.4219 -0.2726
 2144SOL    HW217895   3.372   3.483  10.877  0.8895  0.6387  0.3981
 2145SOL     OW17896   4.556   4.511   1.782  0.1293  0.0620 -0.3942
 2145SOL    HW117897   4.604   4.452   1.840 -0.5800  0.1678  0.2841
 2145SOL    HW217898   4.622   4.539   1.718 -1.3023  1.1892 -1.3759
 2146SOL     OW17899   0.376   0.791   3.432 -0.0127  0.0633 -0.5648
 2146SOL    HW117900   0.307   0.780   3.497  1.6738  3.3410  1.7420
 2146SOL    HW217901   0.411   0.879   3.446 -1.5824  0.7241 -0.7078
 2147SOL     OW17902   4.155   3.481   9.850 -0.3281  0.1990  0.3731
 2147SOL    HW117903   4.214   3.417   9.811  0.1356  1.6117 -1.2430
 2147SOL    HW217904   4.069   3.447   9.823 -0.2131 -1.2501  1.8143
 2148SOL     OW17905   2.572   2.621   0.437 -0.4390 -0.0004  0.7670
 2148SOL    HW117906   2.608   2.703   0.404 -1.5277  0.8049  1.6215
 2148SOL    HW217907   2.528   2.651   0.516  1.2462 -1.9051  2.4453
 2149SOL     OW17908   1.227   0.474   6.013 -0.0308  0.0886  0.0375
 2149SOL    HW117909   1.164   0.409   5.983 -0.2810 -0.3746  1.5986
 2149SOL    HW217910   1.273   0.424   6.080 -0.5224  0.2924  0.5337
 2150SOL     OW17911   1.081   2.045   4.263  0.6353  0.2865 -0.2723
 2150SOL    HW117912   1.076   1.975   4.328  0.3209 -0.4461 -1.0848
 2150SOL    HW217913   1.175   2.064   4.265 -0.1563  4.0673  0.7583
 2151SOL     OW17914   2.034   0.708   8.716  0.2347 -0.3696 -1.3849
 2151SOL    HW117915   2.100   0.667   8.659  2.0156 -0.7107  0.9499
 2151SOL    HW217916   1.954   0.704   8.664  0.1377 -0.3568 -1.2337
 2152SOL     OW17917   3.409   3.882   0.767  0.2228 -0.6290  0.5001
 2152SOL    HW117918   3.358   3.950   0.723  2.1437  0.3705 -0.1402
 2152SOL    HW217919   3.349   3.808   0.754 -0.2448 -0.7692  3.2882
 2153SOL     OW17920   0.783   3.071   2.003 -0.4458 -0.5522  0.6022
 2153SOL    HW117921   0.870   3.112   2.012 -1.3142  0.8181  2.7575
 2153SOL    HW217922   0.748   3.097   2.088  0.3750  2.4086  0.0627
 2154SOL     OW17923   0.267   3.445   3.545 -0.4141 -0.1523  0.0607
 2154SOL    HW117924   0.199   3.495   3.499  1.5615 -0.0232 -2.7023
 2154SOL    HW217925   0.285   3.373   3.485 -0.7602  1.1419 -1.5944
 2155SOL     OW17926   3.565   2.355  12.138  0.2976 -0.5138  0.3471
 2155SOL    HW117927   3.645   2.376  12.090 -2.0384 -1.0436 -3.8563
 2155SOL    HW217928   3.517   2.317  12.063 -1.3317  1.7279  0.2576
 2156SOL     OW17929   1.576   4.574   3.847 -0.1512  0.5142 -0.0956
 2156SOL    HW117930   1.487   4.596   3.818 -0.1898  0.6584  0.1340
 2156SOL    HW217931   1.620   4.654   3.818  0.2888  0.5850  0.7642
 2157SOL     OW17932   3.467   1.470  16.537 -0.4194  0.8815  0.2712
 2157SOL    HW117933   3.435   1.486  16.626 -2.2510  0.5836 -0.3390
 2157SOL    HW217934   3.423   1.387  16.520 -1.4194  1.5160 -0.2599
 2158SOL     OW17935   3.111   3.689   6.936  0.1883 -0.0253  0.4704
 2158SOL    HW117936   3.133   3.715   7.026  1.7770  2.7533 -0.7165
 2158SOL    HW217937   3.017   3.707   6.933 -0.3342 -2.9021 -0.0695
 2159SOL     OW17938   4.711   0.415   9.210  0.3345  0.1784  0.6164
 2159SOL    HW117939   4.661   0.451   9.283 -0.1865  0.7870 -0.0489
 2159SOL    HW217940   0.082   0.413   9.242 -0.5840 -0.2236  3.1731
 2160SOL     OW17941   3.768   1.222  13.775  0.0446 -0.1077  0.1232
 2160SOL    HW117942   3.756   1.270  13.692  1.9012 -0.9417 -0.6298
 2160SOL    HW217943   3.864   1.225  13.783  0.1043  0.3987 -0.6934
 2161SOL     OW17944   1.850   3.169   1.790 -0.5899  0.2009 -0.0535
 2161SOL    HW117945   1.855   3.262   1.770 -2.6746  0.4035  0.3646
 2161SOL    HW217946   1.910   3.129   1.728 -1.3072  1.0877 -1.3013
 2162SOL     OW17947   0.794   4.699   0.692 -0.4589  0.0632  0.1952
 2162SOL    HW117948   0.851   4.698   0.769 -0.3789 -0.2585  0.1318
 2162SOL    HW217949   0.741   0.058   0.705 -1.0363 -0.1860 -0.6381
 2163SOL     OW17950   0.425   0.235   5.241 -0.5298 -0.0364  0.0646
 2163SOL    HW117951   0.438   0.319   5.198  0.2625  1.3565  3.0272
 2163SOL    HW217952   0.366   0.266   5.309 -0.3375 -2.8433  1.5143
 2164SOL     OW17953   1.091   3.956   7.518  0.5822 -0.1304 -0.1377
 2164SOL    HW117954   1.185   3.970   7.531  0.1863  3.4834 -1.3233
 2164SOL    HW217955   1.061   3.981   7.606 -0.5638 -1.6375 -0.0987
 2165SOL     OW17956   1.610   2.159   5.227  0.2339 -0.4939 -0.3712
 2165SOL    HW117957   1.696   2.177   5.189 -0.8428  3.1821 -1.0714
 2165SOL    HW217958   1.626   2.145   5.320 -0.9080 -1.9341 -0.4015
 2166SOL     OW17959   0.623   3.403   8.898  0.3456  0.3079  0.0661
 2166SOL    HW117960   0.550   3.409   8.960  2.8615 -4.2424  3.4844
 2166SOL    HW217961   0.592   3.455   8.824  0.5580 -0.4976 -0.5881
 2167SOL     OW17962   0.378   0.995   7.939  0.1240 -0.3138 -0.1199
 2167SOL    HW117963   0.398   1.072   7.886 -1.0240  0.2086  0.2065
 2167SOL    HW217964   0.296   0.969   7.898 -1.7835  3.1292  1.5639
 2168SOL     OW17965   0.874   0.692   4.488 -0.0078 -0.6188 -0.4002
 2168SOL    HW117966   0.789   0.705   4.530  0.3021  1.0195 -0.2515
 2168SOL    HW217967   0.930   0.756   4.532 -1.7415  1.9414 -1.9283
 2169SOL     OW17968   4.285   0.969   1.614  0.6258  0.4719  0.0093
 2169SOL    HW117969   4.335   0.905   1.663 -0.6761 -0.5061  0.0528
 2169SOL    HW217970   4.293   0.921   1.531  2.6402  1.7087 -0.5013
 2170SOL     OW17971   3.138   2.456   7.156 -0.5743 -0.4973  0.0647
 2170SOL    HW117972   3.124   2.546   7.187  1.4083  0.5366 -2.0735
 2170SOL    HW217973   3.196   2.472   7.081  0.0670 -1.5968  0.3251
 2171SOL     OW17974   2.830   2.434   2.623  0.5735 -0.1072  0.5241
 2171SOL    HW117975   2.743   2.397   2.609  1.6752 -2.1683 -0.7818
 2171SOL    HW217976   2.867   2.434   2.534  0.0326  0.1804  0.3000
 2172SOL     OW17977   0.421   4.175  10.839  0.1225 -0.2155  0.3135
 2172SOL    HW117978   0.417   4.245  10.774 -0.2767 -0.4586  0.0707
 2172SOL    HW217979   0.397   4.222  10.918  0.4607  0.3633  0.0675
 2173SOL     OW17980   3.407   0.944   2.793 -0.1298  0.8523  0.2974
 2173SOL    HW117981   3.451   0.902   2.867 -0.4351 -1.1810 -0.6653
 2173SOL    HW217982   3.350   1.010   2.831 -0.1165  0.6502  0.6673
 2174SOL     OW17983   3.067   3.506   4.628 -0.1355  0.0056  0.3500
 2174SOL    HW117984   2.987   3.473   4.669  0.1814 -0.9755  0.1939
 2174SOL    HW217985   3.129   3.436   4.648 -2.5083 -2.7662 -1.9717
 2175SOL     OW17986   3.620   1.462   7.694 -0.4409  0.5935  0.1326
 2175SOL    HW117987   3.564   1.398   7.650  0.3978 -1.2045  1.6768
 2175SOL    HW217988   3.617   1.529   7.626  2.3905 -0.0071 -0.5669
 2176SOL     OW17989   3.632   2.078   3.717  0.0502 -0.2337  0.3852
 2176SOL    HW117990   3.555   2.089   3.661 -0.0981 -1.5835  0.3417
 2176SOL    HW217991   3.677   2.026   3.650  1.5454 -0.3415  1.4709
 2177SOL     OW17992   2.989   0.252  13.839  0.1483 -0.3008  0.1411
 2177SOL    HW117993   3.070   0.202  13.847  0.6034  0.0467 -2.2261
 2177SOL    HW217994   2.960   0.261  13.930  0.7949  0.4559  0.2670
 2178SOL     OW17995   0.232   2.119   3.481 -0.4056  0.6402 -0.0223
 2178SOL    HW117996   0.196   2.146   3.396 -1.5127  0.5163  0.4138
 2178SOL    HW217997   0.179   2.176   3.536  0.2134  0.2960  0.9225
 2179SOL     OW17998   0.625   1.234  13.285  0.1391 -0.5980  0.5140
 2179SOL    HW117999   0.578   1.169  13.233  0.6706  1.2182 -2.3025
 2179SOL    HW218000   0.637   1.183  13.365 -0.2462  0.8549  1.4802
 2180SOL     OW18001   2.265   1.571   4.026  0.6942 -0.2366 -0.1170
 2180SOL    HW118002   2.340   1.617   3.987  0.3402  0.6938  0.2942
 2180SOL    HW218003   2.202   1.643   4.025  1.6391  0.6063  2.1593
 2181SOL     OW18004   1.107   3.909  10.478 -0.1511 -0.4323  0.2233
 2181SOL    HW118005   1.120   3.926  10.572  0.0475 -0.0580  0.1296
 2181SOL    HW218006   1.081   4.000  10.461  1.1338 -0.0605  0.2782
 2182SOL     OW18007   0.779   0.797   3.815  0.2302  0.1993  0.4804
 2182SOL    HW118008   0.722   0.736   3.767  1.5506 -1.2721  0.7904
 2182SOL    HW218009   0.857   0.787   3.761 -2.6917 -3.0514 -3.1415
 2183SOL     OW18010   2.805   3.627   4.775 -0.2021 -0.4067 -0.2472
 2183SOL    HW118011   2.815   3.599   4.866 -2.5473  0.6950  0.3561
 2183SOL    HW218012   2.797   3.541   4.734  0.6649 -1.8771  2.6851
 2184SOL     OW18013   3.469   2.826  12.103  0.4793  0.1746  0.4053
 2184SOL    HW118014   3.553   2.870  12.119 -2.3437  5.2717  1.1733
 2184SOL    HW218015   3.412   2.899  12.126 -0.8387 -0.2129 -1.6063
 2185SOL     OW18016   1.711   2.234   5.868  0.5455  0.1433 -0.2024
 2185SOL    HW118017   1.686   2.298   5.802 -0.0509  2.5281  2.3202
 2185SOL    HW218018   1.802   2.264   5.870  0.3917  0.6406 -0.7803
 2186SOL     OW18019   4.246   1.746   8.141  0.2168 -0.2067 -0.2803
 2186SOL    HW118020   4.198   1.664   8.135  1.5878 -1.0602  0.4145
 2186SOL    HW218021   4.179   1.802   8.101 -0.5931 -2.9365 -2.7725
 2187SOL     OW18022   1.349   0.793   4.665  0.4838 -0.2917  0.3102
 2187SOL    HW118023   1.385   0.747   4.589  1.1838 -0.0055  0.4637
 2187SOL    HW218024   1.357   0.727   4.734  0.4929  0.0790  0.6650
 2188SOL     OW18025   1.667   2.469   2.105  0.0593  0.1069 -0.3086
 2188SOL    HW118026   1.727   2.407   2.064 -1.7628 -1.5240 -0.4863
 2188SOL    HW218027   1.608   2.410   2.150  1.4814 -0.5571  0.6808
 2189SOL     OW18028   2.032   2.508   6.959 -0.1514  0.0699  0.1490
 2189SOL    HW118029   2.025   2.549   6.873 -0.2421 -0.9785 -0.3436
 2189SOL    HW218030   1.972   2.564   7.008  0.9039 -1.2599  2.9288
 2190SOL     OW18031   2.544   3.702   8.216 -0.3453 -0.6547  0.4648
 2190SOL    HW118032   2.471   3.752   8.253 -0.0669 -0.3828  0.6436
 2190SOL    HW218033   2.626   3.748   8.233  0.5382 -1.7110 -0.9270
 2191SOL     OW18034   3.619   3.174  11.286  0.5715  0.2577 -0.2453
 2191SOL    HW118035   3.690   3.228  11.252  0.6860  0.2717  0.0126
 2191SOL    HW218036   3.650   3.084  11.283  1.6512  0.6087  0.5135
 2192SOL     OW18037   1.929   2.683  10.841 -0.5193 -0.1989  0.2723
 2192SOL    HW118038   1.950   2.774  10.819 -0.7019 -0.5852 -1.4544
 2192SOL    HW218039   2.015   2.647  10.865  0.1939  1.4452  0.2110
 2193SOL     OW18040   0.964   4.213   5.489 -0.1079 -0.0059  0.1683
 2193SOL    HW118041   0.900   4.206   5.418  0.2970 -2.7752  0.0626
 2193SOL    HW218042   0.923   4.150   5.548 -1.0122  0.1462 -0.2975
 2194SOL     OW18043   3.391   1.271   7.632  0.0594 -0.0115  0.5774
 2194SOL    HW118044   3.423   1.183   7.650 -1.5754 -0.9950 -1.3450
 2194SOL    HW218045   3.363   1.259   7.542  1.7601 -0.4711  0.1109
 2195SOL     OW18046   4.500   3.816   0.433 -0.4345 -0.6936 -1.0354
 2195SOL    HW118047   4.495   3.901   0.390  1.8088 -0.8327 -1.5794
 2195SOL    HW218048   4.529   3.766   0.357 -0.5777 -1.3623 -0.6579
 2196SOL     OW18049   4.466   0.563   4.255 -0.2884  0.2027 -0.8808
 2196SOL    HW118050   4.561   0.548   4.255 -1.1519 -5.2502  0.6159
 2196SOL    HW218051   4.435   0.511   4.329 -2.6807  1.3041 -1.1055
 2197SOL     OW18052   2.072   3.327   7.077 -0.1298 -0.0470  0.7247
 2197SOL    HW118053   2.037   3.257   7.023 -2.3323  0.8926  0.9139
 2197SOL    HW218054   2.012   3.395   7.047 -0.9270  0.4452  3.4419
 2198SOL     OW18055   2.881   4.531   8.864 -0.4390 -0.0204  0.1986
 2198SOL    HW118056   2.835   4.462   8.913  0.2981  0.4044  1.4808
 2198SOL    HW218057   2.968   4.523   8.903 -1.1713 -1.0727  1.6446
 2199SOL     OW18058   3.082   1.382   9.490 -0.3581 -0.1741  0.0806
 2199SOL    HW118059   2.987   1.377   9.492 -0.5925  2.8281 -2.9597
 2199SOL    HW218060   3.104   1.397   9.582 -0.7974  1.0206 -0.0137
 2200SOL     OW18061   4.227   0.225   2.235  0.8461 -0.1316 -0.0829
 2200SOL    HW118062   4.143   0.178   2.234  1.3708 -1.0614 -0.7042
 2200SOL    HW218063   4.186   0.312   2.240 -2.1596 -1.6294  1.4060
 2201SOL     OW18064   0.599   0.376   5.500  0.2879  0.2695  0.5574
 2201SOL    HW118065   0.549   0.316   5.556  2.5456  0.2882  2.6040
 2201SOL    HW218066   0.687   0.345   5.517 -0.1889 -2.4212 -1.9112
 2202SOL     OW18067   3.773   2.863  10.985 -0.0589  0.0062  0.8608
 2202SOL    HW118068   3.720   2.784  10.996  1.1610 -1.0592 -0.8573
 2202SOL    HW218069   3.789   2.860  10.890  0.1158 -1.7037  0.9502
 2203SOL     OW18070   2.324   3.704   2.535 -0.0607  0.0673  0.1930
 2203SOL    HW118071   2.355   3.795   2.536 -0.1393  0.0943  0.2648
 2203SOL    HW218072   2.253   3.719   2.472  0.5634  1.6327 -0.1342
 2204SOL     OW18073   3.523   2.257   2.699 -0.0405 -0.4535  0.1298
 2204SOL    HW118074   3.465   2.252   2.622 -0.6967  1.3561  0.5000
 2204SOL    HW218075   3.532   2.168   2.731  0.0012 -0.9576 -1.2684
 2205SOL     OW18076   0.846   3.940   6.093 -0.1175  0.6574  0.1452
 2205SOL    HW118077   0.908   3.901   6.155 -0.0995 -0.2009 -0.4132
 2205SOL    HW218078   0.902   3.981   6.027  1.0105 -0.3566  0.4642
 2206SOL     OW18079   4.315   0.564   2.652  0.1839 -0.0925 -0.3031
 2206SOL    HW118080   4.331   0.649   2.694 -2.0819  0.5936 -0.8534
 2206SOL    HW218081   4.353   0.584   2.566  0.1027  0.1204 -0.2880
 2207SOL     OW18082   3.294   0.424   9.316  0.4997 -0.5202 -0.0937
 2207SOL    HW118083   3.293   0.511   9.356  1.5148 -1.0569  1.1094
 2207SOL    HW218084   3.279   0.376   9.397 -3.2798 -2.2009 -1.8047
 2208SOL     OW18085   3.761   2.370   7.833  0.5284 -0.0400  0.6431
 2208SOL    HW118086   3.834   2.376   7.772  0.2791 -0.7439  0.2735
 2208SOL    HW218087   3.693   2.379   7.767  3.1961  0.3962 -2.0272
 2209SOL     OW18088   3.794   1.307  14.394 -0.2477 -0.2058 -0.0713
 2209SOL    HW118089   3.803   1.397  14.362  3.3678 -0.9654 -1.2247
 2209SOL    HW218090   3.708   1.280  14.363  0.4051 -0.8202 -1.3661
 2210SOL     OW18091   2.485   2.099   2.821 -1.2406 -0.1158 -0.2248
 2210SOL    HW118092   2.525   2.015   2.845 -1.3183 -0.3132 -0.7956
 2210SOL    HW218093   2.405   2.080   2.772 -1.0698  1.8718 -1.2367
 2211SOL     OW18094   1.712   4.640   7.403  0.4328 -0.3111  0.0644
 2211SOL    HW118095   1.635   4.661   7.455 -0.2444 -0.3508 -0.9301
 2211SOL    HW218096   1.780   4.673   7.461  0.4046  1.3513 -0.8450
 2212SOL     OW18097   2.514   1.283  10.823  0.2275  0.6044 -0.0245
 2212SOL    HW118098   2.457   1.223  10.871 -0.4096 -0.0522 -1.6033
 2212SOL    HW218099   2.487   1.263  10.733  1.1762 -0.3336 -0.1163
 2213SOL     OW18100   0.143   0.951   6.873  0.5254  0.0095  0.1284
 2213SOL    HW118101   0.203   0.972   6.944  0.9358  0.0321 -0.2212
 2213SOL    HW218102   0.160   1.030   6.823  0.7583  0.1597  0.4474
 2214SOL     OW18103   0.673   4.657   9.315  0.2477 -0.0699 -0.0083
 2214SOL    HW118104   0.610   4.694   9.254  1.7381  2.7129  0.1468
 2214SOL    HW218105   0.754   4.700   9.288  0.5918  0.6696  2.1952
 2215SOL     OW18106   0.989   0.511   7.147 -0.3279 -0.1529  0.0032
 2215SOL    HW118107   0.995   0.446   7.077  0.2340  1.1643 -1.1774
 2215SOL    HW218108   1.047   0.580   7.114 -0.4077 -0.1523 -0.1347
 2216SOL     OW18109   1.279   3.043   5.532  0.0310 -0.1221  0.2693
 2216SOL    HW118110   1.220   3.052   5.607  0.4852  2.0561  0.3697
 2216SOL    HW218111   1.240   2.963   5.498 -2.0627  1.4770 -1.0341
 2217SOL     OW18112   0.098   2.623  16.926  0.4361  0.4999  0.5074
 2217SOL    HW118113   0.070   2.534  16.944 -1.1858  0.1432 -3.6857
 2217SOL    HW218114   0.158   2.613  16.851 -0.9314  3.2905 -0.9737
 2218SOL     OW18115   4.075   4.256  16.363 -0.0411  0.4796  0.2827
 2218SOL    HW118116   3.993   4.206  16.367  1.4234 -2.0075 -1.7174
 2218SOL    HW218117   4.112   4.244  16.276  1.7839 -2.2124  1.4488
 2219SOL     OW18118   0.365   0.474   8.353  0.0757  0.5107  0.4561
 2219SOL    HW118119   0.274   0.443   8.360  0.1252  0.1288 -0.4410
 2219SOL    HW218120   0.387   0.488   8.445 -0.3690 -1.5981  0.9002
 2220SOL     OW18121   1.845   2.168  17.016 -0.4433  0.5492 -0.3031
 2220SOL    HW118122   1.893   2.227  16.957  0.4110 -1.9213 -2.0681
 2220SOL    HW218123   1.906   2.109  17.059  0.2869  0.8074 -1.0012
 2221SOL     OW18124   0.902   2.372   2.751 -0.1057 -0.1661  0.1395
 2221SOL    HW118125   0.931   2.307   2.814  1.6875 -0.9081 -1.4487
 2221SOL    HW218126   0.865   2.436   2.811  0.1593  0.5615 -0.4718
 2222SOL     OW18127   3.676   2.890   4.814 -0.0047 -0.5197  0.1477
 2222SOL    HW118128   3.707   2.852   4.732  0.5361  0.8331 -0.2754
 2222SOL    HW218129   3.738   2.962   4.826  0.0012 -0.5290  0.1726
 2223SOL     OW18130   0.916   2.526   1.108 -0.0678 -0.4255 -0.2386
 2223SOL    HW118131   0.984   2.469   1.071  0.6112 -0.2390  0.6968
 2223SOL    HW218132   0.924   2.592   1.040 -1.2457  0.5432  0.5717
 2224SOL     OW18133   3.132   0.398   8.618 -0.4601  0.2898 -0.2871
 2224SOL    HW118134   3.202   0.336   8.638  0.8798  1.8827 -0.0163
 2224SOL    HW218135   3.178   0.442   8.547 -1.5128 -3.4920 -3.2927
 2225SOL     OW18136   0.750   4.197   8.325 -0.1679 -0.5327 -0.3355
 2225SOL    HW118137   0.823   4.214   8.385 -1.5434  0.1046  1.1607
 2225SOL    HW218138   0.711   4.283   8.342 -0.3305 -0.4510 -1.1293
 2226SOL     OW18139   3.615   3.051   8.735  0.2285 -0.1422 -0.1893
 2226SOL    HW118140   3.527   3.048   8.774  1.3630 -0.4245  2.3107
 2226SOL    HW218141   3.671   3.023   8.807 -0.8877  0.2020  0.8216
 2227SOL     OW18142   2.242   2.071   3.032 -0.3129  0.0917  0.0167
 2227SOL    HW118143   2.172   2.127   3.063 -2.2679 -0.5305 -3.2616
 2227SOL    HW218144   2.280   2.118   2.958  1.1809 -0.2843  0.5474
 2228SOL     OW18145   3.239   3.355   6.664 -0.2420  0.1091  0.1282
 2228SOL    HW118146   3.269   3.439   6.628  0.6298  0.0312  0.6698
 2228SOL    HW218147   3.300   3.283   6.645 -0.1428 -0.0074  0.8845
 2229SOL     OW18148   0.888   1.276   1.598  0.2776  0.3200  0.3297
 2229SOL    HW118149   0.816   1.214   1.615  1.1970  0.1224  3.6378
 2229SOL    HW218150   0.931   1.229   1.527 -0.2090  0.6131 -0.1574
 2230SOL     OW18151   1.186   0.007   0.740  0.1459 -0.3806  0.0914
 2230SOL    HW118152   1.248   0.046   0.679 -1.0102  0.5580 -0.4720
 2230SOL    HW218153   1.109   0.062   0.729  0.1237 -0.1332  1.4746
 2231SOL     OW18154   1.745   3.986   6.590  0.0096 -0.3565  0.5641
 2231SOL    HW118155   1.790   4.036   6.522 -1.3867 -0.3841 -0.3774
 2231SOL    HW218156   1.710   3.913   6.540  0.9933 -0.8154  0.5597
 2232SOL     OW18157   3.512   3.311  10.903 -0.9141 -1.3966 -0.1401
 2232SOL    HW118158   3.473   3.281  10.820 -2.0649  0.8613 -0.4067
 2232SOL    HW218159   3.581   3.246  10.911 -0.5916 -0.7943  1.9584
 2233SOL     OW18160   4.190   0.697   3.701  0.6803  0.3350 -0.1920
 2233SOL    HW118161   4.259   0.641   3.665  0.5297 -0.7957  1.2550
 2233SOL    HW218162   4.113   0.655   3.665  1.1423 -0.1396 -0.6301
 2234SOL     OW18163   1.388   3.117   5.827 -0.3397 -0.2240  0.4218
 2234SOL    HW118164   1.314   3.061   5.803 -0.3091  0.6305 -1.6128
 2234SOL    HW218165   1.358   3.201   5.793  2.7810  0.6056 -0.2899
 2235SOL     OW18166   3.614   0.169   6.063  0.1690  0.3725  0.1129
 2235SOL    HW118167   3.549   0.202   6.126 -0.7399 -0.9334 -0.1402
 2235SOL    HW218168   3.669   0.245   6.042  0.3067  0.6389  1.4063
 2236SOL     OW18169   3.148   1.546   6.330 -0.0893 -0.0361 -0.0022
 2236SOL    HW118170   3.239   1.516   6.335 -0.1209 -0.2376 -0.7045
 2236SOL    HW218171   3.150   1.572   6.238  0.2558 -1.3219 -0.3620
 2237SOL     OW18172   2.397   3.237  14.794  0.0795 -0.2941 -0.6124
 2237SOL    HW118173   2.419   3.158  14.744 -0.2159 -1.3052  0.8580
 2237SOL    HW218174   2.391   3.299  14.721 -1.1539 -0.0834 -0.3319
 2238SOL     OW18175   1.953   4.334   6.530  0.1189  0.7360 -0.4387
 2238SOL    HW118176   1.936   4.378   6.446 -1.2201 -0.2564 -0.6901
 2238SOL    HW218177   1.974   4.251   6.487 -0.5732 -0.4272  1.4780
 2239SOL     OW18178   0.933   1.321   4.390 -0.0326  0.4353  0.0502
 2239SOL    HW118179   0.910   1.236   4.353 -2.4152  1.0500  0.0847
 2239SOL    HW218180   0.849   1.368   4.394 -0.1422  0.2308  0.1486
 2240SOL     OW18181   2.830   2.836   3.736  0.8054  0.5987  0.3523
 2240SOL    HW118182   2.908   2.817   3.684 -0.9496 -2.2030 -1.3030
 2240SOL    HW218183   2.810   2.746   3.763 -0.6749  0.5447 -0.9339
 2241SOL     OW18184   3.666   1.454   6.224  0.3157 -0.4863 -0.2329
 2241SOL    HW118185   3.746   1.505   6.210  0.2582 -0.0327  1.0959
 2241SOL    HW218186   3.690   1.369   6.187  1.1172 -1.5699  2.7060
 2242SOL     OW18187   3.330   3.425   0.504  0.0217 -0.3400  0.4566
 2242SOL    HW118188   3.378   3.345   0.479 -0.1298 -0.7369  1.4260
 2242SOL    HW218189   3.363   3.437   0.593 -0.1637 -3.4016  0.9664
 2243SOL     OW18190   1.890   3.541   7.827 -0.3602 -0.1445  0.0977
 2243SOL    HW118191   1.902   3.623   7.876 -0.8141  0.8315 -1.3964
 2243SOL    HW218192   1.926   3.471   7.880 -0.2942 -1.4146 -1.6418
 2244SOL     OW18193   0.051   2.856  12.216  0.3768  0.4783 -0.6273
 2244SOL    HW118194   0.129   2.909  12.202 -1.0766  2.4970 -0.9747
 2244SOL    HW218195   4.711   2.923  12.248 -0.9590 -0.0389 -2.0663
 2245SOL     OW18196   3.363   0.293   0.945  0.3272 -0.2802 -0.5303
 2245SOL    HW118197   3.275   0.330   0.938 -0.1751 -1.2949  0.4882
 2245SOL    HW218198   3.340   0.202   0.960  1.2298 -0.5829 -0.9815
 2246SOL     OW18199   1.544   2.440  12.017 -0.0738 -0.0334  0.3536
 2246SOL    HW118200   1.583   2.354  12.000  0.1008  0.1916 -0.3910
 2246SOL    HW218201   1.607   2.471  12.083 -0.2955  1.8359 -0.3137
 2247SOL     OW18202   0.095   3.155   0.480 -0.1780 -0.1967  0.1360
 2247SOL    HW118203   0.104   3.206   0.400 -2.0503 -0.3054 -0.1609
 2247SOL    HW218204   0.185   3.129   0.497 -1.7680 -3.0718  4.0943
 2248SOL     OW18205   0.696   2.437   7.252  0.8295 -0.3457 -0.5475
 2248SOL    HW118206   0.750   2.486   7.314  1.0142  1.2227 -1.9512
 2248SOL    HW218207   0.747   2.355   7.250  2.3064  0.5566 -0.1920
 2249SOL     OW18208   1.261   3.560  12.775  0.0043  0.6204  0.5156
 2249SOL    HW118209   1.275   3.468  12.752 -2.0192  0.5860 -0.5758
 2249SOL    HW218210   1.338   3.612  12.750  2.0101 -2.6303 -0.0407
 2250SOL     OW18211   1.501   4.497   9.323  0.0307  0.4781 -0.4390
 2250SOL    HW118212   1.575   4.459   9.276  2.1512  2.0828  1.6354
 2250SOL    HW218213   1.436   4.508   9.253 -0.4117 -1.7797 -0.3849
 2251SOL     OW18214   0.876   0.085   9.248 -0.2682  0.0996  0.0597
 2251SOL    HW118215   0.915   0.118   9.328  1.7249  1.0110 -1.2830
 2251SOL    HW218216   0.935   0.110   9.177 -1.1453  1.1949 -0.2923
 2252SOL     OW18217   2.861   4.442  10.882 -0.2116  0.5630  0.4114
 2252SOL    HW118218   2.935   4.502  10.879 -0.3203  0.5264 -2.6018
 2252SOL    HW218219   2.824   4.438  10.794  1.0669 -2.0516 -0.0070
 2253SOL     OW18220   2.483   0.277  15.794 -0.1907 -0.3314 -0.4696
 2253SOL    HW118221   2.466   0.234  15.710 -0.4238  0.2917 -0.7407
 2253SOL    HW218222   2.524   0.356  15.759  0.0681  0.2972  1.2089
 2254SOL     OW18223   3.517   0.454   9.119 -0.0913  0.5393 -0.5293
 2254SOL    HW118224   3.564   0.538   9.123  1.7508 -0.3897 -2.4286
 2254SOL    HW218225   3.436   0.479   9.163  0.5753  1.1132  0.3753
 2255SOL     OW18226   2.669   4.062   8.161  0.5164 -0.5538 -0.0203
 2255SOL    HW118227   2.688   4.011   8.082 -1.0011 -0.7388 -0.2668
 2255SOL    HW218228   2.693   4.142   8.116 -2.1489  1.0673  1.4212
 2256SOL     OW18229   0.479   3.834  11.498  0.4791 -0.4066  0.1646
 2256SOL    HW118230   0.430   3.864  11.421 -1.2486 -3.1787  0.2270
 2256SOL    HW218231   0.426   3.757  11.517  0.3371 -0.2941  0.2236
 2257SOL     OW18232   2.848   3.185  16.186 -0.8440  0.6396  0.2018
 2257SOL    HW118233   2.805   3.100  16.182 -0.6477  0.6191 -1.7242
 2257SOL    HW218234   2.779   3.248  16.166 -1.2348  0.2478  0.3240
 2258SOL     OW18235   1.259   2.142   3.021  0.6626 -0.4152  0.1674
 2258SOL    HW118236   1.258   2.224   3.069 -0.1909 -1.6932  2.3231
 2258SOL    HW218237   1.213   2.077   3.074  0.6918 -0.1641  0.4944
 2259SOL     OW18238   2.600   0.675  14.492 -0.3270 -1.0266  0.1930
 2259SOL    HW118239   2.682   0.720  14.471 -0.3977 -1.1832 -0.4359
 2259SOL    HW218240   2.585   0.609  14.424  0.7001  0.6337 -1.6668
 2260SOL     OW18241   2.213   1.039  13.356  0.1599  0.2093  0.3441
 2260SOL    HW118242   2.296   1.004  13.323 -1.2411 -1.5335 -1.3473
 2260SOL    HW218243   2.223   1.134  13.346 -0.1863  0.3488  1.2980
 2261SOL     OW18244   3.857   3.650   6.639 -0.0821  0.5965 -0.0202
 2261SOL    HW118245   3.790   3.602   6.591  0.7492  0.8222 -1.4341
 2261SOL    HW218246   3.843   3.637   6.733  1.2063  3.3567  0.5493
 2262SOL     OW18247   0.681   1.424   1.784  0.6342  0.9025  0.0693
 2262SOL    HW118248   0.637   1.340   1.802  1.9854  0.4723  1.4223
 2262SOL    HW218249   0.612   1.474   1.742 -2.0742 -1.3313  1.8296
 2263SOL     OW18250   1.994   4.659   7.182 -0.6736  0.8930 -0.8278
 2263SOL    HW118251   2.047   0.006   7.225  0.4327 -0.1241 -0.6037
 2263SOL    HW218252   2.065   4.605   7.146  0.2667 -0.0049  2.3931
 2264SOL     OW18253   4.612   3.836   8.652  0.2863 -0.4917 -0.0688
 2264SOL    HW118254   4.608   3.918   8.603 -0.9774 -1.1928 -1.1452
 2264SOL    HW218255   4.692   3.792   8.625  1.1639  0.2580  1.3133
 2265SOL     OW18256   1.968   4.096   5.118  0.4033 -0.2389 -0.3441
 2265SOL    HW118257   2.028   4.074   5.189 -2.5838  0.6465  2.4765
 2265SOL    HW218258   1.882   4.057   5.137  0.9722 -0.4775  1.7533
 2266SOL     OW18259   2.766   0.664   3.441  0.1372 -0.1199  0.4981
 2266SOL    HW118260   2.716   0.627   3.368  1.6361  0.6064 -0.9238
 2266SOL    HW218261   2.759   0.599   3.510  1.5967  0.1425  0.8949
 2267SOL     OW18262   1.695   1.007   7.117  0.1940 -0.3998 -0.0369
 2267SOL    HW118263   1.614   0.963   7.143 -0.1991  2.0212  2.8643
 2267SOL    HW218264   1.729   0.948   7.049  3.0564  2.4336 -1.0768
 2268SOL     OW18265   3.872   1.007   4.283  0.3517  0.9834 -0.3837
 2268SOL    HW118266   3.954   0.974   4.245  0.9966  3.3930 -1.0792
 2268SOL    HW218267   3.905   1.057   4.357 -3.5937  0.0857  1.9672
 2269SOL     OW18268   2.964   0.174   2.890 -0.5352 -0.2561  0.2921
 2269SOL    HW118269   2.923   0.096   2.855 -1.3582  0.6492 -0.7648
 2269SOL    HW218270   2.959   0.161   2.985 -0.5062 -2.3632 -0.0125
 2270SOL     OW18271   0.568   4.700  10.527 -0.3906 -0.1877 -0.4233
 2270SOL    HW118272   0.486   4.652  10.520  0.2055 -0.9694 -2.0258
 2270SOL    HW218273   0.642   4.646  10.498 -1.2390 -1.1008 -0.8640
 2271SOL     OW18274   2.442   1.882   6.848  0.1542  0.0378  0.3109
 2271SOL    HW118275   2.398   1.843   6.923  0.6346  2.7640  2.0002
 2271SOL    HW218276   2.510   1.816   6.835  1.8878  1.5833  1.5887
 2272SOL     OW18277   2.662   2.729   7.361 -0.0529  0.3232 -0.2110
 2272SOL    HW118278   2.567   2.720   7.351 -0.2553  3.1380 -0.8010
 2272SOL    HW218279   2.683   2.638   7.342 -4.3142 -0.4918 -1.1729
 2273SOL     OW18280   0.690   0.720  16.870 -0.3218 -0.1179 -0.2376
 2273SOL    HW118281   0.683   0.634  16.910  0.1965  0.0151  0.1357
 2273SOL    HW218282   0.766   0.708  16.813  1.4463  1.4708  1.7377
 2274SOL     OW18283   0.528   4.566  17.219 -0.1533 -0.5563  0.4903
 2274SOL    HW118284   0.578   4.536  17.295  1.4595 -0.2097 -0.4363
 2274SOL    HW218285   0.590   4.608  17.160 -1.4809 -0.1433 -0.6024
 2275SOL     OW18286   1.414   0.082  12.796  0.7409 -0.9238 -0.0606
 2275SOL    HW118287   1.428   0.091  12.890 -0.9922 -1.3855  0.2399
 2275SOL    HW218288   1.320   0.069  12.785  0.2033  1.4909  1.6761
 2276SOL     OW18289   1.289   2.781  16.155 -0.4231 -0.0517 -0.3093
 2276SOL    HW118290   1.250   2.830  16.228 -1.5187 -2.2243  0.5450
 2276SOL    HW218291   1.209   2.737  16.128  0.1560 -0.5476 -1.2144
 2277SOL     OW18292   2.110   2.084  13.761 -0.0869  0.1359 -0.3229
 2277SOL    HW118293   2.122   2.159  13.818 -0.4148  0.3012 -0.4750
 2277SOL    HW218294   2.143   2.018  13.822  0.6854 -0.7980 -1.7334
 2278SOL     OW18295   1.821   0.543   4.961 -0.2267 -0.1611 -0.4142
 2278SOL    HW118296   1.727   0.555   4.949 -0.8071 -2.1974  2.1269
 2278SOL    HW218297   1.849   0.550   4.869  1.4548  1.2277  0.2136
 2279SOL     OW18298   1.672   1.119   6.621 -0.5274 -0.4278 -0.3322
 2279SOL    HW118299   1.705   1.052   6.562  1.7118  0.8916 -0.5861
 2279SOL    HW218300   1.662   1.196   6.564 -2.2754 -1.1589 -1.0075
 2280SOL     OW18301   4.226   2.348   2.920 -0.2164 -0.1050 -0.1450
 2280SOL    HW118302   4.196   2.367   2.831  0.9383  0.9685 -0.3032
 2280SOL    HW218303   4.242   2.438   2.948  1.9720 -0.4903 -0.1325
 2281SOL     OW18304   1.216   2.694   3.372 -0.3185  0.2365  0.2054
 2281SOL    HW118305   1.141   2.692   3.312  0.4675  0.2354 -0.7748
 2281SOL    HW218306   1.199   2.776   3.418  1.8506  0.4940  0.5423
 2282SOL     OW18307   2.257   4.328  16.108 -0.5524 -0.0838  0.8517
 2282SOL    HW118308   2.166   4.326  16.138 -1.6723 -0.5194 -2.6520
 2282SOL    HW218309   2.249   4.280  16.026 -1.8201  0.8955  0.4079
 2283SOL     OW18310   3.801   1.818   3.205 -0.1806  0.7278  0.4285
 2283SOL    HW118311   3.753   1.897   3.230 -1.0959 -0.4652  2.3861
 2283SOL    HW218312   3.885   1.850   3.172 -0.6371 -1.9946 -3.5039
 2284SOL     OW18313   3.891   3.841   7.484  0.0811 -0.4888  0.4318
 2284SOL    HW118314   3.919   3.844   7.575  0.8947  1.4225  0.1086
 2284SOL    HW218315   3.929   3.762   7.446 -1.9969 -1.8037  1.0613
 2285SOL     OW18316   3.076   2.318   0.895 -0.3108 -0.1224 -0.2767
 2285SOL    HW118317   3.019   2.393   0.877  0.7735  0.3954 -1.5486
 2285SOL    HW218318   3.102   2.296   0.806  2.4027  1.7884  0.0324
 2286SOL     OW18319   0.365   0.400   1.724 -0.0793  0.2346  0.4041
 2286SOL    HW118320   0.325   0.313   1.736  0.6999 -0.0655  0.8287
 2286SOL    HW218321   0.367   0.419   1.818  1.0728 -1.1156  0.6460
 2287SOL     OW18322   1.289   1.959  15.930  0.5387  0.1769 -0.0432
 2287SOL    HW118323   1.221   1.965  15.997 -0.1869 -0.6883 -0.7031
 2287SOL    HW218324   1.257   1.896  15.864  1.0602  0.3197 -0.4349
 2288SOL     OW18325   0.256   4.600   6.646  0.1503  0.0702 -0.3574
 2288SOL    HW118326   0.312   4.551   6.707 -0.5554 -1.2057 -0.7358
 2288SOL    HW218327   0.325   4.656   6.610 -1.7711  0.3819 -3.5048
 2289SOL     OW18328   2.001   0.079   5.991 -0.1051  0.5153  0.1369
 2289SOL    HW118329   1.942   0.154   5.997 -0.1827  0.4504  0.1888
 2289SOL    HW218330   2.071   0.107   6.050  1.2481 -3.5522  0.4305
 2290SOL     OW18331   1.451   4.431   2.893 -0.5555 -0.0764 -0.3966
 2290SOL    HW118332   1.357   4.412   2.896 -0.5088  0.0133  1.5117
 2290SOL    HW218333   1.474   4.424   2.986  4.1159  3.6405 -1.2926
 2291SOL     OW18334   0.030   2.970   6.696  0.1749 -0.4741 -0.2475
 2291SOL    HW118335   0.081   2.910   6.751  0.3601 -1.0808 -1.0969
 2291SOL    HW218336   0.036   2.925   6.612 -1.0695 -2.1709  0.5848
 2292SOL     OW18337   0.505   0.631   3.145  0.0205  0.3602  1.3523
 2292SOL    HW118338   0.592   0.635   3.183  0.3117 -0.9702  0.8379
 2292SOL    HW218339   0.451   0.613   3.222  0.2585  0.9803  1.6667
 2293SOL     OW18340   4.234   0.259   4.261  0.3409  0.2686  0.0320
 2293SOL    HW118341   4.196   0.211   4.188 -0.3320 -1.9857  1.8403
 2293SOL    HW218342   4.312   0.205   4.273 -0.8064 -1.4571 -0.3616
 2294SOL     OW18343   0.527   3.329   5.143  0.1448  0.2070 -0.0348
 2294SOL    HW118344   0.594   3.293   5.085 -0.2701  1.1619 -1.1021
 2294SOL    HW218345   0.548   3.422   5.146 -2.3379  0.8041 -1.4480
 2295SOL     OW18346   3.351   3.728   2.136  0.2853 -0.4645  0.0915
 2295SOL    HW118347   3.324   3.718   2.228  1.8237 -0.5461  0.5408
 2295SOL    HW218348   3.391   3.815   2.129  0.3173 -0.6993 -2.4189
 2296SOL     OW18349   0.190   4.479   4.134 -0.5833 -0.0699  0.0308
 2296SOL    HW118350   0.167   4.435   4.052  2.0548 -1.2714 -0.0820
 2296SOL    HW218351   0.138   4.559   4.124  0.7598  0.6849 -0.8992
 2297SOL     OW18352   1.720   2.036   1.909  0.1546  0.3203 -0.9155
 2297SOL    HW118353   1.674   2.056   1.828  1.2636  1.1550 -1.3365
 2297SOL    HW218354   1.792   1.980   1.880  0.1234 -0.6524  0.8583
 2298SOL     OW18355   0.293   0.682  11.486 -0.7304 -0.4940  0.2553
 2298SOL    HW118356   0.230   0.742  11.445 -0.0108 -0.3706 -0.6542
 2298SOL    HW218357   0.246   0.665  11.568  0.2527 -0.0511  0.9102
 2299SOL     OW18358   1.876   2.767  10.499 -0.9511 -0.1824  0.7376
 2299SOL    HW118359   1.841   2.848  10.462  0.5754  0.9809  1.8330
 2299SOL    HW218360   1.801   2.712  10.477  0.8770 -2.2713 -0.2527
 2300SOL     OW18361   3.435   3.886   4.081 -0.5619 -0.2172 -0.1640
 2300SOL    HW118362   3.521   3.895   4.038 -0.6162  1.6930  0.1216
 2300SOL    HW218363   3.457   3.945   4.153 -1.5194 -0.1342  0.0576
 2301SOL     OW18364   2.893   2.498  12.487  0.3954  0.4776 -0.1548
 2301SOL    HW118365   2.833   2.570  12.508 -0.3721  0.1611 -1.2995
 2301SOL    HW218366   2.842   2.420  12.506 -2.3597  1.9714 -1.4778
 2302SOL     OW18367   0.408   3.478   0.378  0.0468 -0.7227  0.3406
 2302SOL    HW118368   0.436   3.524   0.457  0.0023 -1.5321  0.8358
 2302SOL    HW218369   0.320   3.514   0.369  0.4655 -0.5350 -3.0535
 2303SOL     OW18370   4.379   3.778  10.197 -0.2929 -0.0106 -0.2550
 2303SOL    HW118371   4.303   3.832  10.177  0.9259  1.9023  0.1922
 2303SOL    HW218372   4.348   3.741  10.280 -2.7048  3.3875  0.3496
 2304SOL     OW18373   0.693   1.329   3.517  0.0036  0.0302 -0.0278
 2304SOL    HW118374   0.675   1.423   3.516 -0.4782 -0.0483  0.8924
 2304SOL    HW218375   0.738   1.317   3.434 -0.0963  1.1535 -0.2424
 2305SOL     OW18376   2.590   2.619   4.807  0.9781 -0.2607  0.7155
 2305SOL    HW118377   2.660   2.595   4.747 -0.3555  0.6194 -1.1854
 2305SOL    HW218378   2.531   2.544   4.800  1.6003 -0.7992  1.2762
 2306SOL     OW18379   3.786   2.548   2.860  0.0827  0.6712  0.0929
 2306SOL    HW118380   3.694   2.525   2.871 -0.2320  0.7941 -2.2248
 2306SOL    HW218381   3.769   2.642   2.853 -1.4547  0.4159  0.5156
 2307SOL     OW18382   4.395   3.647  16.116 -0.2617 -0.2793  0.0422
 2307SOL    HW118383   4.341   3.726  16.117  0.3842  0.1437  1.4561
 2307SOL    HW218384   4.350   3.606  16.042  0.2395  1.4563 -1.2151
 2308SOL     OW18385   3.157   1.485   8.369  0.1065 -0.3212 -0.4243
 2308SOL    HW118386   3.089   1.535   8.323  1.6696  1.7555 -0.4627
 2308SOL    HW218387   3.112   1.451   8.446 -1.4747 -0.1871 -1.2863
 2309SOL     OW18388   1.029   0.916   4.613 -0.2936  0.3299  0.0423
 2309SOL    HW118389   1.030   0.870   4.697  1.5364  1.6948  0.7840
 2309SOL    HW218390   1.090   0.988   4.629  0.3643  0.3180 -2.4302
 2310SOL     OW18391   3.362   0.380   3.750 -0.1475 -0.1857 -0.1688
 2310SOL    HW118392   3.381   0.332   3.831  0.4161  0.4815  0.0924
 2310SOL    HW218393   3.266   0.378   3.746 -0.1963  1.4806  0.1598
 2311SOL     OW18394   2.600   4.143   2.665  0.4842  0.7020 -0.1242
 2311SOL    HW118395   2.689   4.146   2.701 -0.7937  1.8989  3.0158
 2311SOL    HW218396   2.599   4.225   2.616  0.7031 -1.5955 -3.8866
 2312SOL     OW18397   2.691   2.148   8.308  0.1540  0.0455 -0.0362
 2312SOL    HW118398   2.713   2.116   8.395  1.7438  0.9035 -0.1274
 2312SOL    HW218399   2.611   2.097   8.291  1.5005 -2.9333  2.6576
 2313SOL     OW18400   1.019   1.424  17.546  0.1657 -0.4747 -0.1789
 2313SOL    HW118401   0.957   1.491  17.518 -1.4581 -1.7520  0.3179
 2313SOL    HW218402   1.045   1.449  17.635 -0.3769 -2.6400  0.5955
 2314SOL     OW18403   3.644   4.279   6.539  0.2827 -0.5739  0.7551
 2314SOL    HW118404   3.616   4.297   6.449 -3.3681  0.2425  2.0481
 2314SOL    HW218405   3.730   4.239   6.526 -0.6469 -2.1317 -0.5422
 2315SOL     OW18406   2.646   2.146  13.335  0.3192 -0.1709  0.9961
 2315SOL    HW118407   2.656   2.233  13.373  0.3947 -0.8518  2.5285
 2315SOL    HW218408   2.711   2.157  13.265  0.4853 -0.9376  1.0321
 2316SOL     OW18409   2.281   4.575   8.081 -0.4630 -0.0380  0.0192
 2316SOL    HW118410   2.229   4.525   8.019 -2.2590  2.4349 -0.4565
 2316SOL    HW218411   2.270   4.667   8.058 -0.8046 -0.0650  0.0844
 2317SOL     OW18412   2.273   1.948   5.862  0.1252  0.3994  0.4365
 2317SOL    HW118413   2.341   2.012   5.843  0.6901  0.2175  1.8810
 2317SOL    HW218414   2.279   1.937   5.957  1.4665 -0.7083  0.2230
 2318SOL     OW18415   0.422   3.018   0.696  0.1775 -0.2174 -0.2279
 2318SOL    HW118416   0.395   3.085   0.633 -1.0984 -0.4677  0.0515
 2318SOL    HW218417   0.339   3.000   0.740 -0.1328  0.1986 -0.6392
 2319SOL     OW18418   3.802   2.485  15.056  0.4774 -0.1538  0.7050
 2319SOL    HW118419   3.893   2.479  15.027  1.1678  1.1391  2.5948
 2319SOL    HW218420   3.775   2.574  15.034 -0.4470 -0.8123 -0.8332
 2320SOL     OW18421   0.162   0.342   5.083  0.7369 -0.5356 -0.2830
 2320SOL    HW118422   0.257   0.343   5.069  0.6280 -1.7546 -1.1241
 2320SOL    HW218423   0.140   0.276   5.016 -1.2233  2.2415 -2.3531
 2321SOL     OW18424   1.953   1.686   2.590 -0.2981  0.3039  0.2538
 2321SOL    HW118425   2.003   1.608   2.614 -1.5930 -0.5338  0.2580
 2321SOL    HW218426   2.014   1.749   2.627 -1.8113  1.2538  1.1250
 2322SOL     OW18427   2.921   2.446   9.645  0.5246  1.0157  0.4124
 2322SOL    HW118428   2.975   2.408   9.576 -2.6680  0.1233 -1.5838
 2322SOL    HW218429   2.857   2.377   9.664  0.7376  1.0542  1.3143
 2323SOL     OW18430   3.927   4.126   5.561  0.5021  0.7446 -0.0442
 2323SOL    HW118431   3.863   4.066   5.600 -0.2803  2.3223  1.1103
 2323SOL    HW218432   3.953   4.062   5.495  1.2892  0.4751  0.5383
 2324SOL     OW18433   0.661   0.291  13.113  0.2496 -0.1173 -0.4416
 2324SOL    HW118434   0.710   0.213  13.139 -0.8349 -0.5132  0.4137
 2324SOL    HW218435   0.721   0.364  13.097  0.0874  0.6007  2.2393
 2325SOL     OW18436   3.850   3.915   6.589  0.2374  0.1676 -0.1081
 2325SOL    HW118437   3.768   3.934   6.634  0.2615  0.0386 -0.0099
 2325SOL    HW218438   3.860   3.824   6.618 -1.5314 -0.6701 -2.1122
 2326SOL     OW18439   1.041   1.215   7.256 -0.1920 -0.4328 -0.6307
 2326SOL    HW118440   1.003   1.198   7.342 -0.9477 -1.2216 -1.1344
 2326SOL    HW218441   1.130   1.179   7.260 -0.8088 -2.0619 -1.9481
 2327SOL     OW18442   3.960   1.366   7.859  0.0538  0.3188 -0.2798
 2327SOL    HW118443   3.921   1.449   7.832 -1.1804 -0.2387 -0.1753
 2327SOL    HW218444   3.884   1.309   7.857 -1.2400  1.9647  1.6588
 2328SOL     OW18445   0.252   0.126   1.794  0.8074  0.3419  0.7354
 2328SOL    HW118446   0.246   0.066   1.719 -0.2252 -0.3158  1.3495
 2328SOL    HW218447   0.326   0.084   1.839  0.2293  0.3099  1.6456
 2329SOL     OW18448   2.418   2.926  13.778 -0.1840 -1.4264 -0.0387
 2329SOL    HW118449   2.487   2.992  13.778  0.7975 -2.4310 -1.2003
 2329SOL    HW218450   2.363   2.943  13.702 -1.2338 -2.3988  0.5105
 2330SOL     OW18451   1.276   3.075   0.993  0.1070  0.7188 -0.7759
 2330SOL    HW118452   1.202   3.123   1.030 -0.2560 -0.2787 -0.2068
 2330SOL    HW218453   1.271   3.087   0.898  0.9685  1.9589 -0.6527
 2331SOL     OW18454   1.291   2.864   7.360 -0.4264  0.4710  0.1126
 2331SOL    HW118455   1.215   2.847   7.416 -1.1859 -0.4112 -1.2094
 2331SOL    HW218456   1.354   2.819   7.417 -0.0280  2.2330  1.0629
 2332SOL     OW18457   4.667   0.788   7.905  0.4666 -0.7025  0.3591
 2332SOL    HW118458   4.607   0.837   7.961  0.8408 -0.4966  0.5821
 2332SOL    HW218459   4.716   0.738   7.970 -0.5522 -0.2234  1.4742
 2333SOL     OW18460   3.336   2.540   2.488  0.0741 -0.7108  0.3904
 2333SOL    HW118461   3.376   2.552   2.402 -0.1059  0.7123  0.5089
 2333SOL    HW218462   3.252   2.509   2.457  1.3421 -1.4114 -2.3006
 2334SOL     OW18463   0.410   1.108  11.944  0.2723  0.4292 -0.2238
 2334SOL    HW118464   0.411   1.198  11.913 -0.2997  0.6860  0.5088
 2334SOL    HW218465   0.457   1.127  12.025  0.6738  0.3985 -0.4479
 2335SOL     OW18466   1.007   2.634   7.050 -0.4104 -0.0361  0.3140
 2335SOL    HW118467   0.932   2.666   6.999  1.0388  1.5998 -0.8137
 2335SOL    HW218468   1.005   2.540   7.034  1.6027 -0.1426  0.6893
 2336SOL     OW18469   4.597   3.339   7.202 -0.0988 -0.3581  0.0431
 2336SOL    HW118470   4.536   3.405   7.235 -0.5797 -1.6082  1.6627
 2336SOL    HW218471   4.579   3.258   7.249 -0.2227 -0.0252  0.5623
 2337SOL     OW18472   4.682   1.713   4.713  0.5880  0.2087 -0.0064
 2337SOL    HW118473   0.035   1.696   4.653 -0.1573 -1.3288 -0.4622
 2337SOL    HW218474   4.697   1.637   4.769 -0.1029 -0.4027 -0.6566
 2338SOL     OW18475   3.850   0.007   3.393 -0.7707  0.3993 -0.3821
 2338SOL    HW118476   3.830   4.687   3.308  1.5466  2.3711 -1.8386
 2338SOL    HW218477   3.801   0.089   3.386 -0.0675  0.9787  1.4689
 2339SOL     OW18478   1.053   2.850   2.959  0.0878  0.6397  0.9933
 2339SOL    HW118479   1.005   2.791   2.900 -0.0686  0.1880  1.5786
 2339SOL    HW218480   1.020   2.823   3.044 -0.7089 -1.1967  0.1164
 2340SOL     OW18481   0.460   0.240   7.191  0.0090  0.1877  0.1765
 2340SOL    HW118482   0.481   0.279   7.275  0.6665 -0.4347  0.3014
 2340SOL    HW218483   0.403   0.305   7.149  0.2251 -0.0821 -0.5352
 2341SOL     OW18484   4.581   2.829   2.804 -0.5042  0.5596 -0.0168
 2341SOL    HW118485   4.549   2.794   2.721  0.5783  2.4333 -1.2362
 2341SOL    HW218486   4.564   2.921   2.784  0.4939  1.0652  1.4749
 2342SOL     OW18487   2.282   1.349  13.712 -0.1881 -0.0884  0.0219
 2342SOL    HW118488   2.197   1.340  13.669 -0.4242  1.4228  0.1765
 2342SOL    HW218489   2.251   1.365  13.802  1.9510  0.0071  0.7348
 2343SOL     OW18490   3.556   0.435  17.216 -0.2643 -0.1094 -0.1824
 2343SOL    HW118491   3.511   0.393  17.289  1.5748 -0.7073  0.6244
 2343SOL    HW218492   3.632   0.378  17.205 -0.3869 -0.3312  0.1167
 2344SOL     OW18493   3.653   4.681  12.556 -0.2418  0.0218  0.5487
 2344SOL    HW118494   3.588   4.646  12.617 -1.4987  2.9456  0.8698
 2344SOL    HW218495   3.667   0.046  12.599 -0.2730 -0.2446  1.0915
 2345SOL     OW18496   3.287   2.801  16.890 -0.1690  0.6014 -0.1688
 2345SOL    HW118497   3.252   2.748  16.962  1.0373  1.6835  1.2290
 2345SOL    HW218498   3.209   2.852  16.866  0.8729  1.0640 -2.5346
 2346SOL     OW18499   2.573   3.918   3.614 -0.5614 -0.1551  0.1456
 2346SOL    HW118500   2.619   3.991   3.574 -0.6641 -0.8139 -1.1867
 2346SOL    HW218501   2.498   3.898   3.558 -0.1431  1.4945 -0.9687
 2347SOL     OW18502   2.968   1.316   2.711  0.6198  0.2865 -0.2600
 2347SOL    HW118503   2.973   1.242   2.771 -3.8215  2.4153  2.7654
 2347SOL    HW218504   2.989   1.385   2.773  1.2499  1.4967 -1.8144
 2348SOL     OW18505   4.641   0.187   9.058 -0.0652 -0.1099  0.2682
 2348SOL    HW118506   4.680   0.275   9.057  0.3658 -0.3212 -2.1236
 2348SOL    HW218507   4.612   0.192   9.149 -0.2430  2.1267  0.0749
 2349SOL     OW18508   2.781   0.920   4.678  0.3628 -0.2135  0.1155
 2349SOL    HW118509   2.742   0.923   4.591 -0.2549  1.1371  0.4412
 2349SOL    HW218510   2.851   0.858   4.655  0.5186  1.9122 -5.1057
 2350SOL     OW18511   0.931   0.984  12.540  0.1824  0.0887 -0.4885
 2350SOL    HW118512   0.900   0.912  12.595 -2.0927  2.2222  1.0653
 2350SOL    HW218513   1.000   0.941  12.491 -0.8384 -1.9752 -0.0909
 2351SOL     OW18514   0.983   0.893  16.029  0.0854  0.2062 -0.1784
 2351SOL    HW118515   0.947   0.853  16.108 -1.8262  1.6263 -0.3380
 2351SOL    HW218516   1.069   0.916  16.063  0.0602  0.5942 -0.3782
 2352SOL     OW18517   1.622   1.270   8.856 -0.0966 -0.3457  0.1143
 2352SOL    HW118518   1.656   1.325   8.927  1.2494  1.6661 -2.0817
 2352SOL    HW218519   1.682   1.197   8.865  1.8813  1.2303 -0.4392
 2353SOL     OW18520   1.930   4.410   3.832 -0.6814 -0.2612 -0.1198
 2353SOL    HW118521   1.836   4.407   3.847 -0.3033  0.2972  2.3262
 2353SOL    HW218522   1.943   4.324   3.873 -0.3877  0.2971  0.9407
 2354SOL     OW18523   1.261   1.596   4.209 -0.0725 -0.1510  0.4759
 2354SOL    HW118524   1.325   1.661   4.178 -1.2191  1.6785  1.9678
 2354SOL    HW218525   1.302   1.523   4.162  0.5860  0.2280  0.4567
 2355SOL     OW18526   2.134   1.006   5.243  0.0602  0.0997  0.5329
 2355SOL    HW118527   2.066   1.029   5.306 -1.4228  1.4659 -1.5623
 2355SOL    HW218528   2.142   1.088   5.194 -0.4540 -0.5491 -0.6408
 2356SOL     OW18529   2.507   1.467   6.289 -0.2985  0.2101  0.2685
 2356SOL    HW118530   2.458   1.549   6.299 -1.7333 -0.3727 -1.7906
 2356SOL    HW218531   2.500   1.456   6.194 -0.7276 -1.4844  0.4954
 2357SOL     OW18532   1.095   1.198   1.753  0.1172  0.1251 -0.2157
 2357SOL    HW118533   1.075   1.108   1.727 -1.6595  0.9884 -1.9635
 2357SOL    HW218534   1.022   1.241   1.708 -0.2191 -1.9793 -1.6794
 2358SOL     OW18535   0.201   4.501  10.344  0.1524  0.1134  0.9616
 2358SOL    HW118536   0.202   4.437  10.415 -0.3723 -0.0883  0.7876
 2358SOL    HW218537   0.142   4.464  10.278  1.5224  0.7144 -0.5845
 2359SOL     OW18538   3.937   0.567   3.594  0.2262  0.0813 -0.2820
 2359SOL    HW118539   3.885   0.512   3.536  0.5255 -1.7661  1.2238
 2359SOL    HW218540   3.977   0.620   3.524  0.5464  0.3591  0.1123
 2360SOL     OW18541   4.716   1.478   8.892  0.4327 -0.3657  0.0704
 2360SOL    HW118542   0.062   1.432   8.944  0.8546  0.0700 -0.0784
 2360SOL    HW218543   4.644   1.497   8.953 -1.0596  0.2888 -1.8944
 2361SOL     OW18544   3.037   1.476   4.463  0.2260  0.1015  0.4358
 2361SOL    HW118545   3.027   1.465   4.558  0.2521 -0.8174  0.3277
 2361SOL    HW218546   3.054   1.389   4.429  1.0442  0.7416 -0.7820
 2362SOL     OW18547   2.645   3.584   6.647 -0.3981  0.1015  0.2831
 2362SOL    HW118548   2.693   3.559   6.568 -2.5516  0.2339 -1.0691
 2362SOL    HW218549   2.633   3.497   6.686 -2.7914  0.6362  0.7023
 2363SOL     OW18550   0.403   4.389  14.353  0.0557  0.6168 -0.5840
 2363SOL    HW118551   0.347   4.459  14.321  1.1625  0.8457 -2.0160
 2363SOL    HW218552   0.448   4.427  14.429  1.3869  2.3341 -2.2236
 2364SOL     OW18553   0.444   4.680  13.858  0.3424 -0.2561 -0.2348
 2364SOL    HW118554   0.362   4.632  13.845  0.5592 -0.6106 -0.2861
 2364SOL    HW218555   0.417   0.023  13.791  0.4887 -0.6634 -0.6776
 2365SOL     OW18556   3.593   2.569   2.041  0.2458 -0.2408 -0.1513
 2365SOL    HW118557   3.556   2.528   1.963  2.4147 -2.7320  0.1259
 2365SOL    HW218558   3.601   2.661   2.017 -0.4260 -0.9333 -3.0372
 2366SOL     OW18559   4.436   2.666  11.153  0.0437 -0.3442  0.1638
 2366SOL    HW118560   4.515   2.619  11.178  0.0069 -0.7912 -0.5547
 2366SOL    HW218561   4.409   2.635  11.066 -0.7640  0.3728  0.1608
 2367SOL     OW18562   3.555   0.973   9.289 -0.0326 -0.0940  0.0402
 2367SOL    HW118563   3.538   1.065   9.306 -0.8876 -0.7762  2.9603
 2367SOL    HW218564   3.648   0.953   9.300  0.3417  0.6471 -1.9627
 2368SOL     OW18565   3.949   0.833   5.720 -0.1093  0.7991  0.4640
 2368SOL    HW118566   4.015   0.902   5.721 -0.7806  1.4452  0.0327
 2368SOL    HW218567   3.920   0.846   5.811 -1.6968  1.2313 -0.1113
 2369SOL     OW18568   2.620   0.730  15.563  0.0798  0.2857 -0.9632
 2369SOL    HW118569   2.547   0.770  15.516 -0.0980  0.4639 -0.5333
 2369SOL    HW218570   2.667   0.801  15.605 -1.2104  1.2386 -1.1252
 2370SOL     OW18571   0.100   3.561   2.801 -0.6056 -0.4481  0.3349
 2370SOL    HW118572   0.117   3.495   2.868 -0.1579 -0.7046 -0.0319
 2370SOL    HW218573   0.129   3.515   2.722 -0.2522 -0.7756  0.6567
 2371SOL     OW18574   3.596   1.195   3.896  0.4431 -0.6802  0.1624
 2371SOL    HW118575   3.562   1.106   3.898 -1.9641  0.2450  0.4234
 2371SOL    HW218576   3.667   1.187   3.961  1.0880  0.3325 -0.4157
 2372SOL     OW18577   3.401   1.704   9.268 -0.1195  0.2087  0.2229
 2372SOL    HW118578   3.336   1.746   9.324 -1.0742 -1.7725  0.6236
 2372SOL    HW218579   3.471   1.768   9.264  2.2294 -2.5568 -2.4204
 2373SOL     OW18580   1.315   1.574  11.731 -0.2403 -0.0634 -0.2570
 2373SOL    HW118581   1.270   1.627  11.797  0.7024  2.5868 -1.7537
 2373SOL    HW218582   1.250   1.560  11.661  0.9094  0.8932 -1.5254
 2374SOL     OW18583   1.304   3.675   6.630  0.6679  0.1532  0.1313
 2374SOL    HW118584   1.212   3.655   6.647  1.2981 -2.0506  0.9553
 2374SOL    HW218585   1.331   3.724   6.707  0.8253 -0.8749  0.7303
 2375SOL     OW18586   3.541   1.270   5.516 -0.4439 -0.3365 -0.0312
 2375SOL    HW118587   3.600   1.200   5.543  1.5850  1.5340  0.4288
 2375SOL    HW218588   3.597   1.319   5.456 -0.8685  1.7472  1.2584
 2376SOL     OW18589   4.661   3.499  17.369 -0.1432 -0.0596 -0.5615
 2376SOL    HW118590   4.684   3.428  17.310 -1.9758 -1.6256  0.6120
 2376SOL    HW218591   4.664   3.577  17.312 -0.2386  0.2871 -0.0933
 2377SOL     OW18592   4.631   4.495   9.125  0.0117  0.0793  0.3610
 2377SOL    HW118593   4.656   4.515   9.035 -0.0395  1.2431  0.5986
 2377SOL    HW218594   4.704   4.525   9.179 -0.0681 -0.5648  0.8290
 2378SOL     OW18595   1.899   0.606   6.530  0.6853  0.1586  0.7302
 2378SOL    HW118596   1.807   0.624   6.550  0.4768  0.6179 -0.6412
 2378SOL    HW218597   1.930   0.546   6.597 -0.2354  0.0471  1.0541
 2379SOL     OW18598   1.215   4.467   5.397 -0.5198 -0.3582  0.4774
 2379SOL    HW118599   1.281   4.535   5.406  0.2749 -1.0904  0.1475
 2379SOL    HW218600   1.258   4.382   5.410 -2.1671 -1.4080 -0.9003
 2380SOL     OW18601   4.531   3.276   7.767 -0.3546 -0.6978 -0.1869
 2380SOL    HW118602   4.536   3.350   7.706 -2.9315 -1.2722 -1.0989
 2380SOL    HW218603   4.475   3.317   7.832 -0.2331 -3.0835  1.4465
 2381SOL     OW18604   0.145   0.786   6.074 -0.3026  0.1843  0.5165
 2381SOL    HW118605   0.195   0.815   5.997 -0.9233 -2.4473 -0.8813
 2381SOL    HW218606   0.059   0.773   6.034  0.1882 -0.1910 -0.4290
 2382SOL     OW18607   2.240   1.848   7.060  0.2876  0.2357 -0.0371
 2382SOL    HW118608   2.230   1.753   7.051 -0.8187  0.3305  0.1403
 2382SOL    HW218609   2.166   1.855   7.120  2.3062 -3.8883  2.9354
 2383SOL     OW18610   2.844   0.520  14.946  0.0810  0.3325  0.6724
 2383SOL    HW118611   2.842   0.514  14.850 -0.6617 -2.7042  0.8715
 2383SOL    HW218612   2.750   0.522  14.965  0.2943 -0.6476  1.8003
 2384SOL     OW18613   0.559   1.622   9.862 -0.0692 -0.0929 -0.4647
 2384SOL    HW118614   0.511   1.693   9.820  1.2100  2.3493  2.2263
 2384SOL    HW218615   0.595   1.577   9.785 -0.2794 -0.9366 -0.0607
 2385SOL     OW18616   1.037   3.784   4.624 -0.4331 -0.8397 -0.1591
 2385SOL    HW118617   0.965   3.722   4.615 -0.6099 -1.0327  2.7452
 2385SOL    HW218618   1.027   3.845   4.551 -0.2786  0.3729  0.8316
 2386SOL     OW18619   2.188   4.718  10.719  0.2256  0.5139  0.5567
 2386SOL    HW118620   2.279   0.023  10.736  0.5399 -0.3912  0.1316
 2386SOL    HW218621   2.175   4.652  10.788 -0.1677 -0.2502 -0.2565
 2387SOL     OW18622   1.854   3.227   9.084 -0.5654  0.6566  0.3143
 2387SOL    HW118623   1.843   3.292   9.013 -1.3332  1.0043  0.7484
 2387SOL    HW218624   1.769   3.238   9.127 -0.4231 -1.7881  1.2260
 2388SOL     OW18625   3.084   0.489  13.799 -0.1232  0.5508  0.7546
 2388SOL    HW118626   3.041   0.406  13.819 -2.0645  1.4686  0.3275
 2388SOL    HW218627   3.159   0.470  13.741 -0.9048  2.1207 -0.7676
 2389SOL     OW18628   2.064   1.591   3.420  0.4189  0.1124  0.5298
 2389SOL    HW118629   1.997   1.646   3.379 -0.5564 -0.8820  0.7900
 2389SOL    HW218630   2.081   1.527   3.352  0.0350 -0.3017  0.8215
 2390SOL     OW18631   3.834   1.761   6.581  0.3298  1.1757 -0.5051
 2390SOL    HW118632   3.814   1.776   6.488  1.5472 -1.1065 -1.1315
 2390SOL    HW218633   3.800   1.674   6.598  2.0014  0.3228 -1.5017
 2391SOL     OW18634   4.529   4.584   6.303  0.8083 -0.3089 -0.3221
 2391SOL    HW118635   4.613   4.541   6.318 -0.4441 -2.2649  1.1435
 2391SOL    HW218636   4.468   4.514   6.329  0.9739 -1.5019 -3.1049
 2392SOL     OW18637   0.964   0.130  12.167  0.5266  0.4343  1.2115
 2392SOL    HW118638   0.921   0.204  12.125 -0.9546 -1.0633  0.1156
 2392SOL    HW218639   1.057   0.152  12.158 -0.5068  3.1760 -2.3071
 2393SOL     OW18640   0.912   3.306  10.331 -0.1639  0.1455 -0.2684
 2393SOL    HW118641   0.839   3.286  10.272  0.0362  1.6225 -1.0141
 2393SOL    HW218642   0.853   3.350  10.392 -0.7045  0.3490 -0.9356
 2394SOL     OW18643   4.043   1.713  17.149  0.6179  0.0695 -0.0882
 2394SOL    HW118644   3.960   1.750  17.179  0.3236  1.2302 -2.3443
 2394SOL    HW218645   4.102   1.724  17.223  1.1008 -2.0825 -0.1443
 2395SOL     OW18646   1.005   2.638   9.170 -0.3965 -0.5104  0.1675
 2395SOL    HW118647   0.940   2.702   9.198  1.0858  1.8129 -1.6903
 2395SOL    HW218648   0.975   2.617   9.081  0.6448 -0.8479 -0.1078
 2396SOL     OW18649   1.074   0.398   4.585  0.0982  0.0146  0.1003
 2396SOL    HW118650   1.060   0.392   4.680  0.9845 -0.5786  0.1899
 2396SOL    HW218651   0.985   0.407   4.551  1.3003  0.4973 -2.8808
 2397SOL     OW18652   3.765   2.323   3.026  0.4028 -0.5840  0.8576
 2397SOL    HW118653   3.698   2.388   3.044 -0.3513 -1.1031 -0.0615
 2397SOL    HW218654   3.843   2.379   3.019 -1.7455  2.4399  1.2365
 2398SOL     OW18655   0.236   2.037   2.390 -0.7502 -0.5748  0.7616
 2398SOL    HW118656   0.273   1.949   2.392  1.4028  0.3171 -0.2654
 2398SOL    HW218657   0.273   2.057   2.304  1.1931  1.1210  2.0095
 2399SOL     OW18658   3.682   2.408   3.918  0.6854  0.0079  0.5408
 2399SOL    HW118659   3.654   2.399   4.009 -1.3615 -2.9559 -0.3650
 2399SOL    HW218660   3.613   2.360   3.873  0.3197  0.3302  0.7568
 2400SOL     OW18661   2.901   2.781   6.594 -0.1529 -0.0532 -0.3757
 2400SOL    HW118662   2.882   2.688   6.600  1.8753 -0.2857  2.5348
 2400SOL    HW218663   2.897   2.798   6.500  2.9189  0.9766 -0.3192
 2401SOL     OW18664   0.539   3.006   5.946 -0.6542 -0.2334  0.2577
 2401SOL    HW118665   0.450   3.040   5.951 -0.0324  1.6367 -1.1336
 2401SOL    HW218666   0.519   2.915   5.968 -1.4095  0.1610  1.2166
 2402SOL     OW18667   2.989   1.103   6.529 -0.0422  0.1387  0.3066
 2402SOL    HW118668   2.949   1.057   6.455  0.9343  0.4095 -0.3773
 2402SOL    HW218669   3.026   1.028   6.575  1.4148  0.3077 -0.6095
 2403SOL     OW18670   4.588   4.259   5.943 -0.0581 -0.4955 -0.9204
 2403SOL    HW118671   4.575   4.254   6.038  1.7450 -0.5547 -0.6847
 2403SOL    HW218672   4.538   4.185   5.909 -0.8534 -0.1357 -0.5259
 2404SOL     OW18673   3.786   3.044   5.179 -0.2328 -0.2591  0.0950
 2404SOL    HW118674   3.838   2.964   5.167 -0.8659 -0.5360 -0.8463
 2404SOL    HW218675   3.752   3.017   5.265  0.7706  0.0006  0.5666
 2405SOL     OW18676   1.809   2.335   3.698  0.2386 -0.2105 -0.0413
 2405SOL    HW118677   1.735   2.298   3.651 -0.3528  0.6507  0.2098
 2405SOL    HW218678   1.793   2.306   3.787 -0.4546  0.4518  0.0513
 2406SOL     OW18679   1.182   3.358   6.590 -0.4408 -0.4731 -0.4967
 2406SOL    HW118680   1.184   3.451   6.611  1.9502 -0.5145 -0.5582
 2406SOL    HW218681   1.230   3.347   6.509 -0.5222 -0.2063 -0.5816
 2407SOL     OW18682   1.527   2.650   0.685  0.9401 -0.4252  0.3286
 2407SOL    HW118683   1.502   2.562   0.715 -3.1602  1.8411  3.5963
 2407SOL    HW218684   1.492   2.714   0.747 -0.3832  0.1476 -1.0196
 2408SOL     OW18685   1.469   3.722   8.205  0.3044 -0.2582  0.4956
 2408SOL    HW118686   1.539   3.706   8.269  0.6267 -0.5444  0.0675
 2408SOL    HW218687   1.490   3.811   8.178  0.0307 -0.4049 -0.1937
 2409SOL     OW18688   2.549   4.108   5.240  0.1191 -0.4027  0.2257
 2409SOL    HW118689   2.573   4.201   5.245  0.2805 -0.4039 -0.4886
 2409SOL    HW218690   2.636   4.076   5.216 -0.1050  1.0688 -2.5938
 2410SOL     OW18691   0.227   1.646   1.208  0.4858  0.0524  0.0587
 2410SOL    HW118692   0.209   1.695   1.128 -1.1996 -2.2636 -1.0012
 2410SOL    HW218693   0.322   1.642   1.204  0.6063  2.1824  0.8616
 2411SOL     OW18694   0.411   4.693   2.770  0.2408  0.5403 -0.2932
 2411SOL    HW118695   0.428   4.613   2.819 -0.9875 -0.2568 -1.1929
 2411SOL    HW218696   0.394   4.652   2.685 -3.1886 -0.2987  0.8128
 2412SOL     OW18697   1.548   0.618   4.841  0.0392 -0.8398  0.5122
 2412SOL    HW118698   1.542   0.565   4.762  0.6986  1.7254 -1.2516
 2412SOL    HW218699   1.517   0.553   4.905  0.3471 -3.3324 -1.8788
 2413SOL     OW18700   0.959   4.009  12.553  0.0796 -0.3790  0.2567
 2413SOL    HW118701   1.005   4.091  12.536 -1.3568  0.3352 -0.1710
 2413SOL    HW218702   0.936   3.984  12.464 -1.0420  2.3978 -0.2079
 2414SOL     OW18703   4.312   0.017   9.211 -0.0879  0.0849 -0.0040
 2414SOL    HW118704   4.296   4.649   9.245  1.5657  0.3505  1.4443
 2414SOL    HW218705   4.231   0.068   9.218 -0.1605  0.1533 -1.5128
 2415SOL     OW18706   1.713   3.177   8.125  0.6651  0.7049  0.3945
 2415SOL    HW118707   1.667   3.093   8.131  1.2324  0.4891  1.6350
 2415SOL    HW218708   1.712   3.184   8.029 -1.4932 -2.7512  0.1367
 2416SOL     OW18709   1.894   0.392   8.160 -0.4811  0.0078  0.8614
 2416SOL    HW118710   1.854   0.476   8.138 -2.1911 -1.1638 -0.4986
 2416SOL    HW218711   1.916   0.417   8.249  0.2839  1.2076  0.3290
 2417SOL     OW18712   3.319   1.407  13.232 -0.1432 -0.5846 -0.0373
 2417SOL    HW118713   3.286   1.486  13.276  1.1200 -0.6071  0.9692
 2417SOL    HW218714   3.246   1.380  13.177  0.2809 -1.0948 -0.3503
 2418SOL     OW18715   3.467   3.872   5.681  0.8670  0.1257 -0.5911
 2418SOL    HW118716   3.417   3.905   5.606  0.5685  0.6985 -0.1403
 2418SOL    HW218717   3.413   3.800   5.713 -0.3393  0.6994 -1.3371
 2419SOL     OW18718   3.499   3.632   6.958 -0.0321 -0.2387 -0.0306
 2419SOL    HW118719   3.589   3.632   6.925  0.7553  1.8230  2.1592
 2419SOL    HW218720   3.506   3.673   7.044  2.5703  1.1328 -0.9028
 2420SOL     OW18721   0.259   4.552   1.289 -0.2877 -0.0218  0.1769
 2420SOL    HW118722   0.331   4.507   1.334  0.4357  0.3670 -0.5743
 2420SOL    HW218723   0.235   4.492   1.217 -0.8865 -2.1291  2.1285
 2421SOL     OW18724   2.820   1.408   4.959  0.7444  0.4761  0.1076
 2421SOL    HW118725   2.828   1.502   4.971  0.2170  0.2061  2.4421
 2421SOL    HW218726   2.725   1.399   4.945  0.4576  0.6470  1.9567
 2422SOL     OW18727   0.700   1.207   5.359  0.2009  0.0507 -0.4019
 2422SOL    HW118728   0.768   1.268   5.331 -0.9775  1.2522 -0.6126
 2422SOL    HW218729   0.652   1.210   5.276 -0.0442  1.1371 -0.2144
 2423SOL     OW18730   0.287   4.157   6.153  0.3928 -0.2549 -0.4595
 2423SOL    HW118731   0.339   4.182   6.229  0.6004 -0.9669 -0.3710
 2423SOL    HW218732   0.220   4.108   6.200  0.3293  0.0939 -0.1892
 2424SOL     OW18733   3.717   4.643   6.128 -0.7124  0.6572  0.1982
 2424SOL    HW118734   3.637   4.601   6.096  0.2539 -2.1126  1.3991
 2424SOL    HW218735   3.702   0.013   6.099  1.7823  0.7648 -0.7851
 2425SOL     OW18736   4.439   4.030   4.038  0.4264  0.2318 -0.2720
 2425SOL    HW118737   4.391   4.111   4.018  2.5109  1.1353 -1.6246
 2425SOL    HW218738   4.415   4.021   4.130 -1.3780 -0.8864 -0.8703
 2426SOL     OW18739   2.477   1.474   3.545  0.6540 -0.1020  0.3777
 2426SOL    HW118740   2.533   1.550   3.528  0.3373  0.3539  1.3712
 2426SOL    HW218741   2.432   1.470   3.460  1.1770 -0.9350  0.1434
 2427SOL     OW18742   0.588   2.039   9.995  0.1571 -0.3195 -0.7251
 2427SOL    HW118743   0.647   2.027   9.921 -0.0678 -0.5860 -0.8595
 2427SOL    HW218744   0.588   2.134  10.004 -0.4968 -0.3823 -0.0259
 2428SOL     OW18745   0.353   2.775   7.650  0.0164 -0.1298  0.1924
 2428SOL    HW118746   0.376   2.704   7.710 -0.0499 -0.4183 -0.1263
 2428SOL    HW218747   0.427   2.836   7.649  0.3055 -0.4835 -0.0325
 2429SOL     OW18748   0.747   2.963  14.625 -0.1821  0.5833  0.6226
 2429SOL    HW118749   0.719   3.054  14.631  1.8454  1.3351 -1.2697
 2429SOL    HW218750   0.818   2.965  14.689  0.7950  1.5891 -0.5069
 2430SOL     OW18751   4.293   4.530   7.342  0.1304  0.0548  0.4047
 2430SOL    HW118752   4.374   4.570   7.309 -0.5268  1.2995  0.3421
 2430SOL    HW218753   4.321   4.498   7.428  0.5724  0.4135  0.3944
 2431SOL     OW18754   0.638   3.769   9.817  0.5369  0.0938  0.6038
 2431SOL    HW118755   0.565   3.748   9.759 -1.0784 -1.1831  3.1121
 2431SOL    HW218756   0.587   3.779   9.897  1.5942  1.6011  1.0814
 2432SOL     OW18757   1.772   4.000   3.740 -0.3661  0.3462 -0.1090
 2432SOL    HW118758   1.781   4.065   3.670  1.9830 -0.7118 -0.7964
 2432SOL    HW218759   1.677   3.990   3.744 -0.4071  0.1161 -2.0797
 2433SOL     OW18760   2.587   0.112  13.244 -0.1207  0.1806 -0.0685
 2433SOL    HW118761   2.512   0.120  13.185  0.9128 -0.1640 -1.4327
 2433SOL    HW218762   2.536   0.095  13.323  1.2516  1.1879  1.0382
 2434SOL     OW18763   0.776   0.153   2.820 -0.1731  0.2777  0.3626
 2434SOL    HW118764   0.789   0.247   2.834  1.5982  0.2422 -1.1526
 2434SOL    HW218765   0.767   0.145   2.725 -0.7025  1.1827  0.3255
 2435SOL     OW18766   2.306   2.012   8.859 -0.1935 -0.3731 -0.4341
 2435SOL    HW118767   2.218   1.976   8.849 -0.6667  0.5627  0.4205
 2435SOL    HW218768   2.332   1.985   8.947  1.4383  0.7552 -0.5692
 2436SOL     OW18769   3.708   3.494  11.009  0.2885  0.3612 -0.1638
 2436SOL    HW118770   3.758   3.440  11.070 -0.5904  0.9146  1.0408
 2436SOL    HW218771   3.628   3.443  10.997 -0.3009  0.6773  2.3693
 2437SOL     OW18772   4.702   2.148  13.021  0.5291 -0.0374  0.1547
 2437SOL    HW118773   4.666   2.122  13.105 -1.2618  1.5410 -0.1113
 2437SOL    HW218774   0.041   2.074  13.006  0.0014 -0.4195 -0.0541
 2438SOL     OW18775   4.287   2.217   4.140 -0.3952 -0.0511  0.0121
 2438SOL    HW118776   4.322   2.202   4.052 -2.5749  0.2933 -0.9240
 2438SOL    HW218777   4.243   2.301   4.129 -3.0063 -1.4089  0.0120
 2439SOL     OW18778   4.525   3.070   8.430 -0.1477  0.0385 -0.1576
 2439SOL    HW118779   4.437   3.049   8.401 -0.9825  1.9028  1.0003
 2439SOL    HW218780   4.577   3.041   8.355 -0.9613 -1.1241 -0.2642
 2440SOL     OW18781   4.024   1.629   7.715 -0.0859 -0.2272 -0.2933
 2440SOL    HW118782   4.016   1.683   7.636 -1.4728  0.2926  0.1996
 2440SOL    HW218783   4.080   1.684   7.769  0.3273 -2.4339  1.5056
 2441SOL     OW18784   0.569   3.125   2.237 -0.3715  0.5818 -0.0530
 2441SOL    HW118785   0.647   3.171   2.268  1.7259 -0.9862 -3.1205
 2441SOL    HW218786   0.585   3.036   2.268  0.5918 -0.0956 -2.4943
 2442SOL     OW18787   1.391   0.532   5.364  0.5943  0.4419 -0.3076
 2442SOL    HW118788   1.364   0.604   5.308  0.6490  0.9592  0.3357
 2442SOL    HW218789   1.310   0.494   5.396  0.4865  1.3683  0.5150
 2443SOL     OW18790   2.659   0.947   7.588 -0.0524 -0.1316 -0.2440
 2443SOL    HW118791   2.615   0.937   7.673  2.2264 -2.8422  0.6059
 2443SOL    HW218792   2.706   0.864   7.588  1.1383  0.5359 -1.7047
 2444SOL     OW18793   3.073   4.061   4.779  0.2355  0.4372 -0.1958
 2444SOL    HW118794   3.129   4.126   4.737 -0.7670  2.4796  1.6205
 2444SOL    HW218795   3.076   4.000   4.705 -0.2193  1.2147 -0.8569
 2445SOL     OW18796   3.225   1.842   7.149  0.1561  0.0113  0.1672
 2445SOL    HW118797   3.170   1.815   7.076 -0.2651  1.5421 -0.0762
 2445SOL    HW218798   3.183   1.814   7.230  1.6802  0.9511  1.3075
 2446SOL     OW18799   1.399   3.727  11.298  0.0184  0.4433  0.2262
 2446SOL    HW118800   1.328   3.665  11.281  0.8734 -0.3438 -0.5036
 2446SOL    HW218801   1.351   3.808  11.315 -0.7672  0.0965 -0.2996
 2447SOL     OW18802   2.210   3.026   4.399 -0.4655  0.3207 -0.2916
 2447SOL    HW118803   2.259   3.086   4.343 -0.9749  0.7022 -0.3254
 2447SOL    HW218804   2.151   2.989   4.334  0.6589 -0.1705 -1.0270
 2448SOL     OW18805   2.004   3.075  13.969 -0.1555  0.1264 -0.6673
 2448SOL    HW118806   1.934   3.135  13.943  1.2960  1.6783 -1.0156
 2448SOL    HW218807   2.039   3.051  13.883  2.7615  1.5765  0.1294
 2449SOL     OW18808   4.051   4.254   4.756 -0.2746 -0.0396  0.1789
 2449SOL    HW118809   4.102   4.320   4.803 -1.5971  1.2682 -0.2380
 2449SOL    HW218810   4.000   4.300   4.689 -1.7143 -0.1155  1.2327
 2450SOL     OW18811   3.897   3.232   4.594 -0.0053  0.2576 -0.0416
 2450SOL    HW118812   3.838   3.239   4.519  0.6062 -0.1583 -0.5569
 2450SOL    HW218813   3.922   3.324   4.596  1.1431 -0.1442  3.4797
 2451SOL     OW18814   2.114   0.806   6.974 -0.3408 -0.1710  0.4184
 2451SOL    HW118815   2.151   0.718   6.962 -0.7513  0.0766 -2.6876
 2451SOL    HW218816   2.062   0.807   6.894 -0.5552  0.0126  0.5590
 2452SOL     OW18817   0.508   0.046  15.616 -0.6598 -0.0744  0.1856
 2452SOL    HW118818   0.576   4.711  15.576 -0.8468 -0.1258 -0.0623
 2452SOL    HW218819   0.566   0.097  15.672  0.5946 -1.2330 -0.0502
 2453SOL     OW18820   3.224   2.344   7.727 -0.5012 -0.1016  0.1581
 2453SOL    HW118821   3.191   2.434   7.732 -2.7302 -0.7410 -2.6861
 2453SOL    HW218822   3.276   2.345   7.807 -1.8309  2.6733  1.0025
 2454SOL     OW18823   2.918   2.167   2.589  0.3191 -0.3560 -0.3742
 2454SOL    HW118824   2.857   2.232   2.624  1.8285  0.6217  0.4214
 2454SOL    HW218825   2.876   2.084   2.614 -1.2356  0.7691  0.7246
 2455SOL     OW18826   2.927   2.816   5.576 -0.6980 -0.4093 -0.7090
 2455SOL    HW118827   2.849   2.760   5.574 -0.6681 -0.3493 -2.8978
 2455SOL    HW218828   2.887   2.889   5.625  0.8257 -1.3472  1.9224
 2456SOL     OW18829   2.528   3.722   9.762 -0.4869  0.1606 -0.1400
 2456SOL    HW118830   2.551   3.745   9.852 -1.7990 -0.7051  0.4098
 2456SOL    HW218831   2.617   3.721   9.727 -0.1402 -2.7905  0.8743
 2457SOL     OW18832   3.745   1.016   7.520 -0.6867 -0.3611  0.1307
 2457SOL    HW118833   3.699   0.955   7.462  1.3619 -1.1279 -0.6610
 2457SOL    HW218834   3.808   1.054   7.459 -2.0479  2.9411  0.7986
 2458SOL     OW18835   2.465   0.186   9.510 -0.0965 -0.2821  0.4544
 2458SOL    HW118836   2.510   0.238   9.577  0.2970 -1.6692  1.2670
 2458SOL    HW218837   2.415   0.261   9.477  0.3716  0.9922  2.6483
 2459SOL     OW18838   2.518   4.324   0.848 -0.1682  0.1771 -0.8734
 2459SOL    HW118839   2.485   4.414   0.845 -0.6832  0.0038 -0.3817
 2459SOL    HW218840   2.605   4.337   0.810 -0.2802  0.0475 -1.1729
 2460SOL     OW18841   3.329   4.299   8.392 -0.3304  0.2931 -0.3220
 2460SOL    HW118842   3.295   4.223   8.344  2.2137 -2.1222  1.6164
 2460SOL    HW218843   3.244   4.340   8.403  0.2491  2.0722 -2.5819
 2461SOL     OW18844   0.764   2.775   9.215 -0.0621  0.4586  0.9184
 2461SOL    HW118845   0.701   2.771   9.287 -0.1529 -0.6150  0.7691
 2461SOL    HW218846   0.769   2.871   9.214  2.0429  0.3953  2.9975
 2462SOL     OW18847   2.765   1.585   6.174  0.0054 -0.3566 -0.3204
 2462SOL    HW118848   2.717   1.520   6.123  0.2144 -0.7206 -0.0465
 2462SOL    HW218849   2.853   1.579   6.138  0.4586 -0.8188  0.8842
 2463SOL     OW18850   1.433   2.007   5.662 -0.5393  0.2152  0.4736
 2463SOL    HW118851   1.397   1.923   5.634  1.3903  0.2154 -2.0583
 2463SOL    HW218852   1.369   2.067   5.700 -0.8934  0.2756 -0.2301
 2464SOL     OW18853   2.236   2.822   4.552  0.4028 -0.1505  0.3932
 2464SOL    HW118854   2.255   2.854   4.641 -0.7540 -2.1596  1.3740
 2464SOL    HW218855   2.223   2.907   4.511  1.0731  0.2349  0.9787
 2465SOL     OW18856   4.355   2.263   0.672  0.1479  0.6565  0.1995
 2465SOL    HW118857   4.322   2.251   0.761 -0.9364  0.6263 -0.2074
 2465SOL    HW218858   4.378   2.177   0.634 -0.3140  0.2619  0.8133
 2466SOL     OW18859   2.418   0.975   8.895  0.2264 -0.0180 -0.4677
 2466SOL    HW118860   2.376   1.003   8.976 -0.0717  0.4300 -0.7785
 2466SOL    HW218861   2.353   0.907   8.877  0.9804 -0.5059 -1.3601
 2467SOL     OW18862   1.601   1.064  13.857  0.0885  0.0568 -0.4130
 2467SOL    HW118863   1.536   1.127  13.889 -0.2198 -0.2436 -0.4569
 2467SOL    HW218864   1.663   1.059  13.929 -3.3025 -1.0562  2.4249
 2468SOL     OW18865   1.827   3.857   9.043 -0.3429  0.0756 -0.7812
 2468SOL    HW118866   1.895   3.831   8.980  0.6801  1.2222 -0.1481
 2468SOL    HW218867   1.831   3.786   9.108 -2.2815  0.2096 -0.5189
 2469SOL     OW18868   4.116   0.328   7.296  0.2155  0.0776  0.2175
 2469SOL    HW118869   4.143   0.386   7.225  0.3958 -2.4675 -1.7886
 2469SOL    HW218870   4.130   0.391   7.367 -1.6042 -3.1181  3.4109
 2470SOL     OW18871   0.587   0.047   5.845  0.6682  0.4993 -0.2905
 2470SOL    HW118872   0.544   4.690   5.808 -1.9835  2.2142 -0.7190
 2470SOL    HW218873   0.544   0.065   5.928  1.3076  1.2483 -0.1209
 2471SOL     OW18874   1.860   3.295  13.841  0.1277 -0.1114 -0.7980
 2471SOL    HW118875   1.808   3.373  13.863  0.6218 -0.0284  0.0848
 2471SOL    HW218876   1.948   3.329  13.860 -0.6148  0.7742  1.0024
 2472SOL     OW18877   0.572   3.468  12.444 -0.2022 -0.4970  0.5496
 2472SOL    HW118878   0.667   3.457  12.440 -0.1488  0.8687 -2.2751
 2472SOL    HW218879   0.548   3.384  12.482 -1.8364 -0.4543 -0.3706
 2473SOL     OW18880   4.072   1.914   8.812  0.2467 -0.2914  0.3729
 2473SOL    HW118881   3.991   1.966   8.810 -0.0012 -0.6961 -0.1726
 2473SOL    HW218882   4.131   1.964   8.755 -0.2432  0.3156  0.3948
 2474SOL     OW18883   2.896   3.549  14.843 -0.2286  0.1897  0.4795
 2474SOL    HW118884   2.808   3.558  14.808  0.4847  2.4365 -0.7215
 2474SOL    HW218885   2.932   3.633  14.817  0.0471 -0.5154 -1.4609
 2475SOL     OW18886   1.499   0.408  16.307 -0.4974 -0.3210 -0.2159
 2475SOL    HW118887   1.430   0.439  16.366  2.2082 -1.1071  3.3202
 2475SOL    HW218888   1.466   0.430  16.220 -0.2921 -0.6251 -0.3700
 2476SOL     OW18889   0.314   1.274   4.887 -0.2555  0.3401  0.1272
 2476SOL    HW118890   0.306   1.189   4.932 -0.3687  0.1099 -0.3254
 2476SOL    HW218891   0.312   1.244   4.796  1.8492 -0.7824  0.4455
 2477SOL     OW18892   2.866   3.821   1.949  0.7071 -0.3273  0.3106
 2477SOL    HW118893   2.845   3.804   1.857  0.4647  0.4820  0.2162
 2477SOL    HW218894   2.922   3.898   1.943  0.8173 -0.2730  2.2927
 2478SOL     OW18895   0.189   0.678   7.962  0.5477 -0.3120 -0.0385
 2478SOL    HW118896   0.270   0.649   7.922  0.5809  0.6989 -0.7004
 2478SOL    HW218897   0.222   0.709   8.046 -2.7495  0.8794  0.8415
 2479SOL     OW18898   2.813   0.523   8.175  0.8906  0.0830  0.3711
 2479SOL    HW118899   2.772   0.570   8.248  2.3573  0.0250  1.2099
 2479SOL    HW218900   2.742   0.466   8.143  1.1466 -0.3357  0.5487
 2480SOL     OW18901   1.388   2.308  10.314 -0.2665 -0.4084 -0.6133
 2480SOL    HW118902   1.380   2.299  10.219 -0.3012 -0.0088 -0.6517
 2480SOL    HW218903   1.438   2.229  10.335 -0.1624 -0.0368  0.5365
 2481SOL     OW18904   2.747   0.672   8.428 -0.3753 -0.2147 -0.0732
 2481SOL    HW118905   2.678   0.706   8.370  0.6855 -1.1993 -1.9344
 2481SOL    HW218906   2.717   0.704   8.513 -0.9788 -1.0179  0.0217
 2482SOL     OW18907   0.745   3.367   3.981 -0.4652  0.2301 -0.4885
 2482SOL    HW118908   0.712   3.281   3.955 -0.7735  0.4843 -0.9464
 2482SOL    HW218909   0.681   3.423   3.938 -1.1978 -0.2515 -0.0106
 2483SOL     OW18910   1.065   0.930   1.681  0.2585  0.5616 -0.2945
 2483SOL    HW118911   1.081   0.866   1.750 -1.7622  0.8619  0.4527
 2483SOL    HW218912   1.057   0.874   1.604  1.4704 -0.1741  0.1141
 2484SOL     OW18913   4.605   2.197  15.107  0.6188  0.4666 -0.0913
 2484SOL    HW118914   4.615   2.275  15.053  2.1963  0.4273  0.1366
 2484SOL    HW218915   4.694   2.165  15.091 -0.0430 -0.4543 -1.8849
 2485SOL     OW18916   4.240   3.075   5.002  0.8797  0.2549  0.3621
 2485SOL    HW118917   4.194   3.146   4.958  0.3127 -0.1661  0.2673
 2485SOL    HW218918   4.207   3.083   5.092 -2.1794  1.7333 -0.8880
 2486SOL     OW18919   0.881   4.283   7.512 -0.1434 -0.0629 -0.5000
 2486SOL    HW118920   0.828   4.357   7.482  0.3685  0.0561 -1.0943
 2486SOL    HW218921   0.830   4.256   7.589 -0.0933 -1.3796 -0.9372
 2487SOL     OW18922   0.401   3.257   0.213 -0.8010  0.5129  0.0221
 2487SOL    HW118923   0.441   3.341   0.233  1.8859 -1.0306  1.1035
 2487SOL    HW218924   0.464   3.231   0.146 -0.0254 -0.8336  1.2828
 2488SOL     OW18925   3.416   1.399   4.728  0.8950 -0.0573 -0.3013
 2488SOL    HW118926   3.387   1.452   4.653 -0.6587 -0.1942  0.2049
 2488SOL    HW218927   3.433   1.469   4.791 -1.2467  0.6184 -0.4684
 2489SOL     OW18928   3.403   1.083   3.544 -0.5268 -0.5704 -0.4750
 2489SOL    HW118929   3.378   1.162   3.591 -1.3872 -1.6394  0.8487
 2489SOL    HW218930   3.481   1.060   3.595 -0.3707  1.2403  0.0819
 2490SOL     OW18931   0.077   1.650   9.440 -0.2657 -0.1312  0.2695
 2490SOL    HW118932   0.040   1.731   9.404  1.3298  0.8405  0.8363
 2490SOL    HW218933   0.042   1.656   9.529 -3.2537  0.8655 -0.9627
 2491SOL     OW18934   0.341   4.643   7.651 -0.8290  0.2862 -0.0438
 2491SOL    HW118935   0.424   4.602   7.627 -0.5508 -0.5173  2.2691
 2491SOL    HW218936   0.307   4.584   7.718  0.6726  0.6580  1.0595
 2492SOL     OW18937   1.869   1.619   6.188  0.2324 -0.2606  0.0342
 2492SOL    HW118938   1.850   1.686   6.122 -1.4508 -0.2658  0.5109
 2492SOL    HW218939   1.779   1.588   6.200  0.4694 -1.4006 -1.1474
 2493SOL     OW18940   1.066   0.312   3.948 -0.2244  0.1216 -0.2988
 2493SOL    HW118941   1.033   0.259   3.875  0.4607  0.4261 -0.8286
 2493SOL    HW218942   1.009   0.388   3.947  1.2555  1.2233 -0.5003
 2494SOL     OW18943   3.892   1.049   3.218  0.1420  0.0822  0.5518
 2494SOL    HW118944   3.874   0.956   3.206 -0.4899  0.5627 -2.0711
 2494SOL    HW218945   3.825   1.089   3.162 -2.4760 -0.5232  3.2393
 2495SOL     OW18946   2.625   0.780   6.371  0.0961 -0.3330 -0.6039
 2495SOL    HW118947   2.632   0.745   6.460 -1.8773 -2.3064 -1.2319
 2495SOL    HW218948   2.711   0.764   6.331  0.5684 -1.5999  0.9057
 2496SOL     OW18949   3.216   2.919   4.033 -0.5721  0.2785 -0.1836
 2496SOL    HW118950   3.212   2.833   3.992 -2.0716  1.3396 -2.2375
 2496SOL    HW218951   3.239   2.972   3.956 -0.3481  0.7196  0.1835
 2497SOL     OW18952   0.467   0.852   2.809 -0.0455  0.1381 -0.1939
 2497SOL    HW118953   0.532   0.901   2.860  1.1681 -0.6159 -1.0205
 2497SOL    HW218954   0.497   0.764   2.831  1.1847  0.5624 -0.1973
 2498SOL     OW18955   3.753   3.846   8.665 -1.0206 -0.6433  0.1020
 2498SOL    HW118956   3.719   3.890   8.742 -0.9572 -0.1038 -0.1783
 2498SOL    HW218957   3.815   3.786   8.708 -0.8615 -1.3098 -1.0556
 2499SOL     OW18958   4.362   3.073  16.274 -0.2593 -0.1956 -0.4119
 2499SOL    HW118959   4.431   3.140  16.272  0.1707 -0.6064  0.5990
 2499SOL    HW218960   4.374   3.035  16.187 -0.4699  0.7321 -0.8421
 2500SOL     OW18961   2.985   2.145   4.966  0.5042 -0.1883  0.3353
 2500SOL    HW118962   2.911   2.169   5.021 -1.2278 -1.0007 -1.6342
 2500SOL    HW218963   3.020   2.079   5.026  2.0258 -2.2114 -2.7251
 2501SOL     OW18964   0.254   1.043   2.171 -0.3185 -0.6254 -0.0534
 2501SOL    HW118965   0.231   1.081   2.087  0.3182 -1.9386 -0.8171
 2501SOL    HW218966   0.189   1.082   2.231  0.6120  0.6155  0.1380
 2502SOL     OW18967   3.305   2.242   7.061  0.2303 -0.0800  0.1367
 2502SOL    HW118968   3.351   2.217   7.141 -0.2595  0.0796  0.4678
 2502SOL    HW218969   3.244   2.309   7.090 -1.2095 -1.0298 -0.6490
 2503SOL     OW18970   1.908   1.140  11.791  0.2563  0.3955  0.1348
 2503SOL    HW118971   1.814   1.156  11.803  0.2429  1.3527 -1.2472
 2503SOL    HW218972   1.942   1.154  11.880  1.3678 -2.4395  0.1611
 2504SOL     OW18973   0.237   2.990   4.987  0.1268 -0.5958  0.4643
 2504SOL    HW118974   0.232   3.074   5.032  1.2486 -0.0773 -0.3732
 2504SOL    HW218975   0.294   2.953   5.054  0.9990 -1.7806 -0.9402
 2505SOL     OW18976   3.130   1.129  10.868  0.1964 -0.2329 -0.0523
 2505SOL    HW118977   3.224   1.135  10.853  0.0303  1.3076 -0.4692
 2505SOL    HW218978   3.135   1.093  10.956  3.2928 -2.7882 -1.2763
 2506SOL     OW18979   2.670   3.662   0.274  0.1361 -0.0593 -0.7433
 2506SOL    HW118980   2.641   3.589   0.221  1.2447 -0.1816 -1.1789
 2506SOL    HW218981   2.765   3.662   0.262  0.5160  0.1663  2.2707
 2507SOL     OW18982   2.107   3.271  11.796 -0.5105 -0.5279 -0.2340
 2507SOL    HW118983   2.039   3.290  11.861 -0.4082 -0.6635 -0.0864
 2507SOL    HW218984   2.189   3.256  11.843 -1.0654  0.9944  1.2239
 2508SOL     OW18985   2.008   2.385  11.432  0.0668  0.1191 -0.3703
 2508SOL    HW118986   2.032   2.324  11.363  2.0020  0.1973  0.2175
 2508SOL    HW218987   1.951   2.323  11.478 -1.1922  2.9610  1.8808
 2509SOL     OW18988   4.303   4.014   7.863 -0.6205  0.0795  0.1931
 2509SOL    HW118989   4.318   4.074   7.936  1.8002 -0.4611  0.1334
 2509SOL    HW218990   4.383   3.971   7.833 -0.9085 -0.8392  0.7610
 2510SOL     OW18991   4.246   3.517   4.051 -0.1586 -0.0488 -0.3008
 2510SOL    HW118992   4.304   3.589   4.026  0.4874  0.3429  2.3491
 2510SOL    HW218993   4.173   3.578   4.060 -0.5191 -0.2817 -1.6428
 2511SOL     OW18994   1.807   3.526   6.959  0.0594 -0.2219 -0.4458
 2511SOL    HW118995   1.728   3.581   6.958  0.5764  0.5058 -1.0787
 2511SOL    HW218996   1.868   3.579   6.909 -2.5611  0.7886 -2.6067
 2512SOL     OW18997   2.594   3.106   8.143 -0.0857  0.3770  0.0028
 2512SOL    HW118998   2.512   3.146   8.113  0.6316  1.9395  0.1545
 2512SOL    HW218999   2.587   3.122   8.237 -0.2813 -1.0809  0.2437
 2513SOL     OW19000   0.658   3.715  13.201 -0.2892  0.0635 -0.1259
 2513SOL    HW119001   0.564   3.696  13.198  0.1911 -2.7670  2.5988
 2513SOL    HW219002   0.678   3.763  13.121  0.0481 -0.0830 -0.1257
 2514SOL     OW19003   0.032   3.826   3.243  0.2124 -0.0904  0.2647
 2514SOL    HW119004   0.114   3.841   3.194 -0.4414 -2.4758 -1.5611
 2514SOL    HW219005   4.696   3.781   3.180 -0.1782 -0.5138  0.9185
 2515SOL     OW19006   0.285   0.468  10.694  0.4986 -0.0579  0.2640
 2515SOL    HW119007   0.308   0.552  10.655 -3.0050 -0.1162 -1.8386
 2515SOL    HW219008   0.190   0.464  10.703  0.5671  0.0208  1.0604
 2516SOL     OW19009   3.973   2.750   6.683  0.0455 -0.0397  0.1455
 2516SOL    HW119010   3.906   2.684   6.662  1.3211 -0.5525 -2.2488
 2516SOL    HW219011   4.015   2.776   6.601 -2.3656  1.1594 -0.7339
 2517SOL     OW19012   3.237   4.197   2.462 -0.0671  0.1264  0.2817
 2517SOL    HW119013   3.149   4.166   2.443  0.2400 -0.1043 -0.7698
 2517SOL    HW219014   3.292   4.119   2.468 -0.1111  0.0406 -0.4922
 2518SOL     OW19015   3.092   3.783  13.218  0.1149 -0.3152  0.2798
 2518SOL    HW119016   3.056   3.829  13.294  1.2171 -0.9571  1.1845
 2518SOL    HW219017   3.186   3.789  13.237 -0.4605  1.2594  2.6655
 2519SOL     OW19018   1.219   0.092   2.759  0.1426 -0.5462  0.3764
 2519SOL    HW119019   1.247   0.129   2.675 -1.7218  0.3890  0.1606
 2519SOL    HW219020   1.293   0.049   2.801 -0.5702 -0.3103  1.8973
 2520SOL     OW19021   2.253   0.223   9.686 -0.5703 -1.0370 -0.0347
 2520SOL    HW119022   2.305   0.302   9.672  0.0748 -1.3854  0.3942
 2520SOL    HW219023   2.317   0.153   9.670 -0.1148 -0.5301 -0.4333
 2521SOL     OW19024   3.786   0.264   8.519 -0.0450 -0.1220  0.3122
 2521SOL    HW119025   3.765   0.172   8.508 -0.0330 -0.3581  2.2014
 2521SOL    HW219026   3.713   0.318   8.489  1.2091  2.0719  1.1765
 2522SOL     OW19027   3.456   4.405  15.483  0.1242  0.5047 -0.3165
 2522SOL    HW119028   3.434   4.419  15.391  0.3271  2.0930 -0.1105
 2522SOL    HW219029   3.377   4.389  15.534  0.8705  3.0095  1.5852
 2523SOL     OW19030   3.671   1.705   4.894 -0.0300  0.0670  0.1350
 2523SOL    HW119031   3.723   1.626   4.909 -0.2568 -0.3996 -1.5125
 2523SOL    HW219032   3.586   1.695   4.937 -0.5563 -2.2742 -1.4293
 2524SOL     OW19033   1.953   1.648   8.526  0.2449 -0.0104 -0.1798
 2524SOL    HW119034   2.020   1.626   8.462  2.7360  1.9144  1.7905
 2524SOL    HW219035   2.000   1.654   8.610  0.8318 -0.5746 -0.4647
 2525SOL     OW19036   3.374   3.330   4.293 -0.5060 -0.1723  0.2714
 2525SOL    HW119037   3.461   3.340   4.330 -0.8173 -1.0772  1.2694
 2525SOL    HW219038   3.378   3.253   4.236  2.3002 -0.1897  0.5080
 2526SOL     OW19039   2.733   3.761   7.542 -0.1574  0.1904 -0.1496
 2526SOL    HW119040   2.702   3.787   7.455 -2.9302  0.1202  0.8112
 2526SOL    HW219041   2.682   3.680   7.537 -0.7415  0.4425  1.8532
 2527SOL     OW19042   3.657   0.956   3.617  0.0224 -0.0327  0.3097
 2527SOL    HW119043   3.730   1.015   3.635  0.6391 -0.3926 -0.9906
 2527SOL    HW219044   3.695   0.915   3.539  0.6483  3.0227 -0.9889
 2528SOL     OW19045   0.605   4.534   7.621 -0.2348 -0.4671 -1.2526
 2528SOL    HW119046   0.654   4.551   7.541  1.1020  0.3863 -0.2668
 2528SOL    HW219047   0.642   4.599   7.681 -0.1121 -3.0725  1.4747
 2529SOL     OW19048   0.789   1.097   1.209  0.1320 -0.3641 -0.2786
 2529SOL    HW119049   0.809   1.078   1.301 -1.2791  1.1540  0.3311
 2529SOL    HW219050   0.874   1.125   1.175 -0.1345  0.4662 -0.2580
 2530SOL     OW19051   1.579   3.696   5.913  0.5621  0.5293 -0.0954
 2530SOL    HW119052   1.568   3.636   5.987 -2.5997 -1.5535 -2.2442
 2530SOL    HW219053   1.523   3.648   5.851  1.3992  0.0680 -0.4894
 2531SOL     OW19054   0.670   2.270   7.937  0.2510  0.1284  0.3523
 2531SOL    HW119055   0.731   2.329   7.892  0.2762  0.2006  0.4801
 2531SOL    HW219056   0.726   2.211   7.988 -1.4934 -2.3860 -0.6355
 2532SOL     OW19057   1.418   0.110   6.619  0.1742  0.5200 -0.3279
 2532SOL    HW119058   1.406   0.065   6.534  0.1338 -0.9728  0.4627
 2532SOL    HW219059   1.500   0.066   6.642 -0.5284 -1.0363 -0.7796
 2533SOL     OW19060   4.071   2.414   5.567 -0.2934  0.3502 -0.2071
 2533SOL    HW119061   4.112   2.355   5.503  0.0436  0.0031  0.3291
 2533SOL    HW219062   3.993   2.359   5.579 -0.5525  0.2519 -2.3064
 2534SOL     OW19063   3.281   1.266   8.267  0.2598 -0.2024  0.4327
 2534SOL    HW119064   3.271   1.357   8.296 -0.5221 -0.6034  1.3940
 2534SOL    HW219065   3.375   1.266   8.288  0.5032 -1.3556 -0.6863
 2535SOL     OW19066   1.942   2.231  12.204  0.4826  0.7323  0.4943
 2535SOL    HW119067   1.936   2.281  12.285  0.4623  3.2699 -1.0475
 2535SOL    HW219068   1.977   2.150  12.240 -0.0873  0.1364 -0.2923
 2536SOL     OW19069   0.934   0.483  12.363  0.2299 -0.3267  0.3864
 2536SOL    HW119070   1.025   0.468  12.338 -0.0795  0.0064 -0.9531
 2536SOL    HW219071   0.904   0.429  12.290  0.8729  1.3997 -1.1443
 2537SOL     OW19072   0.925   3.251   0.722 -0.2909  0.2860  0.3319
 2537SOL    HW119073   0.897   3.242   0.813 -0.2812 -0.5601  0.2513
 2537SOL    HW219074   0.953   3.342   0.709  0.3190  0.1819  0.9560
 2538SOL     OW19075   2.819   0.831  13.145 -0.3678  0.4856  0.4448
 2538SOL    HW119076   2.809   0.739  13.167  1.7720  1.0179  3.7281
 2538SOL    HW219077   2.881   0.850  13.215  0.5839  0.0755 -0.2986
 2539SOL     OW19078   2.282   4.627   7.397 -0.4439  0.2721 -0.4838
 2539SOL    HW119079   2.268   4.630   7.492  3.5477 -1.2426  0.1284
 2539SOL    HW219080   2.208   4.580   7.359  1.2513 -0.7557 -2.4767
 2540SOL     OW19081   4.383   1.354   7.739 -0.0266  0.1074  0.4261
 2540SOL    HW119082   4.445   1.349   7.667  0.6393  1.7889  0.8805
 2540SOL    HW219083   4.341   1.437   7.716  0.4071 -0.4347 -2.3085
 2541SOL     OW19084   3.344   0.425   5.349 -0.5062 -0.2375 -0.1507
 2541SOL    HW119085   3.437   0.430   5.370 -0.8835  3.4735  0.5941
 2541SOL    HW219086   3.292   0.416   5.429  0.5581 -0.6406  0.4960
 2542SOL     OW19087   3.516   2.615   6.414 -0.4148  0.4485  0.0938
 2542SOL    HW119088   3.483   2.694   6.372 -1.1347  0.2989  0.3882
 2542SOL    HW219089   3.515   2.645   6.505 -1.1365 -1.5213  0.7329
 2543SOL     OW19090   3.421   1.717   3.481  0.3918  0.3398  0.0883
 2543SOL    HW119091   3.493   1.737   3.423  0.9735 -1.0621  0.3224
 2543SOL    HW219092   3.466   1.664   3.548 -0.6083 -2.3906 -1.3909
 2544SOL     OW19093   0.714   3.124   4.373 -0.5761  0.2459  0.0205
 2544SOL    HW119094   0.807   3.125   4.394 -0.6655 -2.5562  0.5964
 2544SOL    HW219095   0.679   3.070   4.445 -0.3386  0.7791  0.5328
 2545SOL     OW19096   0.591   3.868   4.186  0.2591 -0.6066  0.5154
 2545SOL    HW119097   0.551   3.796   4.138  2.0570 -0.9973 -0.4293
 2545SOL    HW219098   0.609   3.828   4.271  1.4623  1.1319  1.0908
 2546SOL     OW19099   3.557   1.159   7.134 -0.1155 -0.2450 -0.1775
 2546SOL    HW119100   3.471   1.130   7.102  0.2234 -1.3763 -0.0547
 2546SOL    HW219101   3.571   1.236   7.078  2.4591  1.1898  2.4812
 2547SOL     OW19102   0.076   2.599   5.379  0.4901  0.5600 -0.1299
 2547SOL    HW119103   0.057   2.506   5.364 -0.3760  0.8077 -0.5886
 2547SOL    HW219104   0.033   2.643   5.305  0.3184  0.7064  0.0560
 2548SOL     OW19105   0.727   1.957   1.476 -0.2629 -0.0675 -0.1382
 2548SOL    HW119106   0.806   1.904   1.462  0.9957  1.9334 -0.6294
 2548SOL    HW219107   0.738   2.047   1.445 -1.0967 -0.3053 -1.1447
 2549SOL     OW19108   2.553   0.286   8.481 -0.4092  0.0595 -0.0227
 2549SOL    HW119109   2.571   0.374   8.512  0.7516 -0.8232  1.8519
 2549SOL    HW219110   2.469   0.257   8.517  0.0275  1.3941  2.0864
 2550SOL     OW19111   3.862   4.447   2.609 -0.0340  0.7753  0.3904
 2550SOL    HW119112   3.927   4.480   2.547  0.5083 -1.7516 -0.3837
 2550SOL    HW219113   3.922   4.456   2.684 -0.6763  0.6660  0.9162
 2551SOL     OW19114   2.914   1.153   4.805 -0.0119 -0.0310  0.4321
 2551SOL    HW119115   2.980   1.121   4.866  0.5590  0.9401  0.3323
 2551SOL    HW219116   2.864   1.073   4.788 -0.3405  0.3982 -0.6703
 2552SOL     OW19117   1.927   0.946   7.974  0.6459 -0.1206 -0.6416
 2552SOL    HW119118   1.929   0.896   8.056 -1.7069 -1.0883 -1.1979
 2552SOL    HW219119   2.021   0.954   7.954  1.0411 -3.8333 -0.2701
 2553SOL     OW19120   3.270   1.357   7.848 -0.6218 -0.2019  0.0234
 2553SOL    HW119121   3.184   1.386   7.819 -1.5983 -3.8565 -0.8069
 2553SOL    HW219122   3.316   1.332   7.768  1.1751 -0.3867  1.1112
 2554SOL     OW19123   1.955   2.334   5.892 -0.1949 -0.6221 -0.4491
 2554SOL    HW119124   1.983   2.332   5.984  0.4596 -0.4370 -0.6464
 2554SOL    HW219125   2.011   2.265   5.856  1.1110  0.1549  0.0826
 2555SOL     OW19126   3.985   1.738   4.785 -0.1423 -0.2551  0.6253
 2555SOL    HW119127   3.983   1.673   4.855 -0.0814  1.4355  2.1698
 2555SOL    HW219128   3.892   1.749   4.765 -0.2317 -1.8820  0.0976
 2556SOL     OW19129   0.953   2.768   9.572  0.4257  0.4764 -0.5181
 2556SOL    HW119130   0.998   2.718   9.640 -1.4602 -1.3196 -0.5991
 2556SOL    HW219131   0.927   2.847   9.621 -3.9466 -0.5403 -1.2682
 2557SOL     OW19132   3.162   3.393  13.039 -0.2089  0.2510 -0.0370
 2557SOL    HW119133   3.144   3.305  13.073 -0.9818  1.1896  1.9934
 2557SOL    HW219134   3.248   3.387  12.998 -0.8533 -1.0127 -1.2381
 2558SOL     OW19135   0.063   1.785   3.332 -0.0533  0.1158 -0.2868
 2558SOL    HW119136   0.014   1.704   3.323 -2.7653  1.7790 -0.6114
 2558SOL    HW219137   0.023   1.803   3.417 -0.0951  0.8630 -0.4649
 2559SOL     OW19138   3.240   2.081   0.295 -0.0653 -0.4807 -0.4815
 2559SOL    HW119139   3.287   2.005   0.331  1.5626  1.6495  1.9117
 2559SOL    HW219140   3.149   2.054   0.291  0.3313 -2.3250  3.0482
 2560SOL     OW19141   3.046   4.471   7.623 -0.1912 -0.0221  0.1373
 2560SOL    HW119142   2.992   4.501   7.550  0.4253 -0.6607 -0.5802
 2560SOL    HW219143   3.080   4.558   7.644 -1.9472  0.4023  1.1725
 2561SOL     OW19144   0.615   4.603   6.571 -0.4729  0.1999  0.8455
 2561SOL    HW119145   0.620   4.543   6.498  0.8700  0.3893  0.7948
 2561SOL    HW219146   0.568   4.677   6.532  1.5807  0.7906 -0.4452
 2562SOL     OW19147   1.700   3.025  10.730 -0.3077  0.4352 -0.1510
 2562SOL    HW119148   1.711   3.065  10.816  0.7568  0.6138 -0.3757
 2562SOL    HW219149   1.666   2.939  10.756  0.1175  0.2168 -0.3318
 2563SOL     OW19150   4.111   0.129   7.772 -0.1985 -0.0138 -0.2310
 2563SOL    HW119151   4.045   0.196   7.751  0.8247  0.9723 -0.3035
 2563SOL    HW219152   4.083   0.094   7.856  1.6073 -1.1610 -0.1243
 2564SOL     OW19153   4.458   0.093   1.870 -0.2097 -0.3749  0.0516
 2564SOL    HW119154   4.510   0.049   1.937  0.3904  0.1511 -0.0608
 2564SOL    HW219155   4.378   0.041   1.878  0.3430 -1.1423  0.5338
 2565SOL     OW19156   3.479   2.871   4.434 -0.2136  0.3924 -0.2964
 2565SOL    HW119157   3.546   2.805   4.418  0.4380  1.4387 -1.8826
 2565SOL    HW219158   3.534   2.948   4.450 -0.0220  0.3145 -0.5827
 2566SOL     OW19159   4.431   2.474   3.490  0.1731  0.5369 -0.0164
 2566SOL    HW119160   4.517   2.434   3.502  0.5286  2.0153  2.3882
 2566SOL    HW219161   4.369   2.402   3.480 -0.6118  0.9697  1.7757
 2567SOL     OW19162   0.750   3.016   5.599  0.2200  0.4884  0.1056
 2567SOL    HW119163   0.741   3.043   5.691  0.8577  2.7638 -0.4878
 2567SOL    HW219164   0.662   2.986   5.579  0.6323 -1.6193  1.4678
 2568SOL     OW19165   4.514   3.038   6.897 -0.0472 -0.9156  0.0790
 2568SOL    HW119166   4.478   2.979   6.963 -0.7087 -0.2534  0.3109
 2568SOL    HW219167   4.607   3.041   6.921 -0.0123 -1.9424  0.0734
 2569SOL     OW19168   1.764   2.737   6.308 -0.3105 -0.0868 -0.4570
 2569SOL    HW119169   1.672   2.764   6.309 -0.2788  0.0063 -0.1219
 2569SOL    HW219170   1.785   2.704   6.221 -1.0240  1.1465 -1.1063
 2570SOL     OW19171   0.142   1.578   7.264  0.0404 -0.1935  0.7169
 2570SOL    HW119172   0.212   1.643   7.256  1.0556 -1.5230 -1.2331
 2570SOL    HW219173   0.093   1.598   7.184  0.1738  0.8286  0.8885
 2571SOL     OW19174   3.082   3.932   5.252  0.1513 -0.1244  0.4482
 2571SOL    HW119175   3.153   3.869   5.258 -0.2100 -0.5527  0.2193
 2571SOL    HW219176   3.009   3.901   5.305 -2.2299  0.8692 -2.2165
 2572SOL     OW19177   4.605   4.292   2.410  0.1052  0.2096 -0.1061
 2572SOL    HW119178   4.577   4.337   2.490 -3.5560 -2.3241  0.0147
 2572SOL    HW219179   4.532   4.298   2.348 -0.0206  2.8219  0.2938
 2573SOL     OW19180   0.732   4.019   9.828 -0.2300 -0.3795 -0.0796
 2573SOL    HW119181   0.714   3.925   9.829  1.0167 -0.6496 -2.2589
 2573SOL    HW219182   0.695   4.030   9.740 -0.5724 -0.6919  0.0267
 2574SOL     OW19183   1.569   2.823   4.758  0.0582  0.0504 -0.3601
 2574SOL    HW119184   1.526   2.808   4.674 -0.1898 -2.2913  0.2012
 2574SOL    HW219185   1.556   2.918   4.766 -0.8339 -0.2189  1.3146
 2575SOL     OW19186   3.588   0.499   5.072 -0.2083  0.5454  0.5805
 2575SOL    HW119187   3.501   0.517   5.037 -0.2688  0.0390  0.4653
 2575SOL    HW219188   3.633   0.583   5.077  0.4000  0.1979  1.0857
 2576SOL     OW19189   2.767   4.555   7.496 -0.3291 -0.7354 -0.3017
 2576SOL    HW119190   2.672   4.547   7.488 -0.2216 -0.4681 -1.9017
 2576SOL    HW219191   2.789   4.487   7.432  1.3713  0.2642 -0.7814
 2577SOL     OW19192   0.286   3.870   7.668 -0.1646 -0.6769  0.2789
 2577SOL    HW119193   0.310   3.960   7.643  1.8479 -1.1378  0.5457
 2577SOL    HW219194   0.343   3.821   7.610 -1.3913  2.1341 -3.3104
 2578SOL     OW19195   0.662   3.402   8.572  0.1280 -0.2344  0.6827
 2578SOL    HW119196   0.689   3.419   8.481 -1.9625 -0.9648 -0.0639
 2578SOL    HW219197   0.573   3.369   8.569  0.1096 -0.4504  3.5313
 2579SOL     OW19198   2.620   1.271   1.000 -0.0643  0.8276  0.7368
 2579SOL    HW119199   2.714   1.282   1.014  0.0367  0.0249  0.6455
 2579SOL    HW219200   2.585   1.361   0.993 -0.3658  0.6273 -0.3007
 2580SOL     OW19201   1.575   0.414   9.085  0.4775  0.4106  0.2873
 2580SOL    HW119202   1.479   0.420   9.088  0.5398  1.3914  0.4179
 2580SOL    HW219203   1.590   0.359   9.162 -0.4558  1.6109  1.3343
 2581SOL     OW19204   3.542   4.038   7.093 -0.1643 -0.0105 -0.7003
 2581SOL    HW119205   3.528   4.090   7.172  0.1742  1.1147 -1.3840
 2581SOL    HW219206   3.535   4.108   7.028  1.7452 -1.1626 -2.1410
 2582SOL     OW19207   0.055   3.451  14.794  0.6067  0.0374 -0.5173
 2582SOL    HW119208   0.133   3.398  14.813 -0.7524 -1.0812  1.9558
 2582SOL    HW219209   0.026   3.429  14.706 -0.5464 -1.5849  0.2640
 2583SOL     OW19210   1.873   0.056   2.448  0.5706  0.5779  0.1064
 2583SOL    HW119211   1.906   0.128   2.502  2.6380  0.1990 -0.6913
 2583SOL    HW219212   1.837   0.096   2.369  1.6614  0.6214 -0.3585
 2584SOL     OW19213   0.903   2.252   4.310 -0.4873  0.1002  0.5958
 2584SOL    HW119214   0.932   2.165   4.284  0.2158  0.1335  1.2542
 2584SOL    HW219215   0.953   2.307   4.250  0.7727 -1.2984  0.3750
 2585SOL     OW19216   2.490   3.404   6.482 -1.1045  0.4235  0.1398
 2585SOL    HW119217   2.577   3.399   6.443 -0.7960  0.5318  0.8048
 2585SOL    HW219218   2.496   3.352   6.562  2.1712 -0.4084 -0.6487
 2586SOL     OW19219   3.172   2.089  15.074  0.5793  0.2169  0.1341
 2586SOL    HW119220   3.236   2.146  15.032  1.3863  0.0213  1.0889
 2586SOL    HW219221   3.120   2.061  14.998  3.5456 -2.6125 -0.8403
 2587SOL     OW19222   0.149   2.418   4.468 -0.1223  0.1098  0.3134
 2587SOL    HW119223   0.089   2.445   4.399  0.0920  2.1628  0.9319
 2587SOL    HW219224   0.165   2.508   4.497  0.9970 -0.6247  1.9846
 2588SOL     OW19225   1.372   2.006  16.306  0.5145  0.6344  0.4473
 2588SOL    HW119226   1.418   2.048  16.378  1.3893 -2.8231  1.8900
 2588SOL    HW219227   1.431   2.032  16.235 -2.4466  0.7229 -2.0077
 2589SOL     OW19228   0.812   4.498   3.810 -0.2020  0.0044 -0.2027
 2589SOL    HW119229   0.798   4.520   3.718  0.2942 -2.1422 -0.7932
 2589SOL    HW219230   0.828   4.403   3.810 -0.9567 -0.1262 -1.1349
 2590SOL     OW19231   1.666   0.177   8.210 -0.2592 -0.2752  0.0044
 2590SOL    HW119232   1.597   0.201   8.272 -0.6353  0.5633 -0.7262
 2590SOL    HW219233   1.716   0.259   8.204  0.6540 -0.8397 -0.0847
 2591SOL     OW19234   4.088   2.930   9.484 -0.2740 -0.3810  0.0687
 2591SOL    HW119235   4.099   2.856   9.544  0.8925  0.4473  0.8894
 2591SOL    HW219236   4.012   2.896   9.436 -1.6878  1.3794  1.0587
 2592SOL     OW19237   1.548   2.880   7.249 -0.4803  0.1349  0.3396
 2592SOL    HW119238   1.538   2.964   7.294 -0.1651 -0.4715  1.5494
 2592SOL    HW219239   1.459   2.846   7.248  0.0918 -1.3234  0.0288
 2593SOL     OW19240   0.697   3.130   8.894 -0.1808 -0.1607 -0.0791
 2593SOL    HW119241   0.670   3.098   8.980 -1.7472 -0.6788 -0.7573
 2593SOL    HW219242   0.683   3.224   8.895  0.4653 -0.0550 -1.4968
 2594SOL     OW19243   2.809   2.202   5.172 -0.5285  0.3499 -0.7088
 2594SOL    HW119244   2.863   2.272   5.208  1.1181 -0.9289 -0.7392
 2594SOL    HW219245   2.776   2.166   5.254  0.8620  0.3262 -0.1677
 2595SOL     OW19246   0.768   4.621   1.197  1.1407 -0.1609 -0.5826
 2595SOL    HW119247   0.710   4.585   1.264  0.1885  0.2264 -1.1942
 2595SOL    HW219248   0.838   4.557   1.208  1.3350 -0.5959 -4.4689
 2596SOL     OW19249   3.956   4.329   1.993  0.3193 -0.2556 -0.6493
 2596SOL    HW119250   3.930   4.241   1.968 -0.8235 -0.7816  2.3830
 2596SOL    HW219251   3.871   4.370   2.009 -1.1262 -2.4610 -2.7834
 2597SOL     OW19252   0.970   3.640  10.312  0.1534 -0.1624 -0.3106
 2597SOL    HW119253   1.040   3.670  10.254 -0.6500  1.8513 -0.2339
 2597SOL    HW219254   0.968   3.544  10.314  0.6709 -0.1839 -0.6579
 2598SOL     OW19255   2.105   0.287  14.276 -0.5409  0.3010 -0.1885
 2598SOL    HW119256   2.066   0.286  14.364  1.2117  1.5766  0.6136
 2598SOL    HW219257   2.057   0.210  14.246 -1.4433  1.6335 -2.1926
 2599SOL     OW19258   2.747   3.718  17.091 -0.3882  0.0559  0.1253
 2599SOL    HW119259   2.821   3.685  17.040  0.8922  2.4476  0.4123
 2599SOL    HW219260   2.784   3.709  17.179  2.1023 -0.2782 -0.9311
 2600SOL     OW19261   4.167   3.039   6.154 -0.4312 -0.4291 -0.0146
 2600SOL    HW119262   4.244   3.034   6.097 -0.3840 -0.3605  0.0442
 2600SOL    HW219263   4.182   2.959   6.204 -2.1569 -0.6423  0.1813
 2601SOL     OW19264   1.551   1.423   3.575  0.0021 -0.4541 -0.1654
 2601SOL    HW119265   1.554   1.503   3.522  0.7700  0.2914  0.9922
 2601SOL    HW219266   1.626   1.375   3.540  0.3104  0.6529 -1.0403
 2602SOL     OW19267   0.392   2.085   5.101  0.6026 -0.3338  0.9307
 2602SOL    HW119268   0.321   2.041   5.147  0.3967  0.0116  0.9440
 2602SOL    HW219269   0.348   2.162   5.063  0.0663 -0.9366  0.3339
 2603SOL     OW19270   0.156   2.610   6.330  0.2268  0.3144  0.3635
 2603SOL    HW119271   0.135   2.603   6.237 -1.0198  2.9191  0.4672
 2603SOL    HW219272   0.124   2.524   6.359 -1.2761  0.3617 -1.1647
 2604SOL     OW19273   4.603   0.813   5.900 -0.3804 -0.1074  0.4523
 2604SOL    HW119274   4.573   0.754   5.830 -0.8369  0.0201  0.5411
 2604SOL    HW219275   4.683   0.839   5.855 -0.9324  1.9135  0.6338
 2605SOL     OW19276   2.049   1.652   5.126  0.5361  0.1509  0.0995
 2605SOL    HW119277   2.038   1.730   5.179  0.3403  1.8186 -2.3812
 2605SOL    HW219278   2.124   1.615   5.172  0.1255 -1.0807 -0.2238
 2606SOL     OW19279   0.796   3.468   4.919 -0.3157 -0.2819  0.4062
 2606SOL    HW119280   0.796   3.375   4.894 -0.3696 -0.3682  0.7209
 2606SOL    HW219281   0.886   3.478   4.948 -0.7187 -2.5234  2.3998
 2607SOL     OW19282   4.002   0.394  10.421  0.0704 -0.5671 -0.2171
 2607SOL    HW119283   3.960   0.410  10.337 -1.8394  2.2791  1.2794
 2607SOL    HW219284   3.997   0.298  10.418 -0.2008 -0.6179  2.1869
 2608SOL     OW19285   2.048   3.509   3.153 -0.6537 -0.6762  0.3191
 2608SOL    HW119286   2.089   3.591   3.123 -0.5177 -1.4285 -1.5757
 2608SOL    HW219287   2.074   3.512   3.245  0.6644  0.2665 -0.0840
 2609SOL     OW19288   4.074   0.613   1.478 -0.4031 -0.1865 -0.2263
 2609SOL    HW119289   4.039   0.700   1.495  1.5499  0.6128 -0.2382
 2609SOL    HW219290   4.027   0.556   1.539 -1.6205  0.5495 -0.4783
 2610SOL     OW19291   2.207   4.257   4.722  0.0427  0.6111  0.8321
 2610SOL    HW119292   2.237   4.247   4.812  1.8303 -1.9891 -0.0319
 2610SOL    HW219293   2.129   4.311   4.733 -0.1333  0.6301 -0.4863
 2611SOL     OW19294   2.300   0.778   8.106  0.0735 -0.3004 -0.2022
 2611SOL    HW119295   2.269   0.809   8.191 -2.5198  2.2605 -2.0557
 2611SOL    HW219296   2.386   0.743   8.130  0.5460  1.5662  0.8368
 2612SOL     OW19297   3.933   0.209  13.077  0.1079 -0.0442 -0.2695
 2612SOL    HW119298   3.990   0.132  13.071 -0.5021 -0.5835  0.8153
 2612SOL    HW219299   3.922   0.222  12.983  0.1393 -0.1897 -0.2938
 2613SOL     OW19300   4.279   3.506   4.635 -0.3551  0.0735  0.5298
 2613SOL    HW119301   4.344   3.477   4.698  0.6890  1.0899 -0.0876
 2613SOL    HW219302   4.270   3.430   4.577  0.7597  2.0808 -2.2810
 2614SOL     OW19303   3.050   1.358   8.072 -0.4661 -0.4237  0.1183
 2614SOL    HW119304   3.095   1.414   8.135 -0.4585 -0.0849 -0.1889
 2614SOL    HW219305   3.108   1.365   7.996 -0.3817 -0.5640  0.1699
 2615SOL     OW19306   4.145   1.256   8.860 -0.5917  0.5574 -0.7822
 2615SOL    HW119307   4.236   1.226   8.868 -0.2298  1.7360 -0.4947
 2615SOL    HW219308   4.166   1.348   8.844  1.3068  0.0843 -1.0086
 2616SOL     OW19309   4.529   0.913   9.446 -0.6207 -0.7797  0.7301
 2616SOL    HW119310   4.570   0.981   9.498 -1.4253  0.2251  0.0484
 2616SOL    HW219311   4.589   0.840   9.462  2.0834  0.9889 -1.4870
 2617SOL     OW19312   4.270   3.217   2.212  0.3288  0.2333  0.1292
 2617SOL    HW119313   4.360   3.194   2.189 -0.2998 -3.1310  0.9638
 2617SOL    HW219314   4.232   3.160   2.144  0.3898 -0.8746  1.0150
 2618SOL     OW19315   0.553   0.495  11.206  0.1510 -0.5470  0.3870
 2618SOL    HW119316   0.538   0.581  11.245 -0.9699 -0.3503 -0.4725
 2618SOL    HW219317   0.541   0.508  11.112 -2.2617  1.8138  1.0130
 2619SOL     OW19318   0.386   0.258   4.530 -0.3797 -0.0398  0.4704
 2619SOL    HW119319   0.346   0.177   4.562  1.5492 -1.5188 -0.8410
 2619SOL    HW219320   0.474   0.242   4.563 -1.1062 -1.0429  1.9041
 2620SOL     OW19321   4.497   0.403   4.531  0.3644  0.5548  0.2069
 2620SOL    HW119322   4.532   0.324   4.490  0.9398  0.7913  0.2504
 2620SOL    HW219323   4.412   0.374   4.564  0.8701  0.5636  1.4978
 2621SOL     OW19324   3.289   0.881  16.926  0.4601  0.2652  0.1635
 2621SOL    HW119325   3.371   0.837  16.905  0.0092 -0.2466 -0.5479
 2621SOL    HW219326   3.323   0.970  16.932  1.7580 -0.1394 -1.1724
 2622SOL     OW19327   1.394   3.027  11.892 -0.4948  0.0490  0.3403
 2622SOL    HW119328   1.314   3.069  11.924 -0.0015  1.8559 -0.7927
 2622SOL    HW219329   1.365   2.939  11.870  0.6813 -0.3185  0.2789
 2623SOL     OW19330   2.480   3.399   2.952 -0.4008 -0.4751 -0.0610
 2623SOL    HW119331   2.410   3.340   2.981 -0.5700  0.0988  0.7169
 2623SOL    HW219332   2.474   3.400   2.856  0.2734 -0.0789 -0.0970
 2624SOL     OW19333   1.693   1.101  10.928  0.0559 -0.0970 -0.1090
 2624SOL    HW119334   1.729   1.023  10.888  0.5616  0.1392 -0.1140
 2624SOL    HW219335   1.769   1.142  10.969 -0.0392  0.2105 -0.2347
 2625SOL     OW19336   4.535   0.860   6.910 -0.4086 -0.1142  0.3724
 2625SOL    HW119337   4.608   0.815   6.953  0.3391 -0.1919 -1.0085
 2625SOL    HW219338   4.507   0.917   6.981  0.4885 -1.4477  1.8077
 2626SOL     OW19339   2.162   2.311   6.498  0.6410  0.3248  0.1835
 2626SOL    HW119340   2.169   2.216   6.491 -2.1653  0.1625 -0.4787
 2626SOL    HW219341   2.250   2.339   6.524  0.5268  1.2747 -0.4529
 2627SOL     OW19342   1.179   4.154   0.201  0.1793  0.0684 -0.1409
 2627SOL    HW119343   1.210   4.071   0.164 -1.4509  0.2268 -1.8523
 2627SOL    HW219344   1.254   4.213   0.207 -0.2318  0.7131 -1.2773
 2628SOL     OW19345   1.926   0.462   8.443 -0.2770 -0.1699 -0.1768
 2628SOL    HW119346   1.910   0.367   8.443  1.4441 -0.4625  0.7320
 2628SOL    HW219347   1.858   0.501   8.498  0.6513  0.4269  0.5436
 2629SOL     OW19348   3.838   0.347  17.275 -0.0595 -0.4078  0.1066
 2629SOL    HW119349   3.795   0.274  17.230  0.1387  0.3072 -1.2392
 2629SOL    HW219350   3.916   0.299  17.304  0.0458 -2.0184 -2.7700
 2630SOL     OW19351   4.429   0.125   3.800 -0.0962 -0.3013  0.2868
 2630SOL    HW119352   4.419   0.148   3.892  3.1164 -0.3589  0.6632
 2630SOL    HW219353   4.340   0.129   3.764 -0.1019 -1.7681  0.1054
 2631SOL     OW19354   3.052   2.043   6.116  0.5253  0.3434 -0.0783
 2631SOL    HW119355   2.967   2.048   6.160 -0.4485  0.4004 -1.9376
 2631SOL    HW219356   3.107   2.021   6.191 -1.3777  1.1772  1.5573
 2632SOL     OW19357   2.376   3.091   7.358  1.0314  0.0966 -0.3925
 2632SOL    HW119358   2.357   3.169   7.306  0.6410  0.3947  0.1940
 2632SOL    HW219359   2.304   3.036   7.327 -0.1406  1.7487 -0.6470
 2633SOL     OW19360   0.877   1.733   5.226 -0.2808  0.1956 -0.2764
 2633SOL    HW119361   0.863   1.681   5.147 -0.3309 -1.5330  0.8827
 2633SOL    HW219362   0.792   1.777   5.214 -0.5536 -0.1114  0.5672
 2634SOL     OW19363   2.089   2.902   4.197  0.0334 -0.5416  0.0312
 2634SOL    HW119364   2.030   2.878   4.125 -0.1206 -0.1611  0.0310
 2634SOL    HW219365   2.165   2.868   4.149 -0.0350 -1.5114  0.6018
 2635SOL     OW19366   1.632   3.566  13.414  0.3885  0.6655 -0.0854
 2635SOL    HW119367   1.595   3.637  13.466  2.2287  0.2298  1.8072
 2635SOL    HW219368   1.711   3.605  13.377  0.5091  0.5177  0.0168
 2636SOL     OW19369   4.441   3.898  14.410  0.1496  0.2095 -0.5483
 2636SOL    HW119370   4.405   3.964  14.351 -0.2247  1.1403  0.7169
 2636SOL    HW219371   4.525   3.937  14.434 -0.5441  1.2307  0.2532
 2637SOL     OW19372   3.022   2.047   9.894  0.2552  0.3246 -0.6172
 2637SOL    HW119373   2.940   2.088   9.866 -0.0347 -0.6055 -1.1024
 2637SOL    HW219374   2.995   1.957   9.909 -0.7848  0.5358 -1.2160
 2638SOL     OW19375   2.767   0.008   6.670  0.0089 -0.1120 -0.4959
 2638SOL    HW119376   2.675   0.034   6.668 -0.2864 -0.9204  2.1050
 2638SOL    HW219377   2.782   0.077   6.735  1.5185 -0.4466 -0.5039
 2639SOL     OW19378   0.274   2.847   6.909  0.6000  0.1139  0.5799
 2639SOL    HW119379   0.238   2.894   6.984 -0.8868  0.7628 -0.5500
 2639SOL    HW219380   0.247   2.758   6.930  2.0051 -0.7988 -1.4456
 2640SOL     OW19381   1.604   3.174  16.177 -0.1160 -0.2294 -0.5791
 2640SOL    HW119382   1.632   3.221  16.255  0.0884 -2.0374  0.4436
 2640SOL    HW219383   1.534   3.232  16.148  0.5580  0.4234 -0.8994
 2641SOL     OW19384   2.727   2.807   8.386 -0.0586 -0.2409 -0.6238
 2641SOL    HW119385   2.754   2.885   8.436  0.6341 -0.6018 -0.4393
 2641SOL    HW219386   2.793   2.812   8.317 -0.8825 -1.0650 -1.4766
 2642SOL     OW19387   0.894   4.415  12.608 -0.0026 -0.1753 -0.0854
 2642SOL    HW119388   0.974   4.362  12.607  0.9927  1.3433 -0.0050
 2642SOL    HW219389   0.889   4.422  12.513 -0.5222  2.0807  0.1028
 2643SOL     OW19390   2.529   4.385   2.555  0.0024  1.0482  0.2871
 2643SOL    HW119391   2.519   4.430   2.639 -1.3859 -2.0615  1.7679
 2643SOL    HW219392   2.462   4.427   2.501 -0.1937  3.3819  2.3202
 2644SOL     OW19393   3.777   1.236   6.082  0.2203  0.1419  0.2399
 2644SOL    HW119394   3.830   1.304   6.041 -0.8508  0.7306 -0.1608
 2644SOL    HW219395   3.752   1.177   6.011 -0.8964  0.1227  0.6436
 2645SOL     OW19396   3.602   4.084   2.414 -0.7459  0.5882  0.4772
 2645SOL    HW119397   3.638   4.173   2.423 -0.4788  0.7493 -2.1386
 2645SOL    HW219398   3.642   4.062   2.330 -2.7595 -1.0152 -0.0507
 2646SOL     OW19399   4.485   1.801   5.378  0.1547  0.2187 -0.3579
 2646SOL    HW119400   4.415   1.736   5.385 -0.6539  1.2214  0.9363
 2646SOL    HW219401   4.547   1.745   5.424  2.0388  2.2854 -0.3187
 2647SOL     OW19402   2.842   0.510   2.301 -0.5281  0.0893 -0.0994
 2647SOL    HW119403   2.847   0.448   2.374 -2.3872  0.1065  0.0557
 2647SOL    HW219404   2.750   0.538   2.310 -0.6914 -1.1258  2.0518
 2648SOL     OW19405   1.247   3.068   2.296 -0.7863  0.0692  0.0802
 2648SOL    HW119406   1.260   3.099   2.206 -2.5126  2.1285  0.5623
 2648SOL    HW219407   1.326   3.016   2.314  0.0432  1.3603  0.1745
 2649SOL     OW19408   3.813   2.296   9.084  0.1597  0.0605  0.0187
 2649SOL    HW119409   3.754   2.257   9.148 -0.3155  0.7917  0.0242
 2649SOL    HW219410   3.755   2.368   9.059  0.8453  0.2334 -1.1210
 2650SOL     OW19411   3.567   0.254   9.733  0.3367  0.8208 -0.1487
 2650SOL    HW119412   3.498   0.314   9.760  0.2146 -0.3802  2.1934
 2650SOL    HW219413   3.570   0.281   9.641 -3.3983 -1.7160 -1.0288
 2651SOL     OW19414   2.435   3.383  15.002  0.6631 -0.3289 -0.0792
 2651SOL    HW119415   2.426   3.349  14.912 -1.0235 -1.3435  0.4735
 2651SOL    HW219416   2.476   3.469  14.992 -1.2036  0.7927  1.9167
 2652SOL     OW19417   3.201   2.522   1.538 -0.4236 -0.2731  0.1853
 2652SOL    HW119418   3.246   2.440   1.558  1.1197 -0.0516 -2.5059
 2652SOL    HW219419   3.215   2.561   1.625  2.2190 -1.2498  0.1976
 2653SOL     OW19420   0.190   0.825   3.170 -0.0686  0.5526 -0.7548
 2653SOL    HW119421   0.143   0.836   3.253 -2.4395 -3.0660 -1.6115
 2653SOL    HW219422   0.114   0.809   3.114 -2.5868  0.3767  2.7450
 2654SOL     OW19423   0.628   2.880   6.542  0.1147 -0.2512  0.0853
 2654SOL    HW119424   0.620   2.969   6.510  0.7565 -0.2383 -0.0348
 2654SOL    HW219425   0.638   2.849   6.452 -0.7079  0.2817 -0.1877
 2655SOL     OW19426   1.821   1.597   0.953 -0.5823 -0.0901 -0.5784
 2655SOL    HW119427   1.903   1.628   0.990 -0.5511 -0.2950 -0.4785
 2655SOL    HW219428   1.783   1.555   1.030  0.9302 -0.1153  0.1457
 2656SOL     OW19429   2.081   1.203  13.903 -0.0851 -0.5957  0.4631
 2656SOL    HW119430   2.052   1.137  13.966 -2.6674 -1.8478 -2.0649
 2656SOL    HW219431   2.175   1.185  13.912 -0.0427 -1.0064 -0.7883
 2657SOL     OW19432   3.751   0.861  16.851 -0.4235  0.2634 -0.5888
 2657SOL    HW119433   3.665   0.820  16.850 -0.6720  0.8148 -1.1602
 2657SOL    HW219434   3.804   0.823  16.921  0.3791  0.9279 -0.8325
 2658SOL     OW19435   1.155   3.605  17.637 -0.1703 -0.2620 -0.0049
 2658SOL    HW119436   1.165   3.652   0.038 -1.2511 -0.2763  0.1331
 2658SOL    HW219437   1.161   3.668  17.565  2.2040 -1.4143 -0.8128
 2659SOL     OW19438   3.738   0.230   4.466 -0.3055  0.2667 -0.3225
 2659SOL    HW119439   3.663   0.186   4.508 -1.7602  1.1105 -2.0424
 2659SOL    HW219440   3.808   0.168   4.484 -1.4646 -1.1377 -0.6976
 2660SOL     OW19441   4.471   1.724   6.902  0.2091 -0.3289  0.8157
 2660SOL    HW119442   4.419   1.724   6.982 -0.5612  0.8688  0.3096
 2660SOL    HW219443   4.419   1.776   6.841  0.7843  1.0336  1.4760
 2661SOL     OW19444   2.540   4.002   1.271  0.1787  0.2665  0.2692
 2661SOL    HW119445   2.583   3.960   1.196 -2.7770 -0.7702 -0.8547
 2661SOL    HW219446   2.591   3.963   1.342  1.5598  0.2924 -0.7084
 2662SOL     OW19447   3.811   1.492   8.394 -0.4117  0.5580 -0.0033
 2662SOL    HW119448   3.894   1.446   8.398 -1.3160 -0.9821  1.0066
 2662SOL    HW219449   3.840   1.583   8.402  1.6477  0.0369 -1.7020
 2663SOL     OW19450   0.023   0.893  15.580 -0.0466 -0.4088  0.1216
 2663SOL    HW119451   0.048   0.946  15.505  0.9621 -0.0275  0.7289
 2663SOL    HW219452   0.048   0.951  15.651 -0.6581 -0.0672  0.0609
 2664SOL     OW19453   0.041   4.559   3.202 -0.1317 -0.4359 -0.8871
 2664SOL    HW119454   0.065   4.651   3.206 -1.2436 -0.1369 -1.0481
 2664SOL    HW219455   0.065   4.533   3.291 -0.0240 -0.0609 -0.8106
 2665SOL     OW19456   3.216   2.652   6.696  0.1207 -0.1389  0.1124
 2665SOL    HW119457   3.128   2.617   6.712  1.0470 -2.3098  0.3135
 2665SOL    HW219458   3.209   2.681   6.605 -0.8479 -0.5567  0.0559
 2666SOL     OW19459   0.817   2.045   5.947 -0.2354  0.1787  0.3187
 2666SOL    HW119460   0.844   2.032   5.857 -0.2715  0.2661  0.2946
 2666SOL    HW219461   0.832   2.140   5.945  1.7373 -0.1559 -0.4704
 2667SOL     OW19462   1.228   1.304   5.671 -0.3871 -0.0115  0.0049
 2667SOL    HW119463   1.162   1.260   5.725 -1.7912 -0.5679 -2.1585
 2667SOL    HW219464   1.186   1.305   5.585 -0.4043 -1.6814 -0.0189
 2668SOL     OW19465   3.815   3.485   5.642 -0.1515  0.6746  0.0002
 2668SOL    HW119466   3.815   3.390   5.655 -0.7272  0.6531 -0.1373
 2668SOL    HW219467   3.906   3.510   5.654 -0.3697  1.6902 -0.4744
 2669SOL     OW19468   0.359   1.162  15.349 -0.8107 -0.7006  0.5426
 2669SOL    HW119469   0.389   1.250  15.323 -1.7120  0.0260  1.9815
 2669SOL    HW219470   0.402   1.106  15.285  2.0066  0.8261  1.0826
 2670SOL     OW19471   1.430   0.273   8.383  0.0377  0.6102 -0.3902
 2670SOL    HW119472   1.435   0.342   8.450 -2.6209 -1.1851  1.6423
 2670SOL    HW219473   1.355   0.220   8.410  2.0199 -1.1142  1.7104
 2671SOL     OW19474   3.685   3.214   1.139 -0.1022  0.0611 -0.1147
 2671SOL    HW119475   3.641   3.140   1.097 -1.7418  0.8018  0.2662
 2671SOL    HW219476   3.769   3.209   1.094 -0.3753  1.2168 -0.7692
 2672SOL     OW19477   1.657   0.520   7.461 -0.4586  0.1544 -0.0083
 2672SOL    HW119478   1.586   0.464   7.491 -0.6748  1.2837  1.5813
 2672SOL    HW219479   1.706   0.533   7.543  1.6184  1.5722 -1.4487
 2673SOL     OW19480   2.905   0.805  17.130 -0.4048  0.5316  0.0707
 2673SOL    HW119481   2.847   0.728  17.130  0.2542  0.0087 -3.3428
 2673SOL    HW219482   2.875   0.850  17.208 -1.9301  2.6579 -1.7308
 2674SOL     OW19483   2.101   1.426  15.934  0.3215 -0.3374 -0.3167
 2674SOL    HW119484   2.096   1.500  15.995  2.5323 -0.9902  0.6449
 2674SOL    HW219485   2.025   1.383  15.972 -1.5361  2.5789 -0.6929
 2675SOL     OW19486   2.946   0.505   6.873 -0.5032 -1.0837 -0.4396
 2675SOL    HW119487   2.958   0.591   6.913  0.7541 -2.6109  2.5123
 2675SOL    HW219488   2.923   0.527   6.783 -0.2398 -0.8689 -0.4516
 2676SOL     OW19489   2.216   2.693  13.294 -0.3454  0.0866 -0.3431
 2676SOL    HW119490   2.129   2.659  13.271 -0.0377  1.8595 -4.2217
 2676SOL    HW219491   2.230   2.767  13.235  0.8624 -0.0854 -0.2641
 2677SOL     OW19492   1.344   1.916   3.436  0.6399 -0.9341 -0.4718
 2677SOL    HW119493   1.293   1.954   3.507  1.8829  0.0061 -0.0932
 2677SOL    HW219494   1.407   1.987   3.434  0.1065 -0.4580 -0.2537
 2678SOL     OW19495   1.798   3.979  14.078 -0.1201 -0.3108  0.1577
 2678SOL    HW119496   1.732   4.049  14.073 -0.9638 -1.3715 -3.0131
 2678SOL    HW219497   1.848   4.019  14.149 -2.3290  0.5241  1.2535
 2679SOL     OW19498   4.596   1.302   5.669  0.2696  0.8663 -0.3730
 2679SOL    HW119499   4.589   1.206   5.671  1.2635  0.8155  0.5403
 2679SOL    HW219500   4.504   1.326   5.661 -0.4394 -1.4515  0.6311
 2680SOL     OW19501   4.376   1.034   5.987 -0.4842  0.2697  0.1652
 2680SOL    HW119502   4.453   0.989   5.954  0.5817  1.8025  0.5625
 2680SOL    HW219503   4.344   0.994   6.068  0.4819 -1.0134 -0.0971
 2681SOL     OW19504   1.210   3.688  10.771  0.2274  0.0128  0.0664
 2681SOL    HW119505   1.223   3.783  10.769 -1.2432  0.2194  0.3546
 2681SOL    HW219506   1.253   3.663  10.853 -1.1103  0.1185  0.7989
 2682SOL     OW19507   0.748   4.670   4.259  0.3565 -0.5115 -0.2291
 2682SOL    HW119508   0.777   4.688   4.170  1.6868  1.1120  0.5228
 2682SOL    HW219509   0.790   0.021   4.308 -1.0700 -0.3514  0.7994
 2683SOL     OW19510   3.622   0.237   7.647 -0.6227 -0.3864 -0.6557
 2683SOL    HW119511   3.674   0.286   7.583 -0.6218 -0.8243 -0.9902
 2683SOL    HW219512   3.669   0.266   7.725 -2.5361  2.8058 -0.7083
 2684SOL     OW19513   3.526   2.704   3.795  0.3095 -0.6015 -0.3701
 2684SOL    HW119514   3.510   2.691   3.888  0.2403  0.2108 -0.2751
 2684SOL    HW219515   3.607   2.754   3.782 -0.7774  1.4550  0.8332
 2685SOL     OW19516   0.083   2.714   3.116 -0.6304  0.0603 -0.0898
 2685SOL    HW119517   0.118   2.688   3.030 -2.1834 -1.3100 -0.2933
 2685SOL    HW219518   4.709   2.721   3.100 -1.0116 -2.9520  0.9466
 2686SOL     OW19519   1.651   2.109  17.362 -0.4769  0.2748 -0.0976
 2686SOL    HW119520   1.581   2.124  17.426 -0.0254 -2.1984  0.9824
 2686SOL    HW219521   1.606   2.049  17.303 -1.4363 -0.4338  1.3567
 2687SOL     OW19522   3.801   1.720  11.255  0.0618 -0.6140 -0.5194
 2687SOL    HW119523   3.794   1.626  11.235 -3.2046 -0.4208 -0.2803
 2687SOL    HW219524   3.799   1.756  11.167 -0.9802  1.1129  0.2244
 2688SOL     OW19525   4.476   0.017   2.802 -0.3129  0.6599  0.4031
 2688SOL    HW119526   4.507   4.658   2.847 -0.2934  0.0242 -0.7313
 2688SOL    HW219527   4.383   4.718   2.816 -0.3299 -0.7628 -1.6590
 2689SOL     OW19528   3.439   2.611  12.304  0.2670  0.0597 -0.5381
 2689SOL    HW119529   3.350   2.627  12.338 -0.0811  1.5676 -2.1815
 2689SOL    HW219530   3.454   2.686  12.247 -1.6987  0.4046 -0.6302
 2690SOL     OW19531   1.779   1.046   8.901 -0.0625  0.3046  0.0314
 2690SOL    HW119532   1.737   0.973   8.947  0.4266  1.3890  2.2248
 2690SOL    HW219533   1.871   1.020   8.900  0.4096  1.9633  0.1390
 2691SOL     OW19534   3.600   1.669   0.011  0.3023  0.5206 -0.4786
 2691SOL    HW119535   3.693   1.649   0.009  0.8468  3.0260 -1.4511
 2691SOL    HW219536   3.608   1.763  17.672 -1.6488  1.1995  1.8283
 2692SOL     OW19537   0.953   2.616   6.223 -0.1086 -0.3188 -0.9548
 2692SOL    HW119538   1.041   2.581   6.208 -0.0363 -1.8757  3.1176
 2692SOL    HW219539   0.937   2.619   6.318 -0.0734 -0.7866 -0.9371
 2693SOL     OW19540   1.635   4.411   5.579 -0.1991  0.6139 -0.3905
 2693SOL    HW119541   1.612   4.502   5.563  3.2863  1.3550 -1.2231
 2693SOL    HW219542   1.554   4.383   5.621  1.4259 -0.4306  2.1034
 2694SOL     OW19543   1.171   1.545   6.521 -0.6159  0.6047  0.0788
 2694SOL    HW119544   1.173   1.629   6.568  1.6885  0.7704 -0.2840
 2694SOL    HW219545   1.262   1.548   6.491 -0.9517  0.6454 -0.9274
 2695SOL     OW19546   1.075   4.552   6.412  0.3179 -0.3359 -0.1436
 2695SOL    HW119547   1.004   4.512   6.361  0.6052 -2.1808  0.8855
 2695SOL    HW219548   1.154   4.535   6.362  0.4557 -0.6155  0.1728
 2696SOL     OW19549   1.125   4.390   7.732  0.2144  0.5536  0.4882
 2696SOL    HW119550   1.051   4.382   7.672 -1.2125  1.0901  2.1805
 2696SOL    HW219551   1.090   4.343   7.807 -1.2461 -0.0771 -0.5879
 2697SOL     OW19552   0.944   0.279   3.725 -0.1343  0.5991 -0.2390
 2697SOL    HW119553   0.927   0.273   3.631 -1.0150  0.4129 -0.0655
 2697SOL    HW219554   0.894   0.358   3.744  0.8058  0.6668  1.8900
 2698SOL     OW19555   2.782   3.668  15.745 -0.1861  0.3910 -0.5004
 2698SOL    HW119556   2.729   3.672  15.666  1.0612  0.6029 -1.3209
 2698SOL    HW219557   2.858   3.629  15.703  1.7314  1.0762  2.3848
 2699SOL     OW19558   1.760   3.324   1.155 -0.3605 -0.4318 -0.2823
 2699SOL    HW119559   1.827   3.256   1.152 -0.5542 -0.5736 -1.3147
 2699SOL    HW219560   1.677   3.280   1.139 -0.6815 -0.6038  1.9141
 2700SOL     OW19561   4.275   4.578  11.203  0.6066 -0.1724 -0.4206
 2700SOL    HW119562   4.182   4.597  11.188  0.6128 -0.4413 -0.7936
 2700SOL    HW219563   4.282   4.536  11.289 -0.4134 -0.3050 -0.4071
 2701SOL     OW19564   1.489   2.250   7.766  0.0612  0.3200  0.3347
 2701SOL    HW119565   1.416   2.271   7.707  0.0203 -0.5592  0.0720
 2701SOL    HW219566   1.469   2.168   7.810 -0.6766  0.8239  0.9338
 2702SOL     OW19567   4.657   2.259  16.610  0.1107 -0.3344  0.2092
 2702SOL    HW119568   4.563   2.274  16.620  0.3498  0.4826  1.2406
 2702SOL    HW219569   4.666   2.181  16.665 -4.2448 -2.8144 -2.6481
 2703SOL     OW19570   2.596   3.084   4.481 -0.1737  0.5980 -0.4329
 2703SOL    HW119571   2.677   3.105   4.526  0.3635 -1.1103 -0.6376
 2703SOL    HW219572   2.528   3.131   4.530 -1.6547 -2.0925  0.0621
 2704SOL     OW19573   2.209   2.229   7.413 -0.7003  0.2470  0.1043
 2704SOL    HW119574   2.169   2.248   7.497 -0.8067 -1.5504  0.4718
 2704SOL    HW219575   2.206   2.310   7.362  1.0611  0.2428 -0.0011
 2705SOL     OW19576   4.598   4.275   9.954 -0.1188 -0.1549  0.7554
 2705SOL    HW119577   4.617   4.305   9.865 -0.6893  0.6126  0.8870
 2705SOL    HW219578   4.597   4.180   9.943 -0.5254  0.0530 -1.0938
 2706SOL     OW19579   4.303   4.456   8.964  0.7492  0.5892 -0.0141
 2706SOL    HW119580   4.383   4.507   8.963  1.0495  0.1505  1.1636
 2706SOL    HW219581   4.254   4.507   8.899  0.0441  0.8725  0.7360
 2707SOL     OW19582   2.131   0.809   9.725 -0.4846  0.0960  0.0477
 2707SOL    HW119583   2.111   0.811   9.632 -2.7815  2.3173  0.5857
 2707SOL    HW219584   2.170   0.722   9.720  0.3514  0.3384  2.4590
 2708SOL     OW19585   1.531   2.114   3.222  0.2739  0.1937  0.1286
 2708SOL    HW119586   1.523   2.206   3.195 -1.2339  0.2858  0.8735
 2708SOL    HW219587   1.463   2.082   3.162 -1.0769 -0.8245  2.1958
 2709SOL     OW19588   3.619   4.182  15.164 -0.2352  0.1082  0.1316
 2709SOL    HW119589   3.570   4.109  15.203 -1.8331  0.9126 -0.3904
 2709SOL    HW219590   3.653   4.217  15.246  0.3261  1.5674 -0.7359
 2710SOL     OW19591   4.650   4.184  11.101 -0.2902  0.1044  0.2239
 2710SOL    HW119592   4.586   4.245  11.137  0.1672  0.1058  1.0151
 2710SOL    HW219593   4.615   4.174  11.012 -0.1881 -0.3777  0.2387
 2711SOL     OW19594   1.405   4.058   5.959 -0.5982 -0.6820 -0.3386
 2711SOL    HW119595   1.404   4.020   6.047 -0.6841 -0.3787 -0.2091
 2711SOL    HW219596   1.343   4.002   5.912  0.2578  0.1906 -2.5240
 2712SOL     OW19597   3.646   4.529   3.612 -0.0309  0.2064 -0.3685
 2712SOL    HW119598   3.700   4.503   3.686  0.6280  1.3096 -0.4570
 2712SOL    HW219599   3.585   4.579   3.666  0.2441 -0.7877  0.8393
 2713SOL     OW19600   1.914   2.009   6.867  0.5175  0.4830  0.1417
 2713SOL    HW119601   1.912   2.089   6.919 -1.7722  1.0282 -0.7813
 2713SOL    HW219602   1.854   1.952   6.914 -0.2559  0.8719 -0.3865
 2714SOL     OW19603   3.047   0.882   6.013  0.3664 -0.1063  0.1532
 2714SOL    HW119604   2.989   0.924   6.077  0.6349  0.7222 -0.1488
 2714SOL    HW219605   3.069   0.798   6.052 -1.6630 -0.0751  1.3615
 2715SOL     OW19606   0.565   2.127  12.052 -0.5817  0.2281  0.2078
 2715SOL    HW119607   0.593   2.178  11.975  0.1886  0.0250  0.3595
 2715SOL    HW219608   0.588   2.041  12.017 -1.2874 -0.5884  1.7484
 2716SOL     OW19609   2.869   0.001   4.640 -0.0495 -0.3211 -0.5188
 2716SOL    HW119610   2.925   0.014   4.563 -0.0842  0.8721 -0.3410
 2716SOL    HW219611   2.870   4.625   4.639 -1.2278 -0.3533  2.0371
 2717SOL     OW19612   2.689   1.420  14.592  0.2433 -0.2011  0.0231
 2717SOL    HW119613   2.733   1.358  14.650 -0.1161 -0.9728 -0.5103
 2717SOL    HW219614   2.698   1.382  14.504  0.5381 -2.5623  1.0556
 2718SOL     OW19615   1.129   1.687   7.009  0.3990 -0.5319 -0.4054
 2718SOL    HW119616   1.105   1.650   7.094  1.4085 -1.6276 -0.6021
 2718SOL    HW219617   1.042   1.698   6.970  0.1315 -0.6042  0.1674
 2719SOL     OW19618   0.153   4.632  11.989 -0.4876 -0.0993  0.6043
 2719SOL    HW119619   0.172   4.591  11.904 -0.0407 -1.2688  1.2697
 2719SOL    HW219620   0.119   4.718  11.964  2.2028  1.1039  1.1240
 2720SOL     OW19621   4.052   1.827  14.526 -0.5344 -0.0262  0.0195
 2720SOL    HW119622   4.005   1.778  14.460 -0.6469 -1.2084  0.9741
 2720SOL    HW219623   3.996   1.805  14.601 -0.6023 -2.2532 -0.6809
 2721SOL     OW19624   0.898   3.482   0.319 -0.0492 -0.2996  0.5167
 2721SOL    HW119625   0.910   3.546   0.248  0.9097 -1.6381 -0.5274
 2721SOL    HW219626   0.919   3.537   0.394  0.6120  1.4854 -0.9700
 2722SOL     OW19627   4.087   0.965   3.703  0.2064 -0.4304  0.2320
 2722SOL    HW119628   4.171   1.009   3.696  0.5178 -0.9153  0.8881
 2722SOL    HW219629   4.116   0.875   3.688 -2.1058 -0.7895 -2.1425
 2723SOL     OW19630   1.716   3.071   3.481  0.0789  0.0631 -0.2131
 2723SOL    HW119631   1.726   3.072   3.577  2.1849  0.6510 -0.4250
 2723SOL    HW219632   1.688   3.160   3.463 -1.1017 -0.3661 -0.4975
 2724SOL     OW19633   3.415   4.453  17.349 -0.0619 -0.0914  0.8437
 2724SOL    HW119634   3.345   4.399  17.313  0.8253 -0.9813  0.4364
 2724SOL    HW219635   3.484   4.387  17.362  0.7377  0.1441 -2.1846
 2725SOL     OW19636   4.477   1.284  13.730  0.0937 -0.1792  0.1667
 2725SOL    HW119637   4.419   1.228  13.679 -1.3985  1.3986  0.1284
 2725SOL    HW219638   4.414   1.339  13.776 -0.5816 -1.1758  0.4121
 2726SOL     OW19639   0.010   0.264  16.518 -0.1606 -0.4184 -0.3985
 2726SOL    HW119640   4.656   0.316  16.485  0.1580 -0.3738 -1.0456
 2726SOL    HW219641   0.012   0.273  16.613  0.0351 -1.2720 -0.3210
 2727SOL     OW19642   0.931   4.718   7.913  0.6631 -0.2628 -0.4316
 2727SOL    HW119643   0.889   0.031   7.833  1.5170  0.6212 -0.5153
 2727SOL    HW219644   0.873   0.054   7.965 -1.7614 -1.8201 -1.4539
 2728SOL     OW19645   2.382   4.125   2.829  0.3067 -0.2365  0.3514
 2728SOL    HW119646   2.449   4.118   2.760 -0.9804  0.4351 -0.9709
 2728SOL    HW219647   2.334   4.196   2.786 -0.4152 -0.3500  0.9841
 2729SOL     OW19648   3.231   2.934   7.707  0.1078 -0.3447  0.4424
 2729SOL    HW119649   3.218   2.916   7.614 -2.8230 -0.0613  0.7900
 2729SOL    HW219650   3.192   3.022   7.711 -0.7437 -0.5866 -2.1820
 2730SOL     OW19651   2.854   1.633   1.072 -0.5440  0.0079 -0.4209
 2730SOL    HW119652   2.768   1.592   1.083 -0.6405  0.2430 -0.2973
 2730SOL    HW219653   2.833   1.687   0.996  2.1135  0.3834 -0.8870
 2731SOL     OW19654   2.924   1.810  12.310 -0.3633  0.2787  0.0328
 2731SOL    HW119655   2.835   1.779  12.294 -0.7511  0.7920  1.1985
 2731SOL    HW219656   2.960   1.783  12.225  1.2700  0.6410  0.6002
 2732SOL     OW19657   3.199   1.468  10.777 -0.0931  0.0087 -0.6329
 2732SOL    HW119658   3.105   1.474  10.761  0.2740  0.1196 -2.7509
 2732SOL    HW219659   3.215   1.559  10.751  0.8331 -0.0752 -0.3274
 2733SOL     OW19660   3.816   3.095  13.107  0.0152  0.1123 -0.0681
 2733SOL    HW119661   3.875   3.152  13.057  1.3684 -0.7121  0.5869
 2733SOL    HW219662   3.741   3.110  13.049 -0.2839 -0.4111  0.1904
 2734SOL     OW19663   4.469   3.571   3.019 -0.0373  0.9312  0.1385
 2734SOL    HW119664   4.463   3.531   2.932 -0.7149 -0.4688  0.8287
 2734SOL    HW219665   4.415   3.517   3.077  1.5409  0.4055  1.1315
 2735SOL     OW19666   2.334   1.045   4.761 -0.3122  0.1574  0.0424
 2735SOL    HW119667   2.340   1.092   4.845  0.1580 -0.1997  0.2074
 2735SOL    HW219668   2.401   0.978   4.774  0.3891  0.4977 -1.9046
 2736SOL     OW19669   2.319   2.971  13.112  0.6581  0.1915  0.4675
 2736SOL    HW119670   2.332   3.046  13.170  0.3268  0.8097 -0.2459
 2736SOL    HW219671   2.406   2.941  13.084  0.8557  0.6392  0.5965
 2737SOL     OW19672   0.867   3.669   8.260 -0.0394 -0.4066 -0.6131
 2737SOL    HW119673   0.947   3.644   8.307 -0.1247  1.0702  0.3288
 2737SOL    HW219674   0.817   3.715   8.328 -1.1430 -1.7033 -0.5585
 2738SOL     OW19675   3.512   3.852  12.136 -0.1740  0.5541  0.1173
 2738SOL    HW119676   3.579   3.792  12.169 -0.4556  1.0060  1.4852
 2738SOL    HW219677   3.560   3.888  12.062 -1.5694 -0.9187 -1.5073
 2739SOL     OW19678   0.828   3.541  13.328  0.1378  0.3598  0.1804
 2739SOL    HW119679   0.785   3.608  13.275  0.1783  0.1949 -0.0601
 2739SOL    HW219680   0.750   3.505  13.370  1.9376 -2.6745  0.9402
 2740SOL     OW19681   1.008   0.654   2.646 -0.2412 -0.1480 -0.2493
 2740SOL    HW119682   0.962   0.689   2.570 -1.3273 -1.3401 -0.1377
 2740SOL    HW219683   0.973   0.719   2.708  1.9935 -0.4677  1.3412
 2741SOL     OW19684   3.179   1.644  13.281  0.0562  0.1119  0.9974
 2741SOL    HW119685   3.143   1.637  13.192  2.0368  2.2810  0.0041
 2741SOL    HW219686   3.122   1.716  13.307 -0.7670  0.4097 -1.5897
 2742SOL     OW19687   2.161   4.530   2.990  0.6671  0.2382 -0.2338
 2742SOL    HW119688   2.131   4.529   3.081 -0.4258  0.8779 -0.5816
 2742SOL    HW219689   2.255   4.514   2.994  0.4146 -0.8179  1.3243
 2743SOL     OW19690   4.341   2.021   4.920 -0.0060 -0.1739 -0.1320
 2743SOL    HW119691   4.410   2.051   4.861  0.2022 -0.9243 -0.2653
 2743SOL    HW219692   4.280   2.094   4.911  0.4404  0.6011  3.0970
 2744SOL     OW19693   4.280   4.193   2.489  0.2300 -0.4834 -0.3362
 2744SOL    HW119694   4.191   4.190   2.455 -0.1355  1.0403  0.5103
 2744SOL    HW219695   4.283   4.274   2.539  1.2940  0.1696 -1.4609
 2745SOL     OW19696   3.257   3.811   3.852  0.3292 -0.3726 -0.1782
 2745SOL    HW119697   3.280   3.737   3.908 -0.7923  0.8507  1.9162
 2745SOL    HW219698   3.325   3.871   3.883 -0.2542 -0.8042  1.9089
 2746SOL     OW19699   4.118   0.128   4.048 -0.2591  0.2987  0.2806
 2746SOL    HW119700   4.036   0.156   4.090 -0.0881 -1.8870  2.0869
 2746SOL    HW219701   4.123   0.184   3.971  1.5549  0.0303  0.2028
 2747SOL     OW19702   1.385   1.892   4.456 -0.3824 -0.1186 -0.0321
 2747SOL    HW119703   1.367   1.983   4.481  0.7803 -0.2411  1.2586
 2747SOL    HW219704   1.398   1.907   4.362 -0.3970  0.8762  0.1196
 2748SOL     OW19705   1.203   3.135  13.370 -0.1872 -0.5302  0.0088
 2748SOL    HW119706   1.228   3.211  13.423 -0.4601 -0.2709 -0.2312
 2748SOL    HW219707   1.142   3.176  13.307  2.2633  0.8338 -1.4675
 2749SOL     OW19708   0.676   4.166   0.963 -0.3049  0.7961 -0.6727
 2749SOL    HW119709   0.720   4.085   0.937 -0.3905  1.5547 -3.1303
 2749SOL    HW219710   0.746   4.228   0.983 -2.6722  2.7292  1.7437
 2750SOL     OW19711   3.356   3.878   1.045 -0.4723  0.6809  0.1959
 2750SOL    HW119712   3.384   3.894   0.955 -0.3517 -2.4316 -0.3161
 2750SOL    HW219713   3.261   3.887   1.033 -0.5235  0.1515  0.2005
 2751SOL     OW19714   3.112   0.360   0.880  0.1149 -0.4970  0.2781
 2751SOL    HW119715   3.041   0.389   0.939  1.2053  2.5804  0.0638
 2751SOL    HW219716   3.055   0.321   0.814  1.6231 -1.0506 -0.6835
 2752SOL     OW19717   4.516   1.167   4.470 -0.6096 -0.4754  0.4537
 2752SOL    HW119718   4.542   1.080   4.441  2.1061 -0.2274  2.0688
 2752SOL    HW219719   4.441   1.153   4.527  0.5541  1.4904  2.4808
 2753SOL     OW19720   2.015   4.293   5.494  0.0535 -0.4105 -0.5664
 2753SOL    HW119721   2.083   4.294   5.561 -1.0177  1.0555  0.4994
 2753SOL    HW219722   1.969   4.376   5.508  1.0309 -0.1056  0.9175
 2754SOL     OW19723   0.734   1.741  10.578  0.2515 -0.0930  0.2788
 2754SOL    HW119724   0.690   1.826  10.578  0.1124 -0.1765  2.7626
 2754SOL    HW219725   0.768   1.732  10.489  0.1541 -0.5653  0.2895
 2755SOL     OW19726   1.911   4.013   0.423 -0.0537  0.3826 -0.1084
 2755SOL    HW119727   1.817   3.996   0.422 -0.7665  4.2330  2.0691
 2755SOL    HW219728   1.912   4.065   0.504  2.1963 -0.2652  0.2746
 2756SOL     OW19729   2.910   2.209  15.167 -0.1737 -0.1084 -0.1166
 2756SOL    HW119730   2.981   2.145  15.174 -0.4472 -0.4055 -0.0643
 2756SOL    HW219731   2.940   2.249  15.086  0.0454 -0.7218 -0.3364
 2757SOL     OW19732   2.612   3.554   3.744  0.0328  0.4230 -0.3854
 2757SOL    HW119733   2.543   3.574   3.681 -2.5892 -0.2517  2.2595
 2757SOL    HW219734   2.598   3.633   3.796  0.2660 -1.2881  2.3454
 2758SOL     OW19735   4.611   1.623  16.187 -0.2875  0.1724  0.3875
 2758SOL    HW119736   4.536   1.612  16.245 -1.7874 -0.3717 -1.6276
 2758SOL    HW219737   4.578   1.693  16.129  0.5410  0.6142  0.4516
 2759SOL     OW19738   3.729   2.649   8.341  0.3346  0.1489  0.4113
 2759SOL    HW119739   3.790   2.685   8.406  0.8364  1.9582 -1.0484
 2759SOL    HW219740   3.701   2.735   8.308  0.1774 -0.5555 -1.2872
 2760SOL     OW19741   2.011   4.261   2.989  0.2784  0.0293  0.0687
 2760SOL    HW119742   2.013   4.273   3.084 -0.2897 -0.3539  0.1337
 2760SOL    HW219743   1.937   4.318   2.973 -2.1436 -2.1552  3.3129
 2761SOL     OW19744   2.061   3.401   1.795 -0.5153 -0.4880 -0.5364
 2761SOL    HW119745   2.100   3.408   1.882 -2.1538 -0.2636  0.1738
 2761SOL    HW219746   2.039   3.492   1.778 -1.0748 -0.2030  1.8397
 2762SOL     OW19747   0.659   1.924   5.170 -0.3553 -0.5802  0.3348
 2762SOL    HW119748   0.625   1.986   5.234  0.7254  2.3910 -1.9752
 2762SOL    HW219749   0.583   1.899   5.117 -0.7420  2.6382 -0.5912
 2763SOL     OW19750   2.028   3.051   1.611  0.4013 -0.2028 -0.0615
 2763SOL    HW119751   2.081   3.130   1.602 -2.0421  1.3848 -0.5788
 2763SOL    HW219752   2.091   2.985   1.582 -1.8782 -2.7920  0.8512
 2764SOL     OW19753   1.200   1.060   6.834  0.2829  0.0218 -0.2578
 2764SOL    HW119754   1.171   1.137   6.784 -2.1698 -1.3572 -0.9575
 2764SOL    HW219755   1.168   1.066   6.924  1.1799  0.2197  0.0575
 2765SOL     OW19756   1.668   0.521  13.319  0.7482 -0.4380 -0.0874
 2765SOL    HW119757   1.648   0.470  13.241  2.2121  0.5884 -1.1309
 2765SOL    HW219758   1.614   0.471  13.379 -1.2738  1.4174 -0.3439
 2766SOL     OW19759   2.301   1.411   8.242  0.2544  0.3289 -0.0886
 2766SOL    HW119760   2.366   1.341   8.232  0.5594  0.8446 -1.6470
 2766SOL    HW219761   2.363   1.475   8.277  1.9515 -2.2524  1.6347
 2767SOL     OW19762   3.051   1.594   3.922 -0.1837 -0.2094  0.5624
 2767SOL    HW119763   2.991   1.647   3.870  0.8376 -0.7685 -1.1898
 2767SOL    HW219764   3.002   1.571   4.002 -0.5129  0.1995  0.4764
 2768SOL     OW19765   0.415   3.583  13.165 -0.4138 -0.3768  0.0931
 2768SOL    HW119766   0.430   3.529  13.087  0.8036  1.5349 -0.9701
 2768SOL    HW219767   0.393   3.510  13.223 -3.3671 -0.8128 -1.5747
 2769SOL     OW19768   4.197   3.271   3.022  0.7168 -0.3826  0.1385
 2769SOL    HW119769   4.221   3.334   3.090 -2.2665  0.1653  0.6986
 2769SOL    HW219770   4.103   3.258   3.030  0.6399  0.1018  0.0138
 2770SOL     OW19771   3.659   2.899   3.952  0.4103 -0.0627 -0.3892
 2770SOL    HW119772   3.591   2.835   3.970  0.0425  0.6063  0.6272
 2770SOL    HW219773   3.612   2.982   3.944  0.2141 -0.0362  0.9408
 2771SOL     OW19774   2.061   3.922   9.332  0.2053  0.4781  0.4920
 2771SOL    HW119775   2.112   3.868   9.393 -1.0288  1.0369  2.0120
 2771SOL    HW219776   1.976   3.905   9.372 -1.5109 -1.5953 -4.0854
 2772SOL     OW19777   4.382   0.039  11.559  0.5054 -0.1836 -0.4558
 2772SOL    HW119778   4.378   4.674  11.514  0.2307 -0.3063 -0.2074
 2772SOL    HW219779   4.289   0.054  11.579 -0.4094 -2.7096 -2.8464
 2773SOL     OW19780   4.394   2.873   4.927  0.2961  0.3917  0.3102
 2773SOL    HW119781   4.348   2.957   4.922 -2.2723 -0.8912  2.4906
 2773SOL    HW219782   4.324   2.815   4.956  0.9066 -0.3680  0.2750
 2774SOL     OW19783   1.912   2.676   2.893  0.4333  0.2751 -0.1303
 2774SOL    HW119784   1.952   2.763   2.898  0.7555  0.2643 -2.4955
 2774SOL    HW219785   1.858   2.685   2.814  0.6641 -2.7985 -0.6395
 2775SOL     OW19786   2.761   3.805   8.372 -0.1227 -0.2249 -0.3964
 2775SOL    HW119787   2.811   3.830   8.295 -1.3630  2.2244 -0.4127
 2775SOL    HW219788   2.789   3.716   8.390  1.0403 -0.0651 -1.4571
 2776SOL     OW19789   1.664   1.091  13.551  0.1261  0.1026 -0.1242
 2776SOL    HW119790   1.626   1.060  13.633  0.1576 -0.6295 -0.3883
 2776SOL    HW219791   1.716   1.011  13.541  1.6307  1.1025 -0.3688
 2777SOL     OW19792   4.602   0.975  11.213  0.1678 -0.1433 -0.4330
 2777SOL    HW119793   4.658   0.949  11.286  2.1545  1.1986 -1.4699
 2777SOL    HW219794   4.666   0.993  11.144  0.2633 -0.6766 -0.4788
 2778SOL     OW19795   1.355   4.556   2.011  0.9076  0.2880  0.4259
 2778SOL    HW119796   1.283   4.615   1.987  0.7460  0.1970  0.6847
 2778SOL    HW219797   1.433   4.588   1.966  1.8041 -1.9823  0.3834
 2779SOL     OW19798   3.584   1.171   5.861 -0.3644 -0.0101 -0.7812
 2779SOL    HW119799   3.518   1.102   5.852  1.1691 -1.5807  0.0110
 2779SOL    HW219800   3.638   1.168   5.782 -0.0709  0.9168 -0.6184
 2780SOL     OW19801   1.582   3.055   7.512  0.0045  0.5596  0.4415
 2780SOL    HW119802   1.668   3.018   7.531 -0.7694 -0.6641  1.6255
 2780SOL    HW219803   1.585   3.150   7.512 -0.6406  0.5951  2.0709
 2781SOL     OW19804   4.198   1.688  13.135  0.1464  0.1842 -0.5769
 2781SOL    HW119805   4.159   1.607  13.169 -0.1493  0.7139  0.3619
 2781SOL    HW219806   4.246   1.659  13.057  0.7539 -0.3149 -0.0230
 2782SOL     OW19807   0.245   2.278   4.993 -0.3464 -0.5896  0.4273
 2782SOL    HW119808   0.159   2.239   5.004  0.8258 -2.8845  1.3785
 2782SOL    HW219809   0.231   2.345   4.926  0.5758 -1.0666 -0.2396
 2783SOL     OW19810   0.530   3.785   2.777 -0.4287  0.1322 -0.1362
 2783SOL    HW119811   0.556   3.780   2.685 -1.5130 -0.1097 -0.4341
 2783SOL    HW219812   0.441   3.821   2.774  0.1206  1.8112  3.0731
 2784SOL     OW19813   2.206   3.259   5.472 -0.4242  0.7617  0.5577
 2784SOL    HW119814   2.119   3.235   5.503  0.0020  0.0774  1.2544
 2784SOL    HW219815   2.235   3.181   5.425 -0.1656  0.1219  1.7519
 2785SOL     OW19816   2.003   2.814   3.943 -0.3232 -0.2970  0.3226
 2785SOL    HW119817   2.006   2.718   3.945  2.7108 -0.2091 -0.7659
 2785SOL    HW219818   2.068   2.815   3.874  0.1935 -0.3557  0.8112
 2786SOL     OW19819   1.169   1.378  10.678  0.0089  0.6114  0.0418
 2786SOL    HW119820   1.167   1.347  10.587  1.5582 -1.4918  0.7098
 2786SOL    HW219821   1.076   1.377  10.697  0.6620 -0.7750  3.1097
 2787SOL     OW19822   0.408   3.470   5.415 -0.5090  0.3547  0.0761
 2787SOL    HW119823   0.434   3.504   5.329 -0.9804  2.9821  0.9627
 2787SOL    HW219824   0.347   3.402   5.387 -0.4090 -0.8198  2.6773
 2788SOL     OW19825   4.436   1.209   5.354  0.0286 -0.0305  0.0212
 2788SOL    HW119826   4.406   1.178   5.268  0.3437  0.7679 -0.3725
 2788SOL    HW219827   4.517   1.248   5.323  0.3142 -1.9771 -1.6299
 2789SOL     OW19828   3.618   0.048   2.098 -0.2577  0.1034 -0.1235
 2789SOL    HW119829   3.708   0.017   2.088 -1.2129 -3.5445  2.6777
 2789SOL    HW219830   3.567   4.692   2.128  0.9290 -0.4062  0.6024
 2790SOL     OW19831   0.294   2.800   5.932 -0.0737 -0.1344 -1.0544
 2790SOL    HW119832   0.214   2.834   5.973  0.7569 -1.4642  1.7271
 2790SOL    HW219833   0.334   2.752   6.004 -1.5166 -0.2360 -0.3105
 2791SOL     OW19834   1.210   2.525  10.387 -0.2321  0.2116 -0.6651
 2791SOL    HW119835   1.274   2.455  10.391  0.8853  1.2123 -1.0521
 2791SOL    HW219836   1.264   2.601  10.409  1.0033 -0.5194 -1.2287
 2792SOL     OW19837   2.571   3.984  12.603  0.2172  0.3260  0.6795
 2792SOL    HW119838   2.597   3.895  12.626 -2.3863 -0.4856  0.4740
 2792SOL    HW219839   2.647   4.036  12.631 -0.5188  2.6282 -1.5698
 2793SOL     OW19840   0.145   0.602  11.689 -0.1806  0.4746  0.3441
 2793SOL    HW119841   0.077   0.618  11.754 -2.2529 -1.5714 -1.3009
 2793SOL    HW219842   0.105   0.541  11.627 -0.1165  1.2192 -0.4224
 2794SOL     OW19843   1.628   1.114   4.192 -0.5326  0.2731  0.1424
 2794SOL    HW119844   1.599   1.171   4.121 -1.4755 -0.2964  0.0692
 2794SOL    HW219845   1.601   1.025   4.169  0.1433 -0.0264  0.5105
 2795SOL     OW19846   4.085   1.694   3.818 -0.0277  0.1741 -0.1897
 2795SOL    HW119847   4.017   1.736   3.872  0.0846  0.3823 -0.2111
 2795SOL    HW219848   4.024   1.642   3.766  1.7052 -0.3663 -1.6676
 2796SOL     OW19849   3.144   2.092  13.101 -0.2163  0.0287  0.0164
 2796SOL    HW119850   3.055   2.056  13.093 -0.5606  0.4386  1.8551
 2796SOL    HW219851   3.120   2.175  13.142 -1.3500 -0.1523 -0.2655
 2797SOL     OW19852   1.569   2.716   7.791 -0.0983  0.1476 -0.2464
 2797SOL    HW119853   1.569   2.621   7.806 -1.8481  0.3593  1.1101
 2797SOL    HW219854   1.640   2.742   7.850  0.2572  0.3797 -0.7802
 2798SOL     OW19855   2.132   4.447   7.883  0.4527  0.2197 -0.2729
 2798SOL    HW119856   2.050   4.451   7.933  0.8187  1.0306  0.2788
 2798SOL    HW219857   2.143   4.354   7.865  0.6478  0.1721  0.0895
 2799SOL     OW19858   2.908   4.061  15.865 -0.1150  0.0057 -0.5879
 2799SOL    HW119859   2.888   4.153  15.844 -0.1545  0.1784  0.1988
 2799SOL    HW219860   2.945   4.079  15.951  1.7104  0.3503 -1.4385
 2800SOL     OW19861   4.401   1.383   8.034  0.1014  0.2135 -0.0997
 2800SOL    HW119862   4.409   1.377   7.939  2.0247  2.7618 -0.0961
 2800SOL    HW219863   4.344   1.460   8.035  0.1591  0.2382  1.2359
 2801SOL     OW19864   3.282   1.140  13.934 -0.6537  0.0313  0.3737
 2801SOL    HW119865   3.362   1.130  13.985 -0.0828 -4.3535 -1.4707
 2801SOL    HW219866   3.297   1.208  13.868 -0.2507 -1.9707 -1.5759
 2802SOL     OW19867   2.003   0.469   7.201  0.3384  0.1825  0.5407
 2802SOL    HW119868   1.976   0.430   7.284 -2.2376 -1.2493 -0.9717
 2802SOL    HW219869   2.044   0.546   7.241  3.0355 -0.6998 -0.5741
 2803SOL     OW19870   4.513   3.559  16.926 -0.2851 -0.6463  0.1013
 2803SOL    HW119871   4.533   3.538  17.017  1.1174 -0.3343 -0.1447
 2803SOL    HW219872   4.547   3.483  16.881  3.2481  0.8165  0.2995
 2804SOL     OW19873   2.230   1.863   3.190 -0.5287  0.0656  0.4471
 2804SOL    HW119874   2.181   1.804   3.133  0.5888 -0.9711  0.5576
 2804SOL    HW219875   2.239   1.940   3.135  0.3885  0.6151  1.3660
 2805SOL     OW19876   0.033   0.539   2.177 -0.0081  0.6519 -0.2072
 2805SOL    HW119877   0.011   0.557   2.268  1.1035  0.6168  0.0615
 2805SOL    HW219878   0.116   0.584   2.160  0.6564 -0.5001  0.0600
 2806SOL     OW19879   2.581   2.384   2.320  0.3293  0.4964 -0.3844
 2806SOL    HW119880   2.595   2.377   2.226  1.6467 -0.8038 -0.0942
 2806SOL    HW219881   2.492   2.418   2.330  0.7240  1.2914  0.4490
 2807SOL     OW19882   2.557   3.156   8.414 -0.0143 -0.6414 -0.1260
 2807SOL    HW119883   2.538   3.250   8.415 -0.6435 -0.7766  0.2462
 2807SOL    HW219884   2.521   3.124   8.497 -3.0721  1.4674 -0.6251
 2808SOL     OW19885   0.808   2.728   8.701  0.1198 -0.2646 -0.2521
 2808SOL    HW119886   0.723   2.691   8.677  0.8884 -1.3521 -1.2879
 2808SOL    HW219887   0.789   2.816   8.670  0.4695  0.3631  1.3240
 2809SOL     OW19888   2.093   3.267  13.583 -0.0136  0.2505  0.3799
 2809SOL    HW119889   2.187   3.275  13.565 -0.7238  2.1756 -2.4972
 2809SOL    HW219890   2.091   3.326  13.659 -0.2052  1.9500 -0.9655
 2810SOL     OW19891   0.990   0.656  11.778 -0.3403  0.1188  0.1389
 2810SOL    HW119892   1.008   0.629  11.868  2.7784  0.2006 -0.4707
 2810SOL    HW219893   1.078   0.686  11.758 -0.2306 -0.0250  0.4047
 2811SOL     OW19894   0.492   3.927   7.137  0.2660 -0.4641  0.0246
 2811SOL    HW119895   0.476   3.865   7.207 -2.3213  1.4416  1.1382
 2811SOL    HW219896   0.437   4.004   7.151  2.2778  0.5070  2.4797
 2812SOL     OW19897   3.839   3.706   3.794  0.3703  0.1291  0.3763
 2812SOL    HW119898   3.930   3.679   3.804 -0.4245 -1.9811  1.8841
 2812SOL    HW219899   3.797   3.629   3.832  0.2729 -0.3471 -0.6949
 2813SOL     OW19900   0.169   2.645   2.846 -0.5225  0.0926  0.4825
 2813SOL    HW119901   0.185   2.731   2.808  0.7489 -0.3112  0.1338
 2813SOL    HW219902   0.243   2.597   2.809 -1.2976  0.1159 -1.1061
 2814SOL     OW19903   3.839   2.475   1.724 -0.5991 -0.2386  0.7665
 2814SOL    HW119904   3.870   2.532   1.795 -1.0236 -0.4428  1.1202
 2814SOL    HW219905   3.796   2.543   1.673 -0.5202  0.1495  1.2126
 2815SOL     OW19906   2.686   0.339  13.731  0.7080  0.0382  0.1672
 2815SOL    HW119907   2.734   0.421  13.736  1.3673 -0.4581  1.8763
 2815SOL    HW219908   2.597   0.368  13.752  0.6533 -1.0108  1.3707
 2816SOL     OW19909   0.444   4.037  10.182 -0.2427 -0.2401  0.5969
 2816SOL    HW119910   0.462   4.039  10.088  1.7105  0.6016  0.9870
 2816SOL    HW219911   0.504   4.105  10.212  0.8571 -0.1329 -1.8989
 2817SOL     OW19912   1.917   2.601   8.848  0.1497  0.2424  0.0681
 2817SOL    HW119913   1.895   2.647   8.767 -1.1475  0.4855  0.5466
 2817SOL    HW219914   1.900   2.667   8.916 -0.4863 -2.3396  2.4158
 2818SOL     OW19915   3.903   3.179   2.533 -0.3992 -0.3448 -0.2403
 2818SOL    HW119916   3.924   3.086   2.520  3.4355  0.2944  1.5907
 2818SOL    HW219917   3.874   3.195   2.443 -0.9634  3.0631  0.5595
 2819SOL     OW19918   0.526   3.857   6.695  0.6311  0.1142 -0.1391
 2819SOL    HW119919   0.552   3.826   6.608  0.2830 -3.1372  0.9165
 2819SOL    HW219920   0.494   3.944   6.673  0.6340 -0.4351 -2.3377
 2820SOL     OW19921   2.482   4.221  15.660  0.9622 -0.0638  0.5569
 2820SOL    HW119922   2.471   4.153  15.727 -1.6825 -0.1753 -0.0220
 2820SOL    HW219923   2.467   4.171  15.579  0.2792  1.8158 -0.4607
 2821SOL     OW19924   3.840   2.764   5.870  0.1106 -0.0864 -0.0798
 2821SOL    HW119925   3.761   2.776   5.923 -0.6121 -1.9620 -0.7369
 2821SOL    HW219926   3.867   2.856   5.865 -0.8175  0.1244 -1.4355
 2822SOL     OW19927   1.079   3.583   6.743  0.1586  0.4932 -0.3647
 2822SOL    HW119928   1.071   3.598   6.838  0.2755 -1.1768 -0.0987
 2822SOL    HW219929   0.998   3.533   6.728 -1.6745  3.9156 -1.9030
 2823SOL     OW19930   2.375   1.896  15.674  0.2562 -0.4749  0.3346
 2823SOL    HW119931   2.318   1.929  15.604  1.7344  1.2879 -0.0349
 2823SOL    HW219932   2.465   1.925  15.657  0.7396 -0.9271  2.1789
 2824SOL     OW19933   0.048   4.505   6.085 -0.1908 -0.1474 -0.4543
 2824SOL    HW119934   0.039   4.414   6.112  1.0681 -0.4788 -1.1355
 2824SOL    HW219935   4.676   4.532   6.085 -0.2588 -0.3538 -4.1470
 2825SOL     OW19936   2.128   3.510   2.324 -0.5719  0.3306 -0.5494
 2825SOL    HW119937   2.132   3.599   2.289  2.0070 -0.2002 -1.5916
 2825SOL    HW219938   2.194   3.466   2.271 -0.1983 -2.0916  1.8660
 2826SOL     OW19939   2.859   3.523  10.913  0.2000 -0.1518 -0.1400
 2826SOL    HW119940   2.924   3.533  10.843 -0.4983 -3.7872 -1.3144
 2826SOL    HW219941   2.911   3.531  10.993 -1.0198 -2.0085  0.8335
 2827SOL     OW19942   3.484   4.649   2.357 -0.2602 -0.2397  0.3353
 2827SOL    HW119943   3.455   4.574   2.409  1.1787 -0.8292  0.2936
 2827SOL    HW219944   3.437   4.635   2.275 -1.3280 -0.2337  0.9545
 2828SOL     OW19945   1.002   4.016   5.891 -0.2263 -0.0065  0.4043
 2828SOL    HW119946   0.974   4.088   5.834 -3.0331 -2.2627 -1.0562
 2828SOL    HW219947   1.048   3.961   5.827 -0.4832  0.1330  0.0996
 2829SOL     OW19948   1.515   0.926   2.371  0.0607  0.3416  0.0177
 2829SOL    HW119949   1.599   0.969   2.389  0.6249 -0.7812  0.0423
 2829SOL    HW219950   1.537   0.862   2.304  0.2868  1.1642 -0.6948
 2830SOL     OW19951   2.812   4.037   5.124  0.8311 -0.0796  0.1624
 2830SOL    HW119952   2.899   4.028   5.164  1.3751 -0.9525 -1.2206
 2830SOL    HW219953   2.817   3.989   5.042 -1.3618 -0.4216  0.2182
 2831SOL     OW19954   4.433   3.390   2.342 -0.1239  0.6692 -0.3704
 2831SOL    HW119955   4.374   3.328   2.300  0.4889 -0.2456  0.1183
 2831SOL    HW219956   4.482   3.423   2.267 -0.4943 -0.1681 -0.9763
 2832SOL     OW19957   0.056   2.761  13.424 -0.5877 -0.1468 -0.2054
 2832SOL    HW119958   0.057   2.807  13.508  2.4287  1.6365 -1.2233
 2832SOL    HW219959   0.145   2.728  13.421 -0.7731 -0.5773 -1.2731
 2833SOL     OW19960   4.090   0.549   7.050  0.1389 -0.3885  0.5095
 2833SOL    HW119961   4.125   0.527   6.964 -0.5848 -1.4549  0.4820
 2833SOL    HW219962   4.002   0.511   7.043  0.8565 -2.1646  1.0032
 2834SOL     OW19963   0.181   2.695  17.201  0.4062 -0.2830 -0.7732
 2834SOL    HW119964   0.125   2.665  17.129 -2.5691 -0.9061  1.8114
 2834SOL    HW219965   0.164   2.789  17.205  0.6243 -0.2160 -1.4563
 2835SOL     OW19966   4.168   4.225  17.080 -0.9224  0.2854 -0.4791
 2835SOL    HW119967   4.243   4.187  17.035  0.3208  1.8829  0.2189
 2835SOL    HW219968   4.207   4.305  17.114  0.9820 -0.5288 -0.7866
 2836SOL     OW19969   0.773   3.389   9.706  0.2715  0.2273  0.0335
 2836SOL    HW119970   0.746   3.302   9.677 -0.3579  1.1928 -2.2804
 2836SOL    HW219971   0.783   3.434   9.622  0.2010 -1.3655 -0.8249
 2837SOL     OW19972   3.413   1.684   8.992  0.0286  0.0747  0.2054
 2837SOL    HW119973   3.508   1.685   8.998  0.0301  2.6796 -0.2388
 2837SOL    HW219974   3.391   1.671   9.085 -0.9879  0.0441 -0.0358
 2838SOL     OW19975   2.872   0.436  15.698  0.8915  0.1286  0.3974
 2838SOL    HW119976   2.907   0.355  15.661 -0.0784  0.2883 -0.8722
 2838SOL    HW219977   2.929   0.501  15.657 -0.2136  1.4911  1.0285
 2839SOL     OW19978   3.741   3.213  16.803 -0.4236  0.6742  0.2304
 2839SOL    HW119979   3.671   3.218  16.738  0.2578  0.8557 -0.4845
 2839SOL    HW219980   3.763   3.122  16.789 -0.4026  0.7970 -0.4991
 2840SOL     OW19981   0.557   4.055   2.643  0.3871  0.3808  0.0295
 2840SOL    HW119982   0.594   4.027   2.559  1.0683 -0.8574  0.7371
 2840SOL    HW219983   0.475   4.010   2.625  1.3122 -1.4353  0.3517
 2841SOL     OW19984   0.525   3.457   3.867 -0.0130  0.3318  0.2948
 2841SOL    HW119985   0.512   3.504   3.785 -1.2395  2.4633  1.7225
 2841SOL    HW219986   0.520   3.365   3.840  2.4551 -0.0684  1.2109
 2842SOL     OW19987   2.470   4.201   6.097  0.0703 -0.0783 -0.6031
 2842SOL    HW119988   2.462   4.278   6.154  0.0890 -0.6509  0.1751
 2842SOL    HW219989   2.471   4.129   6.159  2.5002  1.2125  0.8732
 2843SOL     OW19990   4.195   2.361  10.295 -0.1150  0.4166 -0.1098
 2843SOL    HW119991   4.285   2.377  10.267  0.0740 -1.0537 -0.3006
 2843SOL    HW219992   4.206   2.375  10.389 -0.1821  2.1860 -0.3571
 2844SOL     OW19993   2.871   4.382   7.358  0.4492 -0.4109 -0.2042
 2844SOL    HW119994   2.907   4.304   7.402 -0.3770 -0.2687  0.7304
 2844SOL    HW219995   2.881   4.354   7.267 -1.5363  1.3154 -0.9383
 2845SOL     OW19996   0.921   3.084   9.425  0.9527 -0.6401  0.1877
 2845SOL    HW119997   0.992   3.052   9.482  1.0441  0.8144  0.9005
 2845SOL    HW219998   0.959   3.083   9.337 -1.2340  1.4347 -0.7704
 2846SOL     OW19999   4.257   1.479   3.674 -0.1637 -0.3968  0.3111
 2846SOL    HW120000   4.318   1.449   3.742 -0.5825  2.1147  1.7784
 2846SOL    HW220001   4.178   1.434   3.703 -1.0237  0.4490 -0.7039
 2847SOL     OW20002   3.999   3.956   6.054  0.1831  0.1424 -0.0365
 2847SOL    HW120003   3.999   4.013   5.978 -0.8248 -0.6333 -0.6183
 2847SOL    HW220004   3.924   3.999   6.094  1.1990  0.4148  1.5986
 2848SOL     OW20005   1.669   3.672   8.023 -0.4287  0.2139  0.5674
 2848SOL    HW120006   1.652   3.661   7.929  0.1428 -0.8692  0.5904
 2848SOL    HW220007   1.597   3.627   8.068 -1.5745  0.6445 -0.8212
 2849SOL     OW20008   1.698   1.845   4.806  0.2605 -0.4845 -0.2707
 2849SOL    HW120009   1.745   1.802   4.877 -1.2038 -2.8246 -0.7219
 2849SOL    HW220010   1.665   1.776   4.748 -0.4317  0.6210 -1.1768
 2850SOL     OW20011   2.256   3.904   0.593 -0.0768  0.0029 -0.0021
 2850SOL    HW120012   2.203   3.948   0.527  0.8418 -2.9705 -2.7349
 2850SOL    HW220013   2.327   3.868   0.540 -0.1573  0.8160 -0.6556
 2851SOL     OW20014   4.428   0.725   7.569  0.1426 -0.5648 -0.0814
 2851SOL    HW120015   4.369   0.791   7.603 -0.1526 -0.7851 -0.1651
 2851SOL    HW220016   4.425   0.665   7.644  5.8047  0.4756  1.0061
 2852SOL     OW20017   1.066   1.888  16.079 -0.4570 -0.1562 -0.4475
 2852SOL    HW120018   1.023   1.806  16.056 -0.9906  0.3225 -1.1321
 2852SOL    HW220019   1.024   1.964  16.039 -1.6018 -1.2999 -1.3956
 2853SOL     OW20020   4.675   0.586   7.704 -0.2003  0.0264 -0.3056
 2853SOL    HW120021   4.610   0.535   7.752 -0.8087  0.5754 -0.5426
 2853SOL    HW220022   4.674   0.664   7.759  0.8039  0.6473 -1.1754
 2854SOL     OW20023   1.176   1.267   8.744  0.2047  0.3090 -0.2695
 2854SOL    HW120024   1.099   1.309   8.706 -0.8549 -1.2817  0.1280
 2854SOL    HW220025   1.211   1.331   8.805  2.0285  0.9597 -1.9754
 2855SOL     OW20026   0.919   4.437   2.787  0.4142  0.1792 -0.0801
 2855SOL    HW120027   0.898   4.461   2.697 -2.6217  0.7342  0.7722
 2855SOL    HW220028   0.953   4.520   2.821  0.9549  0.5058 -1.4186
 2856SOL     OW20029   3.105   1.980   2.438  0.2725 -0.2217 -0.1505
 2856SOL    HW120030   3.134   1.956   2.526  0.8068  1.2274  0.0675
 2856SOL    HW220031   3.033   2.041   2.455  1.2929  1.1390 -0.8103
 2857SOL     OW20032   3.566   3.360   6.782 -0.2596 -0.3144 -0.1904
 2857SOL    HW120033   3.640   3.359   6.843  1.0682  0.9047 -1.7740
 2857SOL    HW220034   3.491   3.352   6.841 -0.0556  0.4443  0.1703
 2858SOL     OW20035   3.806   3.521   0.653  0.1418 -0.3472  0.0590
 2858SOL    HW120036   3.793   3.515   0.559 -2.1038  0.4532  0.3101
 2858SOL    HW220037   3.770   3.440   0.690 -1.0402  0.3922  0.5228
 2859SOL     OW20038   1.448   2.553   7.101  0.6194 -0.4712  0.0003
 2859SOL    HW120039   1.417   2.572   7.012 -1.8972  1.3396  1.2602
 2859SOL    HW220040   1.367   2.569   7.149  0.8303  1.4316 -0.2563
 2860SOL     OW20041   4.642   4.447   4.326 -0.1002  0.4955 -0.2409
 2860SOL    HW120042   4.678   4.381   4.267 -0.7887  1.1420 -1.3791
 2860SOL    HW220043   4.644   4.527   4.273 -4.9422  1.6876  1.3497
 2861SOL     OW20044   3.826   3.595  10.360 -0.2824  0.2780 -0.2275
 2861SOL    HW120045   3.764   3.532  10.397 -1.0118  1.6926  0.9546
 2861SOL    HW220046   3.790   3.637  10.282  0.0954 -0.8050 -0.9846
 2862SOL     OW20047   4.339   3.483  12.728  0.3969 -0.0085  0.0887
 2862SOL    HW120048   4.262   3.465  12.783 -0.7675  0.9902 -1.2202
 2862SOL    HW220049   4.406   3.462  12.792 -0.3596 -1.7688  0.3256
 2863SOL     OW20050   3.046   3.196   8.052  0.1353  0.1549  0.3339
 2863SOL    HW120051   2.950   3.200   8.059  0.1977  1.2052  0.4867
 2863SOL    HW220052   3.062   3.153   8.137 -1.5531 -0.1252  0.5090
 2864SOL     OW20053   3.102   0.075   3.747 -0.7036  0.3512  0.3820
 2864SOL    HW120054   3.194   0.058   3.726 -0.2905  3.5143 -0.3417
 2864SOL    HW220055   3.097   0.168   3.727  0.9134  0.5357  0.7929
 2865SOL     OW20056   0.432   0.660   1.965  0.2806 -0.0259  0.3098
 2865SOL    HW120057   0.376   0.590   2.001  0.0203  1.3597  2.5617
 2865SOL    HW220058   0.520   0.622   1.966  0.1760 -0.3200 -0.8570
 2866SOL     OW20059   0.023   2.371   7.549  0.0778  0.2777 -0.0366
 2866SOL    HW120060   0.035   2.462   7.519  1.2819  0.2516  0.3363
 2866SOL    HW220061   0.074   2.379   7.630  1.3681 -1.9012 -0.6539
 2867SOL     OW20062   2.301   3.595   7.032 -0.4519 -0.4185  0.1429
 2867SOL    HW120063   2.327   3.510   7.067  0.7381  0.7915  2.1761
 2867SOL    HW220064   2.329   3.590   6.940  0.4727 -2.4314  0.5292
 2868SOL     OW20065   0.997   2.548  10.220  0.4272  0.3295  0.1444
 2868SOL    HW120066   1.061   2.541  10.290 -2.3310 -1.9182  2.4249
 2868SOL    HW220067   0.931   2.608  10.256 -1.0565 -0.5938 -1.0133
 2869SOL     OW20068   4.037   4.548   1.821 -0.5942 -0.5493 -0.4502
 2869SOL    HW120069   4.015   4.462   1.856  1.1449 -0.6551  0.4173
 2869SOL    HW220070   4.022   4.546   1.726 -2.3093  3.5508 -0.2622
 2870SOL     OW20071   3.479   0.681  16.855  0.7195  0.0175  0.0925
 2870SOL    HW120072   3.528   0.676  16.773 -0.1226  0.4022 -0.4405
 2870SOL    HW220073   3.501   0.592  16.882 -3.9368 -1.1561  0.1214
 2871SOL     OW20074   2.670   4.530  16.459 -0.1465  0.7139  0.1953
 2871SOL    HW120075   2.720   4.611  16.468  0.4656  0.1932  1.5285
 2871SOL    HW220076   2.709   4.478  16.390 -1.2025 -1.3917  1.1837
 2872SOL     OW20077   1.270   3.975   2.959 -0.0896  0.1276 -0.3213
 2872SOL    HW120078   1.245   4.056   2.914 -1.4387 -0.1795 -0.1410
 2872SOL    HW220079   1.255   4.009   3.047  0.8563  0.3193 -0.2409
 2873SOL     OW20080   1.410   0.935  14.455  0.0881  0.3249 -0.4979
 2873SOL    HW120081   1.424   1.019  14.413  0.5828  1.8616  2.7100
 2873SOL    HW220082   1.449   0.952  14.541  1.3492 -0.0554 -0.9947
 2874SOL     OW20083   3.227   2.749   2.632  0.1633  0.2083 -0.0901
 2874SOL    HW120084   3.273   2.686   2.577  1.4168  1.8666 -0.9285
 2874SOL    HW220085   3.197   2.807   2.562 -3.0325 -0.5811  0.6062
 2875SOL     OW20086   2.066   3.593   6.662 -0.0179 -0.1761 -0.3987
 2875SOL    HW120087   2.079   3.653   6.589 -2.3717  0.2390 -0.4870
 2875SOL    HW220088   2.012   3.641   6.726  0.3191  0.8393 -0.8753
 2876SOL     OW20089   2.472   0.059   1.273  0.2606  0.0619 -0.3044
 2876SOL    HW120090   2.381   0.056   1.245  0.3059  0.5536 -0.5055
 2876SOL    HW220091   2.512   0.089   1.192 -0.9550 -1.7745 -1.5829
 2877SOL     OW20092   0.474   4.619   0.194 -0.2098 -0.2565 -0.4241
 2877SOL    HW120093   0.394   4.670   0.188 -0.0726  0.0395  0.3572
 2877SOL    HW220094   0.521   4.659   0.267 -2.1107  0.6405  0.2965
 2878SOL     OW20095   4.189   4.144   9.285  0.0934  0.5958 -0.0034
 2878SOL    HW120096   4.185   4.240   9.291 -1.3153  0.4689  1.0081
 2878SOL    HW220097   4.211   4.141   9.192 -1.6815  1.0770 -0.4431
 2879SOL     OW20098   4.583   4.161   5.638  0.0720  0.2558  0.0355
 2879SOL    HW120099   4.541   4.246   5.653  1.4493  0.6745  1.5613
 2879SOL    HW220100   4.533   4.103   5.696  0.5454 -0.4768 -0.2871
 2880SOL     OW20101   3.442   2.994   3.654 -0.8524  0.5488 -0.0973
 2880SOL    HW120102   3.527   2.994   3.610  0.5861 -0.9796  2.7087
 2880SOL    HW220103   3.404   2.922   3.603 -1.2741 -0.1456  1.2081
 2881SOL     OW20104   4.183   3.466   7.199  0.3486 -0.2921 -0.2812
 2881SOL    HW120105   4.220   3.488   7.114  2.4728 -0.9623  0.4738
 2881SOL    HW220106   4.138   3.389   7.164  0.2868 -0.0577 -0.7111
 2882SOL     OW20107   3.578   3.111   9.789 -0.3585 -0.2954 -0.2545
 2882SOL    HW120108   3.541   3.171   9.855  0.2189  0.8960 -1.0091
 2882SOL    HW220109   3.668   3.143   9.790 -0.6430  0.4839  0.8686
 2883SOL     OW20110   0.997   1.061   3.608  0.0533  1.0418  0.3476
 2883SOL    HW120111   1.066   1.091   3.548 -0.6151  1.8600 -0.0101
 2883SOL    HW220112   1.029   0.975   3.634  1.1186  0.8285 -1.6188
 2884SOL     OW20113   0.607   0.068   5.396 -0.0661  0.2260 -0.6625
 2884SOL    HW120114   0.556   0.134   5.350 -1.8050 -0.2253  0.6365
 2884SOL    HW220115   0.662   0.035   5.325 -1.6478  0.6302 -2.0410
 2885SOL     OW20116   3.904   4.078  16.444  0.2227 -0.4545 -0.1989
 2885SOL    HW120117   3.872   3.993  16.414  1.3272 -1.2353  0.8173
 2885SOL    HW220118   3.845   4.103  16.515 -0.4459  0.4100 -1.0588
 2886SOL     OW20119   2.552   1.259   8.202 -0.2032 -0.1053 -0.2043
 2886SOL    HW120120   2.634   1.273   8.249  0.3187  2.8761 -1.9533
 2886SOL    HW220121   2.556   1.165   8.184 -2.7787 -0.4921  1.2907
 2887SOL     OW20122   3.332   1.888   5.002 -0.1369  0.1637 -0.0004
 2887SOL    HW120123   3.316   1.932   5.085 -2.3111 -0.3748 -0.1326
 2887SOL    HW220124   3.390   1.817   5.031 -1.8541 -1.4442 -0.4533
 2888SOL     OW20125   2.407   0.087  16.747  0.4251 -0.2322  0.2347
 2888SOL    HW120126   2.335   0.124  16.798 -0.5637 -0.3096 -1.1261
 2888SOL    HW220127   2.475   0.112  16.810 -0.0192  0.8661  0.2693
 2889SOL     OW20128   3.585   4.289  12.392 -0.5169  0.0240  0.8266
 2889SOL    HW120129   3.552   4.283  12.482 -0.7832 -0.6746  0.6760
 2889SOL    HW220130   3.528   4.228  12.345 -2.5396  2.0203  0.6684
 2890SOL     OW20131   4.090   1.881  16.886  0.3764  0.8989  0.6395
 2890SOL    HW120132   4.102   1.802  16.939 -0.0593  0.3067 -0.1438
 2890SOL    HW220133   4.085   1.952  16.951 -0.7853 -0.1535  1.7030
 2891SOL     OW20134   1.097   1.664   8.256 -0.1306 -0.1155  0.1796
 2891SOL    HW120135   1.023   1.605   8.274 -0.6430  0.5171  0.1503
 2891SOL    HW220136   1.073   1.714   8.178  1.4377  1.8419  0.9757
 2892SOL     OW20137   3.756   2.702   9.631  0.2607 -0.5203 -0.0522
 2892SOL    HW120138   3.726   2.704   9.540  1.7662  0.5071 -0.5235
 2892SOL    HW220139   3.689   2.763   9.661  0.1471  0.1126 -1.5816
 2893SOL     OW20140   2.347   3.720   8.714  0.2949  0.0057 -0.1546
 2893SOL    HW120141   2.318   3.629   8.708  1.7361 -0.6411  2.3457
 2893SOL    HW220142   2.274   3.771   8.678  1.0319 -0.7774 -2.7332
 2894SOL     OW20143   1.208   2.579   7.253 -0.2124  0.3956  0.6395
 2894SOL    HW120144   1.212   2.666   7.293  0.2148  0.0186  1.4187
 2894SOL    HW220145   1.139   2.585   7.186  3.6708  0.4880 -3.3277
 2895SOL     OW20146   0.218   0.243   7.836  0.9733  0.1030  0.1114
 2895SOL    HW120147   0.170   0.303   7.893 -1.7331 -1.2259 -0.7368
 2895SOL    HW220148   0.165   0.232   7.757  0.9855 -0.9333  0.2480
 2896SOL     OW20149   3.079   0.002   9.535  0.2957  0.1439 -0.1788
 2896SOL    HW120150   3.056   4.653   9.473 -0.8801  1.3715 -1.0971
 2896SOL    HW220151   3.164   0.029   9.500  0.0743  2.3381  0.9615
 2897SOL     OW20152   2.566   2.713   4.212 -0.1587  0.4267  0.3568
 2897SOL    HW120153   2.608   2.786   4.258 -0.2485  2.4828 -2.8045
 2897SOL    HW220154   2.561   2.657   4.289  2.7831  0.2073  0.3969
 2898SOL     OW20155   2.742   2.589  16.949 -0.2988 -0.2450 -0.3532
 2898SOL    HW120156   2.650   2.606  16.931 -0.7330 -0.2020  1.9256
 2898SOL    HW220157   2.758   2.664  17.007 -3.3599 -0.2573  0.5396
 2899SOL     OW20158   3.844   4.397   4.302 -0.0416  0.1662  0.2632
 2899SOL    HW120159   3.879   4.398   4.213 -1.7188 -2.0136 -0.4163
 2899SOL    HW220160   3.780   4.326   4.294  1.1753 -0.9420  0.3134
 2900SOL     OW20161   0.776   1.597   5.010  0.2480  0.4493 -0.0734
 2900SOL    HW120162   0.684   1.622   5.009  0.6496  1.9571  0.7080
 2900SOL    HW220163   0.786   1.577   4.917 -0.3373 -0.7875  0.1326
 2901SOL     OW20164   3.602   1.631  10.144  0.3485 -0.1067  0.0053
 2901SOL    HW120165   3.530   1.621  10.206 -1.0364  4.3672 -0.9020
 2901SOL    HW220166   3.664   1.569  10.184  1.5095  1.3649  0.4988
 2902SOL     OW20167   0.517   0.685  10.236 -0.4293 -0.0520  0.0186
 2902SOL    HW120168   0.601   0.682  10.282 -0.1786  1.6777 -0.3321
 2902SOL    HW220169   0.468   0.613  10.275 -0.4292 -1.4946 -2.6981
 2903SOL     OW20170   1.570   2.669   5.657 -0.1036  0.4222  0.2703
 2903SOL    HW120171   1.544   2.709   5.740  3.4224 -0.5078  1.7968
 2903SOL    HW220172   1.564   2.752   5.610  1.7168  0.5847  0.3557
 2904SOL     OW20173   4.106   3.875  17.448 -0.3656  0.0096  0.1258
 2904SOL    HW120174   4.076   3.836  17.530 -1.4243 -0.7633 -0.6365
 2904SOL    HW220175   4.070   3.809  17.389  0.6619 -0.4850  0.0487
 2905SOL     OW20176   3.812   1.188   4.051 -0.3445 -0.3358 -0.1120
 2905SOL    HW120177   3.817   1.125   4.122  1.2049  2.1450  2.0156
 2905SOL    HW220178   3.861   1.146   3.980  2.2196  2.8181 -0.2077
 2906SOL     OW20179   3.838   4.386   3.384 -0.2857  0.2441  0.6651
 2906SOL    HW120180   3.817   4.453   3.319  2.7620  2.3998  1.9420
 2906SOL    HW220181   3.805   4.300   3.357 -0.3218  0.1645  0.9692
 2907SOL     OW20182   1.816   2.731  16.111  0.9964  0.1892 -0.2757
 2907SOL    HW120183   1.801   2.763  16.022 -3.4716  1.4972  0.9501
 2907SOL    HW220184   1.764   2.794  16.160  0.0711  0.1314 -1.1764
 2908SOL     OW20185   2.218   1.569   7.085  0.3265 -0.4232 -0.0944
 2908SOL    HW120186   2.162   1.529   7.018 -0.6538  0.1918  0.3643
 2908SOL    HW220187   2.154   1.559   7.156  0.9962 -1.9084  0.3054
 2909SOL     OW20188   1.337   4.459   0.994 -0.0792 -0.5872  0.0928
 2909SOL    HW120189   1.315   4.389   1.055 -2.0565  0.2116  0.2907
 2909SOL    HW220190   1.353   4.530   1.056 -0.3390 -2.1312  1.9209
 2910SOL     OW20191   2.282   1.597  12.563 -0.0874 -0.0105 -0.4066
 2910SOL    HW120192   2.335   1.537  12.615 -0.3828  0.1396  0.0733
 2910SOL    HW220193   2.329   1.680  12.573 -1.0199  0.3258  1.2197
 2911SOL     OW20194   1.000   3.070   6.003 -0.1479  0.0716  1.0180
 2911SOL    HW120195   1.021   3.161   5.982  0.4465  0.2835  2.5034
 2911SOL    HW220196   0.999   3.072   6.099  0.8912 -0.2483  1.0325
 2912SOL     OW20197   1.779   1.861   8.481  0.5453  0.0785  0.2524
 2912SOL    HW120198   1.852   1.799   8.471  1.1310  0.5585  1.6113
 2912SOL    HW220199   1.825   1.936   8.443  0.5124 -1.1446 -2.2376
 2913SOL     OW20200   2.984   2.787   2.076  0.1677 -0.1865 -0.2563
 2913SOL    HW120201   2.984   2.879   2.102  1.1973  0.1731 -1.5106
 2913SOL    HW220202   2.927   2.790   1.999  1.1784  1.3248 -0.9469
 2914SOL     OW20203   2.050   1.646   8.780 -0.3904  0.2369 -0.4330
 2914SOL    HW120204   2.052   1.568   8.834  1.7940  0.9576  0.5600
 2914SOL    HW220205   2.075   1.715   8.842 -0.8063  2.0886 -2.3028
 2915SOL     OW20206   2.579   2.198   3.071  0.5774  0.2155 -0.7166
 2915SOL    HW120207   2.538   2.150   2.998  0.0081  0.3986 -0.5170
 2915SOL    HW220208   2.663   2.233   3.042  1.5160 -2.6203 -1.4085
 2916SOL     OW20209   3.835   3.748  17.170  0.0339  0.3494  0.0593
 2916SOL    HW120210   3.791   3.789  17.245 -1.5024 -2.1203  0.5086
 2916SOL    HW220211   3.847   3.813  17.100  2.8185 -0.2526 -0.0125
 2917SOL     OW20212   2.471   4.038  17.181  0.1636 -0.2476 -0.4369
 2917SOL    HW120213   2.436   3.949  17.183  2.3050 -1.0330  2.6892
 2917SOL    HW220214   2.559   4.038  17.220 -0.5804  1.5994  1.2121
 2918SOL     OW20215   1.902   2.416   4.418 -0.0341 -0.0217  0.1398
 2918SOL    HW120216   1.934   2.504   4.441 -1.5783 -0.1741  2.7841
 2918SOL    HW220217   1.870   2.383   4.502 -0.5595  0.5923  0.1858
 2919SOL     OW20218   3.376   2.242   3.072 -0.2024  0.0315  0.2534
 2919SOL    HW120219   3.334   2.210   2.993 -0.6654  1.4493 -0.0900
 2919SOL    HW220220   3.452   2.185   3.084  0.0583  0.4216  0.4761
 2920SOL     OW20221   3.129   0.329   5.987 -0.5303 -0.5410 -0.2700
 2920SOL    HW120222   3.214   0.333   6.031 -0.9445  0.5513  0.4059
 2920SOL    HW220223   3.092   0.265   6.047  1.1905 -2.2113 -0.9945
 2921SOL     OW20224   3.290   2.657   9.078  0.1348 -0.3947  0.1554
 2921SOL    HW120225   3.228   2.729   9.066  2.6793  1.6331 -0.5697
 2921SOL    HW220226   3.235   2.589   9.038  1.6673 -0.9400 -0.9944
 2922SOL     OW20227   4.532   1.928   3.636 -0.1001 -0.2464  0.5885
 2922SOL    HW120228   4.448   1.893   3.608  0.6063 -1.8303  0.4116
 2922SOL    HW220229   4.534   1.997   3.570  0.9875 -0.6008  0.2363
 2923SOL     OW20230   0.945   0.633   6.680 -0.4210 -0.4649 -0.1992
 2923SOL    HW120231   0.995   0.559   6.713 -1.1278 -0.4648  0.8657
 2923SOL    HW220232   1.014   0.698   6.689 -0.4246 -0.8614  2.6442
 2924SOL     OW20233   1.284   1.785   1.937  0.2033  0.4753  0.6590
 2924SOL    HW120234   1.375   1.807   1.955  0.2697 -2.1122  3.3180
 2924SOL    HW220235   1.289   1.691   1.954  0.6469  0.6493  1.4656
 2925SOL     OW20236   0.010   0.829   3.400  0.1080 -0.0310  0.4462
 2925SOL    HW120237   0.009   0.836   3.495 -2.5758 -1.3727  0.5116
 2925SOL    HW220238   0.002   0.734   3.391 -1.2035  0.1713 -0.6651
 2926SOL     OW20239   3.618   4.318  12.713 -0.4931 -0.2662  0.2322
 2926SOL    HW120240   3.603   4.402  12.755 -2.3435 -0.3772 -0.1879
 2926SOL    HW220241   3.714   4.317  12.712 -0.4822  1.1607 -1.4408
 2927SOL     OW20242   1.834   2.839   5.664  0.1857  0.7463  0.3090
 2927SOL    HW120243   1.754   2.880   5.695 -1.4845 -1.0509 -1.6121
 2927SOL    HW220244   1.855   2.773   5.731  2.9555  1.1745 -0.1430
 2928SOL     OW20245   3.560   2.448   6.003 -0.2903 -0.0329  0.2788
 2928SOL    HW120246   3.485   2.422   6.056  1.4198 -0.0439  2.7294
 2928SOL    HW220247   3.621   2.488   6.066  1.1501 -0.0343 -1.1157
 2929SOL     OW20248   3.665   2.642   3.427 -0.7399  0.6393 -0.3552
 2929SOL    HW120249   3.731   2.582   3.393 -0.8662  0.7193 -0.7458
 2929SOL    HW220250   3.605   2.580   3.468 -0.3046 -0.6953 -1.7169
 2930SOL     OW20251   0.704   4.323   4.483  0.4475 -0.4520  0.2498
 2930SOL    HW120252   0.721   4.391   4.548 -0.1107  0.3381 -0.4221
 2930SOL    HW220253   0.725   4.246   4.536  2.1617  1.1247  1.8759
 2931SOL     OW20254   3.353   2.118   5.172 -0.4699 -0.4117 -0.4134
 2931SOL    HW120255   3.416   2.095   5.240  0.1888 -0.1635 -0.9409
 2931SOL    HW220256   3.409   2.169   5.114 -0.5828 -0.1794 -0.3187
 2932SOL     OW20257   1.039   3.319   5.890  0.4245  0.5521 -0.1790
 2932SOL    HW120258   1.005   3.336   5.802 -1.4110 -0.3319  0.3424
 2932SOL    HW220259   1.116   3.375   5.887 -0.8153  2.3724  2.6109
 2933SOL     OW20260   0.179   3.066   6.128  0.4379 -0.3379 -0.5974
 2933SOL    HW120261   0.120   3.131   6.164  0.5074 -1.6541  1.8844
 2933SOL    HW220262   0.124   2.988   6.138  0.9693 -0.6151  0.1478
 2934SOL     OW20263   1.464   3.660   1.932  0.3818 -0.0593 -0.2719
 2934SOL    HW120264   1.478   3.701   1.846  4.2078 -0.6746  0.0385
 2934SOL    HW220265   1.535   3.597   1.918 -0.0688 -1.0339  1.8769
 2935SOL     OW20266   0.100   3.828  16.623  0.0734  0.2087  0.3548
 2935SOL    HW120267   0.077   3.896  16.686 -0.3212  2.4601 -2.1839
 2935SOL    HW220268   0.177   3.868  16.582  1.4136 -0.7148  1.9982
 2936SOL     OW20269   4.298   1.715   4.928 -0.2530  0.4028  0.8176
 2936SOL    HW120270   4.335   1.801   4.912 -2.1107  0.6716 -2.0542
 2936SOL    HW220271   4.263   1.684   4.844  1.1370 -0.1354  0.4323
 2937SOL     OW20272   1.278   3.310  12.222  0.3755 -0.1070  0.5803
 2937SOL    HW120273   1.213   3.267  12.277 -1.1059 -2.7331 -3.1936
 2937SOL    HW220274   1.281   3.401  12.252  1.5199  0.1187 -0.2053
 2938SOL     OW20275   1.813   1.331   6.310 -0.3353  0.3513  0.3461
 2938SOL    HW120276   1.852   1.319   6.396  1.2069 -0.4813 -0.4741
 2938SOL    HW220277   1.852   1.413   6.278 -1.1973  0.3610 -0.6784
 2939SOL     OW20278   3.110   3.343   1.951 -0.1741  0.5459 -0.1007
 2939SOL    HW120279   3.180   3.321   1.891 -1.1348  0.8277 -1.3289
 2939SOL    HW220280   3.114   3.437   1.937 -2.4025  0.5845 -0.5904
 2940SOL     OW20281   2.936   1.974   8.468 -0.1603  0.5241 -0.2744
 2940SOL    HW120282   2.977   1.912   8.528 -0.0893 -0.9891 -1.8998
 2940SOL    HW220283   2.855   1.996   8.516 -0.5289 -0.5861 -0.3951
 2941SOL     OW20284   1.524   2.340   3.636 -0.0738 -0.2336  0.1107
 2941SOL    HW120285   1.504   2.369   3.725 -1.0316  0.3127 -0.2778
 2941SOL    HW220286   1.499   2.415   3.582  0.6539 -0.0352  0.0443
 2942SOL     OW20287   3.717   4.341  15.570 -0.4749  0.2805 -0.1859
 2942SOL    HW120288   3.725   4.250  15.544 -0.1436  0.5496 -1.0168
 2942SOL    HW220289   3.621   4.349  15.563 -0.7445 -1.4017  1.4737
 2943SOL     OW20290   0.114   3.540   4.086  0.7309 -0.3583 -0.1383
 2943SOL    HW120291   0.041   3.561   4.145 -0.2420 -0.8285 -1.1822
 2943SOL    HW220292   0.143   3.456   4.122  1.5051 -0.2926 -0.6179
 2944SOL     OW20293   2.039   0.585   4.014  0.4405 -0.1936  0.0982
 2944SOL    HW120294   2.073   0.663   4.058  1.0719 -1.2916  1.5492
 2944SOL    HW220295   1.954   0.615   3.981  0.1994 -1.3724 -0.3431
 2945SOL     OW20296   3.573   2.466   3.630  0.4058 -0.0115 -0.2039
 2945SOL    HW120297   3.571   2.522   3.708  0.0767  0.1959 -0.3616
 2945SOL    HW220298   3.508   2.401   3.657  0.6528 -1.3654 -2.9100
 2946SOL     OW20299   3.890   3.393   4.273  0.3308  0.6013  0.4674
 2946SOL    HW120300   3.973   3.429   4.305  1.2922 -1.3684  0.1857
 2946SOL    HW220301   3.914   3.351   4.191  0.2180  1.3797  0.0375
 2947SOL     OW20302   3.049   3.883  13.898  0.0387 -0.1101 -0.6879
 2947SOL    HW120303   3.006   3.806  13.860 -0.7715 -0.5434  1.1336
 2947SOL    HW220304   3.072   3.852  13.986 -0.7248 -3.2226 -1.5667
 2948SOL     OW20305   3.115   0.490   7.339 -0.0091 -0.2339  0.0084
 2948SOL    HW120306   3.052   0.446   7.282  0.7832  1.9614 -2.5288
 2948SOL    HW220307   3.173   0.420   7.369 -2.1138 -1.1487  1.9849
 2949SOL     OW20308   0.667   2.126   1.190 -0.6282 -0.1549 -0.5530
 2949SOL    HW120309   0.645   2.119   1.283 -0.7168 -2.5092 -0.7617
 2949SOL    HW220310   0.672   2.221   1.181 -1.5282  0.0347  0.8850
 2950SOL     OW20311   3.772   3.022   0.215  0.0033  0.0684  0.0254
 2950SOL    HW120312   3.784   3.091   0.280  0.2394 -0.3112  0.3887
 2950SOL    HW220313   3.801   3.061   0.133 -2.1823 -0.8868 -1.2080
 2951SOL     OW20314   0.501   1.213   8.459  0.2167  0.0105 -0.6855
 2951SOL    HW120315   0.550   1.181   8.535 -2.9109 -1.5047  0.6935
 2951SOL    HW220316   0.524   1.149   8.391  0.4467 -2.4470  1.6910
 2952SOL     OW20317   4.623   3.625   3.504  0.0666  0.4345  0.1958
 2952SOL    HW120318   4.692   3.575   3.461  0.7338  0.5884  1.0946
 2952SOL    HW220319   4.550   3.615   3.442  0.8697  0.4274 -0.7375
 2953SOL     OW20320   1.037   2.214   8.162 -0.2673  0.9766  0.4187
 2953SOL    HW120321   0.989   2.293   8.188 -1.2283  1.1671 -1.9518
 2953SOL    HW220322   0.985   2.191   8.085  1.8337 -0.6801 -0.4915
 2954SOL     OW20323   1.101   0.581  16.690 -0.4189  0.1410  0.0230
 2954SOL    HW120324   1.016   0.624  16.678  0.1442  1.1745 -0.2936
 2954SOL    HW220325   1.070   0.491  16.692 -1.8742  0.6283 -0.1597
 2955SOL     OW20326   2.179   3.748  12.841  0.2734 -0.1373 -0.0941
 2955SOL    HW120327   2.138   3.833  12.856  0.7060 -0.0196  0.3895
 2955SOL    HW220328   2.260   3.780  12.801  0.8799 -0.6831  0.7090
 2956SOL     OW20329   1.727   3.360   8.849 -0.2495  0.2381  0.2052
 2956SOL    HW120330   1.820   3.382   8.845 -0.1448 -0.1525  0.5023
 2956SOL    HW220331   1.682   3.430   8.895  0.9712  0.5293  0.9406
 2957SOL     OW20332   3.655   0.128  14.796  0.2707 -0.1554 -1.0593
 2957SOL    HW120333   3.651   0.143  14.890  1.0284 -1.0573 -0.8855
 2957SOL    HW220334   3.665   0.034  14.788 -1.1103 -0.4347  0.4308
 2958SOL     OW20335   2.444   3.812   7.840  0.1375 -0.0554  0.3204
 2958SOL    HW120336   2.478   3.858   7.764 -0.0833  0.7927  0.7394
 2958SOL    HW220337   2.456   3.721   7.812  1.9431  0.9641 -2.1147
 2959SOL     OW20338   1.863   4.666   4.208  0.2835 -0.0070  0.6615
 2959SOL    HW120339   1.874   4.626   4.294  1.8977  0.8231  0.8604
 2959SOL    HW220340   1.804   4.602   4.170  1.3203  0.0539 -1.0660
 2960SOL     OW20341   0.032   3.885   7.151 -0.1416 -0.8042 -0.2951
 2960SOL    HW120342   0.109   3.856   7.201  0.5707  2.1209  0.2967
 2960SOL    HW220343   4.684   3.861   7.214 -0.8855  3.4365  0.4939
 2961SOL     OW20344   1.062   2.172   1.732  0.3733  0.7195 -0.1442
 2961SOL    HW120345   1.070   2.076   1.731 -0.5464  0.6442 -0.3868
 2961SOL    HW220346   0.969   2.174   1.708  0.0186 -2.5764  0.9543
 2962SOL     OW20347   1.013   0.100   6.254 -0.6798  0.3395  0.0736
 2962SOL    HW120348   1.084   0.102   6.319 -0.6963 -0.0361  0.1038
 2962SOL    HW220349   0.938   0.141   6.297  0.5879  0.1532  2.4578
 2963SOL     OW20350   4.071   3.758  12.449  0.0881 -0.0168  0.3765
 2963SOL    HW120351   4.119   3.831  12.409  0.0953  0.4423  1.2233
 2963SOL    HW220352   3.986   3.802  12.460 -0.6895 -1.0093 -1.6718
 2964SOL     OW20353   0.215   1.135   5.139 -0.6227  0.3308  0.1330
 2964SOL    HW120354   0.288   1.189   5.168  0.7748 -1.7037  0.3666
 2964SOL    HW220355   0.248   1.050   5.167 -1.0865  1.1964  3.2822
 2965SOL     OW20356   2.003   0.296   2.458 -0.0624  0.2044  0.0837
 2965SOL    HW120357   2.081   0.327   2.504  1.4524 -0.5033 -2.0012
 2965SOL    HW220358   2.031   0.258   2.375 -0.0212  1.7693 -0.6326
 2966SOL     OW20359   3.299   0.471   6.598  0.0768 -0.0807 -0.0229
 2966SOL    HW120360   3.320   0.397   6.541 -0.9817 -1.7120  1.6863
 2966SOL    HW220361   3.287   0.440   6.688 -0.3526 -1.3435 -0.5097
 2967SOL     OW20362   3.093   0.347   3.701 -0.3993  0.3061 -0.6591
 2967SOL    HW120363   3.021   0.383   3.754 -1.5327  0.1701 -2.0997
 2967SOL    HW220364   3.048   0.350   3.617  1.6599  0.0771 -1.7487
 2968SOL     OW20365   2.108   3.638  17.671  0.0256  0.3670  0.1933
 2968SOL    HW120366   2.044   3.693   0.035 -0.9820  0.6387 -1.5346
 2968SOL    HW220367   2.109   3.571   0.057 -0.1406 -1.1293 -1.2789
 2969SOL     OW20368   2.998   2.775   8.919  0.5280  0.7447  0.1381
 2969SOL    HW120369   2.945   2.763   8.998 -2.6950  1.3899 -1.9208
 2969SOL    HW220370   3.034   2.864   8.926 -0.2938  0.9526  1.9006
 2970SOL     OW20371   0.161   4.340   2.392 -0.0333 -0.1994 -0.7885
 2970SOL    HW120372   0.070   4.328   2.367  0.2394 -1.5940 -1.0949
 2970SOL    HW220373   0.208   4.320   2.311 -1.8752 -0.4659 -1.7824
 2971SOL     OW20374   1.585   0.878   8.242  0.0656  0.8791  0.2466
 2971SOL    HW120375   1.544   0.882   8.155  0.4854 -0.0547  0.0016
 2971SOL    HW220376   1.524   0.816   8.282 -2.3951  3.1943  0.0890
 2972SOL     OW20377   2.228   2.694   3.175  0.0844  0.8271  0.0116
 2972SOL    HW120378   2.157   2.729   3.229  0.6380  1.3345  0.3960
 2972SOL    HW220379   2.284   2.659   3.243 -1.5293 -1.0951  0.3633
 2973SOL     OW20380   1.737   0.586   7.198 -0.3013 -0.4525  0.8707
 2973SOL    HW120381   1.702   0.599   7.286 -1.0382  1.1899  0.3283
 2973SOL    HW220382   1.831   0.601   7.213 -1.0331  2.7900  2.3053
 2974SOL     OW20383   0.488   4.348  11.081  0.4069 -0.1451 -0.1241
 2974SOL    HW120384   0.486   4.337  11.176 -1.8150 -1.1051 -0.2729
 2974SOL    HW220385   0.464   4.439  11.065  3.2660  1.0174  2.2704
 2975SOL     OW20386   1.987   2.653   6.693  0.0561  0.5465 -0.0639
 2975SOL    HW120387   2.044   2.731   6.690  2.4452 -1.2945 -2.4862
 2975SOL    HW220388   1.980   2.632   6.600 -1.0698  0.3767  0.0595
 2976SOL     OW20389   4.130   1.881  16.153  0.0933  0.4151 -0.3856
 2976SOL    HW120390   4.100   1.855  16.240 -2.7027  0.5976 -1.2985
 2976SOL    HW220391   4.113   1.974  16.160  3.1917  0.9946 -0.3034
 2977SOL     OW20392   0.008   4.151  14.048  0.7807  1.0172  0.0841
 2977SOL    HW120393   0.048   4.203  14.117  1.0878  1.5274 -0.4781
 2977SOL    HW220394   0.022   4.213  13.976  1.7311  0.1829 -0.4562
 2978SOL     OW20395   4.406   3.970   7.115  0.0282  0.0444 -0.1400
 2978SOL    HW120396   4.377   4.059   7.132 -1.8241 -0.3761 -1.1792
 2978SOL    HW220397   4.410   3.985   7.021  1.1704  2.1985  0.2462
 2979SOL     OW20398   1.689   2.613  10.933  0.1231 -0.1943  0.4008
 2979SOL    HW120399   1.778   2.620  10.899 -0.4980  0.7199 -1.0541
 2979SOL    HW220400   1.696   2.619  11.028  0.5303  1.1816  0.2958
 2980SOL     OW20401   1.562   3.362   3.472  0.1207 -0.1394  0.0236
 2980SOL    HW120402   1.469   3.343   3.465 -0.3965  3.0114 -1.4472
 2980SOL    HW220403   1.566   3.442   3.420  2.2000 -0.1041  0.2349
 2981SOL     OW20404   0.767   1.685  10.040 -0.1131  0.2164  0.2188
 2981SOL    HW120405   0.725   1.730  10.113  0.7823  0.8074  0.3724
 2981SOL    HW220406   0.693   1.672   9.981  1.3902 -1.1378 -1.3923
 2982SOL     OW20407   2.845   3.856   5.380 -0.1459  0.4588 -0.7159
 2982SOL    HW120408   2.782   3.784   5.368  0.5167 -0.1750 -0.4125
 2982SOL    HW220409   2.794   3.928   5.418  1.1367  1.4503 -0.8915
 2983SOL     OW20410   0.362   1.105  16.049 -0.3460 -0.2685  0.4651
 2983SOL    HW120411   0.408   1.093  16.132  0.5800 -0.5887 -0.0847
 2983SOL    HW220412   0.313   1.023  16.049  1.4429 -1.3510 -2.7184
 2984SOL     OW20413   0.812   3.973  16.812  0.5106 -0.7884  0.1484
 2984SOL    HW120414   0.717   3.984  16.815  0.6408  0.2935  0.5390
 2984SOL    HW220415   0.824   3.889  16.769  2.6527 -0.1853 -0.4027
 2985SOL     OW20416   0.152   4.558   3.460 -0.0076  0.2601 -0.6953
 2985SOL    HW120417   0.230   4.540   3.512 -0.2913 -0.4764 -0.5156
 2985SOL    HW220418   0.153   4.653   3.473  0.6795  0.1892 -0.2056
 2986SOL     OW20419   1.163   1.964   2.267  0.4379  0.1116 -0.0013
 2986SOL    HW120420   1.151   1.871   2.247  0.5187  0.0642  0.1676
 2986SOL    HW220421   1.077   1.998   2.244  0.2385  0.6040  1.4839
 2987SOL     OW20422   2.439   2.415   4.031  0.3421 -0.1957  0.0036
 2987SOL    HW120423   2.522   2.449   3.998  0.1461  0.0879 -0.2046
 2987SOL    HW220424   2.394   2.380   3.953  0.3566  0.2108 -0.1880
 2988SOL     OW20425   0.694   3.488  11.151  0.1656  0.0248  0.0720
 2988SOL    HW120426   0.676   3.470  11.059  2.9554 -2.1322 -0.0711
 2988SOL    HW220427   0.635   3.562  11.166  0.5019  0.0079  1.5032
 2989SOL     OW20428   0.431   1.863   6.044  0.2703  0.1179  0.1625
 2989SOL    HW120429   0.435   1.937   5.983 -1.6413 -0.3081 -0.4811
 2989SOL    HW220430   0.503   1.890   6.101  0.6608 -1.2918  0.3191
 2990SOL     OW20431   3.887   1.399   1.083  0.0329  0.1412  0.0695
 2990SOL    HW120432   3.866   1.334   1.150  0.9554 -0.4529 -0.2196
 2990SOL    HW220433   3.843   1.364   1.006  0.4749 -5.1879  2.2323
 2991SOL     OW20434   3.707   2.238  12.403 -0.2435 -0.6650 -0.6170
 2991SOL    HW120435   3.759   2.168  12.364  0.0401 -0.9283  0.2319
 2991SOL    HW220436   3.761   2.279  12.471 -0.4897  0.7950 -1.3070
 2992SOL     OW20437   0.639   2.113   8.999 -0.1485 -0.3432 -0.1409
 2992SOL    HW120438   0.712   2.156   9.043 -0.8275  0.7668 -0.1005
 2992SOL    HW220439   0.634   2.034   9.053  1.7747 -0.2853  0.1291
 2993SOL     OW20440   0.196   2.727  14.415 -0.2917 -0.4816 -0.4620
 2993SOL    HW120441   0.136   2.801  14.418  2.3098  1.5453  0.6489
 2993SOL    HW220442   0.130   2.658  14.428  0.0041 -0.7160 -0.2208
 2994SOL     OW20443   3.903   1.174   1.239  0.8109  0.5516 -0.3485
 2994SOL    HW120444   3.896   1.078   1.238 -0.9364  0.6475  2.4442
 2994SOL    HW220445   3.860   1.190   1.323  0.9756 -2.4562  0.3211
 2995SOL     OW20446   3.986   0.987   1.495 -0.7444 -0.4848 -0.0433
 2995SOL    HW120447   3.932   1.051   1.541  0.6450  0.0370  0.8315
 2995SOL    HW220448   4.062   1.042   1.477 -1.3122  0.4864  0.5092
 2996SOL     OW20449   3.843   0.553   8.799 -0.3655  0.5418  0.0325
 2996SOL    HW120450   3.827   0.480   8.858 -3.5059  0.1750 -1.3130
 2996SOL    HW220451   3.918   0.587   8.848 -1.1925  0.9379  1.0205
 2997SOL     OW20452   4.498   3.318  16.295  0.3967  0.8852  0.4677
 2997SOL    HW120453   4.586   3.334  16.263  0.4123  1.1657  0.6447
 2997SOL    HW220454   4.466   3.408  16.302  1.9064  1.5200 -0.8107
 2998SOL     OW20455   0.333   1.500   1.477 -0.8414 -0.1174  0.5278
 2998SOL    HW120456   0.291   1.578   1.439 -0.6895 -1.3483 -2.1691
 2998SOL    HW220457   0.320   1.428   1.416 -0.3354 -0.8875  1.3259
 2999SOL     OW20458   1.984   2.714   8.272 -0.0759  0.0444  0.3080
 2999SOL    HW120459   2.074   2.700   8.244  0.4383 -0.9435  2.4039
 2999SOL    HW220460   1.928   2.688   8.199  2.1899 -1.4032 -0.8814
 3000SOL     OW20461   2.257   4.008   7.920  0.7177  0.4692 -0.0711
 3000SOL    HW120462   2.337   3.955   7.913  0.6149  0.3820 -0.6255
 3000SOL    HW220463   2.222   3.962   7.996  0.0859  1.0193 -0.0316
 3001SOL     OW20464   1.104   2.379   6.357  0.2214  0.1085  0.0655
 3001SOL    HW120465   1.147   2.302   6.319  0.1963 -0.0043  0.2662
 3001SOL    HW220466   1.010   2.375   6.337  0.2096  2.2826 -0.3657
 3002SOL     OW20467   4.524   1.935  14.458 -0.4055  0.1507 -0.1903
 3002SOL    HW120468   4.454   1.899  14.513 -1.1381  2.0311  0.1011
 3002SOL    HW220469   4.540   1.857  14.405 -0.2994  0.8592 -1.1870
 3003SOL     OW20470   0.877   4.399   2.303  0.4983 -0.4126  0.0364
 3003SOL    HW120471   0.923   4.315   2.297  1.6334  0.3592 -2.1429
 3003SOL    HW220472   0.860   4.414   2.211  0.2853 -0.1112  0.1268
 3004SOL     OW20473   3.827   4.168   8.031  0.3310  0.3290 -0.3993
 3004SOL    HW120474   3.799   4.110   7.959 -1.3723 -0.5308  0.9632
 3004SOL    HW220475   3.833   4.247   7.976  1.9769  1.1672  0.9965
 3005SOL     OW20476   2.257   1.038   1.111 -0.0648 -0.0876  0.3095
 3005SOL    HW120477   2.326   0.980   1.079 -1.0150 -0.6672 -0.7119
 3005SOL    HW220478   2.199   0.971   1.148 -1.9467  0.6991 -1.2192
 3006SOL     OW20479   2.889   0.369   7.886 -0.6857  0.5096  0.4717
 3006SOL    HW120480   2.881   0.352   7.792 -1.3203  0.9364  0.4401
 3006SOL    HW220481   2.868   0.463   7.886 -1.0847  0.4107 -3.6051
 3007SOL     OW20482   4.471   3.696   7.014 -0.2830 -0.3612  0.1990
 3007SOL    HW120483   4.464   3.783   7.052 -0.2067 -0.3582  0.2071
 3007SOL    HW220484   4.565   3.679   7.015 -0.8840 -3.5618  1.8146
 3008SOL     OW20485   2.597   0.399   4.579 -0.0808  0.9107 -0.4463
 3008SOL    HW120486   2.684   0.360   4.592 -0.0155  1.5381  1.0292
 3008SOL    HW220487   2.553   0.332   4.526  1.9843 -0.0113 -1.0052
 3009SOL     OW20488   1.151   3.367   1.934 -0.2374 -0.0256 -0.4303
 3009SOL    HW120489   1.220   3.334   1.876 -0.4034 -0.6964 -0.2526
 3009SOL    HW220490   1.137   3.456   1.903 -0.9311  0.4789  1.3304
 3010SOL     OW20491   0.151   1.996   5.240  0.5669  0.4336  0.1855
 3010SOL    HW120492   0.110   2.073   5.280  1.1399  1.5072 -1.3073
 3010SOL    HW220493   0.075   1.946   5.211  1.0714  0.1124 -0.5758
 3011SOL     OW20494   2.112   3.054   8.283 -0.2212 -0.6932 -0.7775
 3011SOL    HW120495   2.176   2.997   8.326 -1.9316 -1.0283  1.2886
 3011SOL    HW220496   2.039   3.069   8.343  0.3707 -1.0032  0.0216
 3012SOL     OW20497   1.140   3.611   1.839  0.4655 -0.2418 -0.2460
 3012SOL    HW120498   1.153   3.631   1.747  2.8051  0.5922  0.2615
 3012SOL    HW220499   1.223   3.646   1.873  1.8354 -0.2087 -3.6667
 3013SOL     OW20500   2.571   4.330   1.233 -1.0347 -0.2401 -0.2571
 3013SOL    HW120501   2.477   4.310   1.240 -0.6545 -1.8040  0.4032
 3013SOL    HW220502   2.594   4.259   1.173  0.2957 -1.5904  1.8469
 3014SOL     OW20503   0.548   0.626   5.329 -0.2964  0.1840 -0.3200
 3014SOL    HW120504   0.596   0.665   5.402  0.3168 -1.2331  0.0325
 3014SOL    HW220505   0.538   0.541   5.372  0.1197 -0.0691 -0.7256
 3015SOL     OW20506   0.591   3.100   6.375 -0.2712  0.4102  0.1576
 3015SOL    HW120507   0.673   3.145   6.361  1.0741 -2.0011  0.2385
 3015SOL    HW220508   0.525   3.140   6.319 -0.5385 -0.8044 -0.3969
 3016SOL     OW20509   2.277   0.139   8.048 -0.4870 -1.0894 -0.0088
 3016SOL    HW120510   2.213   0.199   8.009 -0.3773 -0.6269  0.5317
 3016SOL    HW220511   2.275   0.162   8.141 -1.6180  0.0322 -0.3103
 3017SOL     OW20512   2.332   3.870   5.868  0.3658  0.0078  0.1294
 3017SOL    HW120513   2.323   3.838   5.778  1.8236  2.1058 -0.7421
 3017SOL    HW220514   2.320   3.964   5.859 -0.5198 -0.1367 -0.2143
 3018SOL     OW20515   2.371   2.877   2.459  0.1585 -0.0209 -0.5808
 3018SOL    HW120516   2.460   2.882   2.494  0.0371 -1.5791 -0.0297
 3018SOL    HW220517   2.378   2.957   2.407  0.2051 -0.3266 -1.0416
 3019SOL     OW20518   4.190   0.115   6.305 -0.4191  0.3150  0.5685
 3019SOL    HW120519   4.132   0.090   6.233 -0.5204 -0.3487  0.8752
 3019SOL    HW220520   4.153   0.074   6.384  1.4618  0.5450  1.5716
 3020SOL     OW20521   1.517   0.149   2.142  0.5965  0.6440  0.5617
 3020SOL    HW120522   1.507   0.209   2.068  2.9715 -1.2169 -1.2416
 3020SOL    HW220523   1.436   0.098   2.138  2.3389 -2.1580  0.9254
 3021SOL     OW20524   0.628   2.130   2.581  0.2325  0.2187 -0.2698
 3021SOL    HW120525   0.608   2.130   2.488  0.3243  1.8742 -0.2853
 3021SOL    HW220526   0.671   2.215   2.590 -0.0707  0.4359 -0.9421
 3022SOL     OW20527   3.025   2.556  12.245  0.7726  0.5301 -0.1686
 3022SOL    HW120528   2.973   2.512  12.313  0.8080  0.0555 -0.4515
 3022SOL    HW220529   3.083   2.609  12.300 -0.0401  0.7642  0.4783
 3023SOL     OW20530   0.592   1.867   2.418 -0.2176 -0.5445 -0.0750
 3023SOL    HW120531   0.659   1.801   2.401  0.8746  0.3825  0.6116
 3023SOL    HW220532   0.647   1.941   2.445  0.5639 -1.9197  2.0701
 3024SOL     OW20533   4.706   3.709   6.141  0.2358  0.2885  0.3764
 3024SOL    HW120534   0.032   3.726   6.224 -0.2371  1.4812  0.3898
 3024SOL    HW220535   4.629   3.667   6.181 -0.2702 -0.0201 -0.9368
 3025SOL     OW20536   0.630   1.948   6.191 -0.1102  0.6236  0.2803
 3025SOL    HW120537   0.703   1.902   6.149  2.1585  2.3751  2.2531
 3025SOL    HW220538   0.674   1.972   6.273  1.2906  2.1972 -0.9232
 3026SOL     OW20539   2.749   3.408  14.210 -0.3677 -0.7277 -0.2600
 3026SOL    HW120540   2.779   3.317  14.208  0.3153 -0.5787  2.9730
 3026SOL    HW220541   2.832   3.451  14.230 -0.5799 -0.0043 -0.9561
 3027SOL     OW20542   2.250   1.205   7.955 -0.0476 -0.3497 -0.0569
 3027SOL    HW120543   2.205   1.188   8.038  1.4881 -2.5539  0.3514
 3027SOL    HW220544   2.232   1.117   7.920  1.0304 -0.4108 -0.4609
 3028SOL     OW20545   4.668   1.995   4.068  0.5562 -0.2063 -0.2105
 3028SOL    HW120546   4.625   1.910   4.083 -0.4185  0.5880  1.4398
 3028SOL    HW220547   4.608   2.035   4.005  0.3924  1.7092  1.1632
 3029SOL     OW20548   3.686   3.026   0.805 -0.0372 -0.1729  0.3369
 3029SOL    HW120549   3.727   2.940   0.801  2.4848  1.1019 -1.0707
 3029SOL    HW220550   3.642   3.023   0.890 -0.9543 -2.5352 -0.2230
 3030SOL     OW20551   1.782   1.963   0.109 -0.3549 -0.7416 -0.0328
 3030SOL    HW120552   1.856   1.966   0.169 -0.2283  2.1782 -0.3326
 3030SOL    HW220553   1.819   1.902   0.045  1.0403 -1.1762  1.1883
 3031SOL     OW20554   3.080   4.218   5.578 -0.2679 -0.2642 -0.1948
 3031SOL    HW120555   3.039   4.282   5.636 -0.3397 -1.3770  0.9908
 3031SOL    HW220556   3.003   4.202   5.522 -0.5728  2.6103 -0.5619
 3032SOL     OW20557   1.342   4.581   4.169 -0.1412  0.3579 -0.8267
 3032SOL    HW120558   1.399   4.505   4.178 -1.1456 -0.4257 -0.9687
 3032SOL    HW220559   1.396   4.659   4.176 -1.9105  1.6157 -1.0779
 3033SOL     OW20560   3.613   3.271   2.221 -0.2902  0.1442 -0.3973
 3033SOL    HW120561   3.654   3.298   2.139  0.9969 -2.4512 -0.5827
 3033SOL    HW220562   3.683   3.226   2.267  0.6081 -0.4637 -2.3896
 3034SOL     OW20563   4.496   4.086   8.586  0.4855 -0.2855 -0.1675
 3034SOL    HW120564   4.470   4.090   8.678  0.3772  1.1944 -0.2661
 3034SOL    HW220565   4.564   4.153   8.582 -1.4295  1.7136  0.6616
 3035SOL     OW20566   3.007   0.235   8.289  0.1554 -0.3066  0.2871
 3035SOL    HW120567   3.047   0.153   8.262 -1.5485 -0.6313 -1.2650
 3035SOL    HW220568   2.933   0.221   8.230  2.1856  0.8306 -2.5030
 3036SOL     OW20569   1.668   4.264   9.206 -0.1474  0.8417 -0.2086
 3036SOL    HW120570   1.705   4.185   9.166 -0.0219  1.5110 -1.4080
 3036SOL    HW220571   1.689   4.320   9.131 -2.3892 -0.0958 -1.5339
 3037SOL     OW20572   0.666   4.155   3.435 -0.4548 -0.0506  0.1363
 3037SOL    HW120573   0.752   4.126   3.466  0.4107  0.5104 -1.7172
 3037SOL    HW220574   0.625   4.071   3.418  0.6205 -0.8306  1.4068
 3038SOL     OW20575   1.480   2.925   1.516  0.3351  0.1650  0.3516
 3038SOL    HW120576   1.479   2.840   1.560  0.5372 -0.2042 -0.3514
 3038SOL    HW220577   1.572   2.952   1.519 -0.1923  2.3211 -2.7497
 3039SOL     OW20578   2.485   3.565   5.600  0.5841  0.2341 -0.1914
 3039SOL    HW120579   2.443   3.650   5.591  2.0708  0.8786 -0.9191
 3039SOL    HW220580   2.560   3.586   5.656  0.1309 -0.9592  0.8672
 3040SOL     OW20581   1.779   3.440   3.236  0.0038  0.0548 -0.0616
 3040SOL    HW120582   1.807   3.388   3.311 -2.4417  0.2805  0.9939
 3040SOL    HW220583   1.859   3.454   3.184  1.4384  1.6827  2.5776
 3041SOL     OW20584   4.485   0.232   3.073  0.1463  0.0012 -0.3755
 3041SOL    HW120585   4.566   0.276   3.048  0.3888 -0.8284 -1.0523
 3041SOL    HW220586   4.445   0.225   2.986  0.5998  0.7697 -0.6469
 3042SOL     OW20587   2.859   1.910   1.934  0.3400  0.0838 -0.1307
 3042SOL    HW120588   2.831   2.000   1.950  0.1006 -0.0031 -0.0512
 3042SOL    HW220589   2.913   1.894   2.012  1.4415 -0.8944 -1.0975
 3043SOL     OW20590   1.773   1.602   2.416  0.4494  0.0564  0.4844
 3043SOL    HW120591   1.724   1.681   2.392 -0.6367 -0.5137  0.8168
 3043SOL    HW220592   1.832   1.635   2.483  0.5856  0.8975 -0.0553
 3044SOL     OW20593   0.279   1.690  14.957  0.0010 -0.4622 -0.1746
 3044SOL    HW120594   0.284   1.775  14.913 -0.2535 -1.0975 -1.4037
 3044SOL    HW220595   0.324   1.630  14.898  0.6609 -1.3731  1.2544
 3045SOL     OW20596   1.921   0.233  14.551 -1.2067 -0.3263 -0.7753
 3045SOL    HW120597   1.956   0.256  14.637 -1.8499 -0.2894 -0.5211
 3045SOL    HW220598   1.854   0.300  14.537 -0.5755  0.7388  1.3200
 3046SOL     OW20599   2.986   1.334   5.974  0.6323 -0.2944  0.2889
 3046SOL    HW120600   3.003   1.426   5.992 -0.6799  0.3314 -1.7212
 3046SOL    HW220601   3.034   1.282   6.039  1.4915 -0.9620 -0.8802
 3047SOL     OW20602   0.095   4.095  14.672  0.1230 -0.1116  0.1131
 3047SOL    HW120603   0.008   4.055  14.677 -0.3954  1.1628  1.3845
 3047SOL    HW220604   0.096   4.147  14.591 -0.9393 -1.0364 -0.4942
 3048SOL     OW20605   3.048   2.815  12.858 -0.4068  0.0363  0.1466
 3048SOL    HW120606   3.101   2.766  12.921  0.8733  1.3751  0.1083
 3048SOL    HW220607   3.084   2.780  12.777  0.4467 -0.7648  0.8655
 3049SOL     OW20608   1.857   2.785   9.462 -0.5198  0.3860 -0.4683
 3049SOL    HW120609   1.906   2.745   9.390  0.1026  0.3569 -0.0269
 3049SOL    HW220610   1.911   2.860   9.483 -0.2488 -0.3943  1.6415
 3050SOL     OW20611   4.588   3.238   1.528  0.4035 -0.1095 -0.1176
 3050SOL    HW120612   4.592   3.217   1.434  4.5779 -0.1877  0.1176
 3050SOL    HW220613   4.674   3.272   1.550  0.9231 -1.0662 -0.6898
 3051SOL     OW20614   2.014   1.537  10.240 -0.1351 -0.5126  0.5587
 3051SOL    HW120615   2.086   1.563  10.182  0.2527 -1.9783  0.3730
 3051SOL    HW220616   1.993   1.620  10.283 -0.6828 -0.4058  0.0848
 3052SOL     OW20617   4.479   4.110  17.568 -0.1566 -0.7219 -0.6596
 3052SOL    HW120618   4.537   4.139  17.639  0.2063 -3.4351  0.1727
 3052SOL    HW220619   4.417   4.182  17.578  1.0878  0.1723  0.7475
 3053SOL     OW20620   1.638   1.470  12.998 -0.2883  0.0069 -0.1683
 3053SOL    HW120621   1.613   1.397  12.942  0.3258  0.3268 -0.8600
 3053SOL    HW220622   1.731   1.481  12.977 -0.5012  2.2790  0.0468
 3054SOL     OW20623   1.903   3.197   4.473  0.4259  0.0709  0.4258
 3054SOL    HW120624   1.935   3.116   4.434  0.6002  0.4290 -0.1706
 3054SOL    HW220625   1.812   3.173   4.486  0.1213  0.9900 -0.0455
 3055SOL     OW20626   4.033   1.145  14.101  0.2880  0.3221 -0.6948
 3055SOL    HW120627   4.022   1.115  14.191  0.3094 -0.9375 -1.1020
 3055SOL    HW220628   4.034   1.061  14.054 -1.4550 -0.1149  0.0481
 3056SOL     OW20629   4.530   0.771   7.328  0.8114 -0.0475  0.0303
 3056SOL    HW120630   4.495   0.709   7.264 -1.9360  3.0611 -1.4700
 3056SOL    HW220631   4.476   0.747   7.403 -1.4197 -0.4582 -1.6964
 3057SOL     OW20632   0.694   0.069   8.204 -0.0518  0.3282  0.5803
 3057SOL    HW120633   0.747   0.126   8.148 -0.1825 -0.2220 -0.1061
 3057SOL    HW220634   0.627   0.122   8.246  0.4642  1.0232  0.5337
 3058SOL     OW20635   0.981   1.588   0.629  0.0850  0.0138 -0.1952
 3058SOL    HW120636   0.978   1.664   0.571  1.1815  0.8191  0.8065
 3058SOL    HW220637   1.049   1.626   0.685  0.3282  0.3337 -0.7037
 3059SOL     OW20638   1.540   0.772   5.503 -0.7254  0.5266  0.2283
 3059SOL    HW120639   1.536   0.790   5.409 -1.2729 -1.8952 -0.2152
 3059SOL    HW220640   1.634   0.785   5.516 -0.9189  1.7334  0.4270
 3060SOL     OW20641   0.534   3.927   3.753 -0.2773  0.3323 -1.0369
 3060SOL    HW120642   0.577   3.999   3.797 -1.2881 -0.0233  0.5319
 3060SOL    HW220643   0.443   3.957   3.746 -1.0303 -1.4654  1.0058
 3061SOL     OW20644   2.077   2.412   3.397  0.2777 -0.6886  0.1256
 3061SOL    HW120645   2.015   2.418   3.325  1.9240  2.6379 -1.0460
 3061SOL    HW220646   2.066   2.321   3.423 -2.5645 -0.4566 -0.3053
 3062SOL     OW20647   2.646   3.820  12.133 -0.5393  0.2341 -0.1136
 3062SOL    HW120648   2.599   3.895  12.096 -2.6167 -0.3448  1.3459
 3062SOL    HW220649   2.683   3.857  12.213  2.1870 -0.4673 -1.0612
 3063SOL     OW20650   2.152   2.102   9.144  0.0898 -0.6661  0.0516
 3063SOL    HW120651   2.093   2.099   9.069 -1.9749  1.4120  1.5862
 3063SOL    HW220652   2.103   2.063   9.217 -2.5332  1.0139 -0.8200
 3064SOL     OW20653   2.092   1.819   2.021 -0.3158  0.1391 -0.7681
 3064SOL    HW120654   2.150   1.747   2.048  1.3094  0.5099 -3.2261
 3064SOL    HW220655   2.059   1.845   2.107 -0.7797 -2.1533 -0.2769
 3065SOL     OW20656   2.592   0.811   3.036 -0.0985 -0.2419  0.4821
 3065SOL    HW120657   2.500   0.803   3.060  0.0842  0.3574  1.3794
 3065SOL    HW220658   2.620   0.887   3.087 -1.8556  1.3340 -0.8844
 3066SOL     OW20659   3.539   3.768   7.207 -0.4106  0.0164  0.5377
 3066SOL    HW120660   3.567   3.860   7.209  0.7767 -0.3268 -0.3466
 3066SOL    HW220661   3.453   3.786   7.245 -1.1031 -2.2441 -0.0072
 3067SOL     OW20662   0.911   2.051   9.444  0.2733 -0.3599  0.0515
 3067SOL    HW120663   0.932   1.983   9.508  2.6801  1.8960  1.6727
 3067SOL    HW220664   0.956   2.127   9.482 -0.8137  1.1933 -1.7679
 3068SOL     OW20665   0.673   2.249  11.842  0.4931  0.2373 -0.0879
 3068SOL    HW120666   0.767   2.234  11.829  0.8167  0.9081  1.5116
 3068SOL    HW220667   0.636   2.243  11.754  0.1594  0.8832  0.0087
 3069SOL     OW20668   4.279   1.605   5.466 -0.6970 -0.3952  0.2746
 3069SOL    HW120669   4.296   1.546   5.393 -0.4966  0.1924 -0.1542
 3069SOL    HW220670   4.189   1.633   5.449 -0.3569  0.0454 -0.7562
 3070SOL     OW20671   2.875   4.144   2.089 -0.1206 -0.8221 -0.0352
 3070SOL    HW120672   2.964   4.144   2.054 -1.1784  1.9527 -2.7155
 3070SOL    HW220673   2.840   4.219   2.041 -2.1819  0.5575  3.5840
 3071SOL     OW20674   2.689   3.055   1.100 -0.1810 -0.2022 -0.0150
 3071SOL    HW120675   2.730   2.970   1.086 -0.2287 -0.3998  1.0654
 3071SOL    HW220676   2.618   3.030   1.159 -1.0099 -0.4441 -1.1100
 3072SOL     OW20677   1.504   3.535   0.330  0.5380  0.3441  0.2083
 3072SOL    HW120678   1.513   3.440   0.331  1.0740  0.3853 -0.3041
 3072SOL    HW220679   1.481   3.557   0.240 -4.3790 -1.5566  0.9866
 3073SOL     OW20680   3.661   2.812   2.768 -0.2572 -0.6257 -0.2792
 3073SOL    HW120681   3.626   2.899   2.750  0.5945 -0.7904 -2.7527
 3073SOL    HW220682   3.622   2.772   2.691 -0.8201  0.1173 -0.3781
 3074SOL     OW20683   3.892   3.230   5.013  0.0176 -0.3247  0.0677
 3074SOL    HW120684   3.820   3.257   4.956 -0.5002 -1.0898  0.3498
 3074SOL    HW220685   3.841   3.166   5.063  0.3611  0.5795  1.5660
 3075SOL     OW20686   3.926   1.108   9.035 -0.4528 -0.1211 -0.4302
 3075SOL    HW120687   3.916   1.187   8.981 -2.3088  1.4358  2.1875
 3075SOL    HW220688   3.847   1.063   9.007 -0.3680 -2.8643  3.7043
 3076SOL     OW20689   4.650   3.395   6.270 -0.2291  0.7218 -0.1863
 3076SOL    HW120690   4.610   3.322   6.316  0.4884  0.0257 -0.6452
 3076SOL    HW220691   4.675   3.349   6.189 -2.6744 -1.1026  0.1338
 3077SOL     OW20692   1.466   0.775   6.473 -0.5855  0.4151  0.6968
 3077SOL    HW120693   1.424   0.857   6.447 -0.5503  0.0049 -0.7102
 3077SOL    HW220694   1.558   0.787   6.449 -0.5243  0.1336  0.7907
 3078SOL     OW20695   2.009   0.197   3.704  0.7977 -0.2818 -0.0107
 3078SOL    HW120696   2.087   0.206   3.649  0.4572 -2.0403 -0.7710
 3078SOL    HW220697   1.992   0.287   3.732 -2.3561 -1.3064  1.4213
 3079SOL     OW20698   3.281   0.278   7.410  0.2629  0.0096 -0.0430
 3079SOL    HW120699   3.253   0.195   7.372  0.4787 -0.1134  0.0613
 3079SOL    HW220700   3.366   0.290   7.367  0.7992  2.0402  1.5630
 3080SOL     OW20701   2.473   0.530   5.514 -0.0807  0.3383  0.0723
 3080SOL    HW120702   2.460   0.592   5.442  2.4864  0.5014 -0.2824
 3080SOL    HW220703   2.498   0.453   5.463  2.5808  2.4214 -1.8018
 3081SOL     OW20704   1.852   1.690   2.148 -0.5348  0.0518  0.4012
 3081SOL    HW120705   1.787   1.642   2.200 -0.9327  0.7636  0.5574
 3081SOL    HW220706   1.897   1.751   2.207 -1.7491  0.5770  0.7886
 3082SOL     OW20707   0.277   2.444   6.949 -0.7264 -0.1027 -0.5036
 3082SOL    HW120708   0.275   2.413   6.858 -0.8525  0.7341 -0.7941
 3082SOL    HW220709   0.353   2.502   6.949 -1.4558  0.8629 -1.1957
 3083SOL     OW20710   3.556   2.681   6.923 -0.2977  0.2146 -0.2152
 3083SOL    HW120711   3.641   2.719   6.900 -0.8556  0.5402 -1.7292
 3083SOL    HW220712   3.549   2.692   7.018  1.3047 -1.4193  0.1070
 3084SOL     OW20713   3.812   0.851   2.424  0.2514 -0.6403  0.3560
 3084SOL    HW120714   3.906   0.863   2.411  0.2597 -0.7927  0.2684
 3084SOL    HW220715   3.787   0.873   2.513 -0.1330 -0.3528  0.1772
 3085SOL     OW20716   1.901   2.753   3.217  0.3162  0.4372  0.1732
 3085SOL    HW120717   1.963   2.818   3.251 -0.1520  1.3018 -0.6144
 3085SOL    HW220718   1.955   2.714   3.148 -0.8139 -1.3807  0.3167
 3086SOL     OW20719   2.047   0.364   8.783 -0.1816 -0.1393  0.4257
 3086SOL    HW120720   2.036   0.392   8.874  1.3602 -1.1226  0.9213
 3086SOL    HW220721   1.968   0.390   8.736 -1.6759 -2.1185  1.8965
 3087SOL     OW20722   2.782   1.582   8.565 -0.1225 -0.0496  0.4253
 3087SOL    HW120723   2.861   1.636   8.558  0.1638 -0.5207 -0.0514
 3087SOL    HW220724   2.824   1.508   8.608  1.1492 -0.2392 -1.1255
 3088SOL     OW20725   4.005   3.799   8.927  0.1048  0.5078  0.2696
 3088SOL    HW120726   4.034   3.854   8.855 -1.4766  1.2867  0.2269
 3088SOL    HW220727   3.936   3.750   8.884  0.4560  0.2596 -0.0093
 3089SOL     OW20728   2.724   3.468  15.094 -0.1782 -0.3239  0.0403
 3089SOL    HW120729   2.670   3.505  15.025  1.2414 -0.2633 -1.0532
 3089SOL    HW220730   2.812   3.492  15.064 -0.2956 -0.8042 -0.6812
 3090SOL     OW20731   1.624   1.399   4.055  1.1916  0.2225 -0.3328
 3090SOL    HW120732   1.648   1.404   3.962 -0.2668  0.0929 -0.7285
 3090SOL    HW220733   1.705   1.403   4.106  0.4968  1.8866  0.6470
 3091SOL     OW20734   2.494   3.824   0.405  0.4340  0.3838 -0.0564
 3091SOL    HW120735   2.557   3.780   0.347 -2.8782  0.2678 -3.5562
 3091SOL    HW220736   2.504   3.911   0.367  1.7451  0.2294 -0.0893
 3092SOL     OW20737   0.120   1.787   3.720 -0.4433 -0.0155 -0.0536
 3092SOL    HW120738   0.128   1.701   3.761  1.0220 -0.5158 -1.4052
 3092SOL    HW220739   0.057   1.837   3.772  0.0548 -2.7538  3.1875
 3093SOL     OW20740   2.618   3.270   5.602 -0.4583  0.0612  0.3241
 3093SOL    HW120741   2.641   3.347   5.654 -0.2387 -0.8912  1.6625
 3093SOL    HW220742   2.602   3.309   5.516  0.8540  0.0636  0.0782
 3094SOL     OW20743   2.445   2.074   2.256 -0.2764 -0.2772  0.1718
 3094SOL    HW120744   2.469   2.000   2.200 -1.6614  0.0296 -0.8241
 3094SOL    HW220745   2.454   2.153   2.203  1.2838 -0.4712  0.1484
 3095SOL     OW20746   3.564   0.935   6.567  0.2612 -0.5784  0.5590
 3095SOL    HW120747   3.492   0.997   6.562 -0.1520 -1.0957  0.0777
 3095SOL    HW220748   3.526   0.849   6.584  0.1362 -0.7100 -0.4027
 3096SOL     OW20749   4.611   0.493  12.445 -0.5128  0.6107  0.2677
 3096SOL    HW120750   4.613   0.469  12.538  0.3705  0.2426  0.1575
 3096SOL    HW220751   4.525   0.468  12.412 -1.5331  0.7255  2.8386
 3097SOL     OW20752   0.713   0.531   3.360  0.0492 -0.8405  0.8158
 3097SOL    HW120753   0.637   0.495   3.405 -2.5836 -0.5158 -3.3982
 3097SOL    HW220754   0.723   0.621   3.392 -2.3920 -0.3856  0.2788
 3098SOL     OW20755   1.288   3.334  11.936  0.2622  0.0755  0.3159
 3098SOL    HW120756   1.198   3.302  11.937 -0.2482  1.6123  2.5443
 3098SOL    HW220757   1.308   3.309  12.026  2.3750 -2.6234 -0.9125
 3099SOL     OW20758   3.067   1.351   5.067  0.0643 -0.2041 -0.2285
 3099SOL    HW120759   3.037   1.327   5.155  2.7039  0.4531  0.8549
 3099SOL    HW220760   2.981   1.361   5.026  0.1132  2.1847  0.2718
 3100SOL     OW20761   0.747   2.980   8.643  0.5253  0.0049 -0.5266
 3100SOL    HW120762   0.669   3.000   8.694  2.5219  1.4787  1.9889
 3100SOL    HW220763   0.797   3.058   8.669  1.3144 -0.4138 -0.7939
 3101SOL     OW20764   2.336   1.271  14.469 -0.5565 -0.0753 -0.0798
 3101SOL    HW120765   2.403   1.203  14.457  0.0481  0.2262  1.5232
 3101SOL    HW220766   2.309   1.305  14.384  2.0376  1.1464 -0.4030
 3102SOL     OW20767   2.973   4.422   5.058  0.0235 -0.4319 -0.9244
 3102SOL    HW120768   2.940   4.424   4.968 -1.1366  0.8050 -0.4670
 3102SOL    HW220769   3.000   4.331   5.063 -1.8268 -0.9108  0.1113
 3103SOL     OW20770   2.446   3.953   4.427 -0.1393 -0.4815  0.3118
 3103SOL    HW120771   2.386   3.971   4.500 -2.6410 -1.9397 -1.3967
 3103SOL    HW220772   2.508   3.893   4.468  0.4471  0.1426  0.3457
 3104SOL     OW20773   0.016   3.146   8.825 -0.0241  0.1474 -0.1296
 3104SOL    HW120774   0.040   3.094   8.748  0.6813  1.5819 -0.8604
 3104SOL    HW220775   4.644   3.118   8.837  0.2591  0.2222  2.2184
 3105SOL     OW20776   2.189   2.502   7.315  0.6828  0.3301  0.3426
 3105SOL    HW120777   2.214   2.480   7.225  0.7211 -0.2387  0.4960
 3105SOL    HW220778   2.275   2.510   7.356  1.6071  0.4801 -1.6030
 3106SOL     OW20779   2.758   3.228  17.409 -0.2749 -0.2772  0.6185
 3106SOL    HW120780   2.793   3.299  17.355  0.4859 -1.5935 -0.6293
 3106SOL    HW220781   2.718   3.171  17.344 -0.9841  1.4586 -0.4722
 3107SOL     OW20782   3.154   4.627   5.035 -0.7112 -0.1441 -0.0130
 3107SOL    HW120783   3.238   4.591   5.064 -0.4975 -0.2017 -0.7235
 3107SOL    HW220784   3.092   4.561   5.064  1.1807 -0.7670  2.6635
 3108SOL     OW20785   2.156   3.607   7.277 -0.2890  0.5253  0.1604
 3108SOL    HW120786   2.225   3.614   7.212  2.1003 -1.0143  2.5273
 3108SOL    HW220787   2.098   3.677   7.246 -1.6483 -1.3742 -1.5647
 3109SOL     OW20788   4.388   0.375   7.516 -0.2830  0.1097 -0.2715
 3109SOL    HW120789   4.331   0.301   7.538  0.4969 -0.1262  0.9863
 3109SOL    HW220790   4.316   0.433   7.494 -1.5552 -0.8860  1.2805
 3110SOL     OW20791   2.877   0.768  14.503  0.8022 -0.2095 -0.3322
 3110SOL    HW120792   2.870   0.673  14.516  0.0466 -0.2240 -0.8089
 3110SOL    HW220793   2.940   0.774  14.431  0.2928  1.6719 -0.6177
 3111SOL     OW20794   2.330   4.249   0.381  0.5070 -0.0349  0.0301
 3111SOL    HW120795   2.265   4.255   0.452  2.0701  1.5962  1.3393
 3111SOL    HW220796   2.274   4.227   0.307 -1.3460  0.7230  1.1901
 3112SOL     OW20797   3.799   3.377   8.477  0.1692  0.6629 -0.0943
 3112SOL    HW120798   3.717   3.425   8.466  0.1601  0.4937 -0.7469
 3112SOL    HW220799   3.871   3.434   8.450  0.9254 -1.3943 -2.4309
 3113SOL     OW20800   3.682   2.629  16.536  0.3894 -0.2830 -0.5972
 3113SOL    HW120801   3.619   2.665  16.599  2.2992  0.9095  0.6252
 3113SOL    HW220802   3.762   2.648  16.585 -0.0610  2.4030 -0.8885
 3114SOL     OW20803   3.685   1.324   4.727 -0.3610  0.2752 -0.4741
 3114SOL    HW120804   3.721   1.235   4.724 -2.2166 -0.5110  0.7196
 3114SOL    HW220805   3.590   1.316   4.731 -0.2419 -2.5224 -3.2084
 3115SOL     OW20806   3.930   2.380   2.310  0.1399  0.8817  0.5852
 3115SOL    HW120807   3.840   2.350   2.300 -0.4430  1.9824  2.5178
 3115SOL    HW220808   3.922   2.463   2.263  0.1238  0.8171  0.4747
 3116SOL     OW20809   2.694   1.924   2.825 -0.1257 -0.3296  0.6343
 3116SOL    HW120810   2.789   1.923   2.841  0.2301  0.2885 -1.3986
 3116SOL    HW220811   2.689   1.865   2.750  0.6932  1.1319 -0.5886
 3117SOL     OW20812   2.059   1.172   2.762  0.2940  0.3168  0.0584
 3117SOL    HW120813   2.017   1.112   2.824 -1.6039  0.8837 -0.6980
 3117SOL    HW220814   2.054   1.125   2.679 -1.9938  0.3177  0.1979
 3118SOL     OW20815   0.813   3.992   6.706  0.2570  0.2339  0.2338
 3118SOL    HW120816   0.848   3.934   6.638 -1.8115 -0.1359 -0.5045
 3118SOL    HW220817   0.767   3.923   6.754 -1.0233  1.4260  0.6964
 3119SOL     OW20818   1.453   3.590  16.633 -0.3683  0.1368 -0.4265
 3119SOL    HW120819   1.415   3.673  16.661 -1.7982 -1.3273  2.0368
 3119SOL    HW220820   1.496   3.560  16.713 -0.6645 -0.0018 -0.3218
 3120SOL     OW20821   3.994   0.372   8.358 -0.1613 -0.2209  0.1094
 3120SOL    HW120822   3.931   0.342   8.424  0.3561  0.9435  1.1310
 3120SOL    HW220823   4.077   0.391   8.402  0.0044 -0.4026 -0.1263
 3121SOL     OW20824   4.509   1.980   6.119 -0.4595  0.1122 -0.4387
 3121SOL    HW120825   4.595   1.938   6.126 -0.5010 -0.2237 -2.0041
 3121SOL    HW220826   4.448   1.915   6.153  0.9144 -1.7225 -1.4732
 3122SOL     OW20827   3.230   4.638   4.073  0.4217  0.1764 -0.0724
 3122SOL    HW120828   3.198   0.009   4.072 -1.9707 -0.7038 -2.9775
 3122SOL    HW220829   3.318   4.662   4.042  0.8619 -2.5088 -0.8971
 3123SOL     OW20830   4.009   2.071   8.287 -0.2288 -0.1339  0.1802
 3123SOL    HW120831   3.994   2.154   8.333 -2.0171  0.3800 -1.3169
 3123SOL    HW220832   4.083   2.084   8.228 -1.9320  2.0811 -1.4884
 3124SOL     OW20833   0.984   4.430  10.771 -0.3073  0.1936  0.1174
 3124SOL    HW120834   1.030   4.499  10.820 -1.6559  0.7725  0.5624
 3124SOL    HW220835   0.952   4.482  10.698  0.2584  1.9444  1.1062
 3125SOL     OW20836   3.027   0.584   7.567 -0.2064 -0.1373 -0.2077
 3125SOL    HW120837   3.068   0.567   7.483  0.5583 -0.2228  0.1852
 3125SOL    HW220838   2.987   0.499   7.586 -0.4150 -0.0997 -0.4788
 3126SOL     OW20839   1.255   3.270  10.755 -0.0238 -0.7453  0.2164
 3126SOL    HW120840   1.345   3.254  10.727  0.4036 -0.3232  1.3277
 3126SOL    HW220841   1.239   3.330  10.683 -0.3632 -2.8464 -1.4550
 3127SOL     OW20842   3.204   1.777  14.441  0.6779  0.7842  0.2019
 3127SOL    HW120843   3.226   1.836  14.369 -0.4832 -0.2416 -0.9750
 3127SOL    HW220844   3.280   1.719  14.441 -0.2183 -0.3711 -0.6880
 3128SOL     OW20845   2.219   4.238   0.828  0.0014 -0.3135 -0.1097
 3128SOL    HW120846   2.305   4.250   0.867  1.0397  0.8237 -2.7839
 3128SOL    HW220847   2.172   4.302   0.882 -1.4860 -0.5344 -1.1481
 3129SOL     OW20848   4.632   1.880   5.167 -0.0819 -0.1480 -0.4419
 3129SOL    HW120849   4.603   1.813   5.229  1.9696 -1.4364 -0.8768
 3129SOL    HW220850   4.551   1.932   5.162 -1.2052 -1.8453  0.1209
 3130SOL     OW20851   0.875   0.735   7.057 -0.4184  0.0886 -0.1053
 3130SOL    HW120852   0.969   0.752   7.068 -0.3939  0.0776 -0.2887
 3130SOL    HW220853   0.860   0.666   7.121  1.0196 -0.5222 -0.4221
 3131SOL     OW20854   4.361   2.422   6.581  0.3055 -0.2529 -0.4194
 3131SOL    HW120855   4.386   2.369   6.505  1.0821  2.1829 -1.8918
 3131SOL    HW220856   4.350   2.359   6.652 -0.4748 -0.0890 -0.3898
 3132SOL     OW20857   3.669   4.103   9.226  0.0089 -0.0440  0.2129
 3132SOL    HW120858   3.726   4.039   9.184  2.7052  1.4193  1.6302
 3132SOL    HW220859   3.711   4.188   9.210 -1.3727  0.7180  0.6088
 3133SOL     OW20860   2.423   0.163  13.485 -0.4344  0.1917  0.0406
 3133SOL    HW120861   2.381   0.080  13.461 -1.2023  0.1188  1.6842
 3133SOL    HW220862   2.487   0.126  13.545  0.1994  1.0141 -0.1282
 3134SOL     OW20863   4.441   0.178   4.071  0.2501 -0.0029  0.5227
 3134SOL    HW120864   4.400   0.264   4.080 -3.4334 -1.5893 -1.0163
 3134SOL    HW220865   4.534   0.194   4.085  0.5269 -0.5842 -0.6453
 3135SOL     OW20866   1.375   2.650   2.393 -0.5495  0.1379  0.0100
 3135SOL    HW120867   1.354   2.584   2.327  1.3815 -1.1083  0.6470
 3135SOL    HW220868   1.322   2.726   2.369 -0.3638 -0.0678 -1.0612
 3136SOL     OW20869   4.121   1.835  10.946 -0.5281 -0.5419 -0.1584
 3136SOL    HW120870   4.134   1.882  11.028  1.4395 -0.4201 -0.5331
 3136SOL    HW220871   4.160   1.896  10.883 -0.4568 -1.7258 -1.2812
 3137SOL     OW20872   2.546   4.656   5.868 -0.4276  0.0344  0.1857
 3137SOL    HW120873   2.502   0.006   5.917 -1.0087  0.8995 -1.5861
 3137SOL    HW220874   2.624   4.695   5.830 -1.9150  2.1629 -0.6363
 3138SOL     OW20875   3.270   2.714   3.010 -0.5221 -0.3090  0.1133
 3138SOL    HW120876   3.248   2.626   2.979 -1.1318 -0.1181  0.0060
 3138SOL    HW220877   3.357   2.700   3.048 -0.6235  2.1375  1.2264
 3139SOL     OW20878   0.567   3.254   2.636  0.0307 -0.1440  0.4069
 3139SOL    HW120879   0.587   3.162   2.654  0.2165 -0.7807 -3.1085
 3139SOL    HW220880   0.644   3.286   2.588 -0.4649 -0.7154 -0.7599
 3140SOL     OW20881   0.597   2.746   5.562 -0.5586  0.3569  0.8086
 3140SOL    HW120882   0.673   2.739   5.620  0.7645  3.5536 -0.4990
 3140SOL    HW220883   0.516   2.715   5.603 -0.5462  0.2812  0.7760
 3141SOL     OW20884   1.105   3.074   7.942 -0.4570  0.6238  0.4650
 3141SOL    HW120885   1.182   3.029   7.906 -0.4827  0.4173  0.6689
 3141SOL    HW220886   1.143   3.086   8.028  1.2022 -1.9055  0.0807
 3142SOL     OW20887   2.211   0.926   2.394  0.1989  0.1441  0.7744
 3142SOL    HW120888   2.259   1.001   2.360 -0.1990 -0.8023 -1.8332
 3142SOL    HW220889   2.136   0.970   2.434  0.0324  1.8498 -1.4470
 3143SOL     OW20890   3.264   0.082  13.842 -0.1918  0.2270 -0.1447
 3143SOL    HW120891   3.358   0.086  13.825 -0.5513  3.4205 -1.4792
 3143SOL    HW220892   3.252   0.040  13.927  4.5157 -2.5846 -0.9031
 3144SOL     OW20893   0.759   1.789   4.070  0.6971 -0.8596 -0.0971
 3144SOL    HW120894   0.785   1.851   4.138 -0.0724  0.8793 -1.3774
 3144SOL    HW220895   0.823   1.809   4.001  1.3029 -1.9003  0.1641
 3145SOL     OW20896   0.181   4.577   7.029  0.4715  0.0717  0.2152
 3145SOL    HW120897   0.194   4.484   7.011  0.0484  0.1219 -0.3557
 3145SOL    HW220898   0.239   4.597   7.102  3.4685  0.4360 -2.2820
 3146SOL     OW20899   0.653   0.327   6.755  0.3918 -0.6846  0.1555
 3146SOL    HW120900   0.654   0.374   6.672 -1.2130 -0.8712  0.0365
 3146SOL    HW220901   0.670   0.400   6.815 -2.4402  0.8839 -0.9406
 3147SOL     OW20902   3.865   2.341   6.129 -0.8042 -0.1369  0.0087
 3147SOL    HW120903   3.921   2.309   6.199 -1.5782  1.2437  1.2762
 3147SOL    HW220904   3.799   2.388   6.180  0.3155 -1.5384  2.7364
 3148SOL     OW20905   3.200   3.551  14.504 -0.0093 -0.0352 -0.3268
 3148SOL    HW120906   3.195   3.581  14.595  1.3178 -0.2416 -0.1943
 3148SOL    HW220907   3.213   3.635  14.460  0.1972 -0.3741 -0.9076
 3149SOL     OW20908   2.160   4.322   2.780  0.0611 -0.2639  0.7098
 3149SOL    HW120909   2.197   4.403   2.815  0.1736 -0.4859  1.0991
 3149SOL    HW220910   2.107   4.282   2.849 -0.3830  0.7188  0.9344
 3150SOL     OW20911   0.972   1.072  10.554  0.3057 -0.3485  0.5464
 3150SOL    HW120912   1.051   1.028  10.522  0.6793  2.4927 -2.4944
 3150SOL    HW220913   0.936   1.006  10.613  3.6050 -0.1849  2.7248
 3151SOL     OW20914   0.508   3.953   3.383  0.0973  0.1750  0.0931
 3151SOL    HW120915   0.467   3.931   3.300  0.8573 -2.1325  0.3485
 3151SOL    HW220916   0.491   3.871   3.429 -0.3016  1.6179  2.5662
 3152SOL     OW20917   1.833   4.574   6.915 -0.2545 -0.3109  0.1820
 3152SOL    HW120918   1.902   4.544   6.974 -1.1806 -1.2499  0.7884
 3152SOL    HW220919   1.816   4.501   6.856  1.4282 -0.2020 -0.4339
 3153SOL     OW20920   4.640   1.997  13.225  0.1835  0.1187  0.0209
 3153SOL    HW120921   4.712   1.980  13.286  0.0120 -0.4099  0.0718
 3153SOL    HW220922   4.616   1.908  13.200  1.7301 -0.0960 -0.6882
 3154SOL     OW20923   3.043   1.966   4.161 -0.6420 -0.5227 -0.0472
 3154SOL    HW120924   2.951   1.943   4.164 -0.7045 -0.3428 -0.6326
 3154SOL    HW220925   3.058   1.990   4.253 -0.1627  0.5603 -0.4014
 3155SOL     OW20926   3.214   3.972   8.088  0.0269 -0.0678 -0.0504
 3155SOL    HW120927   3.280   4.000   8.150  0.4266  0.8127 -0.8692
 3155SOL    HW220928   3.166   3.910   8.144  0.7435 -0.2484  0.3575
 3156SOL     OW20929   4.166   3.782   4.388  0.5551  0.6815 -0.5636
 3156SOL    HW120930   4.261   3.783   4.380  0.8142  0.0914  2.4264
 3156SOL    HW220931   4.143   3.873   4.407 -1.5687  0.3957 -1.7302
 3157SOL     OW20932   1.185   3.582   5.364 -0.4635  0.7003  0.1671
 3157SOL    HW120933   1.138   3.549   5.441  0.7168 -3.1769 -0.7785
 3157SOL    HW220934   1.190   3.501   5.313  3.7760  0.1557  1.4116
 3158SOL     OW20935   2.796   3.209   3.682 -0.1843  0.3345 -0.2009
 3158SOL    HW120936   2.807   3.277   3.748  1.5006 -0.8423  0.7353
 3158SOL    HW220937   2.888   3.191   3.659 -0.5681 -2.6070  0.5785
 3159SOL     OW20938   1.346   1.840  13.668  0.1994 -0.4311 -0.2892
 3159SOL    HW120939   1.267   1.786  13.662  0.1702 -0.2881 -1.1621
 3159SOL    HW220940   1.304   1.925  13.676  2.8179  0.8576  0.0011
 3160SOL     OW20941   2.138   0.666   5.239 -0.0701 -0.1222 -0.7474
 3160SOL    HW120942   2.129   0.752   5.280  0.1087 -0.9720  1.0680
 3160SOL    HW220943   2.048   0.644   5.213 -1.3742  2.4316  1.6391
 3161SOL     OW20944   1.316   2.534   1.105  0.2290 -0.4084 -0.0659
 3161SOL    HW120945   1.264   2.614   1.112 -0.0429 -0.7539  1.8401
 3161SOL    HW220946   1.248   2.472   1.077 -2.1072  2.1639 -0.1285
 3162SOL     OW20947   2.506   3.662   6.040 -0.0619 -0.2131 -0.8171
 3162SOL    HW120948   2.466   3.717   5.973 -2.4045 -1.0495 -0.1145
 3162SOL    HW220949   2.486   3.704   6.124  2.6681 -0.4907 -0.0093
 3163SOL     OW20950   0.343   2.982  17.094 -0.7846  0.1643  0.7409
 3163SOL    HW120951   0.388   2.949  17.172 -1.6948 -0.1654  1.1210
 3163SOL    HW220952   0.359   2.913  17.030  0.4108 -0.2931  1.5282
 3164SOL     OW20953   1.338   1.554   4.511  0.0447 -0.1154 -0.6496
 3164SOL    HW120954   1.319   1.476   4.459  0.4125 -2.5563  2.8269
 3164SOL    HW220955   1.344   1.615   4.438 -1.7140  0.8197  0.0079
 3165SOL     OW20956   2.867   1.832   5.451 -0.6109  0.4791 -0.6045
 3165SOL    HW120957   2.959   1.858   5.441  0.0964 -0.9517  2.1987
 3165SOL    HW220958   2.842   1.797   5.365  2.5228  0.0977 -1.3732
 3166SOL     OW20959   3.691   1.643   7.269 -0.4945  0.1550  0.0842
 3166SOL    HW120960   3.644   1.718   7.232 -0.6895  0.2077  0.4394
 3166SOL    HW220961   3.666   1.632   7.361  2.2410 -0.5691  0.7329
 3167SOL     OW20962   0.138   2.472  16.653  0.2936  0.1746 -0.4883
 3167SOL    HW120963   0.063   2.530  16.668 -1.0755 -1.5128 -0.7159
 3167SOL    HW220964   0.076   2.400  16.635 -0.0612  0.2123  0.5463
 3168SOL     OW20965   2.120   1.959  15.191 -0.3293  0.2563 -0.4022
 3168SOL    HW120966   2.215   1.968  15.196 -0.3863 -0.1881  1.7205
 3168SOL    HW220967   2.106   1.992  15.280 -1.3097  0.0248 -0.4689
 3169SOL     OW20968   1.172   2.893   4.908 -0.3776  0.3991 -0.2621
 3169SOL    HW120969   1.096   2.951   4.906 -0.2103  0.5919 -0.9813
 3169SOL    HW220970   1.157   2.834   4.834  1.6151  0.2742 -0.5609
 3170SOL     OW20971   0.730   0.274   5.767 -0.2950  0.4597  0.1725
 3170SOL    HW120972   0.675   0.327   5.825 -0.6873  2.3302 -1.8857
 3170SOL    HW220973   0.696   0.185   5.777  1.4812 -0.1068  1.1519
 3171SOL     OW20974   4.453   0.074  14.792 -0.2525 -0.2162  0.0245
 3171SOL    HW120975   4.530   0.129  14.779  0.0237 -0.4159  0.8116
 3171SOL    HW220976   4.457   0.056  14.886  2.0246 -1.9317 -0.4011
 3172SOL     OW20977   4.378   2.549   6.267  0.1117  0.4837  0.0074
 3172SOL    HW120978   4.334   2.633   6.250 -0.3938  0.3809  0.7989
 3172SOL    HW220979   4.449   2.569   6.327 -1.0734  1.1882  1.1843
 3173SOL     OW20980   4.296   3.896   0.091 -0.4742  0.2801 -0.1059
 3173SOL    HW120981   4.355   3.912   0.017  0.6901 -1.0779  0.5204
 3173SOL    HW220982   4.254   3.814   0.065 -0.7169  0.4646 -0.2888
 3174SOL     OW20983   0.275   4.561   6.204 -0.1696 -0.2405  0.4825
 3174SOL    HW120984   0.241   4.510   6.278  3.2925 -2.8264  0.3195
 3174SOL    HW220985   0.200   4.556   6.145 -0.7287 -2.1600  1.3623
 3175SOL     OW20986   0.578   3.358   5.604 -0.2161 -0.1341 -0.1458
 3175SOL    HW120987   0.535   3.345   5.689 -1.3326 -2.2384 -1.0535
 3175SOL    HW220988   0.509   3.385   5.544 -1.0592 -0.9198  0.4752
 3176SOL     OW20989   1.170   4.413  12.042  0.2393 -0.3624 -0.5354
 3176SOL    HW120990   1.167   4.498  12.087  0.7782  0.2072 -1.5672
 3176SOL    HW220991   1.119   4.443  11.967 -0.7636  0.1965  0.3585
 3177SOL     OW20992   0.312   4.265   0.298 -0.5560 -0.0280  0.7926
 3177SOL    HW120993   0.259   4.327   0.348  0.8515  0.7157  1.3599
 3177SOL    HW220994   0.273   4.273   0.211  1.5829  1.2514 -0.0638
 3178SOL     OW20995   2.221   0.474  11.289 -0.5165  0.4901 -0.3442
 3178SOL    HW120996   2.231   0.438  11.377  0.2323 -1.1314 -1.0996
 3178SOL    HW220997   2.127   0.460  11.275 -0.6201 -0.4059  1.2445
 3179SOL     OW20998   3.911   3.748   5.059  0.6438 -0.0894  0.0646
 3179SOL    HW120999   3.834   3.707   5.098  0.0885  0.0108 -0.9015
 3179SOL    HW221000   3.876   3.837   5.054  1.8676  0.4366  1.2612
 3180SOL     OW21001   0.691   2.044   7.532 -0.3908 -0.1484  0.9056
 3180SOL    HW121002   0.669   1.960   7.491  1.8151  0.4090 -1.3971
 3180SOL    HW221003   0.696   2.022   7.625  1.1546  2.1920  1.3622
 3181SOL     OW21004   2.742   2.808  14.497  0.0415 -0.7624  0.2540
 3181SOL    HW121005   2.674   2.820  14.431  0.4781  1.5539  0.2039
 3181SOL    HW221006   2.704   2.744  14.557 -1.0033  0.7966  1.2301
 3182SOL     OW21007   3.916   0.847   8.427 -0.3156  0.1129 -0.4892
 3182SOL    HW121008   3.943   0.834   8.336 -1.9494 -0.5499 -0.8879
 3182SOL    HW221009   3.844   0.784   8.424  0.7491 -1.1654  0.7092
 3183SOL     OW21010   4.206   3.465   0.612 -0.3987 -0.0374  0.0251
 3183SOL    HW121011   4.229   3.552   0.579 -0.0589 -0.8074 -1.7620
 3183SOL    HW221012   4.167   3.425   0.535 -1.2101  0.6552  0.0720
 3184SOL     OW21013   2.435   3.953   0.795  0.3222  0.2431  0.4404
 3184SOL    HW121014   2.464   4.040   0.769 -0.9392  0.8510  1.0667
 3184SOL    HW221015   2.381   3.929   0.719 -1.1952  0.4890  1.4295
 3185SOL     OW21016   0.120   1.447   1.723 -0.3795 -0.4455  0.2482
 3185SOL    HW121017   0.106   1.541   1.712  2.1235 -0.1944 -0.8988
 3185SOL    HW221018   0.111   1.414   1.634  2.0669 -0.7495  0.1084
 3186SOL     OW21019   0.201   2.226  10.541  0.1502 -0.1348 -0.3155
 3186SOL    HW121020   0.192   2.156  10.605 -1.1283  0.5219  0.2149
 3186SOL    HW221021   0.247   2.292  10.594  0.1302 -1.4520  1.3506
 3187SOL     OW21022   4.417   2.037   9.136 -1.0797 -0.4758 -0.0657
 3187SOL    HW121023   4.355   2.081   9.077  1.2491 -0.7931 -2.7201
 3187SOL    HW221024   4.402   2.091   9.214  2.3598  0.2314  0.1028
 3188SOL     OW21025   3.710   3.348  13.863 -0.1135  0.5902 -0.1326
 3188SOL    HW121026   3.616   3.347  13.877  0.2167  3.2810  2.2061
 3188SOL    HW221027   3.734   3.441  13.864  2.4109 -0.0609  0.3291
 3189SOL     OW21028   0.737   3.072   3.949 -0.0642 -0.0067 -0.1005
 3189SOL    HW121029   0.671   3.084   3.881 -0.4930  1.6819  0.6214
 3189SOL    HW221030   0.707   2.990   3.988 -0.2596  0.5381  0.8881
 3190SOL     OW21031   3.282   4.454   2.969  0.3724  0.0455  0.3266
 3190SOL    HW121032   3.225   4.426   2.897  0.0873 -1.0097  0.9688
 3190SOL    HW221033   3.339   4.522   2.932 -0.2700  0.7177  0.5547
 3191SOL     OW21034   3.970   1.733   1.754  0.1108  0.1487 -0.6651
 3191SOL    HW121035   3.939   1.770   1.672  1.9981 -1.2524 -2.0159
 3191SOL    HW221036   3.883   1.732   1.793  1.6485  1.6337  2.8278
 3192SOL     OW21037   2.915   2.094   0.009 -0.6145 -0.0241  0.4486
 3192SOL    HW121038   2.843   2.100  17.629  0.2321 -0.8888 -0.6229
 3192SOL    HW221039   2.959   2.020  17.649 -1.4568  0.0473 -0.5706
 3193SOL     OW21040   2.059   2.139   5.755 -0.1559 -0.2570  0.3313
 3193SOL    HW121041   2.001   2.070   5.724  1.5274 -0.8879 -1.4760
 3193SOL    HW221042   2.136   2.090   5.784 -0.3241 -1.3803 -1.1550
 3194SOL     OW21043   1.296   1.822   2.757  0.1085  0.5019 -0.5118
 3194SOL    HW121044   1.229   1.885   2.782 -1.0867 -0.6616 -0.7869
 3194SOL    HW221045   1.317   1.791   2.845  0.2917  0.8924 -0.4227
 3195SOL     OW21046   3.549   0.011   3.469 -0.0408 -0.0440 -0.2752
 3195SOL    HW121047   3.575   0.079   3.532 -0.0252 -1.0121  0.7636
 3195SOL    HW221048   3.609   4.660   3.493  1.1110  0.5357 -1.4145
 3196SOL     OW21049   0.135   1.058   2.679  0.1329 -0.4884 -0.2883
 3196SOL    HW121050   0.146   1.112   2.757  1.8376 -0.9024 -0.2502
 3196SOL    HW221051   0.194   1.109   2.623 -0.6760 -0.2315 -0.9210
 3197SOL     OW21052   1.484   3.530   4.355  0.5634 -0.3596  0.6316
 3197SOL    HW121053   1.460   3.565   4.269 -0.1202 -0.5080  0.7617
 3197SOL    HW221054   1.556   3.587   4.385  0.9140  0.6365 -2.1090
 3198SOL     OW21055   0.968   3.272   9.903  0.0276 -0.0686  0.1764
 3198SOL    HW121056   1.044   3.272   9.844  0.8547  0.8921  1.2623
 3198SOL    HW221057   0.915   3.335   9.854 -0.4715  0.3246  1.2350
 3199SOL     OW21058   4.493   1.882  10.981  0.4086  0.4652  0.3622
 3199SOL    HW121059   4.565   1.820  10.985  1.2742  1.4424  0.1242
 3199SOL    HW221060   4.448   1.864  10.898  0.1325  2.4468  0.0652
 3200SOL     OW21061   1.008   1.635   7.954  0.2643 -0.4244 -0.9081
 3200SOL    HW121062   0.984   1.555   8.001  0.7193  0.4010  0.7190
 3200SOL    HW221063   1.063   1.586   7.892  3.5935  0.9002  1.0163
 3201SOL     OW21064   4.581   2.595   0.916  0.1454 -0.5484  0.9080
 3201SOL    HW121065   4.607   2.525   0.976 -0.0087  0.2590  1.9117
 3201SOL    HW221066   4.488   2.577   0.909  0.1407  0.6763 -2.1617
 3202SOL     OW21067   4.083   2.372   9.690  0.3252 -0.3009  0.3195
 3202SOL    HW121068   4.110   2.443   9.633 -1.9085  0.0426 -0.3120
 3202SOL    HW221069   4.134   2.309   9.639  1.7748  1.0262  0.1388
 3203SOL     OW21070   3.844   3.007  16.069  0.1313 -0.4497 -0.0383
 3203SOL    HW121071   3.909   3.059  16.021 -2.0403  1.2186 -1.1648
 3203SOL    HW221072   3.763   3.035  16.027 -1.4040 -0.0010  3.2300
 3204SOL     OW21073   1.611   3.161  11.979  0.6842  0.0605 -0.4772
 3204SOL    HW121074   1.545   3.101  11.945  1.9580 -0.8142 -1.4298
 3204SOL    HW221075   1.664   3.118  12.047 -0.6328 -1.0701 -0.1625
 3205SOL     OW21076   0.152   0.846  16.303  0.9409 -0.1353 -0.0194
 3205SOL    HW121077   0.100   0.775  16.264 -0.5599  1.3785 -0.7569
 3205SOL    HW221078   0.092   0.917  16.282 -0.3324 -1.1509  0.1291
 3206SOL     OW21079   2.480   1.941   7.185  0.3227 -0.4649 -0.0601
 3206SOL    HW121080   2.390   1.922   7.157  0.8844  0.0006 -2.2145
 3206SOL    HW221081   2.459   2.003   7.254 -3.2142  0.3799 -1.8742
 3207SOL     OW21082   1.136   4.385   2.948 -0.1740  0.3727 -0.3913
 3207SOL    HW121083   1.119   4.389   3.043 -0.1858 -0.0510 -0.3749
 3207SOL    HW221084   1.074   4.448   2.913 -0.3066 -1.0600 -2.6959
 3208SOL     OW21085   0.396   2.538   3.381  0.0824 -0.5501  0.1379
 3208SOL    HW121086   0.420   2.446   3.394  2.3909 -0.1357 -1.2007
 3208SOL    HW221087   0.424   2.568   3.467  1.1209 -0.0421 -0.3849
 3209SOL     OW21088   0.733   1.510   4.037 -0.3083  0.3032 -0.1302
 3209SOL    HW121089   0.743   1.600   4.068  1.8707 -0.2935  0.9385
 3209SOL    HW221090   0.806   1.464   4.079  0.2737  0.9784 -0.4035
 3210SOL     OW21091   3.336   2.427   6.178 -0.0420 -0.0464  0.3778
 3210SOL    HW121092   3.341   2.472   6.263 -0.4677  2.2162 -0.7860
 3210SOL    HW221093   3.302   2.341   6.199 -0.5553  0.5006  1.7793
 3211SOL     OW21094   0.437   3.708   3.995 -0.2221  0.1030 -0.0293
 3211SOL    HW121095   0.486   3.633   3.961  0.7209 -0.4115  2.4322
 3211SOL    HW221096   0.457   3.780   3.935 -0.6943 -0.0532 -0.3682
 3212SOL     OW21097   0.199   1.651   5.683  0.0666 -0.0962  0.0728
 3212SOL    HW121098   0.228   1.563   5.706  1.3235 -0.1140 -1.5952
 3212SOL    HW221099   0.205   1.695   5.768 -1.3499  0.8485 -0.3135
 3213SOL     OW21100   0.503   3.293   1.016 -0.4201 -0.2926 -0.4563
 3213SOL    HW121101   0.501   3.272   1.110 -2.7708 -0.7803 -0.6083
 3213SOL    HW221102   0.413   3.302   0.986 -1.3697 -1.7007  1.9800
 3214SOL     OW21103   2.897   3.786   5.713 -0.2153  0.0650 -0.3345
 3214SOL    HW121104   2.975   3.841   5.715 -0.3655  0.3116 -1.1147
 3214SOL    HW221105   2.844   3.847   5.661  0.2652 -0.8322 -1.8623
 3215SOL     OW21106   1.128   3.198   2.595 -0.6577 -0.3726 -0.1895
 3215SOL    HW121107   1.192   3.175   2.527 -0.9043  2.3781 -1.3457
 3215SOL    HW221108   1.155   3.133   2.660  0.1216 -1.1539 -1.2930
 3216SOL     OW21109   3.411   4.553   7.442 -0.3528 -0.0808  0.2456
 3216SOL    HW121110   3.406   4.463   7.476  1.1945 -0.5734 -0.8113
 3216SOL    HW221111   3.443   4.592   7.523 -0.3885 -0.1309  0.2837
 3217SOL     OW21112   3.011   3.456   3.878  0.5129  0.1254  0.0391
 3217SOL    HW121113   2.929   3.417   3.910 -1.0305  2.4236 -1.0583
 3217SOL    HW221114   2.986   3.490   3.792 -1.4206 -2.3331 -0.3603
 3218SOL     OW21115   2.040   3.804   7.762 -0.1821  0.3121 -0.3277
 3218SOL    HW121116   2.062   3.754   7.684  2.7805 -0.1533  0.7929
 3218SOL    HW221117   2.095   3.758   7.826  1.5437  1.3118 -1.0904
 3219SOL     OW21118   3.098   3.313   7.118  0.0400  0.1774 -0.0640
 3219SOL    HW121119   3.052   3.277   7.194 -1.0753  1.1124 -0.2944
 3219SOL    HW221120   3.077   3.406   7.124 -1.7660 -0.2873  0.9213
 3220SOL     OW21121   3.892   1.746   5.916 -0.4608  0.2592 -0.5629
 3220SOL    HW121122   3.828   1.804   5.955  2.2908  2.7107  0.3023
 3220SOL    HW221123   3.835   1.683   5.872  1.7850 -1.1117 -1.5435
 3221SOL     OW21124   2.157   1.004  16.662 -0.7518  0.5680  0.2133
 3221SOL    HW121125   2.101   0.991  16.585 -2.7307 -3.3829  2.3038
 3221SOL    HW221126   2.153   0.919  16.707  0.1808 -1.0435 -2.7035
 3222SOL     OW21127   3.305   0.128   3.199  0.3710 -0.7786  0.3456
 3222SOL    HW121128   3.275   0.180   3.273 -0.9397  0.4454 -1.0288
 3222SOL    HW221129   3.228   0.074   3.183 -0.6805  0.6997  0.3849
 3223SOL     OW21130   0.498   4.236   6.351  0.3405 -0.0583  0.1909
 3223SOL    HW121131   0.566   4.170   6.335 -0.6567 -0.8066 -0.9309
 3223SOL    HW221132   0.476   4.220   6.443 -1.8167 -0.4945 -0.4188
 3224SOL     OW21133   0.851   2.316   5.899  0.0607 -0.1039 -0.0620
 3224SOL    HW121134   0.811   2.391   5.944 -0.2371 -0.4323  0.2180
 3224SOL    HW221135   0.808   2.330   5.814 -2.0757 -0.5044  0.9541
 3225SOL     OW21136   2.292   0.530  15.158  0.0440  0.1881  0.3504
 3225SOL    HW121137   2.249   0.532  15.072  0.3086  0.0811  0.2173
 3225SOL    HW221138   2.221   0.525  15.222 -0.5845 -0.0291 -0.3658
 3226SOL     OW21139   1.146   1.808   5.932  0.1833  0.5479  0.5972
 3226SOL    HW121140   1.180   1.722   5.954 -0.5462 -0.2276 -1.3451
 3226SOL    HW221141   1.103   1.798   5.846 -0.1522  0.3577  0.7870
 3227SOL     OW21142   4.241   1.421   9.052  0.0147  0.0497 -0.1279
 3227SOL    HW121143   4.192   1.347   9.086  2.0906 -0.0740  2.6278
 3227SOL    HW221144   4.195   1.501   9.077  1.1985  1.4268 -2.3108
 3228SOL     OW21145   3.783   0.241   3.235  0.2940 -0.0693  0.2577
 3228SOL    HW121146   3.691   0.254   3.211  0.5005 -0.6495 -0.8180
 3228SOL    HW221147   3.823   0.293   3.165  1.6696 -0.7959  0.5086
 3229SOL     OW21148   1.418   4.030  12.093 -0.3717 -0.1912 -0.1994
 3229SOL    HW121149   1.396   4.116  12.056  1.3877 -0.6144 -2.1749
 3229SOL    HW221150   1.353   3.974  12.051 -0.4957 -0.4660  0.3585
 3230SOL     OW21151   0.773   4.097  12.731 -0.4795 -0.2859 -0.0961
 3230SOL    HW121152   0.816   4.092  12.816 -1.8942  1.2178  0.7020
 3230SOL    HW221153   0.847   4.070  12.676  1.9124 -1.4903  3.6850
 3231SOL     OW21154   0.844   2.852   4.773  0.1337  0.1261  0.3003
 3231SOL    HW121155   0.859   2.932   4.723 -3.5182 -0.5657 -1.8860
 3231SOL    HW221156   0.767   2.870   4.827 -0.6986 -0.4667 -0.6748
 3232SOL     OW21157   4.529   0.081   2.542 -0.1113 -0.2574 -0.2044
 3232SOL    HW121158   4.617   0.043   2.534  0.5914  1.2538  0.2017
 3232SOL    HW221159   4.503   0.062   2.632  0.3436 -1.4448 -0.3214
 3233SOL     OW21160   1.720   4.673   2.747 -0.6679 -0.5484 -0.3192
 3233SOL    HW121161   1.725   0.045   2.720 -0.1184 -0.9710 -1.6485
 3233SOL    HW221162   1.793   4.673   2.810 -1.9763  0.3531  1.2208
 3234SOL     OW21163   3.268   0.377   2.314  0.1015  0.0162 -0.1725
 3234SOL    HW121164   3.302   0.430   2.242 -0.4240  0.5018 -0.0640
 3234SOL    HW221165   3.243   0.441   2.380  0.2323 -1.4455  1.2949
 3235SOL     OW21166   1.409   3.334  16.102  0.2505  0.2997  0.1304
 3235SOL    HW121167   1.392   3.381  16.020 -1.2680 -0.3956  0.0516
 3235SOL    HW221168   1.377   3.400  16.163  1.4329  1.0073 -0.0069
 3236SOL     OW21169   0.729   0.043   0.003 -0.5360 -0.3394 -0.0693
 3236SOL    HW121170   0.649   0.002  17.653 -0.8766 -0.7515  1.3110
 3236SOL    HW221171   0.685   0.118   0.044  0.0997  0.2403 -0.4582
 3237SOL     OW21172   3.612   2.910   1.521 -0.2299 -0.2478  0.2804
 3237SOL    HW121173   3.638   2.889   1.432 -0.7955 -0.8781  0.2628
 3237SOL    HW221174   3.595   3.004   1.512  2.7416  0.4807  2.4350
 3238SOL     OW21175   3.891   2.234   3.758  0.0009  0.0409  0.1779
 3238SOL    HW121176   3.802   2.233   3.793  0.0390 -2.2130  0.2432
 3238SOL    HW221177   3.913   2.325   3.742  0.5683  0.0895  1.2465
 3239SOL     OW21178   0.795   2.168   3.253  0.4982  0.4372 -0.6901
 3239SOL    HW121179   0.760   2.086   3.289 -1.9699  2.2086  0.9116
 3239SOL    HW221180   0.726   2.209   3.201 -1.1931  0.5949  1.6949
 3240SOL     OW21181   2.620   0.270   3.466 -0.1490  0.1268  0.2925
 3240SOL    HW121182   2.587   0.201   3.523  1.2388  0.8636  1.9870
 3240SOL    HW221183   2.614   0.339   3.532 -0.6598  0.1103  0.2625
 3241SOL     OW21184   0.784   3.662   5.128  0.2399  0.1366 -0.5124
 3241SOL    HW121185   0.779   3.592   5.062  2.1811 -1.1757  0.7296
 3241SOL    HW221186   0.832   3.727   5.076  2.2691 -2.2643 -1.6399
 3242SOL     OW21187   4.481   0.131  13.864  0.2654  0.4300  0.2182
 3242SOL    HW121188   4.476   0.055  13.922  1.2904 -0.6325 -1.0786
 3242SOL    HW221189   4.557   0.177  13.901 -0.6634  2.9171 -0.9897
 3243SOL     OW21190   4.118   0.510  14.096  0.8439 -0.2092  0.3494
 3243SOL    HW121191   4.134   0.601  14.072 -3.8424  0.5663  0.1958
 3243SOL    HW221192   4.067   0.528  14.175 -0.2179  0.9403 -0.5951
 3244SOL     OW21193   1.826   1.237   7.913 -0.0521  0.0199 -0.3181
 3244SOL    HW121194   1.764   1.164   7.912 -0.2753  0.1818  1.3763
 3244SOL    HW221195   1.821   1.258   8.006 -0.5087 -1.6514  0.0367
 3245SOL     OW21196   3.216   0.908   9.196 -0.0015 -0.2620 -0.2080
 3245SOL    HW121197   3.239   0.940   9.283  0.9256 -0.1386 -0.5024
 3245SOL    HW221198   3.163   0.979   9.160 -0.5169 -0.6967 -0.3179
 3246SOL     OW21199   0.626   3.221  13.286 -0.4698 -0.0755  0.1596
 3246SOL    HW121200   0.538   3.221  13.249 -0.0831  0.2554 -0.7512
 3246SOL    HW221201   0.662   3.301  13.247  1.2455 -1.3950 -0.9674
 3247SOL     OW21202   0.969   2.496   9.943  0.2617  0.6799  0.3455
 3247SOL    HW121203   0.965   2.450  10.027 -2.0972  0.1718 -0.0506
 3247SOL    HW221204   0.969   2.586   9.974  2.4307  0.1873  1.7546
 3248SOL     OW21205   1.979   2.306   6.158  0.0850  0.1309 -0.3206
 3248SOL    HW121206   1.914   2.338   6.221 -0.0682  0.9811 -0.9232
 3248SOL    HW221207   1.995   2.217   6.192  0.8058  0.9576  1.4904
 3249SOL     OW21208   4.235   2.735   4.272  0.1680 -0.2884  0.1573
 3249SOL    HW121209   4.192   2.788   4.206 -3.1051 -3.0755  0.0229
 3249SOL    HW221210   4.267   2.793   4.341 -0.5932  0.5904 -0.2297
 3250SOL     OW21211   3.019   3.135  10.793 -0.0776 -0.2637 -0.4491
 3250SOL    HW121212   3.075   3.061  10.813 -1.4064 -0.2139  3.4474
 3250SOL    HW221213   3.081   3.200  10.760  1.2950 -2.0407 -1.3707
 3251SOL     OW21214   3.039   2.305  13.324  0.2990  0.7413 -0.1506
 3251SOL    HW121215   3.129   2.335  13.320  0.5217 -0.0093 -0.7907
 3251SOL    HW221216   3.008   2.364  13.393 -2.5912 -2.5962  1.3833
 3252SOL     OW21217   0.912   4.194   1.638 -0.1655  0.6973  0.1407
 3252SOL    HW121218   0.894   4.127   1.573  1.4002  1.7181 -1.3492
 3252SOL    HW221219   0.996   4.164   1.671 -0.6241  0.0433  0.7101
 3253SOL     OW21220   0.193   0.749   8.475 -0.4612  0.1699  0.3302
 3253SOL    HW121221   0.256   0.780   8.540 -0.6906 -1.5091  1.3465
 3253SOL    HW221222   0.252   0.677   8.455 -0.2076  0.2664  0.7264
 3254SOL     OW21223   2.724   2.118   4.374  0.3798  0.1098 -0.5397
 3254SOL    HW121224   2.646   2.171   4.363 -0.2201 -0.5177  0.7575
 3254SOL    HW221225   2.679   2.038   4.401 -0.6452  1.1560  0.8267
 3255SOL     OW21226   1.309   3.785   4.483 -0.2226 -0.2545  0.3364
 3255SOL    HW121227   1.263   3.743   4.555 -2.1580 -1.4078 -1.5451
 3255SOL    HW221228   1.287   3.735   4.404  0.7633  0.1151 -0.1744
 3256SOL     OW21229   1.250   4.635   7.669  0.5150  0.3835  0.9090
 3256SOL    HW121230   1.338   4.611   7.639  0.8654 -0.7773  2.8337
 3256SOL    HW221231   1.216   4.551   7.700  0.9771  0.8433  2.6394
 3257SOL     OW21232   2.742   2.198   4.744 -0.1989 -0.4077 -1.1847
 3257SOL    HW121233   2.833   2.177   4.724 -0.2980 -1.2399 -0.7539
 3257SOL    HW221234   2.692   2.117   4.734 -1.5477  0.2616  0.0604
 3258SOL     OW21235   3.445   3.971   1.832  0.2158 -0.1650  0.2923
 3258SOL    HW121236   3.402   4.056   1.825  0.6939  0.1752  1.4275
 3258SOL    HW221237   3.437   3.950   1.925  1.4908  2.0666  0.9009
 3259SOL     OW21238   0.026   2.146   4.980  0.4856 -0.3097  0.0841
 3259SOL    HW121239   0.047   2.064   4.934  0.3293  0.2269 -0.9491
 3259SOL    HW221240   4.671   2.178   4.929  1.8915  2.5975 -0.1302
 3260SOL     OW21241   2.656   0.143   2.120 -0.4387 -0.0867  0.2995
 3260SOL    HW121242   2.736   0.120   2.167 -0.3747 -2.6367 -1.0693
 3260SOL    HW221243   2.666   0.096   2.037 -0.3410 -0.5048  0.5471
 3261SOL     OW21244   3.786   1.548  14.244 -0.2666  0.1560 -0.0925
 3261SOL    HW121245   3.702   1.511  14.220  1.7842 -3.1377 -2.2461
 3261SOL    HW221246   3.771   1.642  14.254  1.8412  0.9063 -3.5944
 3262SOL     OW21247   2.678   1.401  15.225 -0.4041  0.3924 -0.1714
 3262SOL    HW121248   2.760   1.437  15.258 -1.3413  1.2761  1.1807
 3262SOL    HW221249   2.680   1.401  15.129 -0.9563 -2.1405 -0.1857
 3263SOL     OW21250   1.484   4.026  13.599  0.2209 -0.2679 -0.2551
 3263SOL    HW121251   1.570   4.066  13.586  0.8329 -1.1553  1.0282
 3263SOL    HW221252   1.426   4.095  13.569  0.8898  0.9032  1.1561
 3264SOL     OW21253   1.244   3.667  10.443 -0.5020  0.0718  0.0454
 3264SOL    HW121254   1.297   3.692  10.367 -1.9443 -0.5698 -1.1662
 3264SOL    HW221255   1.212   3.750  10.477  0.4672  0.9572 -1.1973
 3265SOL     OW21256   4.681   4.278   1.977 -0.2228  0.5632  0.6998
 3265SOL    HW121257   4.694   4.225   1.898 -0.3319  1.2366  0.2351
 3265SOL    HW221258   4.616   4.231   2.029 -0.9886 -0.2763 -1.0164
 3266SOL     OW21259   2.433   3.030   5.877 -0.1996  0.5878 -0.1285
 3266SOL    HW121260   2.476   2.997   5.798 -0.0552  3.0042 -1.0499
 3266SOL    HW221261   2.445   3.125   5.879 -0.7717  0.6463  0.4537
 3267SOL     OW21262   2.727   2.583  13.944 -0.1339 -0.0103 -0.5732
 3267SOL    HW121263   2.667   2.598  14.017 -0.2798 -1.7421 -0.3289
 3267SOL    HW221264   2.692   2.641  13.876 -2.0729 -1.5798 -0.8971
 3268SOL     OW21265   2.600   2.147   7.050  0.1375 -0.0874 -0.2235
 3268SOL    HW121266   2.549   2.134   6.970 -0.9682  0.1582  0.4354
 3268SOL    HW221267   2.592   2.063   7.095  0.6023  0.7030  1.3331
 3269SOL     OW21268   0.929   4.256   8.529  0.9084  0.3361  0.0841
 3269SOL    HW121269   0.908   4.349   8.537 -0.3168 -0.0963  1.9392
 3269SOL    HW221270   0.911   4.232   8.620 -1.7916 -0.9273 -0.7772
 3270SOL     OW21271   3.669   0.477   3.485 -0.0569 -0.2935 -0.0755
 3270SOL    HW121272   3.588   0.460   3.438 -1.4219  0.1494  2.1659
 3270SOL    HW221273   3.669   0.573   3.483  1.1057 -0.2904 -0.3673
 3271SOL     OW21274   1.539   4.563  11.262  0.0452  1.0385 -0.0687
 3271SOL    HW121275   1.573   4.520  11.184  1.2982 -0.4406  1.2966
 3271SOL    HW221276   1.478   4.621  11.217 -1.6164 -0.9282 -0.3124
 3272SOL     OW21277   1.105   3.193  15.248 -0.1252  0.1799  0.3680
 3272SOL    HW121278   1.040   3.263  15.245 -0.0913  0.2322  0.8227
 3272SOL    HW221279   1.154   3.208  15.167 -1.7084  2.9263 -0.0985
 3273SOL     OW21280   3.026   2.070   8.848 -0.2898 -0.3305  0.2667
 3273SOL    HW121281   3.087   2.058   8.776 -1.4770  0.8159 -0.9274
 3273SOL    HW221282   2.995   2.158   8.829 -0.5562 -0.5201 -0.1764
 3274SOL     OW21283   0.296   1.489  15.417  0.6355  0.2586  0.1303
 3274SOL    HW121284   0.341   1.530  15.491 -0.6040  3.3835 -0.8501
 3274SOL    HW221285   0.365   1.456  15.359  0.2219 -0.3102 -0.0394
 3275SOL     OW21286   2.211   2.017  15.476 -0.2090  0.0235 -0.2468
 3275SOL    HW121287   2.153   2.093  15.471  3.2120  2.4665 -3.0720
 3275SOL    HW221288   2.159   1.938  15.484 -1.4789  1.0631  1.8823
 3276SOL     OW21289   4.403   1.739   6.217  0.5390 -0.0098 -0.1876
 3276SOL    HW121290   4.347   1.730   6.140  0.1076  0.8486  0.0251
 3276SOL    HW221291   4.340   1.743   6.289  1.9603  0.0236  1.0578
 3277SOL     OW21292   1.161   1.937   8.470  0.2230  0.0055  0.1698
 3277SOL    HW121293   1.069   1.963   8.477 -0.6400 -2.7545 -0.7605
 3277SOL    HW221294   1.180   1.904   8.382  2.5030 -0.5089  0.8614
 3278SOL     OW21295   1.321   3.699   3.672 -0.0226 -0.4431  0.6101
 3278SOL    HW121296   1.279   3.652   3.743 -2.2669 -2.0233 -1.7612
 3278SOL    HW221297   1.329   3.624   3.613 -0.8144 -1.8170  2.2795
 3279SOL     OW21298   2.606   2.724  16.510  0.0649 -0.2221  0.1579
 3279SOL    HW121299   2.590   2.818  16.510 -1.5586 -0.4946  3.1957
 3279SOL    HW221300   2.641   2.703  16.423 -1.4778 -1.9315 -0.0372
 3280SOL     OW21301   2.813   3.659   9.365 -0.7534  0.1978  0.2281
 3280SOL    HW121302   2.768   3.575   9.376 -0.5779 -0.0166 -0.6862
 3280SOL    HW221303   2.902   3.633   9.342 -0.5290  0.0902  1.2261
 3281SOL     OW21304   0.753   3.264  10.595  0.2507  0.1972  0.1258
 3281SOL    HW121305   0.777   3.171  10.599  0.8038  0.2586 -1.4874
 3281SOL    HW221306   0.663   3.242  10.570  0.5621 -2.8263  1.6732
 3282SOL     OW21307   2.898   0.488   4.638  0.0881 -0.6288  0.0599
 3282SOL    HW121308   2.926   0.472   4.728  1.1713 -1.1547 -0.3689
 3282SOL    HW221309   2.869   0.399   4.619 -1.0871  0.4837 -3.4503
 3283SOL     OW21310   0.724   4.600   8.701 -0.0324 -0.3416 -0.3761
 3283SOL    HW121311   0.764   4.569   8.782  0.7873  0.8721 -0.3141
 3283SOL    HW221312   0.696   4.689   8.724  2.1567  0.1025  0.6010
 3284SOL     OW21313   2.791   3.727   9.678  0.3002 -0.4443 -0.3076
 3284SOL    HW121314   2.870   3.730   9.732  0.5292  1.5475 -0.7646
 3284SOL    HW221315   2.816   3.650   9.627 -0.8159 -1.9337  1.3960
 3285SOL     OW21316   2.801   0.146   4.250 -0.8405 -0.9161  0.3063
 3285SOL    HW121317   2.834   0.154   4.160  0.5685  1.0051  1.0115
 3285SOL    HW221318   2.707   0.134   4.232 -1.1072  1.0857  0.3527
 3286SOL     OW21319   1.089   3.770   2.959 -0.5725  0.0823 -0.3595
 3286SOL    HW121320   1.149   3.845   2.950 -0.5140 -0.1915 -2.2662
 3286SOL    HW221321   1.016   3.789   2.902 -1.2717 -1.6279 -0.0420
 3287SOL     OW21322   3.310   1.127   8.010  0.1273  0.3727 -0.1617
 3287SOL    HW121323   3.307   1.192   7.939 -0.8977  0.7690  0.2550
 3287SOL    HW221324   3.327   1.182   8.087 -0.6444 -0.3209  0.4880
 3288SOL     OW21325   3.616   0.643   8.019 -0.3711 -0.8646 -0.3665
 3288SOL    HW121326   3.541   0.583   8.020 -1.3866  0.4689  2.4146
 3288SOL    HW221327   3.675   0.596   8.079 -1.7875 -1.1438  0.8338
 3289SOL     OW21328   1.050   1.905   6.394  0.3219  0.7176  0.3351
 3289SOL    HW121329   0.982   1.943   6.338 -1.7396 -2.1649  0.8564
 3289SOL    HW221330   1.131   1.922   6.347 -0.2596  4.3149  0.6038
 3290SOL     OW21331   2.844   3.259   6.877  0.3608 -0.4160  0.3733
 3290SOL    HW121332   2.895   3.321   6.825 -1.4728  0.9581  0.1939
 3290SOL    HW221333   2.908   3.188   6.883  0.8571  0.0539  0.6767
 3291SOL     OW21334   1.597   1.908   6.757 -0.1981  0.3043  0.3961
 3291SOL    HW121335   1.522   1.874   6.708  2.3641 -1.0645 -2.5700
 3291SOL    HW221336   1.621   1.979   6.698  0.5637  0.7964  1.3003
 3292SOL     OW21337   2.136   0.217   2.891  0.2222  0.3507 -0.2642
 3292SOL    HW121338   2.093   0.302   2.902 -2.0600 -0.9389  0.6405
 3292SOL    HW221339   2.171   0.204   2.979  0.7909 -0.6318 -0.6385
 3293SOL     OW21340   0.609   3.034   3.361  0.0397  0.2176  0.0892
 3293SOL    HW121341   0.619   3.046   3.266 -0.5901  1.4565  0.1839
 3293SOL    HW221342   0.621   2.940   3.373 -0.8971 -0.0688 -1.1226
 3294SOL     OW21343   4.650   1.877  14.062  0.0045  0.3356 -0.1056
 3294SOL    HW121344   4.595   1.956  14.053  1.2998  1.2533  0.0656
 3294SOL    HW221345   0.004   1.902  14.118 -0.5230 -1.2894  1.3125
 3295SOL     OW21346   0.996   0.764   2.111 -0.5468  0.0974 -0.3263
 3295SOL    HW121347   1.082   0.804   2.103 -0.9084  1.0856  0.7572
 3295SOL    HW221348   0.996   0.718   2.195 -0.6493  2.0753  0.7579
 3296SOL     OW21349   3.374   2.864   0.418  0.9369  0.3477 -0.2333
 3296SOL    HW121350   3.327   2.920   0.480 -0.5420 -0.0013 -1.0496
 3296SOL    HW221351   3.328   2.781   0.428  0.9736  0.4284  0.6665
 3297SOL     OW21352   0.356   4.384   8.344  0.3240 -0.4717 -0.2179
 3297SOL    HW121353   0.399   4.432   8.273  1.7024  1.1498  1.7279
 3297SOL    HW221354   0.417   4.414   8.411 -0.5144 -1.4852  0.9978
 3298SOL     OW21355   2.668   3.750   0.620  0.6895 -0.1531  0.4252
 3298SOL    HW121356   2.581   3.711   0.620  0.8039 -0.4220  1.2227
 3298SOL    HW221357   2.693   3.713   0.535 -0.4664  3.8449 -1.6592
 3299SOL     OW21358   2.945   2.918  14.360 -0.0786  0.5470  0.1801
 3299SOL    HW121359   3.027   2.920  14.409  0.7788  3.2325 -1.3738
 3299SOL    HW221360   2.895   2.862  14.420 -0.2834 -0.2817 -0.7609
 3300SOL     OW21361   2.955   3.086   2.108 -0.0292  0.3564 -0.0905
 3300SOL    HW121362   3.041   3.109   2.142 -1.1265  1.1246  2.1798
 3300SOL    HW221363   2.936   3.143   2.033 -1.3172 -2.9106 -2.2450
 3301SOL     OW21364   3.087   2.580   2.359 -0.0486 -0.5457 -0.1691
 3301SOL    HW121365   3.018   2.559   2.295 -1.3866  0.0574  1.0890
 3301SOL    HW221366   3.054   2.658   2.402 -1.3796 -0.5092 -1.2450
 3302SOL     OW21367   4.050   3.932   6.422  0.1925  0.6482 -0.0030
 3302SOL    HW121368   3.980   3.923   6.486 -0.6086  3.5147 -0.4853
 3302SOL    HW221369   4.036   3.855   6.366 -0.6962  1.3806 -0.7827
 3303SOL     OW21370   3.653   2.273   1.766 -0.7423 -0.3106 -0.2465
 3303SOL    HW121371   3.712   2.345   1.745 -1.2768  0.5498  1.1713
 3303SOL    HW221372   3.569   2.316   1.781  0.0688  1.4233 -0.7155
 3304SOL     OW21373   3.953   3.683  10.961  0.3228  0.2331 -0.6223
 3304SOL    HW121374   3.928   3.596  10.992  0.8350 -0.3918 -1.9647
 3304SOL    HW221375   3.999   3.720  11.036 -2.2283 -1.2170  1.6605
 3305SOL     OW21376   0.590   4.398   8.516 -0.1267 -0.0427  0.0566
 3305SOL    HW121377   0.631   4.465   8.572 -1.3376 -0.2447  1.1866
 3305SOL    HW221378   0.565   4.335   8.583 -0.0935 -1.8043 -1.5991
 3306SOL     OW21379   0.320   0.527  16.042 -0.3649 -0.0850  0.1112
 3306SOL    HW121380   0.251   0.463  16.058 -0.7841  0.3225 -0.0552
 3306SOL    HW221381   0.298   0.560  15.954 -0.3153  0.6738  0.3852
 3307SOL     OW21382   2.475   3.839   3.864 -0.1001  0.5125 -0.0802
 3307SOL    HW121383   2.527   3.844   3.944  0.2151  1.0365 -0.3179
 3307SOL    HW221384   2.533   3.872   3.796  0.6055  0.4765  0.5114
 3308SOL     OW21385   4.122   3.314   3.760 -0.3624 -0.1696  0.1345
 3308SOL    HW121386   4.053   3.376   3.733  0.3374  0.2501 -0.6789
 3308SOL    HW221387   4.179   3.328   3.685 -2.0992  0.2072 -1.1315
 3309SOL     OW21388   1.666   4.678   5.440 -0.0573 -0.2855  0.7193
 3309SOL    HW121389   1.619   0.007   5.373  1.6916  1.2994  0.6635
 3309SOL    HW221390   1.699   0.031   5.493 -0.0013 -0.2837  0.6818
 3310SOL     OW21391   4.416   2.358  15.446  0.2385  0.0310  0.5357
 3310SOL    HW121392   4.500   2.372  15.402  0.4607  0.3849  1.0739
 3310SOL    HW221393   4.429   2.269  15.479 -0.2389 -0.1577  0.2110
 3311SOL     OW21394   3.818   4.703  12.862 -0.7140  0.5160  0.2754
 3311SOL    HW121395   3.860   0.068  12.848  0.7291 -0.1938  0.3657
 3311SOL    HW221396   3.859   4.674  12.943 -1.1894  1.7208  0.9503
 3312SOL     OW21397   0.418   2.141   4.498  0.7302  0.2274  0.3687
 3312SOL    HW121398   0.414   2.234   4.522  2.4145 -0.0847  1.8882
 3312SOL    HW221399   0.487   2.142   4.431  0.9213  0.5171  0.5663
 3313SOL     OW21400   2.298   3.170   6.627 -0.6529  0.3183  0.1377
 3313SOL    HW121401   2.214   3.157   6.582 -1.0794 -0.6820  1.2053
 3313SOL    HW221402   2.349   3.120   6.563 -3.0229 -1.4543 -0.3528
 3314SOL     OW21403   3.233   1.192   3.156 -0.1537 -0.6222 -0.2173
 3314SOL    HW121404   3.316   1.208   3.200  1.6961  0.2315 -4.0098
 3314SOL    HW221405   3.172   1.175   3.228  0.0972 -0.2853  0.0719
 3315SOL     OW21406   4.132   0.281   8.921 -0.6083 -0.4797  0.0045
 3315SOL    HW121407   4.125   0.293   8.827 -3.0516  0.5398  0.3169
 3315SOL    HW221408   4.225   0.259   8.923 -0.2924  0.8352 -0.5077
 3316SOL     OW21409   3.481   4.501  14.291 -0.6223 -0.5276  0.0156
 3316SOL    HW121410   3.433   4.474  14.213  0.6009  1.6149 -1.4606
 3316SOL    HW221411   3.517   4.418  14.324  0.1303 -0.4715 -0.6732
 3317SOL     OW21412   3.059   0.636   4.340 -0.1281 -0.2967  0.1988
 3317SOL    HW121413   3.150   0.665   4.347 -0.6339  1.1701  0.7172
 3317SOL    HW221414   3.055   0.632   4.245 -0.2402 -1.9039  0.2674
 3318SOL     OW21415   2.159   2.727   2.565  0.1665  0.3327  0.5639
 3318SOL    HW121416   2.209   2.715   2.646  0.7092 -1.6436 -0.0687
 3318SOL    HW221417   2.222   2.784   2.521 -1.0683  1.4853  0.2786
 3319SOL     OW21418   3.905   2.584  10.820  0.4757 -0.2852 -0.3782
 3319SOL    HW121419   3.885   2.670  10.783  1.3392 -0.3270 -0.9341
 3319SOL    HW221420   3.995   2.592  10.851  0.3726 -1.9834  0.3669
 3320SOL     OW21421   1.595   2.675   4.114  0.2853 -0.1661  0.9594
 3320SOL    HW121422   1.670   2.621   4.141  1.6747  0.6660 -1.1888
 3320SOL    HW221423   1.641   2.759   4.111 -2.6293  1.4988  2.8944
 3321SOL     OW21424   4.536   2.306  12.837 -0.0735  0.1099 -0.0994
 3321SOL    HW121425   4.596   2.238  12.868  0.4421  1.1635  1.1897
 3321SOL    HW221426   4.583   2.388  12.823 -0.2977  0.4063  0.8992
 3322SOL     OW21427   0.137   1.718   2.092  0.0901  0.0766 -0.8695
 3322SOL    HW121428   0.207   1.776   2.061  1.2044 -0.7351  0.1676
 3322SOL    HW221429   0.075   1.789   2.110 -0.4322 -0.9264  1.3247
 3323SOL     OW21430   1.376   3.431   7.749  0.3417  0.0054  0.7762
 3323SOL    HW121431   1.331   3.364   7.697 -1.4959  0.5905  1.6260
 3323SOL    HW221432   1.297   3.469   7.786 -0.7414  0.2912 -1.8805
 3324SOL     OW21433   3.615   3.075   4.524  0.1702 -0.5318  0.2001
 3324SOL    HW121434   3.617   3.149   4.463  2.7221  0.7014  1.7879
 3324SOL    HW221435   3.704   3.042   4.518  0.4689 -0.0398  2.1857
 3325SOL     OW21436   3.106   4.502   4.581 -0.1987 -0.0684  0.0652
 3325SOL    HW121437   3.120   4.494   4.486 -2.4528 -2.0315 -0.1235
 3325SOL    HW221438   3.054   4.422   4.588 -1.0414  0.3866 -0.8032
 3326SOL     OW21439   2.164   4.171  17.561  0.1956  0.0988  0.3894
 3326SOL    HW121440   2.220   4.185  17.485 -0.5750 -2.5406 -0.6525
 3326SOL    HW221441   2.157   4.075  17.554  1.7310 -0.0304  0.4820
 3327SOL     OW21442   2.671   4.623   9.723 -0.2478  0.6555  0.5179
 3327SOL    HW121443   2.628   4.549   9.767  1.3379 -0.8164 -0.4384
 3327SOL    HW221444   2.611   4.693   9.748 -2.5546 -0.9619 -0.4755
 3328SOL     OW21445   3.657   2.397   2.237 -0.6447 -0.3450 -0.0343
 3328SOL    HW121446   3.592   2.454   2.277  0.2000  1.3127 -1.0332
 3328SOL    HW221447   3.663   2.426   2.146  0.7691  3.2940  1.2201
 3329SOL     OW21448   2.533   4.639   4.771 -0.3197  0.2724 -0.0995
 3329SOL    HW121449   2.494   4.586   4.840 -0.1407  2.6558  1.8244
 3329SOL    HW221450   2.575   4.572   4.717 -2.5304 -0.8740 -0.4145
 3330SOL     OW21451   1.277   1.747  11.403 -0.1516 -0.0821  0.1782
 3330SOL    HW121452   1.205   1.737  11.465 -0.5417 -2.8324 -0.7175
 3330SOL    HW221453   1.327   1.826  11.426 -2.1720  1.5288 -0.9246
 3331SOL     OW21454   3.897   3.006   6.113  0.0962 -0.0630 -0.3373
 3331SOL    HW121455   3.902   3.013   6.017  0.2868 -0.7164 -0.3735
 3331SOL    HW221456   3.992   3.012   6.127 -0.3218  3.3189  1.0038
 3332SOL     OW21457   3.290   0.734   5.763  0.0446  0.2921  0.3167
 3332SOL    HW121458   3.346   0.658   5.748  2.5178  1.9567  1.1235
 3332SOL    HW221459   3.214   0.684   5.794  0.3850 -0.6628 -0.3669
 3333SOL     OW21460   2.619   3.391  11.864 -0.4028 -0.3043 -0.6849
 3333SOL    HW121461   2.707   3.354  11.859 -1.0955 -2.1880  1.0345
 3333SOL    HW221462   2.639   3.477  11.900  1.5760 -0.8103 -0.5685
 3334SOL     OW21463   3.070   0.481   8.270  0.3676  0.6760 -0.5152
 3334SOL    HW121464   3.046   0.391   8.292  0.3817  0.5492 -1.0325
 3334SOL    HW221465   2.991   0.506   8.223  0.0977  0.0283 -0.4013
 3335SOL     OW21466   4.345   2.962   7.946 -0.4101 -0.2025 -0.5762
 3335SOL    HW121467   4.381   2.918   8.024 -1.0119  0.3502  0.0102
 3335SOL    HW221468   4.256   2.930   7.955 -0.6109  0.9462  1.6236
 3336SOL     OW21469   2.434   0.899   4.121  0.1653  0.1033  0.3043
 3336SOL    HW121470   2.377   0.936   4.190  0.4520 -0.8467  1.0528
 3336SOL    HW221471   2.490   0.973   4.100  2.3348 -1.3052  1.1397
 3337SOL     OW21472   0.324   2.298  11.831  0.2477 -0.5124  0.3537
 3337SOL    HW121473   0.382   2.370  11.855  1.8845 -1.2514 -1.3475
 3337SOL    HW221474   0.377   2.254  11.764  1.6710  1.1691  0.3841
 3338SOL     OW21475   4.454   4.019   6.145 -0.1387 -1.0657 -0.4668
 3338SOL    HW121476   4.412   4.056   6.223  1.4942  1.0560 -0.5850
 3338SOL    HW221477   4.378   3.967   6.122  0.9060 -2.0191 -1.7605
 3339SOL     OW21478   3.679   3.888   0.729 -0.1607  0.0941  0.6271
 3339SOL    HW121479   3.717   3.802   0.709 -1.3450 -0.9482  2.8748
 3339SOL    HW221480   3.585   3.877   0.714  0.6963 -3.5195 -2.2359
 3340SOL     OW21481   3.158   2.440  10.836 -0.0913 -0.2060  0.2445
 3340SOL    HW121482   3.091   2.504  10.813  0.0179 -0.1658  0.0414
 3340SOL    HW221483   3.131   2.362  10.788  1.9499 -1.1354  0.6110
 3341SOL     OW21484   0.607   3.578   3.224 -0.6356  0.0878  0.2523
 3341SOL    HW121485   0.697   3.566   3.252 -0.3244 -1.1584 -1.2817
 3341SOL    HW221486   0.620   3.653   3.166  0.2174 -0.1937  0.0903
 3342SOL     OW21487   0.094   2.085   6.884  0.4025  0.0611  0.1482
 3342SOL    HW121488   0.115   1.994   6.861 -2.8007 -0.3036 -1.2975
 3342SOL    HW221489   0.060   2.081   6.974  0.7833  1.9321  0.3811
 3343SOL     OW21490   3.665   0.638   5.889  0.0875 -0.4258 -0.3379
 3343SOL    HW121491   3.736   0.702   5.896  1.4160 -1.9598  0.3284
 3343SOL    HW221492   3.712   0.556   5.905 -0.6508 -0.7444  0.1736
 3344SOL     OW21493   0.798   1.206   7.131  0.5502  0.8764 -0.2095
 3344SOL    HW121494   0.886   1.229   7.159  1.1962  0.3540 -1.7998
 3344SOL    HW221495   0.759   1.178   7.214  0.0948 -0.0860 -0.7490
 3345SOL     OW21496   0.815   3.510   6.717 -0.3609 -0.4524 -0.3497
 3345SOL    HW121497   0.760   3.561   6.776  0.3966  0.0514 -0.0888
 3345SOL    HW221498   0.771   3.524   6.633 -0.4371  2.4413  0.1728
 3346SOL     OW21499   0.794   4.627  13.673  0.2108 -0.1685  0.4468
 3346SOL    HW121500   0.885   4.648  13.694 -0.0216 -0.2876  1.6019
 3346SOL    HW221501   0.746   4.633  13.756 -1.3822 -0.4400 -0.4666
 3347SOL     OW21502   0.533   3.713  11.154  0.1553  0.2031  0.0406
 3347SOL    HW121503   0.453   3.741  11.199 -0.0519  2.3792 -1.6882
 3347SOL    HW221504   0.539   3.770  11.078  0.0346  2.0167  1.3942
 3348SOL     OW21505   1.860   3.397   4.106  0.0437 -0.2213  0.3742
 3348SOL    HW121506   1.891   3.307   4.115  0.7897  0.0104  0.1009
 3348SOL    HW221507   1.930   3.441   4.152  1.0927 -0.3422 -1.1030
 3349SOL     OW21508   4.470   0.428   5.219  0.4777 -0.2300 -0.3088
 3349SOL    HW121509   4.526   0.436   5.296 -0.9314 -1.6764  0.8585
 3349SOL    HW221510   4.535   0.433   5.149  0.5684 -1.2647 -0.2893
 3350SOL     OW21511   2.734   0.985   6.789  0.1585  0.3034 -0.0353
 3350SOL    HW121512   2.656   0.977   6.733 -0.8328 -1.2067  1.5764
 3350SOL    HW221513   2.715   0.920   6.856  1.6497 -0.8131 -0.7078
 3351SOL     OW21514   0.062   2.553   9.320  0.4282  0.1933  0.3103
 3351SOL    HW121515   0.154   2.543   9.346  0.6639  2.8328  0.4518
 3351SOL    HW221516   0.016   2.564   9.403 -0.3457 -1.6798  0.1241
 3352SOL     OW21517   3.766   3.848  16.391 -0.1391 -0.8411  0.2672
 3352SOL    HW121518   3.689   3.815  16.345  1.3629 -1.5217 -1.7740
 3352SOL    HW221519   3.746   3.832  16.484  0.4628  2.5359  0.9724
 3353SOL     OW21520   2.112   0.511   3.510  0.3272  0.4127 -0.5560
 3353SOL    HW121521   2.135   0.587   3.563 -3.0575  0.2472  1.1943
 3353SOL    HW221522   2.196   0.467   3.502  0.8078  1.5413 -1.6927
 3354SOL     OW21523   0.973   2.295  11.841 -0.4186  0.2837 -0.0475
 3354SOL    HW121524   0.982   2.202  11.824  2.1986  0.1859  1.7521
 3354SOL    HW221525   1.058   2.326  11.808 -0.5007  1.9677  1.3279
 3355SOL     OW21526   2.637   0.551   7.335  0.1713 -0.1309  0.1725
 3355SOL    HW121527   2.618   0.556   7.429  1.8255 -1.3731  0.5815
 3355SOL    HW221528   2.566   0.493   7.307  1.0778  0.7610 -3.9380
 3356SOL     OW21529   4.305   1.643   2.655 -0.1361 -0.2659  0.5496
 3356SOL    HW121530   4.316   1.548   2.646 -1.0080 -0.0831 -2.2809
 3356SOL    HW221531   4.376   1.659   2.718  1.6518 -1.0789 -1.2677
 3357SOL     OW21532   2.887   1.431  17.445 -0.2289 -0.1127  0.0726
 3357SOL    HW121533   2.828   1.494  17.485  0.0399  0.6037 -0.6558
 3357SOL    HW221534   2.848   1.346  17.468 -1.0294 -0.1827 -1.5938
 3358SOL     OW21535   3.699   3.685   0.284  0.2685 -0.7531  0.0036
 3358SOL    HW121536   3.761   3.620   0.318 -0.1253 -0.7723  0.6712
 3358SOL    HW221537   3.627   3.635   0.246 -0.0661 -0.8417  0.7570
 3359SOL     OW21538   1.368   2.909   4.158 -0.4485 -0.0566 -0.2656
 3359SOL    HW121539   1.428   2.924   4.085  0.4141 -0.4932  0.3602
 3359SOL    HW221540   1.289   2.878   4.113 -1.6650  1.0007  1.1506
 3360SOL     OW21541   2.845   0.923   3.179  0.0511  0.8810 -0.0902
 3360SOL    HW121542   2.884   1.009   3.192  0.9976  0.4695 -0.1625
 3360SOL    HW221543   2.886   0.892   3.099  0.1927 -0.0967  0.3583
 3361SOL     OW21544   3.126   4.666  13.421  0.1009  0.2025  0.2680
 3361SOL    HW121545   3.087   4.680  13.507 -1.3431  0.9604 -0.5081
 3361SOL    HW221546   3.211   4.708  13.432 -0.5186  2.2183 -2.7130
 3362SOL     OW21547   0.364   3.788   6.928  0.1047 -0.3002 -0.2863
 3362SOL    HW121548   0.389   3.851   6.995 -2.3192  0.7360 -0.3705
 3362SOL    HW221549   0.433   3.806   6.864  0.5253 -1.1474 -0.0760
 3363SOL     OW21550   1.453   0.007  10.700 -0.2146  0.5358 -0.0296
 3363SOL    HW121551   1.402   0.070  10.649 -2.1292  0.6750  2.0226
 3363SOL    HW221552   1.480   4.665  10.632  0.9178  0.2396  0.6820
 3364SOL     OW21553   3.807   0.139   2.600  0.0546 -0.3452  0.3830
 3364SOL    HW121554   3.840   0.228   2.590 -2.1066  0.1943 -1.7553
 3364SOL    HW221555   3.848   0.117   2.685  0.1954  2.3562  1.0147
 3365SOL     OW21556   1.103   3.344   5.255 -0.0497  0.1421 -0.8142
 3365SOL    HW121557   1.178   3.288   5.232  0.0848 -0.8509  2.1209
 3365SOL    HW221558   1.042   3.278   5.286 -1.5172  2.1481  0.5544
 3366SOL     OW21559   2.007   1.048   2.023 -0.2614 -0.2383 -0.4046
 3366SOL    HW121560   1.990   1.138   2.049 -1.1815 -0.3500 -0.6368
 3366SOL    HW221561   1.964   1.003   2.096  0.0707  0.4704  0.2361
 3367SOL     OW21562   3.865   1.166   4.506  0.2910  0.1256  0.6485
 3367SOL    HW121563   3.861   1.137   4.597 -1.0465  1.0487  0.8743
 3367SOL    HW221564   3.771   1.157   4.488 -0.1869  2.2117  2.1203
 3368SOL     OW21565   0.939   4.491   1.652  0.6103  0.3366 -0.3917
 3368SOL    HW121566   0.929   4.396   1.665 -0.9884  0.3678 -1.4532
 3368SOL    HW221567   1.009   4.499   1.587 -0.1118 -1.8460 -1.4399
 3369SOL     OW21568   0.620   4.430   9.459 -0.2554  0.4442  0.4912
 3369SOL    HW121569   0.581   4.455   9.542  1.7294 -1.0761  1.8779
 3369SOL    HW221570   0.628   4.517   9.420  2.6368 -0.5369 -1.1130
 3370SOL     OW21571   4.639   3.591  11.050 -0.1183 -0.2221  0.4587
 3370SOL    HW121572   4.626   3.533  10.975  0.8030 -1.2850  1.1182
 3370SOL    HW221573   4.647   3.527  11.121  3.4787 -0.2818  0.0238
 3371SOL     OW21574   0.182   4.303  10.522 -0.0946 -0.0847 -0.5548
 3371SOL    HW121575   0.172   4.217  10.481 -0.3417 -0.0157 -0.6364
 3371SOL    HW221576   0.116   4.307  10.592  1.3759 -0.5314  0.8680
 3372SOL     OW21577   1.051   2.874   7.522 -0.1307  0.0607 -0.2109
 3372SOL    HW121578   1.028   2.872   7.429  1.4283 -1.0806 -0.5756
 3372SOL    HW221579   0.978   2.924   7.558 -0.3940  0.2264 -0.9856
 3373SOL     OW21580   4.643   4.076   4.352 -0.2018 -0.1208  0.5046
 3373SOL    HW121581   4.686   4.063   4.436  0.0787  0.8087  0.5083
 3373SOL    HW221582   4.554   4.084   4.386 -0.3603 -0.5630  0.1993
 3374SOL     OW21583   4.543   1.483   7.491  0.0775 -0.3158 -0.4366
 3374SOL    HW121584   4.532   1.413   7.427  1.8365 -0.9860 -0.0126
 3374SOL    HW221585   4.532   1.564   7.440 -2.5855 -0.2647  0.2395
 3375SOL     OW21586   2.530   4.209   4.461  0.2400 -0.1675 -0.4436
 3375SOL    HW121587   2.575   4.196   4.378 -0.6743  0.4647 -1.0415
 3375SOL    HW221588   2.505   4.118   4.477 -0.7008  0.4431  1.6362
 3376SOL     OW21589   3.392   2.010  16.871 -0.3197  0.1930  0.1191
 3376SOL    HW121590   3.487   2.012  16.858 -0.3053 -0.6094  0.1319
 3376SOL    HW221591   3.359   2.054  16.793 -1.7617 -0.8304  0.1642
 3377SOL     OW21592   1.244   0.232   1.999  0.1924 -0.3313 -0.7968
 3377SOL    HW121593   1.336   0.239   1.973  0.2664 -0.6254 -0.6170
 3377SOL    HW221594   1.222   0.169   1.931 -0.2685 -0.4253 -0.5612
 3378SOL     OW21595   1.010   3.250   4.841  0.1183 -0.2989 -0.0758
 3378SOL    HW121596   1.101   3.277   4.852  0.6615 -2.0910 -0.1781
 3378SOL    HW221597   0.986   3.224   4.931 -0.9454 -1.6443 -0.7497
 3379SOL     OW21598   0.170   1.037   8.611  0.3993 -0.2476 -0.3066
 3379SOL    HW121599   0.129   1.103   8.668 -1.9269 -1.9722  0.0071
 3379SOL    HW221600   0.206   0.978   8.676 -0.8808 -1.3236 -0.5814
 3380SOL     OW21601   3.921   3.230   1.021 -0.7664  0.0203  0.4175
 3380SOL    HW121602   4.013   3.255   1.035 -0.4891  0.0022 -1.2857
 3380SOL    HW221603   3.922   3.139   0.990  3.4954  0.6626 -1.3629
 3381SOL     OW21604   2.183   0.847   1.915  0.1824  0.1695  0.4978
 3381SOL    HW121605   2.232   0.834   1.996 -1.3864 -0.1747  1.3865
 3381SOL    HW221606   2.116   0.907   1.946 -0.7264 -0.7130  0.2147
 3382SOL     OW21607   2.245   0.759   2.184  0.5622 -0.3207  0.6785
 3382SOL    HW121608   2.153   0.743   2.160  0.7115  1.0252 -0.8034
 3382SOL    HW221609   2.235   0.815   2.261 -0.8212 -0.6114  0.7277
 3383SOL     OW21610   0.612   1.824  15.981  0.0525  0.5135  0.2949
 3383SOL    HW121611   0.662   1.747  15.953 -0.0563  1.4307 -2.3900
 3383SOL    HW221612   0.589   1.804  16.072 -0.0128 -2.9580 -0.4841
 3384SOL     OW21613   3.781   4.385   4.697 -0.2434  0.4149 -0.5443
 3384SOL    HW121614   3.690   4.373   4.724  0.0762 -0.0951  0.2960
 3384SOL    HW221615   3.781   4.467   4.648  1.7579  1.8028  1.8244
 3385SOL     OW21616   3.596   0.050   4.855  0.2789  0.2778  0.6442
 3385SOL    HW121617   3.688   0.063   4.878  0.2320  3.0228 -0.7056
 3385SOL    HW221618   3.581   4.677   4.876  1.3541 -0.1279 -0.3228
 3386SOL     OW21619   2.749   1.260   5.843  0.3983  0.2017  0.4829
 3386SOL    HW121620   2.833   1.267   5.888  1.5746 -0.5360 -1.6163
 3386SOL    HW221621   2.774   1.221   5.759 -1.1997  2.0979 -0.8648
 3387SOL     OW21622   1.768   0.155   4.085  0.6692  0.0628  0.2089
 3387SOL    HW121623   1.827   0.093   4.127 -0.2893 -1.2729 -0.3881
 3387SOL    HW221624   1.817   0.236   4.098 -0.3565  1.0459 -1.8890
 3388SOL     OW21625   2.855   0.818   5.293 -0.1390 -0.4847  0.9524
 3388SOL    HW121626   2.927   0.880   5.280 -0.3271 -0.7953 -1.5221
 3388SOL    HW221627   2.806   0.828   5.212  0.8152 -0.7978  0.3397
 3389SOL     OW21628   2.581   0.126   9.020  0.3199  0.2204 -1.0491
 3389SOL    HW121629   2.645   0.184   9.061  1.2583 -2.0632  0.7399
 3389SOL    HW221630   2.537   0.084   9.094  0.5273  0.8938 -0.5420
 3390SOL     OW21631   4.324   1.306  10.059  0.0560 -0.2578  0.1856
 3390SOL    HW121632   4.244   1.316  10.111  0.5050 -2.1454  1.2428
 3390SOL    HW221633   4.325   1.217  10.025  2.9393 -0.3613  0.5534
 3391SOL     OW21634   3.278   3.372   7.946  0.0949 -0.2452 -0.1835
 3391SOL    HW121635   3.312   3.401   8.030  1.7656  0.1304 -0.9857
 3391SOL    HW221636   3.207   3.310   7.963 -2.1357  1.7512 -2.0472
 3392SOL     OW21637   1.549   0.447   5.589  0.0435 -0.4079  0.0936
 3392SOL    HW121638   1.506   0.506   5.527  2.0753  1.1193  0.0973
 3392SOL    HW221639   1.525   0.485   5.673 -1.4603 -1.8026  0.2947
 3393SOL     OW21640   4.277   1.871  17.557  0.2403 -0.0427  0.5770
 3393SOL    HW121641   4.350   1.815  17.581  1.4571  1.7259  1.0603
 3393SOL    HW221642   4.248   1.815  17.485 -1.9030 -0.5286  1.8196
 3394SOL     OW21643   4.288   3.528  16.372 -0.4057 -0.4111 -0.0859
 3394SOL    HW121644   4.204   3.565  16.400  0.3721  1.0642  0.3283
 3394SOL    HW221645   4.292   3.551  16.279 -1.4546  0.3201  0.0558
 3395SOL     OW21646   0.609   1.674   6.839 -0.3286  0.1307  0.5576
 3395SOL    HW121647   0.526   1.632   6.817 -0.1466 -0.0102  0.1398
 3395SOL    HW221648   0.586   1.703   6.927 -1.6606 -0.8308  0.5266
 3396SOL     OW21649   2.658   0.172  13.974 -0.5022 -0.2637  0.2342
 3396SOL    HW121650   2.689   0.106  13.913  1.6567 -1.7374  2.9340
 3396SOL    HW221651   2.678   0.249  13.921  0.5548 -0.7113 -0.0123
 3397SOL     OW21652   0.145   4.454   6.424 -0.4771 -0.2856 -0.0433
 3397SOL    HW121653   0.075   4.396   6.454 -0.6156 -0.3790 -0.5410
 3397SOL    HW221654   0.165   4.499   6.506 -1.6299 -0.6293  0.4372
 3398SOL     OW21655   0.407   1.458   4.008 -0.5249  0.4928 -0.1577
 3398SOL    HW121656   0.482   1.499   4.052 -0.5505 -0.8119  1.0892
 3398SOL    HW221657   0.434   1.460   3.916 -0.6383  0.4589 -0.1919
 3399SOL     OW21658   2.018   1.451   8.028 -0.0920 -0.2400 -0.1522
 3399SOL    HW121659   1.937   1.405   8.050 -0.6151  0.6590 -0.2319
 3399SOL    HW221660   2.038   1.434   7.936 -0.3259 -0.5863 -0.1385
 3400SOL     OW21661   4.686   1.167   8.025  0.3289  0.1228  0.1160
 3400SOL    HW121662   0.005   1.248   8.058 -1.3648  1.2252 -0.6082
 3400SOL    HW221663   4.660   1.131   8.110 -2.6587  0.7662 -0.5289
 3401SOL     OW21664   3.230   2.396  16.708  0.1435  0.2152 -0.5824
 3401SOL    HW121665   3.221   2.489  16.689  1.2607  0.4318 -0.0874
 3401SOL    HW221666   3.141   2.365  16.691  0.9730 -1.5381 -1.8299
 3402SOL     OW21667   2.661   1.574   9.749 -0.4293 -0.7901  0.3440
 3402SOL    HW121668   2.753   1.570   9.775 -0.4991  3.4526  1.1224
 3402SOL    HW221669   2.652   1.660   9.707 -0.5264 -1.2473 -0.5765
 3403SOL     OW21670   0.567   4.617   1.361  0.3652  0.2291 -0.1612
 3403SOL    HW121671   0.560   4.641   1.453 -1.2004 -1.6580  0.2203
 3403SOL    HW221672   0.522   4.534   1.376  0.5151  0.0129 -0.9062
 3404SOL     OW21673   0.353   0.845   0.942  0.8355 -0.5705  0.4771
 3404SOL    HW121674   0.286   0.839   1.009 -0.1050 -1.9563 -0.5974
 3404SOL    HW221675   0.424   0.905   0.967  1.4782 -0.3232 -1.8993
 3405SOL     OW21676   3.138   4.561   0.284  0.4583  0.1673  0.1128
 3405SOL    HW121677   3.179   4.610   0.355 -2.4335  1.4795  0.8631
 3405SOL    HW221678   3.096   4.636   0.242  0.6670 -0.4816 -1.2496
 3406SOL     OW21679   3.717   0.595   7.367  0.3074  0.0516  0.2757
 3406SOL    HW121680   3.629   0.617   7.395  1.0529  1.3745  1.5529
 3406SOL    HW221681   3.757   0.682   7.361  0.3237  0.0435  0.2656
 3407SOL     OW21682   2.893   2.507   2.873 -0.5794 -0.1783 -0.5113
 3407SOL    HW121683   2.982   2.533   2.898  0.2924 -0.9164 -2.9024
 3407SOL    HW221684   2.912   2.493   2.780  1.0164  1.2269 -0.4020
 3408SOL     OW21685   1.137   3.758  14.603 -0.2767 -0.3579 -0.3150
 3408SOL    HW121686   1.148   3.853  14.614  0.9386 -0.4245 -1.0177
 3408SOL    HW221687   1.192   3.725  14.675 -0.9898 -1.1685 -0.1462
 3409SOL     OW21688   4.304   1.825   8.888  0.1577  0.2707  0.1823
 3409SOL    HW121689   4.287   1.753   8.827 -0.3924  0.9098 -0.4136
 3409SOL    HW221690   4.217   1.864   8.888  0.2524  0.4738  1.0198
 3410SOL     OW21691   1.746   3.913   4.379 -0.1579 -0.7839  0.3585
 3410SOL    HW121692   1.668   3.903   4.433  0.0739  0.3115  0.8930
 3410SOL    HW221693   1.761   3.825   4.344  0.5203 -0.4733 -0.1480
 3411SOL     OW21694   2.433   1.707   6.007  0.3304 -0.1871 -0.0910
 3411SOL    HW121695   2.489   1.719   6.084 -1.0690 -1.1940  1.0887
 3411SOL    HW221696   2.489   1.651   5.954  0.3767  2.7455 -3.1318
 3412SOL     OW21697   3.715   1.259   1.798 -0.5430 -0.4350 -0.1796
 3412SOL    HW121698   3.673   1.345   1.792 -2.2427 -1.2276  0.2641
 3412SOL    HW221699   3.655   1.222   1.863 -1.2345 -0.6523 -0.9292
 3413SOL     OW21700   4.646   3.007   2.567 -0.5662 -0.1499  0.2698
 3413SOL    HW121701   4.640   3.005   2.472  1.2107  1.2499  0.1379
 3413SOL    HW221702   4.553   3.001   2.590  0.1393 -2.1994  2.5223
 3414SOL     OW21703   2.090   3.854  11.721 -0.0285  0.1334 -0.1263
 3414SOL    HW121704   2.161   3.800  11.687  1.0020  0.2220  1.9295
 3414SOL    HW221705   2.026   3.819  11.659 -1.0428  2.7931 -0.5881
 3415SOL     OW21706   2.731   1.727   5.652  0.0469 -0.4844 -0.0393
 3415SOL    HW121707   2.791   1.766   5.587 -1.7355  0.0617 -1.3484
 3415SOL    HW221708   2.790   1.707   5.725 -2.7537 -1.7907  1.8666
 3416SOL     OW21709   2.128   3.852   3.306  0.1808  0.0315 -0.3356
 3416SOL    HW121710   2.066   3.808   3.364 -0.5344  3.0862  1.1892
 3416SOL    HW221711   2.133   3.804   3.223 -1.6922  0.4504 -0.6864
 3417SOL     OW21712   0.957   3.251   1.069 -0.0925  0.1993  0.0813
 3417SOL    HW121713   0.991   3.307   1.139  1.8107 -1.1252  0.2361
 3417SOL    HW221714   0.910   3.317   1.018 -3.3830 -2.3885 -0.1578
 3418SOL     OW21715   4.295   1.161   4.028 -0.7566 -0.3504  0.5360
 3418SOL    HW121716   4.360   1.167   4.097 -0.7561  1.7361  0.3419
 3418SOL    HW221717   4.347   1.132   3.952 -1.1779  2.2208 -0.7386
 3419SOL     OW21718   0.601   1.674  16.645 -0.0796  0.0850 -0.0706
 3419SOL    HW121719   0.553   1.603  16.688 -1.4028 -0.1306 -1.8924
 3419SOL    HW221720   0.572   1.754  16.688  2.1121  0.8001  0.0969
 3420SOL     OW21721   1.138   4.643   0.271  0.1333  0.8058  0.2753
 3420SOL    HW121722   1.069   4.706   0.291 -0.3778  0.3388 -0.0308
 3420SOL    HW221723   1.122   4.614   0.181  1.9024 -0.1427  0.2713
 3421SOL     OW21724   0.906   2.287   3.494 -0.4092 -0.0123 -0.1683
 3421SOL    HW121725   0.868   2.224   3.555  0.1733  1.2254  1.4955
 3421SOL    HW221726   0.883   2.241   3.413  1.6782  0.8679 -1.2620
 3422SOL     OW21727   2.411   4.198   4.972 -0.3446  0.0975  0.2023
 3422SOL    HW121728   2.458   4.158   5.045 -0.2031 -0.2021 -0.0552
 3422SOL    HW221729   2.401   4.115   4.926 -0.6183 -0.1294  0.6690
 3423SOL     OW21730   1.758   2.061   0.450 -0.2363 -0.9997  0.1741
 3423SOL    HW121731   1.713   2.028   0.372  0.9128  0.3074 -1.0381
 3423SOL    HW221732   1.851   2.052   0.431  0.6136 -0.9148  4.1701
 3424SOL     OW21733   2.070   4.371  15.637  0.0169  0.4630 -0.1266
 3424SOL    HW121734   2.087   4.350  15.545 -0.9762 -1.5920  0.1686
 3424SOL    HW221735   2.081   4.285  15.677 -0.2127 -0.1978 -1.5029
 3425SOL     OW21736   3.029   2.944  16.825 -0.0032  0.1075  0.1933
 3425SOL    HW121737   2.961   2.947  16.892  2.0570 -1.0938  2.3277
 3425SOL    HW221738   2.970   2.950  16.750  0.1455 -1.7372 -0.0814
 3426SOL     OW21739   2.710   2.133   2.361  0.7720 -0.6066  0.3157
 3426SOL    HW121740   2.640   2.073   2.385  0.1905 -0.4694 -1.0333
 3426SOL    HW221741   2.675   2.222   2.369  0.5167 -0.7912  1.2346
 3427SOL     OW21742   3.744   2.153   7.574  0.1328  0.0159 -0.0031
 3427SOL    HW121743   3.700   2.238   7.572 -0.9628 -0.5785 -1.3054
 3427SOL    HW221744   3.677   2.098   7.532 -0.3786 -0.5094  1.5075
 3428SOL     OW21745   1.246   3.951   8.266 -0.1943 -0.4297 -0.3712
 3428SOL    HW121746   1.213   3.897   8.338 -0.1733 -2.9546 -2.2182
 3428SOL    HW221747   1.332   3.911   8.251 -0.7320 -1.2650 -1.2636
 3429SOL     OW21748   4.478   3.368   4.764  0.0585  0.1583  0.3241
 3429SOL    HW121749   4.544   3.436   4.777  0.3082 -0.2534  1.2547
 3429SOL    HW221750   4.505   3.311   4.836 -0.0845  2.4299  2.1570
 3430SOL     OW21751   2.151   0.634   2.801 -0.0805 -0.3033 -0.5691
 3430SOL    HW121752   2.206   0.665   2.873 -1.3189  0.0520  0.2267
 3430SOL    HW221753   2.063   0.649   2.834 -0.1629  0.0984 -0.9768
 3431SOL     OW21754   2.465   4.435   7.430 -0.3872 -0.0566 -0.5483
 3431SOL    HW121755   2.410   4.510   7.407  1.2651  1.6417  1.0510
 3431SOL    HW221756   2.469   4.372   7.358 -0.1681 -2.3482  1.4547
 3432SOL     OW21757   2.575   3.363  17.068 -0.2631  0.1234  0.1716
 3432SOL    HW121758   2.648   3.350  17.130 -0.3069 -1.9258 -0.2311
 3432SOL    HW221759   2.606   3.311  16.994 -1.3198  3.1094 -2.3656
 3433SOL     OW21760   0.851   0.176  16.180  0.2475  0.5195 -0.7313
 3433SOL    HW121761   0.760   0.152  16.168 -0.1698  2.4206 -1.3435
 3433SOL    HW221762   0.906   0.130  16.117 -0.1298 -0.7126 -0.1641
 3434SOL     OW21763   0.483   2.897   0.348  0.0902  0.3485  0.1304
 3434SOL    HW121764   0.489   2.851   0.432 -3.3580 -0.2959  0.0068
 3434SOL    HW221765   0.559   2.956   0.354  0.4924 -0.0422 -1.2541
 3435SOL     OW21766   0.062   2.786   7.756 -0.0789 -0.4087 -0.1624
 3435SOL    HW121767   0.145   2.766   7.712  0.4950  2.5353 -0.4210
 3435SOL    HW221768   0.037   2.707   7.805 -2.0354 -0.4504 -1.2368
 3436SOL     OW21769   4.511   4.290   9.236 -0.7944 -0.3777  0.4385
 3436SOL    HW121770   4.563   4.216   9.205  0.8380  0.0615  2.1589
 3436SOL    HW221771   4.563   4.358   9.194 -0.2938 -1.1701 -0.2143
 3437SOL     OW21772   3.646   0.836   4.164  0.2708 -0.0191 -0.8640
 3437SOL    HW121773   3.717   0.883   4.207 -1.0960  2.0535 -0.8493
 3437SOL    HW221774   3.702   0.809   4.091  1.6453  0.0548  0.1578
 3438SOL     OW21775   1.345   4.052   7.526 -0.4155 -0.5548  0.0761
 3438SOL    HW121776   1.361   4.140   7.559 -0.3964  0.0144 -1.4848
 3438SOL    HW221777   1.414   4.039   7.461 -0.4303 -1.6304  0.2704
 3439SOL     OW21778   2.861   1.745   7.960 -0.3089  0.1827 -0.4006
 3439SOL    HW121779   2.817   1.810   7.906 -0.1037  0.5321 -0.1494
 3439SOL    HW221780   2.917   1.699   7.898 -0.5288  1.3351 -1.4557
 3440SOL     OW21781   2.793   0.058   5.314 -0.6350 -0.0049  0.3350
 3440SOL    HW121782   2.809   4.703   5.256  0.3243 -0.7253  1.5277
 3440SOL    HW221783   2.713   0.025   5.353  0.1936  0.5126  2.4578
 3441SOL     OW21784   3.171   2.398   4.548 -0.0729  0.1026  0.2846
 3441SOL    HW121785   3.093   2.356   4.512  0.5188 -1.7679  1.1730
 3441SOL    HW221786   3.221   2.324   4.583  0.2496 -0.6225 -1.6962
 3442SOL     OW21787   0.210   3.274   5.431 -0.1146  0.4262 -0.4618
 3442SOL    HW121788   0.164   3.296   5.512  1.4231 -0.1003  0.5776
 3442SOL    HW221789   0.146   3.246   5.366 -1.9534  0.2086  1.4243
 3443SOL     OW21790   4.274   2.234   3.368  0.7672 -0.0529 -0.5238
 3443SOL    HW121791   4.191   2.209   3.408  0.6358  1.6725  0.2639
 3443SOL    HW221792   4.250   2.224   3.276  3.5262 -0.2395 -1.2253
 3444SOL     OW21793   2.103   4.079   5.343 -1.1086 -0.8415 -0.0539
 3444SOL    HW121794   2.192   4.109   5.363 -1.6789 -0.2222  1.5973
 3444SOL    HW221795   2.057   4.142   5.399  1.5517  1.5010 -0.5099
 3445SOL     OW21796   3.537   1.775   5.953  0.2993 -0.0638 -0.2094
 3445SOL    HW121797   3.572   1.697   5.910  0.9273 -0.8259  1.6789
 3445SOL    HW221798   3.612   1.835   5.958  0.0859  0.1465  0.5715
 3446SOL     OW21799   1.911   2.112   5.148  0.1313 -0.1440  0.3187
 3446SOL    HW121800   1.884   2.095   5.058 -0.4741 -2.6134  0.9894
 3446SOL    HW221801   1.948   2.200   5.136 -1.8496  0.3648 -1.8229
 3447SOL     OW21802   3.780   0.013   8.804 -0.0187  0.6763 -0.1216
 3447SOL    HW121803   3.848   4.674   8.836  0.1036  0.4568 -0.7844
 3447SOL    HW221804   3.747   0.061   8.880  0.3841 -0.4861  0.7685
 3448SOL     OW21805   0.824   1.545   1.556 -0.2416  0.2117  0.2723
 3448SOL    HW121806   0.822   1.451   1.575 -3.5622  0.1455 -0.4715
 3448SOL    HW221807   0.738   1.552   1.515 -0.5328  1.6411  1.1409
 3449SOL     OW21808   3.322   3.757  17.604 -0.2360  0.0591 -0.4832
 3449SOL    HW121809   3.373   3.679  17.626  0.0905  0.5991  0.6733
 3449SOL    HW221810   3.390   3.796  17.548  0.2996  0.3031  0.3396
 3450SOL     OW21811   3.322   4.176   3.796 -0.4397  0.1166 -0.1111
 3450SOL    HW121812   3.257   4.216   3.738  0.9379 -1.2474 -2.6089
 3450SOL    HW221813   3.365   4.117   3.734 -0.2801 -0.0884  0.1944
 3451SOL     OW21814   4.236   4.676   5.764  0.7517 -0.3633 -0.2351
 3451SOL    HW121815   4.197   0.021   5.823  1.4701  2.1070 -2.5246
 3451SOL    HW221816   4.241   4.709   5.675 -0.4881  0.6435  0.0715
 3452SOL     OW21817   2.464   4.559  15.994  0.0913 -0.0816  0.8581
 3452SOL    HW121818   2.429   4.505  15.922  0.8808  1.5999 -0.7924
 3452SOL    HW221819   2.439   4.645  15.960  1.9738  0.5057  0.9679
 3453SOL     OW21820   4.168   3.337   8.598  0.4226 -0.5918 -0.2309
 3453SOL    HW121821   4.124   3.253   8.582  2.8918 -2.1896  1.3911
 3453SOL    HW221822   4.257   3.321   8.569  1.3709  2.4174  1.0040
 3454SOL     OW21823   2.708   0.728   8.695  0.0352  0.0496 -0.2663
 3454SOL    HW121824   2.777   0.671   8.728  0.0273  0.1318 -0.1094
 3454SOL    HW221825   2.687   0.785   8.769  1.3298  0.3037 -0.0977
 3455SOL     OW21826   3.408   2.507   7.308 -0.2940  0.2837 -0.3727
 3455SOL    HW121827   3.314   2.510   7.289 -0.4438 -1.5098  0.0784
 3455SOL    HW221828   3.435   2.415   7.302 -1.3550 -0.0743  0.2961
 3456SOL     OW21829   0.775   4.528  11.406 -0.6138 -0.4475 -0.1619
 3456SOL    HW121830   0.836   4.547  11.335 -1.3386  1.4812 -0.2864
 3456SOL    HW221831   0.734   4.615  11.407  0.8319  0.2306  0.2213
 3457SOL     OW21832   0.683   2.395   1.151 -0.7581 -0.2225  0.0095
 3457SOL    HW121833   0.632   2.469   1.184  2.1992  1.0830  1.6754
 3457SOL    HW221834   0.771   2.433   1.149 -0.5235 -0.8039 -1.1357
 3458SOL     OW21835   0.976   4.198   2.540 -0.3290  0.5243 -0.6528
 3458SOL    HW121836   1.053   4.198   2.483  1.9122  1.0022  2.3428
 3458SOL    HW221837   0.921   4.146   2.482  0.1406  0.2118 -0.8157
 3459SOL     OW21838   3.220   3.640   5.024 -0.4735 -0.3754  0.0065
 3459SOL    HW121839   3.203   3.652   4.931  1.5022 -0.4920 -0.3534
 3459SOL    HW221840   3.140   3.592   5.049  0.5741 -0.8849  2.4103
 3460SOL     OW21841   2.011   0.849   9.458  0.7086 -0.5450 -0.7252
 3460SOL    HW121842   1.955   0.854   9.535  1.1676  0.5763 -0.4570
 3460SOL    HW221843   1.968   0.918   9.407 -1.9373 -2.5269 -1.1411
 3461SOL     OW21844   0.772   1.138   1.993 -0.4235  0.0411 -0.5193
 3461SOL    HW121845   0.687   1.134   1.948 -2.0461  1.0835  2.4459
 3461SOL    HW221846   0.815   1.071   1.939 -3.5451 -1.1048 -1.6482
 3462SOL     OW21847   2.892   3.472   8.492 -0.0643 -0.3861 -0.1009
 3462SOL    HW121848   2.977   3.499   8.456 -0.1790 -2.3122 -1.8515
 3462SOL    HW221849   2.887   3.520   8.574 -2.2262 -1.6666  0.5267
 3463SOL     OW21850   3.844   3.091   6.650  0.2509  0.3949 -0.1195
 3463SOL    HW121851   3.848   3.019   6.586  0.1851 -0.2932  0.6571
 3463SOL    HW221852   3.754   3.085   6.683  0.4549 -1.9385  0.0260
 3464SOL     OW21853   2.593   2.926  13.037  0.2652 -0.1603 -0.1626
 3464SOL    HW121854   2.660   2.870  12.998 -1.1833 -0.9359 -1.4997
 3464SOL    HW221855   2.578   2.994  12.970 -0.0537  1.5343  1.6404
 3465SOL     OW21856   2.312   3.346   7.612  0.6861 -0.0853 -0.8109
 3465SOL    HW121857   2.373   3.351   7.538 -0.7443  1.4680 -1.8948
 3465SOL    HW221858   2.229   3.360   7.566  0.2845 -2.2245 -0.7302
 3466SOL     OW21859   4.168   1.632   4.165  0.1443  0.4013 -0.2883
 3466SOL    HW121860   4.169   1.565   4.097 -1.0453  0.5572 -0.4595
 3466SOL    HW221861   4.200   1.713   4.124  0.7913  0.1846 -0.2181
 3467SOL     OW21862   2.054   3.392   0.792  0.2154  0.7772 -0.3966
 3467SOL    HW121863   2.104   3.473   0.781  0.8580  0.4141 -0.1340
 3467SOL    HW221864   1.978   3.435   0.832  0.9545  2.5973 -0.9531
 3468SOL     OW21865   4.091   1.616  16.409  0.1572  0.5100  0.0854
 3468SOL    HW121866   4.041   1.694  16.384  0.3033  1.7939  3.8678
 3468SOL    HW221867   4.179   1.654  16.410  0.4758 -0.3105  2.6312
 3469SOL     OW21868   2.449   3.460   7.394 -0.2173 -0.1758 -0.2392
 3469SOL    HW121869   2.543   3.465   7.379  0.0572  0.7841  1.7804
 3469SOL    HW221870   2.410   3.418   7.318  0.5225 -0.8585 -0.2384
 3470SOL     OW21871   2.735   2.669   5.973  0.5797  0.5418  0.3930
 3470SOL    HW121872   2.805   2.641   5.914 -0.3684  0.5307 -0.7193
 3470SOL    HW221873   2.726   2.764   5.966 -1.4236  0.4856  2.0767
 3471SOL     OW21874   4.305   3.317   4.448 -0.1321 -0.4137 -0.2305
 3471SOL    HW121875   4.340   3.248   4.392 -0.1635 -0.9714  0.4381
 3471SOL    HW221876   4.384   3.371   4.446 -0.7791  0.5693  0.5237
 3472SOL     OW21877   0.046   3.237  12.935  0.1361 -0.4322  0.3304
 3472SOL    HW121878   0.031   3.143  12.927  1.5297 -0.4464 -1.8543
 3472SOL    HW221879   0.129   3.237  12.982 -0.4075  0.8966  1.3036
 3473SOL     OW21880   1.248   3.565   2.805 -0.3326 -0.1267 -0.4407
 3473SOL    HW121881   1.184   3.627   2.839  0.4559 -0.3756  1.4534
 3473SOL    HW221882   1.189   3.499   2.769 -2.2499  2.1435 -1.4809
 3474SOL     OW21883   4.444   3.835  11.114  0.0246  0.4069 -0.1208
 3474SOL    HW121884   4.522   3.780  11.123 -0.2799 -0.1267 -0.7927
 3474SOL    HW221885   4.435   3.826  11.020  2.0351  0.5287 -0.3276
 3475SOL     OW21886   1.984   1.885   2.300 -0.0065 -0.5081 -0.2651
 3475SOL    HW121887   1.952   1.922   2.383  1.7466  1.1651 -0.3376
 3475SOL    HW221888   2.060   1.942   2.296 -1.5819  1.6123 -0.1677
 3476SOL     OW21889   3.522   4.330   4.762  0.2680 -0.5211  0.8288
 3476SOL    HW121890   3.470   4.398   4.804  0.9483  0.4862  0.0333
 3476SOL    HW221891   3.496   4.263   4.825  1.4134 -1.0367  0.7470
 3477SOL     OW21892   4.563   4.092  13.444 -0.2918 -0.6325 -0.1931
 3477SOL    HW121893   4.506   4.020  13.418 -1.0553 -0.5510  1.2448
 3477SOL    HW221894   4.505   4.124  13.513  0.2371 -1.8767  0.8322
 3478SOL     OW21895   0.537   2.480   5.878 -0.7887  0.2431 -0.8977
 3478SOL    HW121896   0.566   2.413   5.940 -0.3835  0.5692 -0.7374
 3478SOL    HW221897   0.605   2.547   5.877 -1.4110  0.8969  1.0385
 3479SOL     OW21898   1.556   3.984   8.215  0.2611 -0.1671 -0.2304
 3479SOL    HW121899   1.610   3.969   8.138 -1.4864  1.4340 -1.7684
 3479SOL    HW221900   1.580   4.075   8.232 -0.5435 -0.0152  0.1142
 3480SOL     OW21901   4.398   3.977   8.942  0.3978 -0.5195  0.3994
 3480SOL    HW121902   4.428   3.889   8.920 -2.1810 -1.3221  0.1437
 3480SOL    HW221903   4.386   3.975   9.037 -0.1752  0.5685  0.3559
 3481SOL     OW21904   1.354   3.369   6.298  0.1066  0.2040 -0.6685
 3481SOL    HW121905   1.399   3.442   6.256 -1.8999  1.5868 -0.3991
 3481SOL    HW221906   1.427   3.321   6.339  1.1932  2.5093  0.0691
 3482SOL     OW21907   4.347   3.831   6.482  0.5035 -0.0356  0.4030
 3482SOL    HW121908   4.272   3.772   6.493  0.8164 -0.7051 -1.0282
 3482SOL    HW221909   4.405   3.769   6.439  1.0989  1.6040 -1.1217
 3483SOL     OW21910   4.123   2.227  12.634  0.1793  0.3020 -0.1504
 3483SOL    HW121911   4.169   2.198  12.555  0.5713 -1.2266  0.6432
 3483SOL    HW221912   4.177   2.186  12.701 -0.7945  1.5818  1.4307
 3484SOL     OW21913   3.501   4.080  12.641 -0.3533 -0.2318 -0.5847
 3484SOL    HW121914   3.503   4.037  12.726  0.2201 -2.1068 -1.5413
 3484SOL    HW221915   3.533   4.169  12.658  1.3724 -1.0777  0.4981
 3485SOL     OW21916   3.836   0.572   2.350 -0.1103  0.2688  0.3926
 3485SOL    HW121917   3.795   0.659   2.359 -0.8365 -0.0219 -0.1498
 3485SOL    HW221918   3.755   0.533   2.381  0.8245 -2.4743 -0.6332
 3486SOL     OW21919   4.035   3.277   8.962  0.2037 -0.3532  0.5538
 3486SOL    HW121920   4.090   3.309   9.033  1.9292 -1.1453 -0.4386
 3486SOL    HW221921   4.051   3.343   8.894 -0.5410  0.6964  1.3996
 3487SOL     OW21922   2.443   4.476   4.989  0.2804  0.0232  0.3531
 3487SOL    HW121923   2.418   4.491   5.080 -1.3809 -1.1890  0.0856
 3487SOL    HW221924   2.422   4.383   4.979  1.2420 -0.1944  0.3222
 3488SOL     OW21925   1.245   4.331  12.309 -0.2362  0.3888 -0.0973
 3488SOL    HW121926   1.210   4.338  12.220  0.3781  0.8690 -0.2984
 3488SOL    HW221927   1.215   4.417  12.338 -0.4127  0.2513  0.1343
 3489SOL     OW21928   4.515   4.477   8.615 -0.0499  0.5585  0.3341
 3489SOL    HW121929   4.448   4.534   8.578 -1.6599 -1.1309  0.6481
 3489SOL    HW221930   4.535   4.422   8.538 -0.2876  2.0113 -0.7678
 3490SOL     OW21931   0.880   0.882   6.142  1.1036  0.4371  0.2978
 3490SOL    HW121932   0.955   0.891   6.201  1.4182  0.7622 -0.1547
 3490SOL    HW221933   0.920   0.821   6.079 -1.3717 -1.3492  0.4652
 3491SOL     OW21934   0.416   1.559   8.145 -0.1839 -0.1127  0.0368
 3491SOL    HW121935   0.328   1.565   8.109 -0.0916  0.5767 -0.0810
 3491SOL    HW221936   0.467   1.566   8.065 -0.0821 -0.9947  0.0273
 3492SOL     OW21937   1.061   3.423   3.645  0.3717  0.1344 -0.0596
 3492SOL    HW121938   0.965   3.426   3.647  0.3530 -2.1574  2.6139
 3492SOL    HW221939   1.070   3.481   3.570  0.0572 -0.2901 -0.4302
 3493SOL     OW21940   0.370   1.224   7.573 -0.1063  0.2828  0.1304
 3493SOL    HW121941   0.297   1.248   7.515  0.0264  0.6326  0.1088
 3493SOL    HW221942   0.328   1.239   7.658 -1.8469 -0.3277 -0.6195
 3494SOL     OW21943   2.757   4.308  15.281 -0.0303 -0.2263  0.9250
 3494SOL    HW121944   2.844   4.294  15.318  0.3263  1.5462  0.7643
 3494SOL    HW221945   2.709   4.317  15.363 -1.1039  0.2196  0.2477
 3495SOL     OW21946   3.921   4.452   4.033 -0.1591 -0.1720 -0.1096
 3495SOL    HW121947   4.012   4.482   4.024  0.0505  0.0356  2.5504
 3495SOL    HW221948   3.866   4.526   4.007 -1.7137 -1.4626 -0.4596
 3496SOL     OW21949   2.706   4.249   1.438 -0.1377 -0.0706  0.2179
 3496SOL    HW121950   2.775   4.212   1.383  0.2987  1.8708 -0.5177
 3496SOL    HW221951   2.644   4.270   1.368 -2.1311  0.1546  2.0533
 3497SOL     OW21952   2.226   3.269  17.507  0.0328  0.5013  0.1883
 3497SOL    HW121953   2.175   3.303  17.434 -1.0354 -2.1960 -0.3425
 3497SOL    HW221954   2.246   3.182  17.472  0.0715  2.1094 -3.7376
 3498SOL     OW21955   4.100   2.349   2.680 -0.2800 -0.0788  0.1945
 3498SOL    HW121956   4.143   2.366   2.597  1.7353 -3.4187  0.5578
 3498SOL    HW221957   4.019   2.399   2.667  1.0512  2.9577  3.4744
 3499SOL     OW21958   3.408   0.206   3.948  0.9308  0.1432 -0.4217
 3499SOL    HW121959   3.461   0.232   4.023  0.5947 -0.2099 -0.0605
 3499SOL    HW221960   3.331   0.169   3.992 -0.3168 -1.2207 -3.7367
 3500SOL     OW21961   3.293   3.628   4.070 -0.0932  0.1960 -0.2287
 3500SOL    HW121962   3.281   3.607   4.162 -0.9491 -2.5409 -0.9710
 3500SOL    HW221963   3.356   3.699   4.083  0.6353 -0.7955  1.5513
 3501SOL     OW21964   2.873   1.556   6.858 -0.0472 -0.3108  0.1543
 3501SOL    HW121965   2.817   1.480   6.872  1.3725 -1.2406  0.8312
 3501SOL    HW221966   2.913   1.523   6.777  0.4929 -0.4676  0.4833
 3502SOL     OW21967   4.271   1.403   6.986  0.1950  0.6310  0.2613
 3502SOL    HW121968   4.216   1.390   7.063  2.0646 -0.9043  1.3418
 3502SOL    HW221969   4.348   1.438   7.030  1.2853  1.7273 -2.5020
 3503SOL     OW21970   1.232   2.998  10.915  0.3050  0.0235  0.0312
 3503SOL    HW121971   1.282   2.917  10.919 -2.1949 -1.5678 -0.8863
 3503SOL    HW221972   1.231   3.010  11.010 -0.4277 -0.3879  0.0787
 3504SOL     OW21973   2.476   3.006   3.387  0.2694 -0.3696 -0.3455
 3504SOL    HW121974   2.464   3.076   3.452  0.8169 -1.0667  0.5019
 3504SOL    HW221975   2.467   2.922   3.431 -2.2869  1.2144  2.1451
 3505SOL     OW21976   2.501   4.067   0.278 -0.2203 -0.4257 -0.0369
 3505SOL    HW121977   2.432   4.053   0.213 -1.2162  1.4715  0.6021
 3505SOL    HW221978   2.445   4.108   0.344  0.2261  0.5623 -0.2764
 3506SOL     OW21979   3.320   4.220   1.852 -0.3566  0.5176  0.0491
 3506SOL    HW121980   3.307   4.286   1.784  0.2574  2.3114  1.6973
 3506SOL    HW221981   3.385   4.268   1.903 -1.1713 -0.1669  1.7386
 3507SOL     OW21982   3.879   2.908   7.815 -0.4768  0.1744  0.4252
 3507SOL    HW121983   3.880   2.893   7.910  1.8775  1.7724  0.6478
 3507SOL    HW221984   3.854   2.819   7.791  0.0191 -0.0766  0.8161
 3508SOL     OW21985   2.669   2.590   3.033  0.0596 -0.6767  0.0450
 3508SOL    HW121986   2.754   2.566   2.996  1.2410  2.2088  0.8497
 3508SOL    HW221987   2.610   2.522   3.001 -0.3911 -0.0259 -0.5119
 3509SOL     OW21988   0.687   2.797   5.013 -0.3349  0.2019  0.1800
 3509SOL    HW121989   0.731   2.742   5.079  0.1446 -0.6410 -0.8473
 3509SOL    HW221990   0.624   2.841   5.071 -0.4983 -1.2299  1.0823
 3510SOL     OW21991   2.066   4.341   6.796  0.8304  0.9604 -0.8302
 3510SOL    HW121992   2.068   4.435   6.778 -1.2147  0.8554 -1.5496
 3510SOL    HW221993   2.029   4.296   6.720 -2.0111 -0.9386  1.6743
 3511SOL     OW21994   1.752   1.265   7.368 -0.4029 -0.0075 -0.0085
 3511SOL    HW121995   1.728   1.354   7.395 -0.7684 -0.2272  0.4077
 3511SOL    HW221996   1.704   1.211   7.431  0.6395 -2.2394 -1.1598
 3512SOL     OW21997   2.361   0.268   9.961 -0.1832  0.9269 -0.1864
 3512SOL    HW121998   2.446   0.310   9.951 -0.8793  2.0046 -1.6235
 3512SOL    HW221999   2.371   0.176   9.939 -0.8386  0.5063  1.2605
 3513SOL     OW22000   3.390   1.556  15.192 -0.4655 -0.3844  0.0346
 3513SOL    HW122001   3.398   1.483  15.254 -1.4461  0.4147  1.1178
 3513SOL    HW222002   3.467   1.535  15.140 -0.8233 -2.0095  0.1411
 3514SOL     OW22003   3.754   2.569   4.491 -0.0280  0.2976  0.1271
 3514SOL    HW122004   3.685   2.564   4.557 -1.9261  2.4167 -1.6730
 3514SOL    HW222005   3.796   2.641   4.537 -0.8378  0.3015  0.8622
 3515SOL     OW22006   0.508   0.038  10.829 -0.2254 -0.2508  0.1659
 3515SOL    HW122007   0.450   0.068  10.759 -0.9923  0.3989  1.0857
 3515SOL    HW222008   0.461   0.069  10.906 -1.3736 -2.1286  0.2203
 3516SOL     OW22009   2.951   4.590  13.879 -0.2362  0.1171 -0.5182
 3516SOL    HW122010   2.921   4.500  13.868  1.4368 -0.7824  2.3341
 3516SOL    HW222011   2.872   4.641  13.859 -1.1936 -1.0905  0.1463
 3517SOL     OW22012   4.055   3.853   4.662 -0.3665  0.3042 -0.7004
 3517SOL    HW122013   4.053   3.914   4.589 -1.3722  0.7103 -0.3456
 3517SOL    HW222014   3.963   3.849   4.692 -0.3448  3.8768 -0.1724
 3518SOL     OW22015   0.034   2.719   9.112 -0.3436  0.3081  0.2781
 3518SOL    HW122016   0.057   2.657   9.180 -0.3845 -0.1478 -0.1192
 3518SOL    HW222017   0.088   2.789   9.148 -0.5987 -0.0012  1.2491
 3519SOL     OW22018   0.191   3.939   6.743  0.1163  0.1963 -0.3079
 3519SOL    HW122019   0.245   3.876   6.790  2.7187  2.7390  0.0631
 3519SOL    HW222020   0.104   3.901   6.731  0.3735 -0.3284 -0.4670
 3520SOL     OW22021   2.996   1.467  13.761  0.0821 -0.0867  0.1240
 3520SOL    HW122022   2.931   1.448  13.693  1.8435 -0.9067 -1.3218
 3520SOL    HW222023   2.990   1.386  13.812  0.1623 -0.3997 -0.3613
 3521SOL     OW22024   4.076   2.258   6.693  0.4441 -0.0621 -0.7277
 3521SOL    HW122025   4.154   2.210   6.719 -0.6435 -1.0866  0.6336
 3521SOL    HW222026   4.072   2.333   6.752 -1.1641 -0.1808 -0.6929
 3522SOL     OW22027   4.411   0.546   2.968  0.0281 -0.1309 -0.0781
 3522SOL    HW122028   4.320   0.563   2.944 -0.2946 -0.2244  1.0879
 3522SOL    HW222029   4.436   0.481   2.903  3.7933 -0.2956  1.5089
 3523SOL     OW22030   1.062   3.276   0.272 -0.7757 -0.0990 -0.5745
 3523SOL    HW122031   0.986   3.329   0.247 -1.0737  0.6450  1.9390
 3523SOL    HW222032   1.128   3.294   0.205  1.3807 -2.5397  0.8880
 3524SOL     OW22033   3.341   3.188   1.281 -0.5361  0.4708 -0.1526
 3524SOL    HW122034   3.278   3.259   1.294  1.6039  1.9927  1.8703
 3524SOL    HW222035   3.281   3.116   1.301  0.8322 -0.6796 -0.1831
 3525SOL     OW22036   0.703   1.913  10.211  0.5762  0.5226  0.0221
 3525SOL    HW122037   0.654   1.970  10.152 -0.2732 -0.9116 -0.6547
 3525SOL    HW222038   0.740   1.975  10.274  1.4439 -0.5438  0.5653
 3526SOL     OW22039   2.474   4.414   3.737 -0.0308  0.0562 -0.0125
 3526SOL    HW122040   2.385   4.383   3.721  0.7599 -1.9120 -0.6057
 3526SOL    HW222041   2.457   4.506   3.756 -0.8537 -0.0411 -0.2621
 3527SOL     OW22042   2.702   3.230   7.347 -0.4494  0.4662  0.1418
 3527SOL    HW122043   2.647   3.158   7.315 -1.1583  0.1146  2.1469
 3527SOL    HW222044   2.686   3.208   7.439  3.9041  0.3164  0.8295
 3528SOL     OW22045   4.581   0.216   3.564 -0.1971 -0.5347 -0.3344
 3528SOL    HW122046   4.548   0.166   3.639 -1.0685 -0.0813 -0.4226
 3528SOL    HW222047   4.517   0.200   3.494 -1.3625  0.0865  0.5934
 3529SOL     OW22048   4.404   1.896   9.411  0.3684 -0.1006 -0.5201
 3529SOL    HW122049   4.310   1.882   9.421  0.5717  1.0306  2.8194
 3529SOL    HW222050   4.416   1.955   9.485 -0.5985  1.1743 -1.3774
 3530SOL     OW22051   1.181   3.306  17.476 -0.1513  0.3989  0.2527
 3530SOL    HW122052   1.153   3.244  17.408 -0.1205 -0.5120  1.0654
 3530SOL    HW222053   1.175   3.391  17.434  2.0772  0.7192  0.5717
 3531SOL     OW22054   4.479   2.428   4.603  0.3935 -0.0916  0.1959
 3531SOL    HW122055   4.414   2.499   4.610  1.6680  1.1181 -0.2849
 3531SOL    HW222056   4.466   2.412   4.510  1.5514 -1.5829  0.3085
 3532SOL     OW22057   1.902   1.462   5.295 -0.2903  0.2905  0.3464
 3532SOL    HW122058   1.931   1.487   5.383  0.7308 -0.5445  0.2409
 3532SOL    HW222059   1.953   1.517   5.236 -0.8207  0.4056 -0.0068
 3533SOL     OW22060   2.097   3.333   7.383  0.1254 -0.2555  0.2010
 3533SOL    HW122061   2.121   3.416   7.343  1.1542 -0.7668 -0.2391
 3533SOL    HW222062   2.047   3.288   7.315  0.6078 -0.8028  0.2157
 3534SOL     OW22063   2.771   2.947   7.946  0.1230 -0.9072 -0.1055
 3534SOL    HW122064   2.805   2.884   8.010  0.2903 -2.0234 -1.3021
 3534SOL    HW222065   2.680   2.953   7.976  0.1951 -0.6486  0.0593
 3535SOL     OW22066   4.322   0.410   3.988  0.1573  0.4599  0.4091
 3535SOL    HW122067   4.311   0.504   3.971  0.0732  0.2698 -0.5570
 3535SOL    HW222068   4.246   0.380   3.938  0.1207 -1.2610  1.5065
 3536SOL     OW22069   0.775   2.690   7.492  0.0165 -0.2716  0.6180
 3536SOL    HW122070   0.840   2.622   7.472 -0.1419 -0.5066  0.8916
 3536SOL    HW222071   0.787   2.708   7.585  2.1706  0.2742  0.2455
 3537SOL     OW22072   1.059   2.539   3.020  0.0048 -0.1025 -0.1998
 3537SOL    HW122073   1.106   2.470   3.067  0.3361  0.7152  0.6828
 3537SOL    HW222074   1.031   2.594   3.093 -0.7704 -1.9029  0.8602
 3538SOL     OW22075   0.400   1.332   3.654 -0.2888 -0.3696 -0.4359
 3538SOL    HW122076   0.489   1.359   3.677 -1.1225  0.4455  1.7496
 3538SOL    HW222077   0.358   1.407   3.610 -0.6917 -1.1046 -1.3137
 3539SOL     OW22078   2.948   3.149   7.797 -0.1804  0.0482  0.7033
 3539SOL    HW122079   2.993   3.166   7.879  1.2195 -0.6150  0.0661
 3539SOL    HW222080   2.883   3.086   7.831 -1.0581  1.2550  1.2562
 3540SOL     OW22081   2.488   3.024  14.083 -0.4021  0.2676 -0.2798
 3540SOL    HW122082   2.479   2.988  13.995 -1.2378 -0.9608  0.2991
 3540SOL    HW222083   2.423   3.094  14.078 -0.7544  0.0094  0.6291
 3541SOL     OW22084   0.569   2.619  15.707 -0.0066 -0.3659 -0.0394
 3541SOL    HW122085   0.521   2.574  15.639 -0.5327 -0.4987  0.4182
 3541SOL    HW222086   0.533   2.708  15.708  3.0796  0.8853  1.2391
 3542SOL     OW22087   0.398   4.127   8.281  0.8258 -0.7998 -0.4196
 3542SOL    HW122088   0.371   4.219   8.286  0.4594 -0.8225 -2.0547
 3542SOL    HW222089   0.316   4.084   8.306 -1.0691  1.0950 -3.4370
 3543SOL     OW22090   0.551   1.933  16.758 -0.0954  0.5093  0.4171
 3543SOL    HW122091   0.554   1.928  16.854  2.0698 -0.3893  0.3004
 3543SOL    HW222092   0.555   2.026  16.739  1.4825  0.0557 -1.3617
 3544SOL     OW22093   3.206   4.083   4.047  0.2944 -0.1007  0.2761
 3544SOL    HW122094   3.253   4.160   4.078  0.3201  0.1456 -0.3739
 3544SOL    HW222095   3.198   4.117   3.958 -0.9857  2.0072  1.1815
 3545SOL     OW22096   1.554   1.941   8.592  0.4762 -0.3374  0.1582
 3545SOL    HW122097   1.576   2.027   8.628 -1.4140  0.0536  0.4056
 3545SOL    HW222098   1.642   1.915   8.565  1.3515  1.1122  1.5609
 3546SOL     OW22099   3.509   4.521   8.915 -0.2798  0.7169  0.0516
 3546SOL    HW122100   3.531   4.580   8.843 -2.4421  0.0811 -1.1194
 3546SOL    HW222101   3.432   4.472   8.886  1.8179 -1.4175 -1.9161
 3547SOL     OW22102   4.582   1.542   8.212 -0.1638 -1.0363 -0.6379
 3547SOL    HW122103   4.560   1.627   8.175 -0.3170 -0.7947  0.0123
 3547SOL    HW222104   4.526   1.476   8.170 -2.3055  0.6210 -0.3187
 3548SOL     OW22105   0.806   4.708   5.250  0.0948  0.0872  0.2261
 3548SOL    HW122106   0.887   4.673   5.289  0.5060  0.7292 -0.0564
 3548SOL    HW222107   0.830   0.002   5.158  1.5613  1.6795  0.8419
 3549SOL     OW22108   2.526   2.668   5.821  0.2696  0.9970 -0.9503
 3549SOL    HW122109   2.602   2.648   5.875  0.2440  0.0285 -1.2692
 3549SOL    HW222110   2.480   2.584   5.816  0.2600  0.8729  1.3266
 3550SOL     OW22111   0.698   0.533  10.756 -0.2100  0.0554 -0.3068
 3550SOL    HW122112   0.679   0.548  10.664  0.1669  0.0480 -0.3866
 3550SOL    HW222113   0.613   0.554  10.794 -0.0999 -0.4762  0.2404
 3551SOL     OW22114   2.155   3.490   3.407  0.6079 -0.2734 -0.2270
 3551SOL    HW122115   2.134   3.465   3.497  1.5655  0.5832  0.2301
 3551SOL    HW222116   2.251   3.494   3.405  0.6827 -1.2198  1.3369
 3552SOL     OW22117   3.065   0.917   5.744  0.5119  0.0603  0.2562
 3552SOL    HW122118   3.146   0.866   5.738 -0.7053 -1.7790 -0.0884
 3552SOL    HW222119   3.068   0.922   5.840 -0.6749  2.6235  0.1595
 3553SOL     OW22120   2.817   1.971   9.017 -0.2581  0.3007 -0.3006
 3553SOL    HW122121   2.813   2.065   9.037 -3.1503 -0.0157  0.6434
 3553SOL    HW222122   2.904   1.982   8.978 -0.7898  0.3191 -1.5038
 3554SOL     OW22123   1.757   2.261   3.363 -0.7599 -0.3461 -0.2309
 3554SOL    HW122124   1.779   2.303   3.280 -0.5193  0.2709  0.1421
 3554SOL    HW222125   1.711   2.338   3.397  0.5159 -0.5605  1.9610
 3555SOL     OW22126   4.009   3.222  15.980  0.3281 -0.9944 -0.4245
 3555SOL    HW122127   4.090   3.189  15.940 -0.9695 -0.5524 -3.4443
 3555SOL    HW222128   4.034   3.302  16.025 -0.9394 -0.8413 -0.0016
 3556SOL     OW22129   1.382   3.815  15.242 -0.2162  0.2128 -0.2940
 3556SOL    HW122130   1.328   3.861  15.178  0.4425 -2.2298 -2.6086
 3556SOL    HW222131   1.420   3.754  15.180  2.4202 -2.5699  4.0190
 3557SOL     OW22132   4.712   2.273   5.410  0.2877 -0.1444 -0.7647
 3557SOL    HW122133   4.697   2.184   5.441  1.7526 -0.0550  0.2005
 3557SOL    HW222134   4.625   2.312   5.416 -0.2060 -1.2018 -1.1196
 3558SOL     OW22135   3.118   0.672   5.020  0.1172 -0.1114  0.3047
 3558SOL    HW122136   3.078   0.594   5.059  0.0853 -0.2963 -0.0934
 3558SOL    HW222137   3.042   0.700   4.968 -0.1012 -0.9113  0.1877
 3559SOL     OW22138   0.148   2.017   5.948 -0.0345 -0.0244  0.2059
 3559SOL    HW122139   0.232   2.058   5.926 -0.7962  1.4584  0.0378
 3559SOL    HW222140   0.088   2.091   5.960  0.7945  0.7419 -0.3291
 3560SOL     OW22141   2.355   3.091   8.605 -0.2751 -0.0689  0.7318
 3560SOL    HW122142   2.283   3.045   8.561  1.3895 -0.5506 -1.5079
 3560SOL    HW222143   2.377   3.023   8.669 -0.0975 -0.2009  0.5323
 3561SOL     OW22144   1.982   0.286  16.745  0.0393  0.2171  0.5048
 3561SOL    HW122145   2.049   0.263  16.809 -1.1473 -0.6432  1.4485
 3561SOL    HW222146   1.906   0.231  16.767 -1.5600  1.9812 -0.5508
 3562SOL     OW22147   1.103   4.184   8.196 -0.4201 -0.6066 -0.4317
 3562SOL    HW122148   1.094   4.240   8.273 -1.4831  0.0345 -1.0151
 3562SOL    HW222149   1.153   4.111   8.231 -2.8482 -1.4937  1.2144
 3563SOL     OW22150   2.963   1.799   0.040 -0.1303  0.4240  0.5234
 3563SOL    HW122151   3.031   1.782  17.657  0.5056  0.5886  1.1551
 3563SOL    HW222152   3.012   1.779   0.120 -0.5890 -0.2131  0.6496
 3564SOL     OW22153   1.895   1.383   8.779 -0.0149  0.1213  0.1936
 3564SOL    HW122154   1.846   1.399   8.699  0.9090  2.4156  0.1041
 3564SOL    HW222155   1.838   1.417   8.848  0.8415  0.9410  0.4988
 3565SOL     OW22156   4.389   0.524   6.337  0.2990  0.0199 -0.1878
 3565SOL    HW122157   4.441   0.568   6.270  1.3725  0.0290  0.6637
 3565SOL    HW222158   4.423   0.435   6.338  0.2903  0.0305  1.0107
 3566SOL     OW22159   4.190   3.050   3.773  0.2906  0.7387  0.0198
 3566SOL    HW122160   4.171   3.143   3.781 -1.0808  0.5854 -1.4082
 3566SOL    HW222161   4.110   3.014   3.812  0.7249  1.4327  1.5406
 3567SOL     OW22162   2.278   0.676  13.642  0.1035  0.1309 -0.0958
 3567SOL    HW122163   2.323   0.629  13.572 -0.0976  2.4102 -1.7579
 3567SOL    HW222164   2.304   0.767  13.631  0.1610  0.1368  0.0884
 3568SOL     OW22165   3.243   1.877   4.743  0.1687  0.4842 -0.2546
 3568SOL    HW122166   3.148   1.864   4.750  0.0232  2.4131  1.1368
 3568SOL    HW222167   3.274   1.882   4.833  1.5798 -0.1832 -0.7070
 3569SOL     OW22168   1.588   3.914  17.571  0.3716 -0.2910 -0.0646
 3569SOL    HW122169   1.549   3.831  17.599 -0.4639  0.0296 -0.2821
 3569SOL    HW222170   1.682   3.898  17.581  0.7113  0.1044 -2.5294
 3570SOL     OW22171   2.131   3.027  13.711  0.1832  0.0056 -0.0394
 3570SOL    HW122172   2.094   3.108  13.676 -1.9765 -0.9388  0.0727
 3570SOL    HW222173   2.178   2.987  13.638 -3.9612 -2.3774 -1.3786
 3571SOL     OW22174   3.257   2.689   1.774  0.0073  0.0703  0.7240
 3571SOL    HW122175   3.188   2.696   1.840 -0.3719 -0.8881  0.4343
 3571SOL    HW222176   3.274   2.782   1.764  0.9994 -0.3227 -1.3880
 3572SOL     OW22177   4.497   0.570   8.398 -0.0953  0.0088  0.0960
 3572SOL    HW122178   4.454   0.587   8.314 -0.0289  3.4458  0.7728
 3572SOL    HW222179   4.470   0.643   8.454  1.2166 -0.2041  0.9952
 3573SOL     OW22180   2.493   0.718   3.631  0.5076  0.0967  0.0425
 3573SOL    HW122181   2.422   0.705   3.694  0.0627 -0.5350 -0.5968
 3573SOL    HW222182   2.458   0.670   3.556 -1.9238 -0.1211  1.3355
 3574SOL     OW22183   3.308   1.510   7.070  0.4448 -0.0784  0.2326
 3574SOL    HW122184   3.223   1.465   7.076  0.8872 -0.8687  0.6528
 3574SOL    HW222185   3.269   1.597   7.069 -0.7955 -0.6322  0.3056
 3575SOL     OW22186   0.371   3.078   6.764 -0.1079  0.4873 -0.4816
 3575SOL    HW122187   0.287   3.124   6.757  0.3790  1.4337 -0.0017
 3575SOL    HW222188   0.356   2.995   6.811 -2.3855  0.4078 -1.3450
 3576SOL     OW22189   3.246   3.370   3.987 -0.1323 -0.0549 -0.1643
 3576SOL    HW122190   3.279   3.456   4.014 -1.6698 -0.2443  2.3187
 3576SOL    HW222191   3.165   3.408   3.954  1.2216  0.6835 -2.6607
 3577SOL     OW22192   0.886   0.827   2.824 -0.0575 -0.2808 -0.1402
 3577SOL    HW122193   0.946   0.901   2.835  0.3286 -0.4631 -0.9577
 3577SOL    HW222194   0.812   0.846   2.882  0.5080  3.9169 -0.8058
 3578SOL     OW22195   1.498   1.509  15.410  0.3955  0.7719  0.3854
 3578SOL    HW122196   1.405   1.493  15.427 -0.0877  2.7662 -0.4366
 3578SOL    HW222197   1.538   1.432  15.451  0.9040  1.2423  0.7613
 3579SOL     OW22198   2.253   3.554  13.462 -0.1737  0.0952  0.1592
 3579SOL    HW122199   2.299   3.476  13.493  0.7101  0.9026  0.8781
 3579SOL    HW222200   2.307   3.626  13.497 -0.0631 -0.1974  0.5883
 3580SOL     OW22201   2.837   2.792   7.036  0.0779 -0.8852  0.4354
 3580SOL    HW122202   2.769   2.831   7.092 -1.1279 -1.9106 -0.3221
 3580SOL    HW222203   2.920   2.819   7.073  1.1762 -0.9134 -2.0648
 3581SOL     OW22204   2.277   1.922   6.145  0.1114  0.1329  0.2743
 3581SOL    HW122205   2.350   1.861   6.151 -0.2366 -0.1788  1.2627
 3581SOL    HW222206   2.321   2.007   6.142  0.2369  0.1338  1.9939
 3582SOL     OW22207   3.588   0.919   4.964  0.6883 -0.4689 -0.2749
 3582SOL    HW122208   3.645   0.887   5.033 -0.3718 -1.9548 -0.0796
 3582SOL    HW222209   3.533   0.841   4.957  3.1343 -2.1258 -1.0346
 3583SOL     OW22210   2.563   2.270   5.961 -0.3245 -0.4027  0.0303
 3583SOL    HW122211   2.654   2.282   5.934 -0.8357  1.1336 -1.0652
 3583SOL    HW222212   2.528   2.231   5.881 -0.4024  0.0627 -0.1658
 3584SOL     OW22213   1.521   2.338  17.557 -0.0208  0.3490 -0.1233
 3584SOL    HW122214   1.604   2.353  17.601  0.1551 -1.3283  0.1217
 3584SOL    HW222215   1.458   2.381  17.615 -0.7780 -1.2683  0.2447
 3585SOL     OW22216   2.866   4.405  16.281 -0.6270  0.0621  0.4490
 3585SOL    HW122217   2.809   4.405  16.204  0.2787  1.8061 -0.2162
 3585SOL    HW222218   2.901   4.316  16.292 -3.2424 -0.8740  1.1239
 3586SOL     OW22219   3.111   3.647   8.401 -0.3356 -0.2658  0.4461
 3586SOL    HW122220   3.174   3.660   8.473 -0.3319  0.2161  0.3513
 3586SOL    HW222221   3.105   3.739   8.377  1.2698  0.8798  4.3930
 3587SOL     OW22222   3.619   3.615   2.460  0.1540  0.1637 -0.1033
 3587SOL    HW122223   3.689   3.657   2.410 -2.4629  0.3602 -3.6015
 3587SOL    HW222224   3.640   3.522   2.461 -1.3822 -0.1747  1.3195
 3588SOL     OW22225   0.142   1.179  11.163  0.1414  0.3168  0.6572
 3588SOL    HW122226   0.190   1.120  11.105  0.2764  0.3631  0.7195
 3588SOL    HW222227   0.073   1.211  11.105  1.4532 -1.3948 -1.7963
 3589SOL     OW22228   0.492   0.887   8.597 -0.3474 -0.6578 -0.8799
 3589SOL    HW122229   0.429   0.894   8.668 -0.7794  0.6579 -1.3992
 3589SOL    HW222230   0.550   0.959   8.621 -2.1641  0.8316 -0.9420
 3590SOL     OW22231   3.864   2.452   3.325 -0.0144 -0.3474  0.2565
 3590SOL    HW122232   3.908   2.449   3.240  0.3765 -2.3582  0.5330
 3590SOL    HW222233   3.936   2.500   3.366  0.3989 -0.1749 -0.6771
 3591SOL     OW22234   2.970   3.066   2.906 -0.3472  0.4641 -0.8724
 3591SOL    HW122235   3.051   3.016   2.896  0.6036  1.7876  0.2872
 3591SOL    HW222236   3.014   3.145   2.876 -1.6644  2.1543  1.6429
 3592SOL     OW22237   1.613   2.921   3.054  0.2493 -0.0107 -0.9137
 3592SOL    HW122238   1.636   2.846   3.000  1.6627  0.2907 -0.7376
 3592SOL    HW222239   1.702   2.950   3.075 -0.3029  0.6894  0.4707
 3593SOL     OW22240   2.367   3.884  12.428 -0.4057 -0.0967 -0.0906
 3593SOL    HW122241   2.300   3.939  12.467 -0.2068  1.3483 -1.8098
 3593SOL    HW222242   2.443   3.917  12.477 -0.6004  0.9465 -0.5081
 3594SOL     OW22243   4.509   2.612   8.713 -0.0575  0.4271  0.2259
 3594SOL    HW122244   4.578   2.547   8.700 -0.2175  0.3333 -0.1406
 3594SOL    HW222245   4.563   2.690   8.702 -0.8489  0.6951 -1.7549
 3595SOL     OW22246   3.374   3.761   7.918 -0.1811  0.5556  0.1458
 3595SOL    HW122247   3.461   3.775   7.879 -0.9765  2.5785 -0.9098
 3595SOL    HW222248   3.325   3.822   7.862 -1.2294  0.8313  1.3800
 3596SOL     OW22249   2.405   2.395  16.380  0.0908  0.0405 -0.3470
 3596SOL    HW122250   2.467   2.380  16.308 -0.2084 -0.9166 -0.4112
 3596SOL    HW222251   2.449   2.360  16.458 -0.4702  0.3748  0.1123
 3597SOL     OW22252   4.674   1.545  15.480 -0.2766 -0.8173 -0.0829
 3597SOL    HW122253   4.708   1.630  15.452 -0.4192 -1.1122 -1.1598
 3597SOL    HW222254   4.617   1.565  15.554 -2.2578  0.1253 -1.8373
 3598SOL     OW22255   4.543   4.437  15.947  0.1319  0.0031  0.4915
 3598SOL    HW122256   4.529   4.412  15.856 -1.1990 -0.4312  0.8105
 3598SOL    HW222257   4.458   4.473  15.973  0.2368  0.8489 -0.3361
 3599SOL     OW22258   2.465   3.913  15.638  0.7928  0.7313  0.1539
 3599SOL    HW122259   2.524   3.923  15.713  3.1550 -0.2588 -1.5760
 3599SOL    HW222260   2.430   3.824  15.645 -0.0731  0.9771 -0.9843
 3600SOL     OW22261   2.087   1.889   4.916  0.4865 -0.0976  0.3228
 3600SOL    HW122262   2.053   1.800   4.919 -2.3914  0.9356 -1.2951
 3600SOL    HW222263   2.014   1.936   4.876  0.3760 -0.7327 -0.2239
 3601SOL     OW22264   2.814   2.830  10.933 -0.0038  0.2790  0.1050
 3601SOL    HW122265   2.742   2.775  10.904 -0.4995  0.9878 -0.0163
 3601SOL    HW222266   2.875   2.764  10.967 -0.8986  0.2915  1.7486
 3602SOL     OW22267   0.144   3.151   7.685 -0.0901  0.2499 -0.4966
 3602SOL    HW122268   0.135   3.218   7.752 -1.8936 -0.6963  0.2041
 3602SOL    HW222269   0.116   3.071   7.729 -0.3251  0.8996  0.5346
 3603SOL     OW22270   2.022   0.670  10.024  0.2141 -0.4621 -0.0728
 3603SOL    HW122271   2.084   0.604   9.992  0.3571  1.2337 -3.3596
 3603SOL    HW222272   2.077   0.748  10.014 -4.4465  2.5450 -2.0743
 3604SOL     OW22273   2.877   4.667   7.984 -0.0326  0.5051  0.4184
 3604SOL    HW122274   2.926   4.611   8.044  1.6134  0.1441 -1.2966
 3604SOL    HW222275   2.791   4.636   8.012  0.2445  0.0635  0.7790
 3605SOL     OW22276   1.903   1.788   6.691  0.2560  0.0167 -0.3590
 3605SOL    HW122277   1.843   1.763   6.761  0.4239  0.2122 -0.1432
 3605SOL    HW222278   1.915   1.877   6.725  1.7092  0.0512 -0.9597
 3606SOL     OW22279   0.096   1.798   6.803  0.5220 -0.2116 -0.1667
 3606SOL    HW122280   0.079   1.722   6.857  1.4126  0.2744  0.7933
 3606SOL    HW222281   0.134   1.757   6.725 -0.9984 -3.2750  0.7132
 3607SOL     OW22282   3.694   0.558   3.902 -0.6344  0.0473  0.2326
 3607SOL    HW122283   3.749   0.636   3.910  1.1437 -1.3602  1.7516
 3607SOL    HW222284   3.611   0.597   3.875 -1.3368 -2.9244 -1.9088
 3608SOL     OW22285   0.151   0.511  12.691  0.0111 -0.5802 -0.4283
 3608SOL    HW122286   0.111   0.591  12.659  0.2446 -0.5426 -0.6270
 3608SOL    HW222287   0.244   0.531  12.703  0.0607 -0.3942 -1.1738
 3609SOL     OW22288   3.291   2.633   3.365  0.5649 -0.4506 -0.2951
 3609SOL    HW122289   3.195   2.634   3.360  0.5907 -1.9358 -0.9324
 3609SOL    HW222290   3.312   2.548   3.329  0.7914 -0.1282 -0.9115
 3610SOL     OW22291   1.050   1.161   6.427 -0.0026  0.0552  0.2535
 3610SOL    HW122292   0.992   1.224   6.385 -0.2126 -0.5933 -0.4364
 3610SOL    HW222293   1.075   1.204   6.509 -0.5738 -0.5767  0.7536
 3611SOL     OW22294   4.586   1.729  14.295  0.5947 -0.9712 -0.5968
 3611SOL    HW122295   4.604   1.741  14.202  0.7074  1.4365 -0.2635
 3611SOL    HW222296   4.650   1.659  14.307  0.7044 -0.7396  0.1603
 3612SOL     OW22297   2.446   1.243   3.917 -0.5335  0.4509  0.0662
 3612SOL    HW122298   2.437   1.170   3.855 -1.6792  0.0798  0.6701
 3612SOL    HW222299   2.474   1.196   3.995 -0.9340 -2.8471 -1.7668
 3613SOL     OW22300   0.654   4.702   3.005  0.0619 -0.5905  0.2464
 3613SOL    HW122301   0.664   4.625   2.948  2.8450 -0.9849  1.3019
 3613SOL    HW222302   0.669   0.059   2.950 -1.7992 -1.1362 -1.0409
 3614SOL     OW22303   2.776   2.493   3.335 -0.2039 -0.0102 -0.1776
 3614SOL    HW122304   2.706   2.544   3.376  1.3097  1.6928  0.3146
 3614SOL    HW222305   2.747   2.478   3.245  2.2805  4.6019 -1.7280
 3615SOL     OW22306   3.666   2.718   1.015  0.5978 -0.0466 -0.2087
 3615SOL    HW122307   3.675   2.742   0.923  0.7218 -0.0455 -0.1969
 3615SOL    HW222308   3.760   2.723   1.033  0.4655 -0.5141  0.5920
 3616SOL     OW22309   3.312   3.576   2.720 -0.1900  0.4472  0.0080
 3616SOL    HW122310   3.232   3.598   2.768 -0.3146  0.2848 -0.1230
 3616SOL    HW222311   3.294   3.631   2.644  1.4009 -0.2610 -0.8896
 3617SOL     OW22312   3.660   4.141   2.131 -0.0332 -0.0340 -0.4253
 3617SOL    HW122313   3.664   4.222   2.182 -1.5936 -0.3084  0.1616
 3617SOL    HW222314   3.688   4.182   2.049 -2.1587  0.1569 -1.0704
 3618SOL     OW22315   1.763   0.805   3.066  0.2746  0.3225  0.0548
 3618SOL    HW122316   1.750   0.718   3.105 -0.7323  0.5383  0.1975
 3618SOL    HW222317   1.821   0.847   3.130 -0.6418  0.1398  0.9994
 3619SOL     OW22318   3.239   4.304  14.452  0.2755  0.7770  0.2879
 3619SOL    HW122319   3.198   4.368  14.510 -0.3077  0.1557  0.5565
 3619SOL    HW222320   3.195   4.225  14.482  0.9803 -0.5114 -2.0394
 3620SOL     OW22321   4.279   0.688   5.604 -0.0265 -0.1259  0.2259
 3620SOL    HW122322   4.333   0.609   5.604 -0.8241 -0.6672 -0.3513
 3620SOL    HW222323   4.325   0.752   5.549 -0.0072 -1.8161 -1.7534
 3621SOL     OW22324   1.953   0.083  15.139  0.3652  0.1986  0.3699
 3621SOL    HW122325   2.002   0.076  15.057 -0.0200  0.7354  0.1001
 3621SOL    HW222326   1.996   0.156  15.183  1.2533 -0.7106  1.0249
 3622SOL     OW22327   0.921   1.370  16.032  0.4181  0.1007 -0.0399
 3622SOL    HW122328   0.904   1.281  16.062  0.0820 -0.1180 -0.8832
 3622SOL    HW222329   0.835   1.378  15.991 -0.2251 -2.0194  0.8787
 3623SOL     OW22330   0.723   3.309   2.897 -0.4525 -0.1574 -0.0250
 3623SOL    HW122331   0.748   3.398   2.870  1.0975 -0.6916 -0.3100
 3623SOL    HW222332   0.788   3.263   2.844  0.0956  0.4059  0.1561
 3624SOL     OW22333   3.467   0.206   2.792  0.1074 -0.0490  0.2086
 3624SOL    HW122334   3.404   0.141   2.825 -1.3397  1.5210  0.5542
 3624SOL    HW222335   3.499   0.160   2.714 -1.3532 -2.6630  1.1206
 3625SOL     OW22336   0.867   2.991   9.734  0.3199 -0.2468  0.7811
 3625SOL    HW122337   0.834   3.075   9.701 -0.7050 -0.6437  0.8009
 3625SOL    HW222338   0.962   3.002   9.740  0.2496  1.7639 -1.9426
 3626SOL     OW22339   1.252   1.452   6.932 -0.0613 -0.3709  0.1021
 3626SOL    HW122340   1.306   1.415   7.002 -1.8156 -0.2191  1.5579
 3626SOL    HW222341   1.204   1.527   6.968 -0.7445 -1.2002  0.9175
 3627SOL     OW22342   1.463   0.770   2.094 -0.0149 -0.1642  0.6497
 3627SOL    HW122343   1.556   0.758   2.075 -0.5440  0.1330 -2.1151
 3627SOL    HW222344   1.444   0.689   2.141 -1.5467  0.5902  1.3134
 3628SOL     OW22345   2.681   3.431   0.501  0.1782 -0.4364  0.2085
 3628SOL    HW122346   2.660   3.460   0.413  0.7606 -3.6039 -0.9713
 3628SOL    HW222347   2.606   3.372   0.514 -1.9415  1.5066 -3.2093
 3629SOL     OW22348   3.790   1.865   1.606 -0.2518 -0.3866 -0.2013
 3629SOL    HW122349   3.763   1.954   1.586 -1.3650 -0.5760  0.4809
 3629SOL    HW222350   3.766   1.808   1.533 -2.3137  0.9489 -0.5392
 3630SOL     OW22351   0.537   0.960   8.320 -0.5444  0.4409 -0.0541
 3630SOL    HW122352   0.545   0.914   8.404 -1.5303  0.6674  0.1760
 3630SOL    HW222353   0.443   0.978   8.311 -0.6222  1.1909  2.1734
 3631SOL     OW22354   1.164   3.212   3.236 -0.5955  0.0356  0.3355
 3631SOL    HW122355   1.221   3.195   3.161  0.7365  0.3698  1.2588
 3631SOL    HW222356   1.129   3.299   3.216  1.0193  0.8930  1.2027
 3632SOL     OW22357   3.041   3.645  12.988 -0.1114  0.3967 -0.1573
 3632SOL    HW122358   3.063   3.685  13.072  1.1232 -1.3130  0.3321
 3632SOL    HW222359   3.087   3.562  13.002  0.5464  0.4248 -2.1484
 3633SOL     OW22360   4.263   3.456   8.136 -0.7623 -0.1755 -0.5661
 3633SOL    HW122361   4.189   3.396   8.132 -1.7776  0.9794  0.7087
 3633SOL    HW222362   4.334   3.402   8.102 -0.1618  0.0197  0.3643
 3634SOL     OW22363   1.822   4.320  15.872 -0.0948  0.0341 -0.1364
 3634SOL    HW122364   1.899   4.373  15.889 -0.5599  0.6186  0.1648
 3634SOL    HW222365   1.759   4.390  15.890  1.4142  1.0176  1.2810
 3635SOL     OW22366   0.592   0.583   2.854  0.0762  0.2472 -0.7310
 3635SOL    HW122367   0.572   0.492   2.831 -1.1755  0.5214 -0.7317
 3635SOL    HW222368   0.593   0.583   2.950  1.2375 -0.5755 -0.7348
 3636SOL     OW22369   1.372   0.431   4.215  0.6985  0.3025 -0.6430
 3636SOL    HW122370   1.332   0.470   4.293 -0.1439  3.5753 -2.6889
 3636SOL    HW222371   1.318   0.354   4.200 -0.7403  0.7459  2.2596
 3637SOL     OW22372   1.339   4.278   4.202 -0.1363  0.9772 -0.1681
 3637SOL    HW122373   1.320   4.239   4.288 -0.4617  0.1609 -0.6162
 3637SOL    HW222374   1.253   4.320   4.191 -0.6757 -0.6958 -2.2529
 3638SOL     OW22375   0.382   3.343   4.670 -0.3557  0.4464  0.2513
 3638SOL    HW122376   0.296   3.346   4.712 -0.3612 -0.2155  0.2918
 3638SOL    HW222377   0.404   3.251   4.687  1.7151  0.7612 -0.7017
 3639SOL     OW22378   1.000   1.495   4.174 -0.2072 -0.3313 -0.3247
 3639SOL    HW122379   0.965   1.454   4.254 -0.6727 -0.7346 -0.7367
 3639SOL    HW222380   1.092   1.508   4.198  0.6185 -3.7280 -1.5374
 3640SOL     OW22381   0.822   3.870  14.023  0.0165 -0.3919  0.0919
 3640SOL    HW122382   0.872   3.849  14.102 -0.5559  1.4050  0.9429
 3640SOL    HW222383   0.730   3.863  14.050 -0.2642 -0.3369 -0.8660
 3641SOL     OW22384   4.351   1.590   5.724  0.2276  0.0162 -0.2763
 3641SOL    HW122385   4.340   1.496   5.707 -0.5805 -0.2967  1.9339
 3641SOL    HW222386   4.341   1.631   5.638 -0.8059 -0.1338 -0.2304
 3642SOL     OW22387   4.553   0.434   8.635  0.4601 -0.0710  0.5139
 3642SOL    HW122388   4.478   0.459   8.690  1.8228 -0.9787  2.7965
 3642SOL    HW222389   4.526   0.476   8.554 -1.0441 -0.4457  0.8143
 3643SOL     OW22390   3.793   1.097   6.536 -0.2452  0.4607  0.2476
 3643SOL    HW122391   3.866   1.055   6.582 -0.5664  0.6093  0.8902
 3643SOL    HW222392   3.713   1.050   6.562 -0.3911  0.3917 -0.3252
 3644SOL     OW22393   2.349   3.337   7.149  0.0769  0.7698 -0.2549
 3644SOL    HW122394   2.379   3.309   7.063 -2.7257 -1.0893 -0.6339
 3644SOL    HW222395   2.255   3.333   7.134 -0.0633 -1.4798  1.2691
 3645SOL     OW22396   2.029   2.853  12.511 -0.4610 -0.1106 -0.1791
 3645SOL    HW122397   2.102   2.913  12.527  0.9817 -2.3370  1.5964
 3645SOL    HW222398   2.036   2.803  12.593 -0.7709  2.2356  1.2803
 3646SOL     OW22399   3.133   0.619   3.770  0.6155 -0.1848  0.5087
 3646SOL    HW122400   3.137   0.702   3.723  1.2863  1.4112  3.4063
 3646SOL    HW222401   3.123   0.548   3.706  2.0163 -0.3739  0.4805
 3647SOL     OW22402   3.668   1.852   4.120  0.1896 -0.0745  0.2143
 3647SOL    HW122403   3.733   1.785   4.143 -0.9455 -0.9147  0.9930
 3647SOL    HW222404   3.584   1.808   4.136 -0.2567  0.4346 -0.7388
 3648SOL     OW22405   3.195   0.325   5.556  0.0252 -0.2194  0.5795
 3648SOL    HW122406   3.161   0.260   5.618 -3.1878  0.7069 -0.2091
 3648SOL    HW222407   3.244   0.390   5.605 -1.8950  0.5397  1.4947
 3649SOL     OW22408   0.057   0.074   5.427 -0.0494 -0.1426  0.0664
 3649SOL    HW122409   0.059   0.018   5.349  1.8022  0.5365 -0.3766
 3649SOL    HW222410   0.117   0.031   5.487 -1.6268 -1.8658  0.3938
 3650SOL     OW22411   3.870   4.685   2.024 -0.1669 -0.4297 -0.3113
 3650SOL    HW122412   3.939   4.633   1.982  0.8391  1.3771 -0.9018
 3650SOL    HW222413   3.860   0.035   1.959  0.2023 -0.6965 -0.6537
 3651SOL     OW22414   4.012   1.222   6.415  0.1319  0.1996 -0.9200
 3651SOL    HW122415   3.931   1.182   6.448 -1.0865  3.6268  0.2431
 3651SOL    HW222416   4.074   1.205   6.486 -0.4198  2.5338  0.1238
 3652SOL     OW22417   1.361   2.422  13.604 -0.2520  0.2956  0.0389
 3652SOL    HW122418   1.429   2.387  13.547 -0.8838  1.0990 -1.2112
 3652SOL    HW222419   1.315   2.481  13.543 -0.0539  0.8020  0.3787
 3653SOL     OW22420   1.974   3.748   0.527  0.5328  0.4174 -0.0552
 3653SOL    HW122421   2.003   3.839   0.521 -0.1081  0.7046  1.1718
 3653SOL    HW222422   1.886   3.756   0.490  0.7086  0.2605 -0.5079
 3654SOL     OW22423   4.652   1.822   9.309  0.1913 -0.0731  0.6024
 3654SOL    HW122424   4.583   1.871   9.353 -0.5927 -1.1045  0.5285
 3654SOL    HW222425   4.608   1.771   9.241  0.0807  1.0909 -0.2024
 3655SOL     OW22426   1.560   2.724   2.845 -0.3015  0.0076  0.4353
 3655SOL    HW122427   1.551   2.732   2.750  0.2205  0.0634  0.3950
 3655SOL    HW222428   1.469   2.732   2.875  0.4577  1.1764  2.4270
 3656SOL     OW22429   1.669   1.525   1.177  0.1779 -0.0097  0.0599
 3656SOL    HW122430   1.577   1.525   1.204  0.0557 -2.5263 -0.3059
 3656SOL    HW222431   1.726   1.467   1.227 -1.8123 -1.3812  0.7457
 3657SOL     OW22432   1.135   2.908   8.692 -0.7368  0.0276 -0.0485
 3657SOL    HW122433   1.074   2.952   8.751  1.0268 -1.0024  2.5404
 3657SOL    HW222434   1.190   2.863   8.756  0.5184  0.1579 -1.0330
 3658SOL     OW22435   1.481   2.266   6.884 -0.0585 -0.2770  0.0273
 3658SOL    HW122436   1.548   2.332   6.865 -0.5844  0.2814  0.0968
 3658SOL    HW222437   1.403   2.323   6.879 -0.9860 -1.6326 -0.8769
 3659SOL     OW22438   4.474   1.952   2.991  0.0200  0.2598  0.1320
 3659SOL    HW122439   4.491   2.043   3.015 -1.5466  0.5748  0.0209
 3659SOL    HW222440   4.380   1.952   2.974  0.3195 -1.7886 -1.5773
 3660SOL     OW22441   3.301   1.578   2.923 -0.5724  0.5264  0.5773
 3660SOL    HW122442   3.353   1.500   2.903 -3.0219 -0.5533 -1.5635
 3660SOL    HW222443   3.236   1.588   2.854 -1.7595 -2.4558  1.2579
 3661SOL     OW22444   1.077   3.825  10.103 -0.0185  0.0044 -0.2159
 3661SOL    HW122445   1.147   3.888  10.086 -0.1553 -0.1696 -1.4289
 3661SOL    HW222446   1.087   3.764  10.030 -1.0602 -0.4187 -0.0107
 3662SOL     OW22447   1.810   0.802   7.577  0.1252  0.5822 -0.2827
 3662SOL    HW122448   1.798   0.777   7.669  0.5630 -0.8596 -0.6189
 3662SOL    HW222449   1.720   0.824   7.554  0.2388  0.8429 -0.4728
 3663SOL     OW22450   1.868   1.607   7.331 -0.0799  0.1713 -0.2642
 3663SOL    HW122451   1.929   1.677   7.308  0.4924 -0.9793 -2.2595
 3663SOL    HW222452   1.917   1.530   7.358  0.9689  0.5205 -1.1887
 3664SOL     OW22453   1.270   0.297   3.505  0.1529  0.5575 -0.3062
 3664SOL    HW122454   1.243   0.378   3.464 -1.3965 -0.1369 -0.6404
 3664SOL    HW222455   1.226   0.235   3.447  0.3260 -0.4314  0.6000
 3665SOL     OW22456   1.533   4.660  11.526  0.1649  0.0412 -0.2991
 3665SOL    HW122457   1.536   4.626  11.437 -0.8888 -1.6513  0.3145
 3665SOL    HW222458   1.591   0.016  11.534  0.0956  0.0009  0.6106
 3666SOL     OW22459   0.011   1.493  16.423 -0.2172 -0.7979 -0.3392
 3666SOL    HW122460   0.100   1.484  16.390  0.1747 -0.3638  0.5881
 3666SOL    HW222461   4.685   1.542  16.355  0.2905  2.8132  1.9224
 3667SOL     OW22462   1.616   0.247   7.328 -0.1903  0.1745  0.2221
 3667SOL    HW122463   1.621   0.172   7.269 -1.8103  1.0065 -0.9678
 3667SOL    HW222464   1.627   0.328   7.279  0.5902  1.5705  2.6999
 3668SOL     OW22465   2.977   1.854  12.872 -0.0102  0.0737 -0.3912
 3668SOL    HW122466   3.068   1.879  12.855  0.0344  0.6511  0.7410
 3668SOL    HW222467   2.992   1.860  12.966  1.1764 -3.4249 -0.3285
 3669SOL     OW22468   1.909   3.815   2.402 -0.3734 -0.4163  0.2460
 3669SOL    HW122469   1.911   3.751   2.474  0.5178  0.0378  0.6270
 3669SOL    HW222470   1.814   3.827   2.398 -0.1941  0.5312 -0.8776
 3670SOL     OW22471   2.593   1.625  13.412  0.4078  0.0558 -0.2455
 3670SOL    HW122472   2.511   1.576  13.408 -0.0472  0.9187 -1.5268
 3670SOL    HW222473   2.580   1.720  13.419 -0.8696 -0.2577  1.4446
 3671SOL     OW22474   4.706   2.362  10.872 -0.3454 -0.2630  0.2667
 3671SOL    HW122475   0.025   2.274  10.875 -0.6457 -0.2855  2.9751
 3671SOL    HW222476   4.615   2.345  10.895 -0.6097 -1.9959 -2.0479
 3672SOL     OW22477   2.517   0.109   4.375  0.0888 -0.2477  0.1343
 3672SOL    HW122478   2.516   0.014   4.376  1.7176 -0.2767 -1.6644
 3672SOL    HW222479   2.486   0.119   4.465  0.0206  1.6184 -0.0952
 3673SOL     OW22480   2.674   0.648   6.618 -0.0352 -0.1343  0.7103
 3673SOL    HW122481   2.605   0.704   6.653  0.3714  0.0263  1.2633
 3673SOL    HW222482   2.648   0.558   6.637  0.0045 -0.4479 -0.7538
 3674SOL     OW22483   1.972   2.063   9.408 -0.0547  0.0972 -0.3886
 3674SOL    HW122484   1.998   1.975   9.435  1.5944  0.4909 -0.7045
 3674SOL    HW222485   1.888   2.070   9.454  0.1668  0.2116 -0.0044
 3675SOL     OW22486   4.648   0.588  15.943  0.7352  0.1820  0.6211
 3675SOL    HW122487   4.586   0.661  15.940  1.1243  0.4464 -0.7362
 3675SOL    HW222488   4.582   0.519  15.951  1.4432 -0.5719 -0.1022
 3676SOL     OW22489   0.534   3.504   4.830 -0.1991  0.4922 -0.2615
 3676SOL    HW122490   0.523   3.424   4.778 -1.0896 -0.1475  0.9283
 3676SOL    HW222491   0.623   3.486   4.859 -0.4946  0.6616  0.7198
 3677SOL     OW22492   3.090   0.074   6.096 -0.0790  0.2203  0.0641
 3677SOL    HW122493   3.016   0.059   6.037  0.9366 -0.1232 -1.0955
 3677SOL    HW222494   3.129   4.707   6.094 -0.4042  0.1466 -2.8757
 3678SOL     OW22495   2.828   0.813  12.406  0.0241 -0.2811 -0.0729
 3678SOL    HW122496   2.775   0.746  12.448  2.1412 -1.7412  0.2382
 3678SOL    HW222497   2.912   0.770  12.416 -0.1411 -0.3930  0.8092
 3679SOL     OW22498   3.274   4.350   8.759  0.3618 -0.1114  0.0361
 3679SOL    HW122499   3.339   4.292   8.720  0.5363  1.9429 -2.7642
 3679SOL    HW222500   3.201   4.290   8.744 -0.0002  0.5648 -0.9071
 3680SOL     OW22501   3.553   2.595   9.174  0.3429  0.5463 -0.3479
 3680SOL    HW122502   3.464   2.622   9.154 -0.7227 -2.5829  0.1911
 3680SOL    HW222503   3.550   2.518   9.118  1.7440 -1.3383  2.1384
 3681SOL     OW22504   0.846   3.741  16.707 -0.6638 -0.5730  0.2231
 3681SOL    HW122505   0.891   3.727  16.624  0.8332 -0.4891  1.0195
 3681SOL    HW222506   0.767   3.689  16.697 -1.4405  1.0827 -2.2653
 3682SOL     OW22507   2.285   2.902   3.003  0.3027  0.0820 -0.8897
 3682SOL    HW122508   2.360   2.958   3.024  0.0964  0.1289 -0.2947
 3682SOL    HW222509   2.295   2.819   3.050  0.2211 -0.0161 -1.0445
 3683SOL     OW22510   3.893   1.203   1.616  0.0421 -0.7362 -0.0412
 3683SOL    HW122511   3.826   1.218   1.682 -0.4304 -0.1235 -0.6545
 3683SOL    HW222512   3.977   1.236   1.648 -0.2492  0.6533 -0.7435
 3684SOL     OW22513   4.305   4.124   5.417  0.2423  0.4386  0.2233
 3684SOL    HW122514   4.249   4.195   5.450 -0.3546  1.5521 -3.1929
 3684SOL    HW222515   4.305   4.139   5.323  0.2140 -2.5299 -0.2625
 3685SOL     OW22516   4.684   2.514   4.751 -0.3144 -0.3108 -0.1063
 3685SOL    HW122517   4.618   2.452   4.720  0.1984 -1.9931  2.2151
 3685SOL    HW222518   4.637   2.597   4.740 -1.0974 -0.6075  1.0027
 3686SOL     OW22519   2.475   4.062  15.919 -0.3557 -0.4650  0.5066
 3686SOL    HW122520   2.500   4.137  15.973 -2.2251  0.2761  0.3613
 3686SOL    HW222521   2.547   4.002  15.936 -0.5188 -1.1752 -1.2894
 3687SOL     OW22522   4.677   0.253   1.518 -0.3498 -0.7102  0.1730
 3687SOL    HW122523   4.590   0.292   1.507 -0.0044  0.5120  1.7052
 3687SOL    HW222524   4.697   0.294   1.603  0.2939 -0.8079  0.0700
 3688SOL     OW22525   1.640   1.699   0.794 -0.0590  0.6161 -0.2910
 3688SOL    HW122526   1.715   1.674   0.847  0.1151  0.5647 -0.5637
 3688SOL    HW222527   1.616   1.620   0.745 -1.1439 -0.3945  1.8505
 3689SOL     OW22528   0.143   0.812  15.221  0.0767  0.0371  0.5171
 3689SOL    HW122529   0.199   0.803  15.299 -0.8467  0.6085  1.2387
 3689SOL    HW222530   0.128   0.906  15.227  0.5543  0.0555  1.4001
 3690SOL     OW22531   3.835   2.289   9.912 -0.0394 -0.1834  0.1892
 3690SOL    HW122532   3.755   2.249   9.944 -1.4914  2.8177  0.2682
 3690SOL    HW222533   3.874   2.310   9.997 -0.6969  1.9934 -0.0409
 3691SOL     OW22534   0.685   0.134   3.922 -0.8713  1.2029  0.0126
 3691SOL    HW122535   0.688   0.103   3.832 -0.1063 -0.5552  0.6380
 3691SOL    HW222536   0.765   0.095   3.957 -1.6445 -0.0817  0.3367
 3692SOL     OW22537   1.614   1.546   6.166 -0.4534 -0.1437 -0.4571
 3692SOL    HW122538   1.549   1.591   6.112  0.5935  2.9268  0.8523
 3692SOL    HW222539   1.567   1.462   6.174  0.0474 -0.2254  1.7378
 3693SOL     OW22540   0.205   2.952   4.525 -0.0563  0.9321 -0.1094
 3693SOL    HW122541   0.111   2.933   4.529  0.2295 -0.4726 -0.0807
 3693SOL    HW222542   0.210   2.984   4.435 -1.0232  0.4023 -0.3582
 3694SOL     OW22543   3.952   1.028  15.878  0.3916  0.3233 -0.0621
 3694SOL    HW122544   3.956   1.106  15.934 -0.6621  0.6641 -0.4626
 3694SOL    HW222545   3.888   0.973  15.923 -0.4371  0.4561 -1.0522
 3695SOL     OW22546   4.126   4.189   6.687  0.1153  0.2970  0.4829
 3695SOL    HW122547   4.180   4.110   6.680  0.6859  0.6305  1.0882
 3695SOL    HW222548   4.130   4.215   6.595  2.3846 -0.6394  0.3072
 3696SOL     OW22549   1.341   3.035  15.285 -0.6713  0.1341  0.0237
 3696SOL    HW122550   1.264   3.092  15.279  0.5875  1.6259 -1.7195
 3696SOL    HW222551   1.350   3.022  15.379  2.2014 -1.2496 -0.4609
 3697SOL     OW22552   1.379   3.636   1.267 -0.1520 -0.4851  0.2063
 3697SOL    HW122553   1.392   3.543   1.285 -0.1793 -0.3965  0.6810
 3697SOL    HW222554   1.338   3.639   1.180  0.8087 -1.9493 -0.2885
 3698SOL     OW22555   4.258   0.592   2.021 -0.3081 -0.1147 -0.2414
 3698SOL    HW122556   4.274   0.504   1.987 -2.9989 -1.0393  0.8962
 3698SOL    HW222557   4.346   0.611   2.055  0.1772 -1.3267 -0.8292
 3699SOL     OW22558   0.167   2.725  12.999  0.0838 -0.8856  0.0640
 3699SOL    HW122559   0.235   2.790  13.016 -1.5799  0.9629 -0.3320
 3699SOL    HW222560   0.142   2.732  12.906 -1.2969 -2.0813  0.3549
 3700SOL     OW22561   2.185   0.205   2.266  0.1549 -0.3780  0.2836
 3700SOL    HW122562   2.256   0.218   2.328 -2.0355 -0.9073  2.8914
 3700SOL    HW222563   2.166   0.112   2.273  2.1741 -0.7653  0.7241
 3701SOL     OW22564   1.575   1.638  11.729 -0.2253 -0.3435 -0.2815
 3701SOL    HW122565   1.589   1.543  11.731 -1.4356 -0.5138  0.5589
 3701SOL    HW222566   1.480   1.639  11.746 -0.2971 -0.5529 -0.6677
 3702SOL     OW22567   0.595   1.716   5.842 -0.2716  0.4496 -0.0268
 3702SOL    HW122568   0.530   1.786   5.852  1.1517  1.5437  1.5377
 3702SOL    HW222569   0.536   1.643   5.861  1.5459 -1.6954 -2.6848
 3703SOL     OW22570   1.511   3.386   2.173 -0.2419 -0.4451 -0.6835
 3703SOL    HW122571   1.594   3.381   2.125  0.6435  0.3123  0.7706
 3703SOL    HW222572   1.542   3.462   2.223  0.3565 -0.6303 -0.7684
 3704SOL     OW22573   2.073   0.791  13.421  0.1841  0.1738 -0.7202
 3704SOL    HW122574   2.118   0.875  13.422 -0.3782  0.4899 -4.0329
 3704SOL    HW222575   2.151   0.736  13.417 -1.6277 -2.3458 -1.8872
 3705SOL     OW22576   3.713   0.999   8.909 -0.2389  0.1091  0.2271
 3705SOL    HW122577   3.630   1.047   8.909  1.8672  3.8277  0.9345
 3705SOL    HW222578   3.745   0.990   8.819  0.1242 -1.3868  0.5175
 3706SOL     OW22579   0.923   2.697   8.078  0.3562 -0.0781 -0.0399
 3706SOL    HW122580   0.916   2.602   8.078 -0.7903  0.0064 -0.7555
 3706SOL    HW222581   1.018   2.712   8.082  0.2884 -0.1089  1.6912
 3707SOL     OW22582   0.137   0.556   8.995 -0.1784 -0.2825 -0.1153
 3707SOL    HW122583   0.122   0.649   8.979 -0.4629 -0.0880  1.2553
 3707SOL    HW222584   0.051   0.520   9.017 -0.0541 -1.3131 -1.3007
 3708SOL     OW22585   0.601   1.193   4.915 -0.3701 -0.3466  0.2737
 3708SOL    HW122586   0.558   1.220   4.834  0.7808  1.8270  0.4024
 3708SOL    HW222587   0.693   1.179   4.892 -0.4289 -1.9224  0.9783
 3709SOL     OW22588   1.505   2.083   4.979  0.2775 -0.4482  0.1202
 3709SOL    HW122589   1.523   2.096   5.073  2.1364  3.3541 -0.7524
 3709SOL    HW222590   1.435   2.019   4.969 -1.1655  1.3255 -1.0596
 3710SOL     OW22591   4.539   2.747   3.072 -0.5466 -0.3435  0.5217
 3710SOL    HW122592   4.535   2.779   2.982 -1.3428  0.2492  0.7712
 3710SOL    HW222593   4.557   2.829   3.119  0.5219 -0.4925  0.3711
 3711SOL     OW22594   3.540   3.046   8.482 -0.0557  0.0985 -0.1966
 3711SOL    HW122595   3.535   2.955   8.510  2.1591  0.3809  1.1155
 3711SOL    HW222596   3.550   3.090   8.566 -1.3527  1.2771 -0.6570
 3712SOL     OW22597   1.841   2.711   2.638 -0.4520  0.0528 -0.1187
 3712SOL    HW122598   1.749   2.713   2.612 -0.1810  0.6553 -1.0479
 3712SOL    HW222599   1.864   2.804   2.639  0.1300 -0.1040  1.1327
 3713SOL     OW22600   1.087   2.511   9.414  0.7293  0.0063 -0.0702
 3713SOL    HW122601   1.072   2.571   9.487  0.1601  0.2595 -0.3939
 3713SOL    HW222602   1.034   2.547   9.343  0.4823  0.9895  0.6122
 3714SOL     OW22603   2.182   1.268   5.198  0.2143 -0.1567  0.1551
 3714SOL    HW122604   2.189   1.363   5.202 -1.9589 -0.0208  0.7893
 3714SOL    HW222605   2.235   1.239   5.273 -1.0613 -1.9303  0.3606
 3715SOL     OW22606   3.349   1.911  15.209 -0.4360  0.8461  0.1957
 3715SOL    HW122607   3.306   1.913  15.294 -0.5414 -2.6928  0.2184
 3715SOL    HW222608   3.284   1.960  15.158 -0.0843  0.3157 -0.7760
 3716SOL     OW22609   1.244   1.129   6.198  0.1090  0.1783  0.1938
 3716SOL    HW122610   1.166   1.161   6.243  0.3912  1.1894 -0.0483
 3716SOL    HW222611   1.276   1.066   6.263  0.9933  0.3804 -0.0518
 3717SOL     OW22612   2.464   1.433  12.337 -0.0107 -0.4395 -0.0526
 3717SOL    HW122613   2.453   1.399  12.426 -0.0861  1.1386  0.5333
 3717SOL    HW222614   2.509   1.517  12.344 -0.4063 -0.0979 -1.6011
 3718SOL     OW22615   0.773   4.718  11.692  0.2104 -0.1027 -0.1495
 3718SOL    HW122616   0.826   0.078  11.686 -0.7243  0.6124  1.1222
 3718SOL    HW222617   0.720   0.018  11.614  3.2198  1.5275 -1.7951
 3719SOL     OW22618   3.390   3.204   1.582 -0.0786  0.1801  0.6932
 3719SOL    HW122619   3.484   3.211   1.566  0.1345  1.2534  2.4100
 3719SOL    HW222620   3.350   3.195   1.495  2.1884  2.9255 -0.6372
 3720SOL     OW22621   0.927   3.794   6.558 -0.0625 -0.3625 -0.1250
 3720SOL    HW122622   0.992   3.754   6.615  0.3596  2.1860  1.1439
 3720SOL    HW222623   0.949   3.748   6.476 -2.2099 -1.3234 -0.1546
 3721SOL     OW22624   0.206   2.467  14.629 -0.7214  0.3636  0.1136
 3721SOL    HW122625   0.199   2.507  14.716 -0.3849 -0.2097  0.4045
 3721SOL    HW222626   0.252   2.539  14.586  2.3876 -1.2120  0.8444
 3722SOL     OW22627   2.644   2.725   2.453 -0.6791  0.0239  0.3538
 3722SOL    HW122628   2.678   2.655   2.509  2.0208 -0.3750 -1.7854
 3722SOL    HW222629   2.636   2.679   2.369 -1.7062  1.9205 -0.5677
 3723SOL     OW22630   3.753   0.210   7.160  0.1740  0.8664 -0.1998
 3723SOL    HW122631   3.688   0.164   7.108  0.1340  2.3964 -1.5052
 3723SOL    HW222632   3.722   0.175   7.243 -2.4960 -2.0357 -2.3897
 3724SOL     OW22633   2.390   3.109   5.216 -0.0508  0.3718 -0.4122
 3724SOL    HW122634   2.346   3.126   5.132 -0.3029 -0.8219 -0.5290
 3724SOL    HW222635   2.319   3.090   5.277 -1.2497 -3.4181 -2.9417
 3725SOL     OW22636   1.563   0.988  10.607 -0.4704  0.0864  0.2829
 3725SOL    HW122637   1.609   0.984  10.524 -0.9110 -3.0594  0.2061
 3725SOL    HW222638   1.630   0.959  10.669 -0.7731 -1.4967 -0.1220
 3726SOL     OW22639   3.506   1.741  16.505 -0.6903  0.3658 -0.1027
 3726SOL    HW122640   3.414   1.754  16.528 -0.4157  0.2894  1.0527
 3726SOL    HW222641   3.510   1.645  16.515  0.5953  0.2719 -1.4378
 3727SOL     OW22642   2.283   2.615   8.639  0.3681  0.2253  0.4151
 3727SOL    HW122643   2.308   2.540   8.585  0.7662  3.1383 -3.4161
 3727SOL    HW222644   2.246   2.575   8.718  0.7437 -0.0146  0.4704
 3728SOL     OW22645   0.559   1.191   4.546  0.8858 -0.0227  0.0361
 3728SOL    HW122646   0.565   1.232   4.460  1.6825 -0.4049 -0.0851
 3728SOL    HW222647   0.613   1.116   4.523 -0.2787 -1.0045  0.5219
 3729SOL     OW22648   2.327   1.756   7.524  0.3509 -0.1965  0.0206
 3729SOL    HW122649   2.320   1.662   7.543  2.5201 -0.4423 -0.3345
 3729SOL    HW222650   2.243   1.778   7.484  0.9229 -0.3066 -1.2584
 3730SOL     OW22651   2.142   0.835   1.640  0.3257 -0.1717 -0.0173
 3730SOL    HW122652   2.229   0.870   1.623 -0.0524 -0.6621 -3.0289
 3730SOL    HW222653   2.148   0.830   1.735 -3.3693 -1.1733  0.1512
 3731SOL     OW22654   3.290   0.246   7.698  0.2090  0.2051 -0.1988
 3731SOL    HW122655   3.385   0.259   7.690  0.2330  0.5488  0.6782
 3731SOL    HW222656   3.271   0.263   7.606 -0.7271 -0.6913 -0.1710
 3732SOL     OW22657   2.275   4.233   3.713  0.0339 -0.0939  0.2550
 3732SOL    HW122658   2.217   4.185   3.773  0.3059 -0.6824  0.0452
 3732SOL    HW222659   2.322   4.161   3.671  0.6558 -1.0370  2.5463
 3733SOL     OW22660   0.318   1.887   3.585  0.0054 -0.6042  0.1482
 3733SOL    HW122661   0.277   1.939   3.516  1.0175  0.2387  0.1922
 3733SOL    HW222662   0.238   1.864   3.633 -0.8616 -1.4272 -1.6971
 3734SOL     OW22663   0.533   1.542   2.477  0.0455  0.5440  0.4461
 3734SOL    HW122664   0.551   1.557   2.570 -0.8299 -1.7851  0.9976
 3734SOL    HW222665   0.570   1.613   2.426 -0.3995  0.2757 -0.2516
 3735SOL     OW22666   1.999   4.423   7.423 -0.6930 -0.2146  0.9496
 3735SOL    HW122667   1.999   4.362   7.497 -1.3918 -1.1367  0.1789
 3735SOL    HW222668   1.908   4.414   7.394 -0.5193  0.4656  0.1879
 3736SOL     OW22669   1.685   2.993   1.252 -0.2754  0.2802  0.0810
 3736SOL    HW122670   1.761   2.974   1.197 -0.6861 -0.3740 -0.2597
 3736SOL    HW222671   1.637   3.064   1.209  0.5401  1.3672  0.9578
 3737SOL     OW22672   1.011   2.725   0.321 -0.6158  0.1735 -0.2329
 3737SOL    HW122673   1.017   2.821   0.319 -0.3725  0.2293  3.8989
 3737SOL    HW222674   0.935   2.718   0.379 -0.5738  0.8294 -0.0924
 3738SOL     OW22675   2.598   2.974   8.943 -0.2172  0.5194  0.4222
 3738SOL    HW122676   2.594   2.901   9.005  0.9110 -0.0516 -0.1657
 3738SOL    HW222677   2.599   2.926   8.859 -1.4069 -0.9229  1.2211
 3739SOL     OW22678   3.186   4.279   2.774  0.1252 -0.0735 -0.1523
 3739SOL    HW122679   3.157   4.198   2.817  0.7960 -0.7774 -1.0276
 3739SOL    HW222680   3.109   4.312   2.728  0.7297 -0.1479 -1.2194
 3740SOL     OW22681   2.407   0.106   8.614 -0.3059 -0.2442 -0.5623
 3740SOL    HW122682   2.313   0.121   8.605 -0.3812 -0.8181 -0.7543
 3740SOL    HW222683   2.406   0.033   8.676 -2.0106  0.4128  0.1794
 3741SOL     OW22684   2.264   2.100   4.246 -0.0262  0.5508  0.4887
 3741SOL    HW122685   2.228   2.188   4.264 -0.3563  0.4928  0.1073
 3741SOL    HW222686   2.186   2.046   4.262 -1.7389  3.1509  1.0391
 3742SOL     OW22687   0.292   1.220   4.623 -0.1964  0.1605  0.1500
 3742SOL    HW122688   0.378   1.193   4.591 -1.8208 -1.1725 -3.0564
 3742SOL    HW222689   0.259   1.286   4.562 -1.2330  0.1156  0.6612
 3743SOL     OW22690   0.177   0.306  16.046 -0.3621 -0.4683  0.2599
 3743SOL    HW122691   0.146   0.218  16.024  1.3141 -0.6966 -1.1647
 3743SOL    HW222692   0.155   0.309  16.139 -1.4130  1.8981 -0.0410
 3744SOL     OW22693   3.365   3.090   8.883  0.0697 -0.9286 -0.4547
 3744SOL    HW122694   3.334   3.006   8.849  0.5657 -0.6532 -1.5750
 3744SOL    HW222695   3.296   3.154   8.866  0.5900 -1.1662 -3.4201
 3745SOL     OW22696   3.910   0.564   6.704  0.0514 -0.9009 -0.6487
 3745SOL    HW122697   3.992   0.594   6.742 -0.4853 -0.2367 -0.0235
 3745SOL    HW222698   3.838   0.625   6.724  1.6053  1.3116 -1.8197
 3746SOL     OW22699   3.775   4.086   0.563  0.3401  0.0482  0.8651
 3746SOL    HW122700   3.828   4.041   0.498  3.1110  0.0373  3.1112
 3746SOL    HW222701   3.755   4.016   0.625 -0.4046 -1.7346 -1.3958
 3747SOL     OW22702   0.199   0.556   5.435 -0.0542  0.0442  0.2539
 3747SOL    HW122703   0.125   0.496   5.441  0.7208 -0.9053  0.3217
 3747SOL    HW222704   0.269   0.492   5.445 -0.6817 -0.9536 -1.7381
 3748SOL     OW22705   2.723   4.044   5.652  0.9676  0.0799 -0.3881
 3748SOL    HW122706   2.634   4.073   5.668  0.1247 -2.3846 -0.6233
 3748SOL    HW222707   2.749   4.052   5.744 -0.4967 -0.3989  0.0645
 3749SOL     OW22708   0.579   2.625   8.600  0.4063  0.4983 -0.1763
 3749SOL    HW122709   0.545   2.535   8.592 -0.9385  0.9045  0.9388
 3749SOL    HW222710   0.536   2.654   8.680  2.7451  1.4313  0.7441
 3750SOL     OW22711   1.376   4.558   5.913  0.3194  0.1674  0.2725
 3750SOL    HW122712   1.380   4.533   5.821  0.3118 -0.2649  0.3879
 3750SOL    HW222713   1.289   4.529   5.942  0.6063 -2.2860 -1.3044
 3751SOL     OW22714   3.123   1.741   0.242  0.1203  0.5912 -0.4659
 3751SOL    HW122715   3.068   1.752   0.320  1.7399 -0.7894  0.8821
 3751SOL    HW222716   3.200   1.764   0.293  0.0476  1.7997 -0.8941
 3752SOL     OW22717   4.361   0.919   4.306  0.4139 -0.0882  0.4748
 3752SOL    HW122718   4.275   0.918   4.264  0.5919  0.4645  0.1129
 3752SOL    HW222719   4.345   0.901   4.399 -0.3002  2.0639  0.7702
 3753SOL     OW22720   4.521   3.936   8.167  0.4560 -0.6433  0.6009
 3753SOL    HW122721   4.534   3.922   8.074 -0.4788 -0.0106  0.3803
 3753SOL    HW222722   4.528   3.846   8.200 -0.5406 -0.6571  0.7796
 3754SOL     OW22723   2.219   3.321   8.311  0.3129 -0.3794 -0.3552
 3754SOL    HW122724   2.131   3.283   8.303  1.2784 -2.7709  0.4670
 3754SOL    HW222725   2.243   3.303   8.220  0.2476 -2.2375  0.0046
 3755SOL     OW22726   1.225   2.532   3.581 -0.4916 -0.3903  0.2247
 3755SOL    HW122727   1.307   2.539   3.629 -0.8347 -0.3198  0.7872
 3755SOL    HW222728   1.233   2.589   3.504 -2.0304 -1.8219 -1.0068
 3756SOL     OW22729   3.809   2.711   5.610 -0.0574  0.0673  0.1250
 3756SOL    HW122730   3.784   2.802   5.590  0.0984  0.3719  1.2881
 3756SOL    HW222731   3.805   2.713   5.706 -2.2653  0.3978  0.0216
 3757SOL     OW22732   1.092   4.213   1.389 -0.2377  0.0136 -0.2541
 3757SOL    HW122733   1.117   4.142   1.449  0.7023 -0.0092 -0.6834
 3757SOL    HW222734   1.151   4.284   1.413  1.0535 -1.5967  1.3393
 3758SOL     OW22735   3.066   1.495   0.104 -0.1227  0.1823  0.2562
 3758SOL    HW122736   3.092   1.572   0.154 -0.1938  0.0160  0.5459
 3758SOL    HW222737   3.146   1.443   0.097 -0.4192  0.1090 -2.6408
 3759SOL     OW22738   0.073   0.681   4.961 -0.1392  0.4383  0.0423
 3759SOL    HW122739   0.084   0.767   4.922  0.9654  0.5130  0.5334
 3759SOL    HW222740   0.121   0.689   5.044 -0.3571  1.2159  0.0933
 3760SOL     OW22741   1.558   3.331   6.685 -0.4307 -0.0669  0.1016
 3760SOL    HW122742   1.614   3.340   6.608 -1.1591 -0.7706 -0.5094
 3760SOL    HW222743   1.518   3.418   6.679 -1.9445 -0.7835 -0.0235
 3761SOL     OW22744   0.509   4.493   4.895 -0.4399 -0.3570  0.0374
 3761SOL    HW122745   0.519   4.549   4.818 -0.9005  2.5426  2.0723
 3761SOL    HW222746   0.443   4.434   4.858  0.2036 -1.5616  0.7815
 3762SOL     OW22747   2.513   3.503   4.976 -0.1729 -0.5250 -0.3956
 3762SOL    HW122748   2.550   3.590   4.960 -2.5000  0.1929 -1.9781
 3762SOL    HW222749   2.465   3.493   4.894  0.1794 -0.1109 -0.6519
 3763SOL     OW22750   4.206   2.790   9.969 -0.2463 -0.1872  0.0111
 3763SOL    HW122751   4.160   2.715  10.007 -1.2396  0.7800  0.7416
 3763SOL    HW222752   4.270   2.803  10.039 -0.5266  0.7443  0.1039
 3764SOL     OW22753   2.157   4.458   8.294 -0.2132 -0.6020  0.3079
 3764SOL    HW122754   2.200   4.544   8.286 -0.5268 -0.4842 -0.1222
 3764SOL    HW222755   2.087   4.477   8.231  0.2450 -1.4429 -0.4453
 3765SOL     OW22756   3.524   2.979   3.320  1.1449 -0.2918  0.2332
 3765SOL    HW122757   3.579   2.928   3.261 -0.1513  0.8411 -1.9779
 3765SOL    HW222758   3.570   2.976   3.403  1.7911 -0.2062 -0.1216
 3766SOL     OW22759   1.948   2.444  11.143  0.1507  0.6024 -0.5444
 3766SOL    HW122760   1.987   2.531  11.149 -1.6719  1.5521 -2.3889
 3766SOL    HW222761   1.860   2.465  11.176  0.0117 -0.6053 -0.1470
 3767SOL     OW22762   2.980   3.683   6.580 -0.4968 -0.1244  0.5779
 3767SOL    HW122763   3.067   3.688   6.619 -0.2414  0.7582 -0.1143
 3767SOL    HW222764   3.003   3.643   6.496 -1.4124 -0.6974  0.5955
 3768SOL     OW22765   1.952   3.702   3.451  0.5171 -0.0732  0.2962
 3768SOL    HW122766   1.941   3.737   3.539 -1.2448  2.4121 -0.9051
 3768SOL    HW222767   1.973   3.610   3.466 -2.1762 -0.6146  0.6021
 3769SOL     OW22768   0.594   2.748   4.323 -0.1510 -0.8770 -0.0392
 3769SOL    HW122769   0.519   2.714   4.372  0.0694 -1.7974 -0.3278
 3769SOL    HW222770   0.619   2.817   4.385  1.0633 -0.7972 -0.6149
 3770SOL     OW22771   2.960   2.298   8.709 -0.1379 -0.0938 -0.2521
 3770SOL    HW122772   2.964   2.394   8.705 -0.8651 -0.0619 -0.1768
 3770SOL    HW222773   2.891   2.290   8.643 -1.0763  0.0649  0.7125
 3771SOL     OW22774   2.547   4.575   4.307  0.4480 -0.3723 -0.0080
 3771SOL    HW122775   2.513   4.488   4.288  1.5617 -0.9760  0.8003
 3771SOL    HW222776   2.630   4.548   4.346  0.2256  0.1897  0.8509
 3772SOL     OW22777   2.080   2.975   5.616  0.5653 -0.6498 -0.6062
 3772SOL    HW122778   2.060   2.991   5.524  0.0515  2.0126 -0.0324
 3772SOL    HW222779   2.006   2.916   5.631  0.3978 -0.3343 -0.1970
 3773SOL     OW22780   1.553   2.153  13.697  0.1360 -0.2458 -0.3522
 3773SOL    HW122781   1.637   2.155  13.652 -0.2839  3.1087 -1.0004
 3773SOL    HW222782   1.566   2.230  13.754  0.1506 -0.5625  0.0716
 3774SOL     OW22783   0.133   2.996   3.814 -0.1189  0.1177  0.1576
 3774SOL    HW122784   0.128   2.941   3.736  1.2971 -1.5640  1.2409
 3774SOL    HW222785   0.186   2.943   3.874  1.5293  0.3260 -1.0903
 3775SOL     OW22786   1.827   4.501   3.082 -0.1317 -0.0367  0.3124
 3775SOL    HW122787   1.785   4.550   3.153  1.3167 -0.0603  1.1909
 3775SOL    HW222788   1.837   4.575   3.022 -2.2098  0.7871  0.9692
 3776SOL     OW22789   2.380   2.712   7.437  0.3396 -0.3275  0.0455
 3776SOL    HW122790   2.312   2.725   7.371 -1.1932  0.8895  1.8758
 3776SOL    HW222791   2.353   2.631   7.481 -3.9175  1.0633 -0.0054
 3777SOL     OW22792   0.986   0.905   8.490 -0.1554 -0.0708  0.1401
 3777SOL    HW122793   0.981   0.971   8.421 -0.5939  0.5396  0.7527
 3777SOL    HW222794   1.030   0.835   8.442  0.4683  1.5156 -1.5982
 3778SOL     OW22795   1.647   0.541  16.048  0.4660  0.0509 -0.3761
 3778SOL    HW122796   1.556   0.524  16.024  0.1195 -0.9700  1.7352
 3778SOL    HW222797   1.652   0.610  16.114  0.0852 -0.2322 -0.0535
 3779SOL     OW22798   4.574   4.703   2.114  0.2131 -0.5292  0.2048
 3779SOL    HW122799   4.620   0.065   2.131 -1.1577  0.1552  0.5974
 3779SOL    HW222800   4.518   4.693   2.191 -0.9286  0.1257 -0.5318
 3780SOL     OW22801   2.306   2.183   4.587 -0.7386  0.3425 -0.2629
 3780SOL    HW122802   2.296   2.088   4.583 -0.5955  0.3597 -1.0731
 3780SOL    HW222803   2.374   2.191   4.520 -0.5582 -0.9683 -0.2344
 3781SOL     OW22804   3.109   3.843   7.196 -0.5687 -0.2173  0.2740
 3781SOL    HW122805   3.119   3.873   7.287 -0.3799  0.3593  0.0644
 3781SOL    HW222806   3.043   3.896   7.151 -0.4344 -0.6899 -0.4827
 3782SOL     OW22807   0.523   2.463  17.414 -0.6546  0.0067  0.4313
 3782SOL    HW122808   0.435   2.494  17.390 -0.3460  0.4222 -0.1677
 3782SOL    HW222809   0.526   2.481  17.508 -0.0706  2.0789  0.0161
 3783SOL     OW22810   4.209   2.662   5.032  0.2395 -0.5443 -0.2230
 3783SOL    HW122811   4.124   2.702   5.014 -0.4948 -1.6688  0.7280
 3783SOL    HW222812   4.193   2.625   5.119  2.3021 -1.1070 -0.0852
 3784SOL     OW22813   1.234   1.239   2.841  0.5949  0.0300 -0.6175
 3784SOL    HW122814   1.314   1.288   2.824 -0.5001  1.3068 -2.0674
 3784SOL    HW222815   1.270   1.155   2.813 -0.9633 -0.8077 -0.0998
 3785SOL     OW22816   3.426   0.980   4.271 -0.2763 -0.3523  0.1132
 3785SOL    HW122817   3.374   0.954   4.194 -2.7473  0.8318  1.4080
 3785SOL    HW222818   3.511   0.946   4.243  0.6083  1.9935  0.0020
 3786SOL     OW22819   4.525   4.590   7.252  0.0228  0.0253  0.2664
 3786SOL    HW122820   4.567   4.670   7.284 -1.2199  0.3331  1.1490
 3786SOL    HW222821   4.525   4.600   7.157 -2.4027  1.4963  0.4143
 3787SOL     OW22822   4.631   4.272   6.879 -0.4227  0.1980 -0.8843
 3787SOL    HW122823   4.548   4.224   6.876 -1.1901  1.4603  0.2496
 3787SOL    HW222824   4.696   4.210   6.914 -1.4556  0.1410  0.9514
 3788SOL     OW22825   0.437   1.044   2.356  0.6512 -0.4610 -0.1078
 3788SOL    HW122826   0.455   0.950   2.361  1.8250 -0.3527 -2.4670
 3788SOL    HW222827   0.379   1.044   2.280  0.0549 -1.7216  0.3440
 3789SOL     OW22828   0.411   4.398   9.872 -0.2075  0.5584 -0.3095
 3789SOL    HW122829   0.362   4.344   9.809  0.5046 -1.8819  1.2270
 3789SOL    HW222830   0.442   4.469   9.816 -0.6396  0.7540 -0.3051
 3790SOL     OW22831   2.557   0.345   9.728 -0.2419  0.3262  0.0198
 3790SOL    HW122832   2.627   0.395   9.686 -1.3561 -1.0092 -3.3745
 3790SOL    HW222833   2.605   0.273   9.770 -0.5181  0.1558  0.0442
 3791SOL     OW22834   2.452   2.005   8.219 -0.2848 -0.0424 -0.7868
 3791SOL    HW122835   2.375   1.957   8.249 -0.0014 -0.4428 -0.7047
 3791SOL    HW222836   2.501   1.937   8.174  0.6273  0.5853 -0.7371
 3792SOL     OW22837   0.486   3.664  11.750  0.0133 -0.0226 -0.4785
 3792SOL    HW122838   0.521   3.610  11.679  1.3689 -0.7318  0.7343
 3792SOL    HW222839   0.571   3.707  11.760 -0.9704  1.7668  0.0680
 3793SOL     OW22840   3.714   3.290  16.314  0.3727  0.2208  0.5528
 3793SOL    HW122841   3.657   3.270  16.240  0.2348  0.9068  0.4774
 3793SOL    HW222842   3.692   3.381  16.334  0.6383  0.5865 -0.7881
 3794SOL     OW22843   4.214   1.856   2.509 -0.0843  0.1196  0.5288
 3794SOL    HW122844   4.232   1.788   2.574 -1.7179  0.0938  0.9599
 3794SOL    HW222845   4.279   1.924   2.524 -2.5878  2.8093 -0.7899
 3795SOL     OW22846   4.420   2.075   5.897  0.2061  0.9342  0.6484
 3795SOL    HW122847   4.332   2.105   5.920 -0.4098 -1.7095  1.7524
 3795SOL    HW222848   4.451   2.038   5.979  0.5353  0.8596  0.4883
 3796SOL     OW22849   2.446   1.336  15.362  0.5376  0.3436  0.2969
 3796SOL    HW122850   2.534   1.356  15.331  0.9777 -0.5691  0.9590
 3796SOL    HW222851   2.400   1.385  15.294  0.2722 -3.0312 -1.9312
 3797SOL     OW22852   4.000   0.196   7.070 -0.3801 -0.1889 -0.0803
 3797SOL    HW122853   3.912   0.218   7.102 -0.9549 -1.7078 -0.6101
 3797SOL    HW222854   4.043   0.205   7.155  1.6684  0.4672 -1.1901
 3798SOL     OW22855   4.652   3.904   5.977 -0.3373  0.1686  0.5091
 3798SOL    HW122856   4.662   3.826   6.033 -2.0272 -0.2087  0.3106
 3798SOL    HW222857   4.594   3.959   6.030 -0.9028 -0.8689  0.9734
 3799SOL     OW22858   4.127   3.796   6.866  0.8058  0.0839 -0.1125
 3799SOL    HW122859   4.123   3.860   6.937 -0.9472 -1.3197  1.0497
 3799SOL    HW222860   4.186   3.736   6.912  0.8384  0.3694  0.2154
 3800SOL     OW22861   1.444   2.864   6.863 -0.0679 -0.1605 -0.1698
 3800SOL    HW122862   1.469   2.947   6.822  1.8684 -1.2514 -1.1710
 3800SOL    HW222863   1.356   2.890   6.892 -0.5693 -1.0373 -0.9091
 3801SOL     OW22864   3.372   3.364   2.320  0.1946 -0.2700  0.5966
 3801SOL    HW122865   3.465   3.357   2.300  0.0279 -0.0072 -0.3146
 3801SOL    HW222866   3.337   3.388   2.234  0.7376 -2.9391 -0.3690
 3802SOL     OW22867   0.090   1.287   6.990  0.1269  0.3005  0.2722
 3802SOL    HW122868   4.717   1.308   6.980 -0.2347 -0.8664  1.1739
 3802SOL    HW222869   0.113   1.224   6.922  0.2031  1.0658 -0.4177
 3803SOL     OW22870   2.927   2.010  14.409 -0.4702  0.6769 -0.2625
 3803SOL    HW122871   2.998   2.007  14.345  0.1000  0.1683  0.3975
 3803SOL    HW222872   2.964   2.071  14.472  1.4066 -1.6368  0.9030
 3804SOL     OW22873   2.040   2.107  14.637  0.0097 -0.3962 -0.2216
 3804SOL    HW122874   2.082   2.046  14.698  2.3658 -1.0331 -2.4926
 3804SOL    HW222875   2.107   2.109  14.568 -0.8242  0.5160 -0.9997
 3805SOL     OW22876   4.446   0.608   4.721  0.1092 -0.4810 -0.3577
 3805SOL    HW122877   4.356   0.592   4.748 -0.3371  1.6919 -0.5539
 3805SOL    HW222878   4.473   0.520   4.695 -0.0528 -0.2038 -1.4822
 3806SOL     OW22879   3.735   3.247   7.422 -0.1516  0.2299 -0.2896
 3806SOL    HW122880   3.755   3.177   7.360  1.0538 -0.1827  0.5679
 3806SOL    HW222881   3.813   3.302   7.418 -0.1775  0.3067  0.3261
 3807SOL     OW22882   1.591   3.779   3.601 -0.0643 -0.4349 -0.0842
 3807SOL    HW122883   1.532   3.772   3.675  1.3250 -1.8017  0.8954
 3807SOL    HW222884   1.569   3.868   3.573 -1.9890 -0.9873 -0.2622
 3808SOL     OW22885   3.964   1.513   3.405 -0.9816  0.1715  0.3562
 3808SOL    HW122886   3.959   1.600   3.444 -2.1316  0.2817 -0.0369
 3808SOL    HW222887   4.059   1.504   3.393 -0.8603 -0.0517  1.5029
 3809SOL     OW22888   0.525   1.073   6.261 -0.2212 -0.0983  0.4295
 3809SOL    HW122889   0.599   1.068   6.321 -0.2754  0.4520  0.5427
 3809SOL    HW222890   0.503   0.982   6.241 -2.0681  0.7282 -1.3025
 3810SOL     OW22891   2.136   2.141   7.910 -0.2177 -0.3352 -0.0871
 3810SOL    HW122892   2.215   2.167   7.956  0.5400  0.5434 -1.8912
 3810SOL    HW222893   2.138   2.045   7.917 -0.2253 -0.4254 -1.3963
 3811SOL     OW22894   4.629   2.957   8.193  0.1452  0.6386  0.0746
 3811SOL    HW122895   4.653   2.976   8.102  3.8479 -2.0875  0.4618
 3811SOL    HW222896   4.702   2.915   8.239 -1.4471  1.2964  3.2456
 3812SOL     OW22897   4.171   1.161   1.223  0.0697 -0.3977  0.2207
 3812SOL    HW122898   4.075   1.168   1.224  0.0050 -1.2451 -0.0560
 3812SOL    HW222899   4.196   1.245   1.261  0.8536  0.2864 -1.8453
 3813SOL     OW22900   1.311   0.876   3.718 -0.6458  0.6538  0.0005
 3813SOL    HW122901   1.353   0.936   3.655  0.8340 -1.8961 -1.4190
 3813SOL    HW222902   1.385   0.835   3.762 -0.2756  0.1411 -1.0951
 3814SOL     OW22903   4.248   1.900   4.103 -0.3570  0.2479 -0.5104
 3814SOL    HW122904   4.318   1.880   4.165 -1.2888 -2.1498 -0.2480
 3814SOL    HW222905   4.227   1.991   4.121 -0.2534 -0.2787  2.1543
 3815SOL     OW22906   1.218   0.537   2.312  0.3869 -0.3213 -0.0925
 3815SOL    HW122907   1.311   0.561   2.317  0.5037 -0.5875 -1.0108
 3815SOL    HW222908   1.207   0.453   2.357  0.9053  1.0340  2.5444
 3816SOL     OW22909   3.851   1.866  11.482  0.0864 -0.0638  0.4991
 3816SOL    HW122910   3.839   1.821  11.399  2.4710  0.7912 -0.3225
 3816SOL    HW222911   3.869   1.797  11.546 -1.4063 -0.8839  0.0237
 3817SOL     OW22912   0.867   2.491   4.060 -0.7920 -0.2218 -0.2932
 3817SOL    HW122913   0.937   2.534   4.011 -0.8684 -2.4017 -2.3190
 3817SOL    HW222914   0.893   2.399   4.064 -1.4609 -0.3562  0.7553
 3818SOL     OW22915   2.158   4.217   7.022  0.1829  0.0337 -0.2313
 3818SOL    HW122916   2.108   4.266   6.957 -0.3319 -0.3291 -0.1104
 3818SOL    HW222917   2.098   4.206   7.095 -1.6076  0.9999 -1.5368
 3819SOL     OW22918   1.747   4.045   7.543  0.3663  0.1991  0.4627
 3819SOL    HW122919   1.809   3.994   7.490  0.2451 -0.1091  0.6174
 3819SOL    HW222920   1.799   4.057   7.623  0.7552 -1.1442  0.4253
 3820SOL     OW22921   0.287   2.602  13.391  0.4361  0.4888  0.3068
 3820SOL    HW122922   0.381   2.596  13.410  0.2789  0.8150  1.1913
 3820SOL    HW222923   0.294   2.603  13.296 -0.9966 -3.2272  0.1559
 3821SOL     OW22924   3.101   3.842  17.288  0.1893  0.6366  0.0986
 3821SOL    HW122925   3.126   3.769  17.232 -1.5801  0.6663 -0.7285
 3821SOL    HW222926   3.017   3.806  17.317  0.0064 -1.5439 -3.1441
 3822SOL     OW22927   3.657   1.744   7.564  0.0643  0.2947  0.1543
 3822SOL    HW122928   3.716   1.776   7.632  1.0311 -0.6741 -0.2226
 3822SOL    HW222929   3.661   1.821   7.508  0.7663 -0.1346 -0.3948
 3823SOL     OW22930   0.328   0.415   2.628 -0.1574 -0.4073  0.2746
 3823SOL    HW122931   0.362   0.387   2.713 -1.5842 -0.2709  0.9030
 3823SOL    HW222932   0.297   0.499   2.663 -0.0871 -0.3914  0.2990
 3824SOL     OW22933   4.011   3.965   9.406 -0.3964  0.2430  0.6392
 3824SOL    HW122934   3.964   3.969   9.323  0.6761 -2.7067 -0.1022
 3824SOL    HW222935   4.085   4.019   9.379 -0.3822 -0.3686 -0.5268
 3825SOL     OW22936   1.610   2.971   1.872 -0.2395  0.5013  0.3493
 3825SOL    HW122937   1.603   2.879   1.898  3.1246  0.1351  0.0005
 3825SOL    HW222938   1.688   2.970   1.816 -0.1589 -0.8019  0.4820
 3826SOL     OW22939   2.048   1.091   6.623 -0.5300 -0.4055 -0.3969
 3826SOL    HW122940   1.986   1.162   6.611  0.9408  0.9585  0.0606
 3826SOL    HW222941   2.061   1.090   6.717 -0.4567 -0.5494 -0.4084
 3827SOL     OW22942   0.198   0.593   1.638  0.0993 -0.1591 -0.2920
 3827SOL    HW122943   0.253   0.523   1.672 -0.9404 -0.8643 -0.0601
 3827SOL    HW222944   0.178   0.556   1.552  0.0847  0.3017 -0.4871
 3828SOL     OW22945   2.822   1.445   9.420 -0.4233  0.2697 -0.1223
 3828SOL    HW122946   2.771   1.525   9.435 -0.5179  0.0476  0.7128
 3828SOL    HW222947   2.872   1.479   9.345  2.1676 -1.3802  0.8481
 3829SOL     OW22948   3.101   2.693   5.757  0.4589  0.0800 -0.2228
 3829SOL    HW122949   3.163   2.766   5.761  2.8379 -1.9482  0.0909
 3829SOL    HW222950   3.041   2.717   5.686  0.7886  2.6874  0.3818
 3830SOL     OW22951   4.557   0.672  11.626 -0.2022  0.5548  0.4440
 3830SOL    HW122952   4.597   0.759  11.637  0.6574  0.4704 -2.1067
 3830SOL    HW222953   4.603   0.634  11.551 -0.2933 -0.7812  1.0552
 3831SOL     OW22954   1.279   0.628   2.700 -0.2014  0.5752  0.4847
 3831SOL    HW122955   1.188   0.634   2.673  0.0074 -0.5191 -0.4766
 3831SOL    HW222956   1.324   0.678   2.632  1.0173 -0.5883  0.4205
 3832SOL     OW22957   0.017   0.231   8.312  0.6945  1.0951 -0.0856
 3832SOL    HW122958   4.671   0.181   8.361  0.7490  1.1424  0.0347
 3832SOL    HW222959   0.027   0.317   8.353  0.8880  0.1639  1.8004
 3833SOL     OW22960   1.029   0.303   5.989  0.0858 -0.2753 -0.4417
 3833SOL    HW122961   0.944   0.344   5.970 -1.4303 -2.1588  2.3012
 3833SOL    HW222962   1.001   0.254   6.067  2.4977  1.4649  1.5020
 3834SOL     OW22963   0.617   0.950   1.046  0.8026  0.0854 -0.0644
 3834SOL    HW122964   0.663   1.019   1.093  3.5378 -1.3513 -0.6427
 3834SOL    HW222965   0.648   0.873   1.094  0.6421 -1.0177 -1.7341
 3835SOL     OW22966   4.634   3.325  16.854 -0.0746  0.2947  0.0846
 3835SOL    HW122967   0.002   3.295  16.878  0.1631  0.2117 -0.8823
 3835SOL    HW222968   4.603   3.263  16.788  0.2943 -0.5254  0.6908
 3836SOL     OW22969   0.117   1.601   8.473  0.1326 -0.6748  0.1553
 3836SOL    HW122970   0.140   1.694   8.473 -0.3787 -0.5459  0.4243
 3836SOL    HW222971   0.066   1.603   8.554  0.2972 -0.6667  0.2571
 3837SOL     OW22972   2.777   4.143   5.921 -0.0124  0.0218 -0.5682
 3837SOL    HW122973   2.793   4.233   5.949 -0.2298 -0.1882  0.2239
 3837SOL    HW222974   2.842   4.089   5.966 -0.9288  1.1093  2.0399
 3838SOL     OW22975   4.504   3.611   6.643 -0.0099 -0.0345 -0.3825
 3838SOL    HW122976   4.576   3.570   6.691 -1.8007 -1.0040  1.4899
 3838SOL    HW222977   4.425   3.561   6.660 -0.1947  0.4374  0.1522
 3839SOL     OW22978   3.247   0.392   6.844 -0.1308 -0.1814  0.2311
 3839SOL    HW122979   3.174   0.334   6.866  0.6186 -0.9201  0.7820
 3839SOL    HW222980   3.275   0.428   6.928 -0.4906 -1.6943  1.0004
 3840SOL     OW22981   0.940   4.295   5.842  0.0102  0.0571 -0.6733
 3840SOL    HW122982   0.878   4.346   5.790  1.7825  1.9084 -1.0035
 3840SOL    HW222983   1.001   4.356   5.884  0.7560  0.5978 -2.5365
 3841SOL     OW22984   2.475   1.271   9.417  0.6622  0.2196 -0.1154
 3841SOL    HW122985   2.466   1.340   9.483  0.1620  0.6474 -0.6310
 3841SOL    HW222986   2.452   1.201   9.478  0.9310 -1.3646 -1.8315
 3842SOL     OW22987   0.192   0.445   8.709  0.0802  0.4568 -0.5086
 3842SOL    HW122988   0.112   0.492   8.732 -0.2553  0.0542 -0.8607
 3842SOL    HW222989   0.161   0.381   8.645 -1.4578  0.5026  0.1871
 3843SOL     OW22990   1.379   3.531   6.941  0.5002 -0.5225 -0.0911
 3843SOL    HW122991   1.365   3.442   6.910 -0.9751 -0.9094  1.7031
 3843SOL    HW222992   1.289   3.560   6.954  0.5291  0.5637 -2.2827
 3844SOL     OW22993   1.801   4.595   6.109 -0.2851  0.0179 -0.3670
 3844SOL    HW122994   1.850   4.655   6.053  0.5166 -0.8314 -0.5641
 3844SOL    HW222995   1.775   4.645   6.187 -1.9797 -0.3637 -0.6771
 3845SOL     OW22996   2.890   2.715   9.665  0.0282 -0.4822 -0.2928
 3845SOL    HW122997   2.865   2.753   9.749  0.8359  0.9406 -0.7125
 3845SOL    HW222998   2.873   2.621   9.671  0.0968 -0.4923 -0.2609
 3846SOL     OW22999   4.188   4.082  14.228 -0.4944  0.3010  0.1768
 3846SOL    HW123000   4.199   3.999  14.181  2.0804  2.0463 -2.3027
 3846SOL    HW223001   4.151   4.142  14.163  0.3308  0.0717 -0.5093
 3847SOL     OW23002   3.211   4.707   8.481 -0.0586  0.4727  0.1027
 3847SOL    HW123003   3.301   4.710   8.451  0.3688 -0.7578  1.2263
 3847SOL    HW223004   3.158   4.712   8.402 -1.2601  1.2436  0.9492
 3848SOL     OW23005   4.155   0.164   5.933  0.3204 -0.1458 -0.8185
 3848SOL    HW123006   4.154   0.256   5.957 -1.4957 -0.0614 -1.2317
 3848SOL    HW223007   4.245   0.138   5.953  0.9304  1.7406 -1.2005
 3849SOL     OW23008   3.847   4.364   5.467 -0.3389 -0.0092 -0.3884
 3849SOL    HW123009   3.753   4.363   5.481 -0.0444  2.4252  1.8303
 3849SOL    HW223010   3.879   4.285   5.512 -0.8990  0.0430  0.1043
 3850SOL     OW23011   3.226   4.670   2.636  1.0346 -0.2065 -0.4841
 3850SOL    HW123012   3.184   0.029   2.602  1.1540  0.4719  0.9533
 3850SOL    HW223013   3.190   4.614   2.567 -1.1443  2.1012 -1.2523
 3851SOL     OW23014   4.128   3.855  16.647 -0.0574 -0.0966 -0.1192
 3851SOL    HW123015   4.101   3.763  16.651  1.0744 -0.4792 -1.2022
 3851SOL    HW223016   4.190   3.860  16.720  1.3398 -1.0468 -1.2562
 3852SOL     OW23017   2.127   2.410   4.641 -0.7091  0.2411 -0.0551
 3852SOL    HW123018   2.140   2.328   4.592  1.5309  0.6087 -0.1047
 3852SOL    HW223019   2.199   2.467   4.613  0.4989 -0.3736  1.8006
 3853SOL     OW23020   0.621   3.670   3.673 -0.0595 -0.2461  0.7226
 3853SOL    HW123021   0.569   3.712   3.604  1.0956 -0.5650 -0.3412
 3853SOL    HW223022   0.622   3.745   3.732 -0.0455  1.2013 -1.1151
 3854SOL     OW23023   1.497   2.864   6.294  0.2139 -0.1003 -0.6797
 3854SOL    HW123024   1.480   2.939   6.351  1.2139 -1.0157  0.8288
 3854SOL    HW223025   1.451   2.893   6.214  0.0179 -2.9598 -1.6128
 3855SOL     OW23026   0.461   1.109   0.805  0.0702 -0.6593 -0.3416
 3855SOL    HW123027   0.530   1.165   0.769  1.6265 -2.7703 -0.6198
 3855SOL    HW223028   0.391   1.095   0.741 -0.1956  0.8458 -0.3856
 3856SOL     OW23029   0.065   0.606   7.290 -0.0024  0.2241  0.1507
 3856SOL    HW123030   4.716   0.543   7.312  1.4846 -1.8542 -1.2286
 3856SOL    HW223031   0.035   0.670   7.355  1.4069  0.3976  0.6207
 3857SOL     OW23032   4.630   1.181   5.117  0.4135 -0.2518  0.2633
 3857SOL    HW123033   4.617   1.222   5.031 -0.4516  3.0226  1.9532
 3857SOL    HW223034   0.005   1.179   5.122  0.4949 -0.6322 -1.3785
 3858SOL     OW23035   0.394   4.455   6.819 -0.1286  0.2875  0.4576
 3858SOL    HW123036   0.489   4.453   6.830 -0.1018  0.9151  0.3367
 3858SOL    HW223037   0.371   4.363   6.810  0.0362  0.0265  2.5009
 3859SOL     OW23038   3.584   0.909   7.921 -0.6792  0.8679  0.2999
 3859SOL    HW123039   3.598   0.979   7.984  1.7881  0.5030  0.1593
 3859SOL    HW223040   3.563   0.832   7.975 -0.2024  1.4551  1.3190
 3860SOL     OW23041   2.873   2.841   3.259 -0.0066  0.1546  0.3541
 3860SOL    HW123042   2.787   2.803   3.277 -0.0178 -0.1512 -0.3419
 3860SOL    HW223043   2.868   2.920   3.313 -1.8057 -0.4323  1.0472
 3861SOL     OW23044   1.059   3.535   4.399  0.2497 -0.3100  1.0351
 3861SOL    HW123045   1.112   3.463   4.366  0.0967  0.3140 -0.5446
 3861SOL    HW223046   1.040   3.507   4.489  3.2117 -0.4277  1.6100
 3862SOL     OW23047   3.750   1.590   7.008 -0.3705  0.4066  0.1931
 3862SOL    HW123048   3.844   1.584   6.989 -0.4013  0.9105 -0.1218
 3862SOL    HW223049   3.752   1.588   7.103  0.7399  0.3767  0.1732
 3863SOL     OW23050   0.789   2.560   9.510  0.2413  0.2539 -0.7343
 3863SOL    HW123051   0.703   2.586   9.475 -0.0145  0.2816 -0.0805
 3863SOL    HW223052   0.831   2.645   9.516  0.3811  0.1685 -0.5393
 3864SOL     OW23053   1.381   0.445  16.051  0.7215 -0.1468  0.1103
 3864SOL    HW123054   1.316   0.375  16.061  0.3841  0.1268 -0.1405
 3864SOL    HW223055   1.394   0.437  15.957 -0.5534  1.9638 -0.2596
 3865SOL     OW23056   4.139   2.322   4.452 -0.2280 -0.0008 -0.5122
 3865SOL    HW123057   4.117   2.344   4.542  2.8419 -0.6174  0.4208
 3865SOL    HW223058   4.194   2.246   4.474 -2.5705 -1.9289 -1.3548
 3866SOL     OW23059   3.795   4.581   3.144  0.3267 -0.3735  0.5517
 3866SOL    HW123060   3.873   4.627   3.112  0.0763 -0.4689 -0.1833
 3866SOL    HW223061   3.729   4.636   3.102  1.0980  1.4672  1.7391
 3867SOL     OW23062   1.989   0.958  13.695 -0.4915  0.0141  0.3151
 3867SOL    HW123063   1.944   0.914  13.623 -0.4873 -0.7128  0.7482
 3867SOL    HW223064   1.980   1.049  13.666 -0.5037  0.7523  2.6470
 3868SOL     OW23065   0.452   0.071  15.330 -0.0976  0.3450 -0.2288
 3868SOL    HW123066   0.524   0.019  15.293 -1.3825 -1.0083 -0.8193
 3868SOL    HW223067   0.457   0.046  15.422 -0.7389 -0.5570 -0.4500
 3869SOL     OW23068   2.936   2.873  13.704 -0.4365  0.1020  0.0771
 3869SOL    HW123069   2.884   2.793  13.690  0.3111  0.0166 -2.2894
 3869SOL    HW223070   2.897   2.910  13.783  2.1345  1.1433  0.8701
 3870SOL     OW23071   0.701   2.549   9.056  0.3660  0.4691 -0.1955
 3870SOL    HW123072   0.725   2.631   9.099 -2.5831  0.2736  1.7986
 3870SOL    HW223073   0.783   2.526   9.012 -0.5193 -2.7552 -0.1785
 3871SOL     OW23074   3.686   0.508  13.466  0.2807 -0.7756  0.4727
 3871SOL    HW123075   3.766   0.558  13.483 -0.0730 -1.0707  2.9992
 3871SOL    HW223076   3.651   0.562  13.395  1.0551 -0.8274  0.0569
 3872SOL     OW23077   3.259   1.363   2.575  0.1223 -0.2555 -0.7945
 3872SOL    HW123078   3.249   1.269   2.590  0.5626  0.1145  1.8345
 3872SOL    HW223079   3.336   1.377   2.519  0.1305 -0.7287 -0.9066
 3873SOL     OW23080   4.267   1.142  17.266  0.1421 -0.0642  0.1343
 3873SOL    HW123081   4.215   1.083  17.321 -2.4349  0.5031 -1.6801
 3873SOL    HW223082   4.219   1.141  17.183 -0.6284  3.0557  0.5447
 3874SOL     OW23083   0.610   2.451   5.374  0.7003  1.1016 -0.1282
 3874SOL    HW123084   0.577   2.372   5.331  0.8216  2.4257 -2.6378
 3874SOL    HW223085   0.555   2.446   5.452  0.6697 -1.3579 -0.2922
 3875SOL     OW23086   4.685   0.462  13.779 -0.0905  0.1266  0.1463
 3875SOL    HW123087   4.672   0.368  13.775 -0.2468  0.0468  2.7707
 3875SOL    HW223088   0.059   0.476  13.794 -0.4734  3.2635 -0.3025
 3876SOL     OW23089   2.503   2.702   6.620  0.0739 -0.2634 -0.0298
 3876SOL    HW123090   2.566   2.735   6.684 -0.4150 -0.0499  0.3403
 3876SOL    HW223091   2.501   2.774   6.557 -2.0025  0.9749  1.4471
 3877SOL     OW23092   1.791   3.846   5.049  0.3588 -0.2694 -0.3189
 3877SOL    HW123093   1.750   3.900   4.981  1.5485 -1.2379 -1.7954
 3877SOL    HW223094   1.753   3.888   5.126  0.0690 -3.4199  1.2498
 3878SOL     OW23095   3.215   0.760   8.193 -0.0621 -0.5046 -0.3984
 3878SOL    HW123096   3.121   0.778   8.189  0.4417  1.9374 -1.2154
 3878SOL    HW223097   3.215   0.674   8.235  2.1059  0.1334  0.8668
 3879SOL     OW23098   2.801   3.449   6.466 -0.3666  0.0984  0.6121
 3879SOL    HW123099   2.882   3.477   6.422 -1.6083  3.3013  0.3408
 3879SOL    HW223100   2.837   3.368   6.503  0.2697 -0.3594 -1.0047
 3880SOL     OW23101   0.121   2.565  12.470 -0.0214  0.3820  0.1439
 3880SOL    HW123102   0.138   2.567  12.376 -1.1982  0.0233 -0.0696
 3880SOL    HW223103   0.198   2.516  12.501 -1.0546 -0.1305  1.8756
 3881SOL     OW23104   1.179   3.876   5.719  0.3130 -0.2800 -0.5492
 3881SOL    HW123105   1.264   3.845   5.751  0.2067  0.2600  0.2524
 3881SOL    HW223106   1.194   3.891   5.625  1.4707 -0.5348 -0.4020
 3882SOL     OW23107   1.622   0.184  15.301 -0.5348 -0.0001 -0.2902
 3882SOL    HW123108   1.641   0.181  15.207 -1.2550 -0.7329 -0.4151
 3882SOL    HW223109   1.692   0.236  15.341  1.7058 -0.9501 -2.9335
 3883SOL     OW23110   4.601   2.224   6.765  0.0545 -0.3200 -0.8243
 3883SOL    HW123111   4.690   2.206   6.795  0.4338  1.9303 -0.5690
 3883SOL    HW223112   4.571   2.134   6.754  0.1049 -0.6573  1.7555
 3884SOL     OW23113   0.987   1.766  11.430 -0.3902  0.8003 -0.0825
 3884SOL    HW123114   0.913   1.717  11.393 -0.2247  1.4332 -1.2363
 3884SOL    HW223115   1.006   1.722  11.513  0.7725  2.1576  0.3570
 3885SOL     OW23116   3.940   0.359   2.493  0.1305  0.3343  0.5794
 3885SOL    HW123117   3.950   0.300   2.418 -0.3946  0.8758  0.0800
 3885SOL    HW223118   3.924   0.440   2.444 -0.9347  0.8977  1.8670
 3886SOL     OW23119   2.419   2.536  13.877  0.2521 -0.1116  0.7671
 3886SOL    HW123120   2.394   2.446  13.895 -1.3028  0.2327  0.4192
 3886SOL    HW223121   2.428   2.534  13.782 -0.5447 -0.8243  0.7054
 3887SOL     OW23122   0.164   2.350  16.338  0.0465  0.0556 -0.2887
 3887SOL    HW123123   0.226   2.422  16.353 -1.2954  0.9495  1.0823
 3887SOL    HW223124   0.151   2.314  16.426 -1.4051 -0.3758 -0.6710
 3888SOL     OW23125   0.678   3.480   7.974 -0.6772  0.2410  0.7322
 3888SOL    HW123126   0.611   3.549   7.981 -0.3515  0.8064 -1.8882
 3888SOL    HW223127   0.616   3.412   7.999 -2.2117  1.0695 -0.7977
 3889SOL     OW23128   1.080   3.690   6.047  0.4022  0.1896  0.4236
 3889SOL    HW123129   1.038   3.697   5.961  1.1576 -1.1865 -0.0688
 3889SOL    HW223130   1.126   3.606   6.039  0.7739  0.4875 -0.6628
 3890SOL     OW23131   3.570   1.392   7.406 -0.5510 -0.5619  0.2854
 3890SOL    HW123132   3.577   1.296   7.403  1.2530 -0.3882 -0.8278
 3890SOL    HW223133   3.493   1.407   7.350 -0.2374 -1.9240 -0.5129
 3891SOL     OW23134   3.165   0.793  11.432 -0.3112  0.3522  0.1875
 3891SOL    HW123135   3.193   0.722  11.374  2.5863 -1.2482  3.5782
 3891SOL    HW223136   3.226   0.865  11.417 -0.6886  0.0006 -3.1872
 3892SOL     OW23137   2.938   0.875   3.433  0.7797 -0.0536 -0.4533
 3892SOL    HW123138   2.874   0.805   3.448  0.6211  0.1286 -0.2643
 3892SOL    HW223139   2.916   0.880   3.340 -0.1696  2.8457 -0.0973
 3893SOL     OW23140   4.702   0.133   4.608  0.1348  0.3212  0.3049
 3893SOL    HW123141   0.060   0.081   4.629 -1.3174 -1.0627  2.2511
 3893SOL    HW223142   4.644   0.117   4.682  0.8291  0.7253  0.9338
 3894SOL     OW23143   4.552   4.265   7.328 -0.3310 -0.6253  0.2867
 3894SOL    HW123144   4.480   4.244   7.269 -2.1446 -0.6390  2.5272
 3894SOL    HW223145   4.542   4.361   7.327 -0.9889 -0.6955  0.4693
 3895SOL     OW23146   3.391   2.291  12.450 -0.0715 -0.2484  0.3927
 3895SOL    HW123147   3.417   2.222  12.512 -0.9434 -1.0227 -0.0917
 3895SOL    HW223148   3.324   2.344  12.493  0.9674  1.6765 -0.3774
 3896SOL     OW23149   4.100   3.725  15.481  0.0021 -0.7626  0.3440
 3896SOL    HW123150   4.021   3.774  15.503  1.5071  1.5611  0.4942
 3896SOL    HW223151   4.063   3.638  15.463  0.8643 -0.8016 -1.2144
 3897SOL     OW23152   0.397   1.721  16.432 -0.1519  0.2122  0.3684
 3897SOL    HW123153   0.458   1.784  16.394  0.4439 -0.7029 -0.1866
 3897SOL    HW223154   0.452   1.675  16.495 -2.6727 -1.6360  1.2626
 3898SOL     OW23155   1.017   2.071  13.910 -0.3867  0.3439 -0.1105
 3898SOL    HW123156   0.975   2.050  13.826  0.1101  0.4346 -0.3845
 3898SOL    HW223157   0.936   2.103  13.950 -0.7891 -1.3010  0.4183
 3899SOL     OW23158   4.306   0.360  12.818  0.7062  0.5976  0.7753
 3899SOL    HW123159   4.356   0.296  12.768 -0.1700  0.3783  0.1750
 3899SOL    HW223160   4.293   0.305  12.895 -1.5888 -1.5011 -1.0812
 3900SOL     OW23161   3.427   1.470   5.690 -0.2806  0.5243 -0.2734
 3900SOL    HW123162   3.464   1.388   5.658 -1.7549  0.8293 -2.7756
 3900SOL    HW223163   3.355   1.449   5.750 -0.3642 -0.8631 -0.8478
 3901SOL     OW23164   4.103   3.296   4.873  0.5614 -0.4053  0.1584
 3901SOL    HW123165   4.031   3.281   4.935  0.8305 -0.2169  0.5131
 3901SOL    HW223166   4.083   3.388   4.856 -2.4092 -1.2688 -0.9882
 3902SOL     OW23167   2.814   0.202   8.090 -0.2081  0.1307 -0.0306
 3902SOL    HW123168   2.847   0.259   8.020 -0.5290  2.0949  1.4318
 3902SOL    HW223169   2.807   0.118   8.045 -1.4859  1.0878 -1.6170
 3903SOL     OW23170   2.919   3.658   3.128 -0.1386  0.6418 -0.2627
 3903SOL    HW123171   2.895   3.579   3.080  0.8005 -0.7705  1.6136
 3903SOL    HW223172   2.859   3.725   3.095 -0.6826  0.8591  1.1954
 3904SOL     OW23173   4.680   0.383  17.249  0.0849 -0.8985  0.2635
 3904SOL    HW123174   4.605   0.364  17.192  0.4783  1.2466 -0.9892
 3904SOL    HW223175   4.639   0.355  17.331 -1.5067  0.5106 -0.0520
 3905SOL     OW23176   2.003   1.938  11.963  0.0703  0.4765 -1.2906
 3905SOL    HW123177   2.028   1.915  12.052 -3.7552 -1.0553 -0.6058
 3905SOL    HW223178   2.047   1.869  11.914  1.0410 -0.1433  0.4614
 3906SOL     OW23179   1.537   1.940  13.514  0.1839 -0.0307 -0.0073
 3906SOL    HW123180   1.478   1.879  13.559  1.8629 -1.5610  0.1238
 3906SOL    HW223181   1.534   2.019  13.568 -1.1898 -2.3991  3.4131
 3907SOL     OW23182   4.645   3.386   9.067 -0.2168  0.3396 -0.1723
 3907SOL    HW123183   4.669   3.315   9.127 -0.8615  0.6725  0.4750
 3907SOL    HW223184   4.550   3.386   9.071 -0.2388 -0.1292 -0.7362
 3908SOL     OW23185   4.538   2.545   7.782 -0.1307  0.1277  0.0542
 3908SOL    HW123186   4.505   2.470   7.733 -1.5277  2.2111 -2.1724
 3908SOL    HW223187   4.452   2.553   7.823  0.6561 -0.0688  1.7212
 3909SOL     OW23188   4.235   0.881   7.959  0.4215 -0.6292 -0.0412
 3909SOL    HW123189   4.192   0.965   7.975  0.2777 -0.7095 -0.0087
 3909SOL    HW223190   4.165   0.824   7.927  0.4725 -0.7456  0.0516
 3910SOL     OW23191   4.307   2.627   9.513  0.1142 -0.1317  0.4472
 3910SOL    HW123192   4.392   2.658   9.546  1.0528  1.7591 -3.7247
 3910SOL    HW223193   4.248   2.664   9.579 -0.1346 -0.7361  0.5648
 3911SOL     OW23194   2.251   4.260   1.202  0.2703  0.2538 -0.3505
 3911SOL    HW123195   2.196   4.323   1.157  0.0211 -1.3254 -2.2612
 3911SOL    HW223196   2.222   4.268   1.292  1.2824  1.5668 -0.1444
 3912SOL     OW23197   3.163   0.014   4.683 -0.3730  0.4476 -0.8602
 3912SOL    HW123198   3.189   0.050   4.598  0.6331  0.1877 -0.6607
 3912SOL    HW223199   3.114   4.658   4.653  1.0910 -0.9670  0.3037
 3913SOL     OW23200   3.026   3.175   5.256 -0.3520  0.5461 -0.4038
 3913SOL    HW123201   3.086   3.109   5.220 -0.9422 -0.5509  0.6472
 3913SOL    HW223202   2.960   3.108   5.268  0.4571 -0.0149  0.9790
 3914SOL     OW23203   4.449   3.041   6.045  0.3924 -0.3982  0.1409
 3914SOL    HW123204   4.471   3.074   6.132  0.8531 -2.5978  0.8840
 3914SOL    HW223205   4.452   3.125   6.000 -0.5185 -0.4023  0.0787
 3915SOL     OW23206   4.701   3.299   6.037  0.2982  0.3914  0.6093
 3915SOL    HW123207   0.006   3.264   5.952  1.6836  0.3487  1.0276
 3915SOL    HW223208   4.620   3.347   6.020  2.2812  2.9815 -1.5713
 3916SOL     OW23209   1.691   3.934   1.914 -0.8795  0.3862  0.8266
 3916SOL    HW123210   1.701   3.949   1.820 -0.5227 -1.4061  0.5721
 3916SOL    HW223211   1.670   4.022   1.946  2.5915  1.7783 -0.8330
 3917SOL     OW23212   1.328   3.128   3.777 -0.3003 -0.4561 -0.0782
 3917SOL    HW123213   1.278   3.049   3.757 -0.7732 -0.0984 -0.3133
 3917SOL    HW223214   1.375   3.085   3.848 -2.2717 -0.7644  1.0360
 3918SOL     OW23215   3.197   3.219   0.885 -0.5786  0.0771 -0.5619
 3918SOL    HW123216   3.178   3.273   0.808 -1.4645  0.6727  0.0767
 3918SOL    HW223217   3.270   3.263   0.929 -0.6570  0.1083 -0.4648
 3919SOL     OW23218   0.622   0.973   8.039  1.0513 -0.5357 -0.2170
 3919SOL    HW123219   0.602   0.993   8.130 -0.9372 -0.6100 -0.6406
 3919SOL    HW223220   0.535   0.959   8.003  0.4425  1.0808  0.6132
 3920SOL     OW23221   2.874   0.943   9.306 -0.1215 -0.7673  0.5984
 3920SOL    HW123222   2.817   1.018   9.321  0.8951  0.1305 -0.0108
 3920SOL    HW223223   2.957   0.989   9.293 -0.4419 -0.9417 -2.1354
 3921SOL     OW23224   2.981   0.926  13.339 -0.4702 -0.0060 -0.0581
 3921SOL    HW123225   3.024   0.867  13.401 -1.0554 -0.8216 -0.4377
 3921SOL    HW223226   2.982   1.002  13.398  1.0445  0.4754 -0.6998
 3922SOL     OW23227   4.077   2.775   3.249 -0.0657 -0.0738  0.4766
 3922SOL    HW123228   4.090   2.783   3.155 -0.2440 -0.2980  0.4311
 3922SOL    HW223229   4.169   2.781   3.275 -0.4358  3.4526  0.9829
 3923SOL     OW23230   0.158   4.158   2.613 -0.4388 -0.1619 -0.2673
 3923SOL    HW123231   0.089   4.108   2.569  0.1115 -1.6850  0.5893
 3923SOL    HW223232   0.189   4.219   2.546  0.9748 -0.2857  0.2778
 3924SOL     OW23233   2.209   4.112   9.179  0.6989  0.0672 -0.1424
 3924SOL    HW123234   2.301   4.089   9.165  1.1511  0.6881  1.8314
 3924SOL    HW223235   2.174   4.045   9.238 -2.5133  0.5072 -1.5654
 3925SOL     OW23236   4.082   1.114   8.468  0.0455 -0.1120  0.0705
 3925SOL    HW123237   4.172   1.084   8.463  0.4845  1.1263  0.3224
 3925SOL    HW223238   4.032   1.033   8.478 -1.1359  0.8235  1.9992
 3926SOL     OW23239   1.625   2.952   5.786  0.5100  0.2068  0.1410
 3926SOL    HW123240   1.547   3.007   5.778  0.0633 -0.6000 -0.9671
 3926SOL    HW223241   1.685   3.020   5.816  0.1879  0.4109  0.3255
 3927SOL     OW23242   2.955   1.999   8.191  0.4087 -0.0979  0.1487
 3927SOL    HW123243   2.939   1.973   8.282  2.5743 -0.9092  0.2992
 3927SOL    HW223244   3.036   1.949   8.184  0.7519  0.5275 -0.3026
 3928SOL     OW23245   0.137   3.484   5.222  0.3019 -0.3163 -0.6570
 3928SOL    HW123246   0.170   3.500   5.310 -2.7871  0.3840  0.3656
 3928SOL    HW223247   0.042   3.491   5.233  0.5525  3.1902 -0.5943
 3929SOL     OW23248   0.379   3.628  16.028  0.7180  0.2824  0.3525
 3929SOL    HW123249   0.469   3.657  16.044  1.3860 -1.9652  0.5954
 3929SOL    HW223250   0.399   3.551  15.975 -3.4066 -2.0083  2.1799
 3930SOL     OW23251   3.507   0.017   8.417  0.3122 -0.7765  0.1958
 3930SOL    HW123252   3.597   4.709   8.433  0.2287 -1.2222 -0.0875
 3930SOL    HW223253   3.501   4.692   8.332 -0.0222 -0.7639  0.2139
 3931SOL     OW23254   0.640   2.474   0.789  0.1969  0.2630 -0.7224
 3931SOL    HW123255   0.704   2.404   0.773  1.9702  1.3649  1.6170
 3931SOL    HW223256   0.584   2.469   0.712  1.9176  2.7665 -2.1428
 3932SOL     OW23257   2.244   4.018   4.579 -0.1554 -0.2073  0.0051
 3932SOL    HW123258   2.231   3.986   4.668  0.0148  2.0493  0.8443
 3932SOL    HW223259   2.242   4.112   4.598  0.8776  0.0178 -0.9541
 3933SOL     OW23260   1.499   3.083   6.743  0.3325  0.1093 -0.2608
 3933SOL    HW123261   1.584   3.041   6.735 -0.3724 -1.5718  1.0309
 3933SOL    HW223262   1.516   3.177   6.737 -2.0241  0.4263 -2.2469
 3934SOL     OW23263   1.230   2.128   6.585  0.2430 -0.0367  0.8384
 3934SOL    HW123264   1.219   2.140   6.490  0.2434  1.3334  0.9998
 3934SOL    HW223265   1.304   2.186   6.605  1.8380 -1.8165  0.0970
 3935SOL     OW23266   0.338   0.184  10.663 -0.6314 -0.2671  0.4991
 3935SOL    HW123267   0.366   0.260  10.612  2.9533 -1.1989  1.0838
 3935SOL    HW223268   0.253   0.209  10.700 -0.5526  0.1861  0.3800
 3936SOL     OW23269   2.445   2.555   6.303 -0.0695 -0.3519 -0.7105
 3936SOL    HW123270   2.430   2.503   6.382 -0.1972  0.8295  0.0300
 3936SOL    HW223271   2.524   2.603   6.327 -0.9208  2.8584 -4.3824
 3937SOL     OW23272   4.060   0.913  16.205 -0.1329  0.1557 -0.2322
 3937SOL    HW123273   3.988   0.854  16.227 -0.1495 -0.2726 -1.4495
 3937SOL    HW223274   4.051   0.982  16.271 -2.8786  0.4741 -0.9303
 3938SOL     OW23275   0.042   4.301  12.952  0.1268 -0.1836 -0.0349
 3938SOL    HW123276   4.692   4.329  12.893  0.1415  2.5449  1.2353
 3938SOL    HW223277   4.716   4.261  13.025 -0.4547 -2.5263 -1.6964
 3939SOL     OW23278   2.367   4.065   5.439 -0.3677 -0.4100 -0.6962
 3939SOL    HW123279   2.382   4.105   5.524 -1.3183  0.3760 -0.8970
 3939SOL    HW223280   2.445   4.092   5.391  2.6053 -3.4718  2.4995
 3940SOL     OW23281   1.787   0.990  14.033  0.4601  0.0665 -0.1593
 3940SOL    HW123282   1.754   0.930  14.099  0.4284  1.0689  0.7389
 3940SOL    HW223283   1.878   0.995  14.061  0.0592  3.7437  0.4604
 3941SOL     OW23284   2.992   4.544   2.519 -0.2378  0.4302 -0.5092
 3941SOL    HW123285   2.982   4.504   2.433  1.2266  1.4072 -1.1468
 3941SOL    HW223286   3.004   4.462   2.566  1.3751  0.7370 -0.3846
 3942SOL     OW23287   0.503   2.252   1.844 -0.5926  0.2411 -0.2959
 3942SOL    HW123288   0.502   2.276   1.751 -2.3278 -0.0150 -0.3459
 3942SOL    HW223289   0.503   2.156   1.834  1.4899  0.0853  1.2148
 3943SOL     OW23290   2.022   2.699  15.714 -0.3624  0.8404  0.2657
 3943SOL    HW123291   1.981   2.770  15.664 -0.1712  0.1268 -0.9026
 3943SOL    HW223292   2.111   2.720  15.685 -0.0780  0.7910  1.1083
 3944SOL     OW23293   4.188   2.559   7.654 -0.4798  0.1406 -0.7678
 3944SOL    HW123294   4.192   2.645   7.612  2.6771  0.4444  0.1302
 3944SOL    HW223295   4.222   2.507   7.581 -2.1110 -0.5899 -0.9992
 3945SOL     OW23296   2.782   3.941   1.688  0.7213  0.0011  0.6195
 3945SOL    HW123297   2.781   4.037   1.690 -1.0616  0.0227 -1.7797
 3945SOL    HW223298   2.874   3.930   1.714  0.6283  0.1033  0.9858
 3946SOL     OW23299   0.586   3.954   9.162 -0.5268 -0.1709  0.0759
 3946SOL    HW123300   0.586   3.859   9.152  0.1762 -0.1652  0.0409
 3946SOL    HW223301   0.564   3.977   9.252 -3.9706 -2.0875 -0.2711
 3947SOL     OW23302   1.065   0.301   6.943  0.3551 -0.6094  0.3030
 3947SOL    HW123303   1.112   0.224   6.974  0.7895 -0.3322  0.3476
 3947SOL    HW223304   0.989   0.255   6.907  0.0398  0.0571  0.1091
 3948SOL     OW23305   1.559   0.752  14.172  0.0016  0.3306 -0.1804
 3948SOL    HW123306   1.638   0.698  14.176 -0.3747 -0.2967 -1.2596
 3948SOL    HW223307   1.583   0.837  14.211 -1.5820  0.5786  0.2422
 3949SOL     OW23308   4.710   1.358  12.137 -0.0177 -0.1432 -0.0720
 3949SOL    HW123309   0.002   1.276  12.185  0.8069  0.0910  0.1121
 3949SOL    HW223310   4.642   1.327  12.076 -1.2296  1.3806  0.5100
 3950SOL     OW23311   3.330   4.455   5.895  0.3218  0.3466  0.5859
 3950SOL    HW123312   3.364   4.483   5.810  1.9345 -0.1370  1.0664
 3950SOL    HW223313   3.385   4.377   5.903  1.9889  1.5387  0.7678
 3951SOL     OW23314   4.353   1.636  12.915  0.1007  0.0155 -0.2717
 3951SOL    HW123315   4.418   1.570  12.891 -0.1254  0.4777 -2.1368
 3951SOL    HW223316   4.339   1.687  12.835  0.7328  1.4051  0.4983
 3952SOL     OW23317   1.772   3.378   6.035  0.3826  0.3100 -0.4065
 3952SOL    HW123318   1.759   3.339   5.948  1.5030 -4.2579  1.4893
 3952SOL    HW223319   1.783   3.301   6.090 -0.3721 -0.1859 -0.9445
 3953SOL     OW23320   4.065   1.371   7.178 -0.2005 -0.0815 -0.2075
 3953SOL    HW123321   3.993   1.332   7.228  0.5696 -1.5384 -0.2216
 3953SOL    HW223322   4.038   1.332   7.095  0.3739 -0.4989 -0.1997
 3954SOL     OW23323   2.096   0.155   7.349  0.3944 -0.0938  0.1643
 3954SOL    HW123324   2.023   0.171   7.409 -0.3762 -2.7670 -0.0513
 3954SOL    HW223325   2.168   0.156   7.412 -0.1563 -1.8444  0.8154
 3955SOL     OW23326   0.061   2.651   4.316  0.0368  0.6018 -0.5941
 3955SOL    HW123327   4.693   2.614   4.307 -0.5767  1.9189  0.0344
 3955SOL    HW223328   0.031   2.739   4.337  3.0019  1.9290 -1.8796
 3956SOL     OW23329   2.050   2.140   3.273  0.0740  0.1562  0.2717
 3956SOL    HW123330   1.986   2.202   3.237 -2.6420 -2.5854  0.3852
 3956SOL    HW223331   1.987   2.069   3.262 -1.7306  2.0166 -1.2990
 3957SOL     OW23332   0.261   3.662  11.534 -0.0226 -0.0042  0.1765
 3957SOL    HW123333   0.180   3.672  11.484 -0.2819  0.8391  0.7674
 3957SOL    HW223334   0.231   3.613  11.611 -2.3276 -0.5578 -1.0678
 3958SOL     OW23335   3.086   0.784   8.822 -0.6167  0.2889  0.4483
 3958SOL    HW123336   3.177   0.800   8.850 -1.2471  0.3540  2.4600
 3958SOL    HW223337   3.100   0.824   8.736 -0.5313  1.0520  0.8101
 3959SOL     OW23338   4.319   4.685   3.499 -0.2045 -0.0519 -0.3290
 3959SOL    HW123339   4.277   4.719   3.420  1.0288  0.7595 -0.6396
 3959SOL    HW223340   4.392   4.637   3.461 -1.1934 -2.0760  0.2942
 3960SOL     OW23341   2.520   0.674   8.261 -0.7342  0.5727  0.5908
 3960SOL    HW123342   2.460   0.624   8.317  0.1084  0.6593  1.5850
 3960SOL    HW223343   2.527   0.624   8.180  0.8956  0.2467  0.9331
 3961SOL     OW23344   4.039   0.422   4.988 -0.1020 -0.2732 -0.2393
 3961SOL    HW123345   3.966   0.372   4.952 -1.4790  1.1515  0.5668
 3961SOL    HW223346   3.998   0.463   5.064  2.1536  0.2523  0.7100
 3962SOL     OW23347   0.185   3.836  16.116  0.4821 -0.0787 -0.2174
 3962SOL    HW123348   0.109   3.784  16.140 -0.7978  0.1984 -3.6859
 3962SOL    HW223349   0.249   3.783  16.069  1.8091 -0.3755  1.9248
 3963SOL     OW23350   1.761   0.277   8.787 -0.0019 -0.1144  0.5410
 3963SOL    HW123351   1.733   0.220   8.715  0.0874  2.7922 -1.8346
 3963SOL    HW223352   1.703   0.241   8.854  1.8601 -0.4288  1.9517
 3964SOL     OW23353   1.252   4.615   3.421 -0.2091  0.2916  0.0403
 3964SOL    HW123354   1.329   4.606   3.366  0.3872 -1.7118  1.2175
 3964SOL    HW223355   1.228   4.706   3.402 -0.5113  0.5042  1.4562
 3965SOL     OW23356   1.280   3.102   7.209  0.0162 -0.0545  0.1146
 3965SOL    HW123357   1.357   3.158   7.203  1.4653 -2.1336 -0.7522
 3965SOL    HW223358   1.301   3.036   7.275  0.4521  0.9918  1.0198
 3966SOL     OW23359   4.376   0.337  11.455 -0.7226 -0.4713 -0.0014
 3966SOL    HW123360   4.357   0.404  11.520 -1.9509  1.0535 -1.9077
 3966SOL    HW223361   4.374   0.257  11.506 -1.4896 -0.4056  0.0647
 3967SOL     OW23362   1.353   0.263   8.902  0.0394 -0.3286 -0.5484
 3967SOL    HW123363   1.374   0.340   8.849 -1.3963  0.6646  0.3349
 3967SOL    HW223364   1.355   0.308   8.986 -3.9930  0.3047 -0.7887
 3968SOL     OW23365   0.077   1.835   7.535  0.0635 -0.0819  0.0595
 3968SOL    HW123366   0.097   1.794   7.619 -1.1367 -0.2937  0.2402
 3968SOL    HW223367   0.166   1.859   7.509 -0.6912  2.3099 -0.3032
 3969SOL     OW23368   1.865   1.927   5.702 -0.1100 -0.2117  0.3148
 3969SOL    HW123369   1.789   1.926   5.761  0.1108 -3.2630  0.5185
 3969SOL    HW223370   1.842   1.867   5.632  1.2796 -0.1964 -0.1506
 3970SOL     OW23371   1.117   2.601   9.720 -0.3947 -0.2675  0.2270
 3970SOL    HW123372   1.202   2.559   9.708 -0.1352  0.4135 -0.3332
 3970SOL    HW223373   1.081   2.533   9.777 -1.9327 -1.1233 -1.7182
 3971SOL     OW23374   3.385   4.615   4.484  0.4296 -0.2526 -0.1419
 3971SOL    HW123375   3.420   4.527   4.472  2.0508  0.6290 -1.8792
 3971SOL    HW223376   3.302   4.605   4.437  0.5509  0.9771 -0.6276
 3972SOL     OW23377   2.444   4.498   7.682  0.5687  0.3311  0.1952
 3972SOL    HW123378   2.463   4.420   7.735  1.4425  1.5497  1.6916
 3972SOL    HW223379   2.480   4.476   7.597 -0.6235  0.4045 -0.3239
 3973SOL     OW23380   1.360   0.496   7.161 -0.6729  0.2044  0.5176
 3973SOL    HW123381   1.391   0.407   7.143  1.5466  0.9596  0.6842
 3973SOL    HW223382   1.329   0.482   7.250  0.1734 -1.6873  0.5078
 3974SOL     OW23383   4.666   4.193   6.523 -0.0102 -0.0313 -0.3611
 3974SOL    HW123384   4.638   4.129   6.588  1.7150 -0.3381  0.0634
 3974SOL    HW223385   0.033   4.218   6.556 -2.0210  1.5903  3.7146
 3975SOL     OW23386   2.935   4.587   2.096  0.3319 -0.5969 -0.1200
 3975SOL    HW123387   2.942   4.678   2.125 -0.1841 -0.4254 -0.5434
 3975SOL    HW223388   3.017   4.548   2.129 -1.1320 -2.1154  1.7226
 3976SOL     OW23389   0.956   0.092  11.153  0.4104 -0.3134 -0.4149
 3976SOL    HW123390   0.956   0.056  11.242 -0.4412 -2.2852 -1.2146
 3976SOL    HW223391   1.032   0.061  11.104  1.5899  2.0415 -0.0472
 3977SOL     OW23392   2.920   1.124   7.751 -0.0823  0.2953  0.3148
 3977SOL    HW123393   2.916   1.070   7.830  1.1493 -0.0248  0.1547
 3977SOL    HW223394   2.825   1.129   7.740 -0.0620 -1.2059 -0.4873
 3978SOL     OW23395   2.502   0.397   2.209  0.3133 -0.2153  0.9509
 3978SOL    HW123396   2.407   0.383   2.199  0.5000 -0.3693 -0.6023
 3978SOL    HW223397   2.530   0.309   2.234 -0.1542 -0.8554 -0.8213
 3979SOL     OW23398   1.830   3.442  10.383  0.1662  0.3532 -0.2132
 3979SOL    HW123399   1.750   3.475  10.424  0.0259 -2.1605  1.5258
 3979SOL    HW223400   1.843   3.358  10.426 -0.7963  1.6462  2.5726
 3980SOL     OW23401   2.527   3.429   7.762 -0.4355 -0.6667 -0.3612
 3980SOL    HW123402   2.514   3.498   7.697 -1.7903 -0.6245 -0.0527
 3980SOL    HW223403   2.458   3.367   7.742 -0.7808  0.1867 -1.8364
 3981SOL     OW23404   4.622   3.416   5.753 -0.4804  0.0733 -0.6279
 3981SOL    HW123405   4.641   3.496   5.801 -1.1769  0.4699 -1.0011
 3981SOL    HW223406   4.708   3.389   5.722 -0.5439 -0.8544 -0.0057
 3982SOL     OW23407   2.074   0.694   4.845 -0.3181  0.2767  0.0603
 3982SOL    HW123408   2.159   0.651   4.834  0.0730  0.8174  1.0214
 3982SOL    HW223409   2.018   0.635   4.793 -0.9021 -0.0869  1.0978
 3983SOL     OW23410   4.653   0.462   5.013  0.3290  0.1857 -0.1381
 3983SOL    HW123411   0.017   0.422   5.036 -0.1709 -0.4819  0.5141
 3983SOL    HW223412   4.697   0.541   4.982 -0.0428  0.8202  0.9336
 3984SOL     OW23413   2.678   1.440  12.158  0.3641  0.7572  0.2385
 3984SOL    HW123414   2.697   1.346  12.157 -0.5249  0.5858 -1.0716
 3984SOL    HW223415   2.605   1.431  12.220  0.3933 -0.5726  0.0940
 3985SOL     OW23416   3.023   1.625   6.030  0.4722 -0.1745  0.1112
 3985SOL    HW123417   3.104   1.667   6.058  0.1148  0.9531 -0.5451
 3985SOL    HW223418   3.018   1.636   5.935  2.1912 -1.2236 -0.0807
 3986SOL     OW23419   4.327   0.056   1.613  0.3238 -0.6110  0.3874
 3986SOL    HW123420   4.378   0.104   1.549  1.1989  0.8761  2.1987
 3986SOL    HW223421   4.380   0.081   1.689  1.9006 -2.1376 -0.2185
 3987SOL     OW23422   0.312   2.650   9.585 -0.2475 -0.3008 -0.1192
 3987SOL    HW123423   0.249   2.594   9.630  2.1129 -1.5857  1.5585
 3987SOL    HW223424   0.370   2.669   9.659  1.0615 -0.3347 -1.1307
 3988SOL     OW23425   1.800   4.125  15.159  0.1240 -0.5171 -0.3056
 3988SOL    HW123426   1.795   4.085  15.072  1.7754  1.7920 -1.4398
 3988SOL    HW223427   1.713   4.100  15.190 -0.2850  2.2030  0.7484
 3989SOL     OW23428   1.226   3.464  16.315  0.4965 -0.5350 -0.3625
 3989SOL    HW123429   1.131   3.460  16.305  0.5543 -2.0689 -0.2863
 3989SOL    HW223430   1.237   3.462  16.410  0.7511 -0.1059 -0.3821
 3990SOL     OW23431   3.550   3.645  15.754  0.0532 -0.1472 -0.0047
 3990SOL    HW123432   3.499   3.566  15.773 -0.4786  0.2070  0.0342
 3990SOL    HW223433   3.511   3.700  15.822 -0.1855  0.8797 -0.9804
 3991SOL     OW23434   2.782   4.145  12.635 -0.2434 -0.4600 -0.0355
 3991SOL    HW123435   2.830   4.220  12.672  2.2938 -2.6250  1.0016
 3991SOL    HW223436   2.826   4.151  12.550  0.3039 -0.8637  0.2194
 3992SOL     OW23437   0.201   4.210  11.119  0.3591 -0.7898  0.4370
 3992SOL    HW123438   0.110   4.239  11.125  1.0209  1.5082 -0.8591
 3992SOL    HW223439   0.194   4.124  11.076  0.8331  0.4284 -2.0802
 3993SOL     OW23440   0.650   0.060  11.430  0.5875 -0.7475  0.7244
 3993SOL    HW123441   0.565   0.049  11.387 -0.1123  0.9555  1.6752
 3993SOL    HW223442   0.683   0.140  11.390 -0.0927 -1.5347 -1.4531
 3994SOL     OW23443   0.851   1.280   3.203  0.2502 -0.3952  0.1377
 3994SOL    HW123444   0.817   1.250   3.118 -2.0039 -2.2684  1.6915
 3994SOL    HW223445   0.791   1.354   3.214  1.3422  0.8045 -2.0040
 3995SOL     OW23446   2.991   0.857   6.673  0.2079  0.1174  0.1197
 3995SOL    HW123447   2.898   0.873   6.689  0.0215 -1.4457  0.5514
 3995SOL    HW223448   3.027   0.810   6.747 -0.3470  1.1603  1.0492
 3996SOL     OW23449   1.554   0.323   2.351  0.5488 -0.2232  0.2867
 3996SOL    HW123450   1.537   0.241   2.305 -0.7185 -0.0059  0.3676
 3996SOL    HW223451   1.501   0.313   2.429 -1.4427  0.4869 -0.9693
 3997SOL     OW23452   2.005   2.505   2.554 -0.2813 -0.4109  0.4246
 3997SOL    HW123453   2.050   2.589   2.554 -2.1225  0.5780  0.3672
 3997SOL    HW223454   1.919   2.539   2.579  0.9163  2.0440  1.1528
 3998SOL     OW23455   3.067   3.213   8.592  0.1530  0.1821 -0.4455
 3998SOL    HW123456   3.131   3.233   8.525  0.7076 -2.4436 -0.7247
 3998SOL    HW223457   2.984   3.249   8.560  1.3036  2.1063 -1.2503
 3999SOL     OW23458   1.246   1.031  11.326  0.2319  0.0372  0.0030
 3999SOL    HW123459   1.268   1.015  11.418  2.0812 -1.0607 -0.6392
 3999SOL    HW223460   1.291   1.112  11.306  3.2235 -1.6621 -0.1266
 4000SOL     OW23461   1.857   4.102  16.055 -0.0604 -0.3341 -0.2497
 4000SOL    HW123462   1.862   4.173  16.119  0.6505 -0.7122  0.1086
 4000SOL    HW223463   1.847   4.149  15.973 -3.8150  1.7201  1.3548
 4001SOL     OW23464   0.425   0.065   3.977 -0.1667  0.1745 -0.2477
 4001SOL    HW123465   0.393   0.095   3.891  0.3915 -0.4366 -0.6610
 4001SOL    HW223466   0.520   0.074   3.971  0.0122 -1.8632 -0.2042
 4002SOL     OW23467   0.261   1.038   8.338  0.4581  0.3204 -0.2614
 4002SOL    HW123468   0.212   1.115   8.310 -0.1629 -0.0661 -0.2580
 4002SOL    HW223469   0.222   1.020   8.423 -1.8031  1.0049 -1.1310
 4003SOL     OW23470   1.146   4.572  12.276 -0.2261  0.3902  0.7060
 4003SOL    HW123471   1.237   4.593  12.298 -0.3130  0.5995  0.8683
 4003SOL    HW223472   1.099   4.642  12.321 -1.3536  0.2298 -0.2491
 4004SOL     OW23473   1.509   2.530  10.702 -0.5216 -0.1402  0.0366
 4004SOL    HW123474   1.493   2.439  10.728 -0.8576 -0.2120 -0.4195
 4004SOL    HW223475   1.567   2.556  10.774 -1.2198 -0.4158  0.6979
 4005SOL     OW23476   0.607   0.649   4.058 -0.1479  0.2523  0.2028
 4005SOL    HW123477   0.548   0.634   3.983  2.3115 -1.2070 -1.4336
 4005SOL    HW223478   0.570   0.599   4.131 -1.6349  0.7692 -0.1895
 4006SOL     OW23479   4.242   4.159  14.514 -0.3224  0.5020 -0.4509
 4006SOL    HW123480   4.176   4.120  14.572  0.9558 -1.8301 -0.5507
 4006SOL    HW223481   4.216   4.132  14.426  1.3855 -2.1779 -0.1455
 4007SOL     OW23482   0.285   3.802   3.095  0.0931  0.3317 -0.5735
 4007SOL    HW123483   0.248   3.780   3.010  0.7055 -2.6927 -0.0714
 4007SOL    HW223484   0.318   3.713   3.107 -0.0649  0.1479 -1.5325
 4008SOL     OW23485   3.613   3.479   8.131 -0.5072 -0.0591 -0.1010
 4008SOL    HW123486   3.641   3.428   8.055  0.0473 -2.1178  1.5062
 4008SOL    HW223487   3.679   3.454   8.195  0.0671 -0.7724 -0.9730
 4009SOL     OW23488   4.337   2.662   3.295  0.4829 -0.1488  0.0449
 4009SOL    HW123489   4.336   2.569   3.315 -1.0914  0.1885  1.5142
 4009SOL    HW223490   4.428   2.685   3.317 -0.2488  1.0006  1.8370
 4010SOL     OW23491   0.176   3.344   5.708  0.2473  0.1072 -0.4992
 4010SOL    HW123492   0.252   3.398   5.729  1.2466 -0.6634 -2.1139
 4010SOL    HW223493   0.195   3.276   5.772 -0.6635  0.7976  0.5091
 4011SOL     OW23494   0.776   2.954  16.987  0.1424  0.5794 -0.8057
 4011SOL    HW123495   0.719   2.980  16.915  2.6732  2.0710 -2.2832
 4011SOL    HW223496   0.764   2.860  16.999 -0.4529  0.5324 -1.7305
 4012SOL     OW23497   2.217   1.080   5.666 -0.0980  0.3150 -0.2987
 4012SOL    HW123498   2.147   1.015   5.660 -0.7169  0.9404  0.0777
 4012SOL    HW223499   2.292   1.025   5.646 -0.3546 -0.8565  1.9530
 4013SOL     OW23500   2.301   3.214  14.062 -0.6181 -0.0831 -0.1668
 4013SOL    HW123501   2.232   3.216  13.996 -0.6945 -2.3169 -0.1697
 4013SOL    HW223502   2.252   3.209  14.144 -0.2697 -1.5790 -0.0352
 4014SOL     OW23503   2.731   3.754   7.267  0.3399  0.5707  0.3017
 4014SOL    HW123504   2.754   3.666   7.297  0.7353  0.8717  0.8924
 4014SOL    HW223505   2.684   3.718   7.192  0.9888  1.0379 -0.3337
 4015SOL     OW23506   4.508   0.990   7.163  0.2108  0.3295 -0.0559
 4015SOL    HW123507   4.598   1.003   7.193  0.0137 -1.4081  1.3152
 4015SOL    HW223508   4.482   0.905   7.199  0.3789  0.1812 -0.2855
 4016SOL     OW23509   0.370   0.874  11.216  0.2281  0.7089 -0.5434
 4016SOL    HW123510   0.382   0.935  11.290 -1.3937 -1.5604  1.5927
 4016SOL    HW223511   0.335   0.927  11.145  0.7569  1.4407 -0.2653
 4017SOL     OW23512   1.597   2.433   3.898  0.0009  0.8135 -0.3306
 4017SOL    HW123513   1.587   2.499   3.967 -1.2585  0.1686  0.1062
 4017SOL    HW223514   1.678   2.392   3.928 -0.1704  1.1635  0.6189
 4018SOL     OW23515   2.459   3.928   2.524  0.2853  0.2967 -0.0328
 4018SOL    HW123516   2.443   3.966   2.438  0.7174  0.1093 -0.1940
 4018SOL    HW223517   2.469   4.010   2.572  0.2057 -0.0339  0.5488
 4019SOL     OW23518   4.717   0.590  11.946 -0.0348  0.1774  0.1873
 4019SOL    HW123519   4.638   0.556  11.904  0.8798 -1.9704  0.1576
 4019SOL    HW223520   4.719   0.532  12.022  0.1531  0.4844  0.4133
 4020SOL     OW23521   0.593   1.903   8.329  0.2146  0.2715  0.2308
 4020SOL    HW123522   0.688   1.912   8.318  0.1473  1.0943  0.3402
 4020SOL    HW223523   0.586   1.876   8.237 -0.1670 -0.7361  0.5613
 4021SOL     OW23524   0.765   2.625   5.247 -0.0694 -0.1952 -0.6166
 4021SOL    HW123525   0.835   2.565   5.224  0.8324  0.7363 -0.3096
 4021SOL    HW223526   0.704   2.571   5.298  0.4713 -1.1205 -0.9697
 4022SOL     OW23527   0.110   1.131  15.790  0.3550 -0.1955 -0.4348
 4022SOL    HW123528   0.099   1.193  15.717  1.8698  0.7609  0.1551
 4022SOL    HW223529   0.206   1.133  15.792  0.3732 -0.7951 -0.7077
 4023SOL     OW23530   1.710   0.773   6.217  0.1174  0.0809  0.2769
 4023SOL    HW123531   1.626   0.767   6.171  0.1587 -0.0708  0.2236
 4023SOL    HW223532   1.737   0.682   6.206  1.3821  0.5111 -0.1180
 4024SOL     OW23533   0.053   1.372   9.381 -0.3514  0.5458 -0.0555
 4024SOL    HW123534   0.147   1.390   9.383 -0.2618  0.2186 -1.1245
 4024SOL    HW223535   0.022   1.463   9.381  1.2258  1.1021 -2.8259
 4025SOL     OW23536   1.435   3.906   5.200  0.1910 -0.2102 -0.4117
 4025SOL    HW123537   1.447   3.811   5.209  1.2302 -0.1441 -1.0798
 4025SOL    HW223538   1.525   3.933   5.216  0.0787 -0.5498  0.7741
 4026SOL     OW23539   0.475   1.293   3.085  0.0538 -0.1714  0.4041
 4026SOL    HW123540   0.421   1.372   3.079  1.6913  0.8101 -1.4961
 4026SOL    HW223541   0.453   1.273   3.176 -1.5536  4.4227  1.0234
 4027SOL     OW23542   1.011   4.052   7.782 -0.0951  0.0287  0.4675
 4027SOL    HW123543   1.097   4.043   7.823  1.3533 -0.2150 -2.6349
 4027SOL    HW223544   0.979   4.126   7.834 -2.1090 -0.4165 -0.1203
 4028SOL     OW23545   2.421   4.098  15.138  0.6083  0.5265 -0.1978
 4028SOL    HW123546   2.345   4.044  15.119 -0.2514  1.5242  0.4218
 4028SOL    HW223547   2.434   4.086  15.232 -2.1492  1.1879  0.2620
 4029SOL     OW23548   1.727   0.777   2.620 -0.2704 -0.0289 -0.2498
 4029SOL    HW123549   1.670   0.841   2.663 -2.2603 -0.4516 -2.2346
 4029SOL    HW223550   1.811   0.822   2.628 -0.0531 -0.1231 -2.0973
 4030SOL     OW23551   0.457   3.074   9.534  0.0638 -0.3377 -0.0936
 4030SOL    HW123552   0.438   3.038   9.620  0.8645 -1.3463 -0.3352
 4030SOL    HW223553   0.365   3.092   9.515  0.0236 -0.7760 -0.3293
 4031SOL     OW23554   4.039   1.751   5.264  0.0593 -0.1377  0.2405
 4031SOL    HW123555   4.079   1.801   5.194  1.9802 -2.4341 -0.3119
 4031SOL    HW223556   4.029   1.817   5.333 -1.0441  0.2363 -0.2927
 4032SOL     OW23557   1.336   3.360   8.424  0.4008  0.6682  0.1338
 4032SOL    HW123558   1.361   3.418   8.352  1.9108  0.6313  0.6258
 4032SOL    HW223559   1.241   3.347   8.429  0.4571  0.3152  0.3217
 4033SOL     OW23560   0.325   2.829   0.151 -0.3128 -0.1960  0.2445
 4033SOL    HW123561   0.373   2.879   0.086 -1.3445 -0.6326 -0.8489
 4033SOL    HW223562   0.343   2.882   0.229  1.2705 -0.3631  0.0005
 4034SOL     OW23563   1.561   0.337  17.550  0.6987  0.8566  0.1194
 4034SOL    HW123564   1.617   0.389  17.493 -1.6617  1.2154 -1.9098
 4034SOL    HW223565   1.524   0.274  17.488  0.0438  1.0760  0.2816
 4035SOL     OW23566   4.274   2.126   6.804  0.4570  0.1800  0.7438
 4035SOL    HW123567   4.328   2.049   6.791 -0.7144 -0.5118 -0.0494
 4035SOL    HW223568   4.236   2.109   6.890  0.0925  1.4503  0.8447
 4036SOL     OW23569   0.272   0.370   3.905 -0.5031  0.9158  0.2996
 4036SOL    HW123570   0.311   0.298   3.855 -0.4816  0.7106  0.6047
 4036SOL    HW223571   0.183   0.356   3.870  0.1286  0.7296 -1.2244
 4037SOL     OW23572   2.030   4.299  12.045 -0.3398  0.1763  0.0001
 4037SOL    HW123573   2.090   4.361  12.004  0.0975  0.3803  0.9751
 4037SOL    HW223574   2.048   4.217  11.999  1.2120  0.5375 -0.0468
 4038SOL     OW23575   1.673   1.902  12.328 -0.0264 -0.4029 -0.1782
 4038SOL    HW123576   1.751   1.903  12.385  0.8294  2.3541 -1.3930
 4038SOL    HW223577   1.650   1.995  12.332 -1.4210 -0.6515 -2.9828
 4039SOL     OW23578   2.873   1.752  14.486 -0.4593 -0.1544  0.2324
 4039SOL    HW123579   2.889   1.844  14.465  0.1832 -1.0067 -3.0667
 4039SOL    HW223580   2.808   1.756  14.556 -2.1512  2.3149 -1.4813
 4040SOL     OW23581   4.300   0.238   8.605  0.6754 -0.0174  0.5501
 4040SOL    HW123582   4.206   0.236   8.624  0.9537 -2.4056  1.6526
 4040SOL    HW223583   4.327   0.311   8.662 -1.3551  0.1207  1.3407
 4041SOL     OW23584   1.443   4.395   8.180 -0.0345  0.6952 -0.3173
 4041SOL    HW123585   1.435   4.446   8.100 -0.9176  1.3878  0.2117
 4041SOL    HW223586   1.398   4.316   8.149 -0.7549  0.1556  2.0571
 4042SOL     OW23587   1.574   1.356   0.207 -0.0834  0.5481 -0.0182
 4042SOL    HW123588   1.490   1.354   0.162  0.4556  2.5972 -1.1162
 4042SOL    HW223589   1.569   1.444   0.244 -0.0469  1.0690 -1.2737
 4043SOL     OW23590   0.525   1.443   2.782  0.0686 -0.1404  0.1648
 4043SOL    HW123591   0.458   1.376   2.793  0.2328 -0.4382 -0.6688
 4043SOL    HW223592   0.600   1.388   2.759 -0.0658 -0.7921  1.2865
 4044SOL     OW23593   1.379   1.535   0.508 -0.4817 -0.4015  0.2654
 4044SOL    HW123594   1.409   1.604   0.449  1.9962 -0.8893  0.9119
 4044SOL    HW223595   1.464   1.497   0.531 -0.7162  0.4387  2.5445
 4045SOL     OW23596   3.025   3.296   3.232 -0.0713 -0.1573 -0.5299
 4045SOL    HW123597   2.940   3.312   3.272 -0.7204 -1.4699 -1.4056
 4045SOL    HW223598   3.054   3.375   3.186 -1.0228  1.7273  2.1020
 4046SOL     OW23599   3.648   1.694   9.793 -0.1075  0.4959 -0.4710
 4046SOL    HW123600   3.676   1.754   9.723  1.6253  0.5927  0.3145
 4046SOL    HW223601   3.572   1.664   9.744 -0.4702  0.9421 -0.1851
 4047SOL     OW23602   4.434   2.912   2.332 -0.1298 -0.1854  0.0043
 4047SOL    HW123603   4.371   2.879   2.268  0.9281 -2.0162 -0.0943
 4047SOL    HW223604   4.371   2.956   2.389  1.3497  0.2279  1.3518
 4048SOL     OW23605   3.994   4.050  17.246 -0.1645  0.4294 -0.2401
 4048SOL    HW123606   4.040   4.107  17.185 -1.7565  0.8844 -1.0313
 4048SOL    HW223607   4.052   4.060  17.322 -0.1008 -0.1774 -0.2152
 4049SOL     OW23608   0.639   3.832  10.107 -0.7433  0.1505  0.2595
 4049SOL    HW123609   0.706   3.883  10.153 -0.6114 -0.7505  1.0753
 4049SOL    HW223610   0.576   3.902  10.091 -0.8113  0.3953  1.5266
 4050SOL     OW23611   4.653   2.628  16.607  0.6527 -0.4112  0.8614
 4050SOL    HW123612   4.568   2.670  16.602  0.9341  0.0372 -0.0385
 4050SOL    HW223613   4.682   2.640  16.517 -0.3005 -0.3301  0.5741
 4051SOL     OW23614   3.971   2.774  15.065 -1.0604 -0.3727 -0.2319
 4051SOL    HW123615   4.037   2.705  15.061  0.4283  1.0556 -0.2081
 4051SOL    HW223616   4.021   2.846  15.026 -1.3540  0.6285  1.2252
 4052SOL     OW23617   2.888   0.222  12.193 -0.2553  0.3590 -0.2931
 4052SOL    HW123618   2.974   0.182  12.203 -1.5967 -2.8897 -1.6050
 4052SOL    HW223619   2.893   0.227  12.098 -3.3780  0.6359 -0.4495
 4053SOL     OW23620   3.897   0.909   5.469 -0.4506 -0.1872  0.0427
 4053SOL    HW123621   3.899   0.870   5.556  1.8715 -0.8583 -0.3280
 4053SOL    HW223622   3.947   0.844   5.420  1.7723  0.6607  1.1847
 4054SOL     OW23623   0.594   2.419   4.666  0.0412  0.2657 -0.0716
 4054SOL    HW123624   0.686   2.397   4.670 -0.0014 -0.3383 -2.4921
 4054SOL    HW223625   0.551   2.362   4.729 -0.1585  0.5142  0.0186
 4055SOL     OW23626   2.746   0.493   8.997  0.7046  0.2708  0.6156
 4055SOL    HW123627   2.806   0.554   8.955 -0.1756  0.0280 -0.9579
 4055SOL    HW223628   2.812   0.459   9.058  0.8378 -0.3649  0.1204
 4056SOL     OW23629   2.467   3.785   4.637 -0.4659 -0.0486 -0.1041
 4056SOL    HW123630   2.439   3.839   4.711 -1.2435 -0.8808  0.2195
 4056SOL    HW223631   2.562   3.794   4.634 -0.1653 -3.2285 -0.6705
 4057SOL     OW23632   2.070   2.296   4.059 -0.0587  0.5842 -0.3225
 4057SOL    HW123633   2.147   2.297   4.002 -1.3813 -1.8885 -2.1573
 4057SOL    HW223634   2.117   2.311   4.141 -0.9049 -0.8622  0.4239
 4058SOL     OW23635   1.647   2.406   7.206  0.6469  0.0683  0.5492
 4058SOL    HW123636   1.659   2.380   7.115  1.0498  0.1602  0.5779
 4058SOL    HW223637   1.574   2.468   7.198 -0.5353 -0.8470  4.1546
 4059SOL     OW23638   2.282   0.735   6.571 -0.1171 -0.4032  0.0689
 4059SOL    HW123639   2.199   0.757   6.612  0.6151  3.0461 -0.3137
 4059SOL    HW223640   2.295   0.641   6.582 -1.4971 -0.3654  1.8554
 4060SOL     OW23641   1.624   3.807   6.157  0.2631 -0.1836 -0.8183
 4060SOL    HW123642   1.600   3.814   6.065  0.3763  1.0499 -0.7465
 4060SOL    HW223643   1.708   3.852   6.156  0.2357 -0.1418 -1.1694
 4061SOL     OW23644   2.973   2.151   9.547  0.1105 -0.2057  0.2087
 4061SOL    HW123645   3.004   2.122   9.461 -1.1760 -2.2116  0.4301
 4061SOL    HW223646   3.046   2.140   9.607  2.1783  1.2438 -2.0223
 4062SOL     OW23647   2.060   4.359   3.570 -0.2961  0.8427 -0.2526
 4062SOL    HW123648   2.057   4.387   3.662  0.2294 -1.7267  0.5472
 4062SOL    HW223649   2.135   4.300   3.568 -0.6502  0.3883  0.0800
 4063SOL     OW23650   0.450   1.234   3.342  0.2897  0.0374  0.4760
 4063SOL    HW123651   0.465   1.171   3.414  0.9453 -0.3937 -0.0382
 4063SOL    HW223652   0.478   1.310   3.394  2.5306  0.5901 -1.5650
 4064SOL     OW23653   0.645   2.127   9.424  0.5953 -0.0884 -0.0510
 4064SOL    HW123654   0.738   2.110   9.439 -0.0552 -1.8088  1.8981
 4064SOL    HW223655   0.648   2.212   9.380 -1.8556 -0.5458 -1.1354
 4065SOL     OW23656   2.216   1.377   3.798  0.0772 -0.6270  0.1600
 4065SOL    HW123657   2.202   1.431   3.876  1.7737  0.3902 -0.2361
 4065SOL    HW223658   2.285   1.324   3.838  0.6393 -0.3239 -0.3870
 4066SOL     OW23659   1.938   2.073   8.364  0.0208 -0.1226 -0.0608
 4066SOL    HW123660   2.005   2.141   8.361  0.3336 -0.4259 -0.0132
 4066SOL    HW223661   1.856   2.121   8.376 -0.7062 -1.5009  0.5301
 4067SOL     OW23662   0.641   2.289   6.854  0.5897  0.6118 -0.2561
 4067SOL    HW123663   0.598   2.315   6.773  2.2014  4.2179  0.0381
 4067SOL    HW223664   0.636   2.367   6.909 -0.7300  0.6099 -0.3822
 4068SOL     OW23665   0.581   0.070   1.590  0.4235 -0.5082  0.2989
 4068SOL    HW123666   0.535   0.029   1.663  0.1970  0.1733  0.5422
 4068SOL    HW223667   0.665   0.026   1.598 -0.3487 -2.0091  0.2143
 4069SOL     OW23668   2.056   2.408   1.498 -0.4165  0.5700 -0.8538
 4069SOL    HW123669   2.083   2.370   1.582 -0.4475  0.0905 -1.0622
 4069SOL    HW223670   2.137   2.450   1.467  0.8475  1.0848  3.1245
 4070SOL     OW23671   0.354   4.447   7.870  0.8174  0.3815  0.1046
 4070SOL    HW123672   0.439   4.426   7.910 -0.2440 -1.0670  1.6193
 4070SOL    HW223673   0.329   4.361   7.836 -0.7842  0.5650  0.8489
 4071SOL     OW23674   2.553   3.472  14.430  0.0780  0.4280  0.6624
 4071SOL    HW123675   2.611   3.436  14.364 -0.3695 -0.4582  0.7555
 4071SOL    HW223676   2.602   3.436  14.504 -1.7249  0.3502  1.8251
 4072SOL     OW23677   0.999   4.168   4.036 -0.4049  0.2603 -0.0880
 4072SOL    HW123678   0.969   4.118   4.112 -0.9254 -0.4073 -0.7270
 4072SOL    HW223679   1.019   4.254   4.072  0.2451 -0.5322  1.4046
 4073SOL     OW23680   0.375   3.207   0.482  0.2908 -0.2599  0.5436
 4073SOL    HW123681   0.426   3.199   0.401  0.8063  2.6933  0.5519
 4073SOL    HW223682   0.354   3.299   0.466  2.1656  0.1569  0.4672
 4074SOL     OW23683   2.699   3.034  11.493  0.6880  0.2179  0.0288
 4074SOL    HW123684   2.719   3.100  11.427  0.1619  0.1321 -0.2110
 4074SOL    HW223685   2.789   3.017  11.521  0.0533 -2.9340  0.1202
 4075SOL     OW23686   0.416   4.035   9.928 -0.2933  0.1464 -0.1207
 4075SOL    HW123687   0.396   3.981   9.852  0.7177 -1.3514  0.6750
 4075SOL    HW223688   0.330   4.077   9.932 -0.8238 -0.8285 -1.1561
 4076SOL     OW23689   0.474   2.980  15.037 -0.3564 -0.0346  0.1083
 4076SOL    HW123690   0.460   2.904  15.094 -2.0507  0.4367  0.3033
 4076SOL    HW223691   0.389   3.022  15.034  0.6615  1.9993  0.0628
 4077SOL     OW23692   4.194   1.210   1.599  0.0545  0.0561  0.1413
 4077SOL    HW123693   4.241   1.131   1.629  2.2456  1.2072 -0.2338
 4077SOL    HW223694   4.252   1.283   1.622  1.1742 -0.7456 -0.1002
 4078SOL     OW23695   1.910   0.666   1.172 -0.2900 -0.0161 -0.4054
 4078SOL    HW123696   1.819   0.663   1.143  0.1473 -0.0012 -1.7959
 4078SOL    HW223697   1.888   0.666   1.265 -1.1828 -0.9086 -0.6159
 4079SOL     OW23698   3.045   4.011   1.762 -0.3040 -0.4514 -0.3194
 4079SOL    HW123699   3.093   3.985   1.684  0.2629 -2.6071  0.7429
 4079SOL    HW223700   3.101   4.083   1.790  0.4582 -1.0426 -0.3333
 4080SOL     OW23701   2.683   0.901  14.819  0.6798 -0.3507  0.3904
 4080SOL    HW123702   2.686   0.895  14.915 -0.3694 -2.4773  0.2884
 4080SOL    HW223703   2.619   0.972  14.816  3.5743  2.1916 -1.4917
 4081SOL     OW23704   2.862   3.166   4.553  0.2341  0.0400 -0.2388
 4081SOL    HW123705   2.921   3.184   4.481  1.5130 -1.7754  0.3425
 4081SOL    HW223706   2.900   3.083   4.581 -1.2660 -0.9200 -1.0812
 4082SOL     OW23707   2.077   0.333   5.028  0.1454  0.5194  0.5943
 4082SOL    HW123708   2.113   0.377   5.106  0.1366  0.6852  0.5039
 4082SOL    HW223709   2.028   0.409   4.999  0.9051  0.0145 -1.9957
 4083SOL     OW23710   3.238   1.807  16.613  0.5080 -0.2055  0.5259
 4083SOL    HW123711   3.267   1.897  16.631 -3.6543  1.5286 -1.2351
 4083SOL    HW223712   3.157   1.802  16.665 -0.7124  2.2568 -1.0925
 4084SOL     OW23713   2.638   2.436   7.867 -0.2379  0.6280  0.9291
 4084SOL    HW123714   2.581   2.417   7.942  0.2871  0.8998  1.3911
 4084SOL    HW223715   2.623   2.359   7.812 -1.1395  2.0415 -0.7935
 4085SOL     OW23716   4.430   1.137  17.012  0.2987 -0.4002  0.5159
 4085SOL    HW123717   4.501   1.165  16.955 -0.6124  2.3868  0.7575
 4085SOL    HW223718   4.449   1.158  17.104  0.1525 -3.3928  1.2337
 4086SOL     OW23719   2.133   2.979   2.227  0.1604  0.8350  0.0304
 4086SOL    HW123720   2.057   3.012   2.179  0.1109  1.0367  0.2479
 4086SOL    HW223721   2.122   3.034   2.305 -1.1911 -0.9659  1.1401
 4087SOL     OW23722   0.623   3.621  12.018 -0.3769  0.2302 -0.0885
 4087SOL    HW123723   0.651   3.558  11.952  1.0995  0.9141 -0.1183
 4087SOL    HW223724   0.646   3.699  11.967  1.9287  0.9622  2.0788
 4088SOL     OW23725   2.757   3.369   0.871 -0.2611 -0.2356  0.0177
 4088SOL    HW123726   2.819   3.328   0.932 -1.0590 -3.8931 -1.5915
 4088SOL    HW223727   2.684   3.308   0.887 -0.2793  0.5924  3.0823
 4089SOL     OW23728   1.220   2.341   7.717 -0.1640 -0.3544  0.0725
 4089SOL    HW123729   1.225   2.426   7.761  2.5303 -0.2637 -0.4529
 4089SOL    HW223730   1.238   2.293   7.797  2.4645  1.7092  0.6968
 4090SOL     OW23731   1.656   1.500   3.153 -0.2785  0.0667  0.4479
 4090SOL    HW123732   1.651   1.558   3.228  4.4664  0.0729  0.7390
 4090SOL    HW223733   1.703   1.425   3.189 -0.1380  0.1871  0.5099
 4091SOL     OW23734   4.311   2.547  13.602 -0.4663  0.7422 -0.0033
 4091SOL    HW123735   4.400   2.541  13.637 -0.3691  4.4327  0.4186
 4091SOL    HW223736   4.308   2.630  13.555 -1.3820 -1.6690 -4.1743
 4092SOL     OW23737   0.843   3.955   7.177  0.1196 -0.3657 -0.4062
 4092SOL    HW123738   0.857   3.862   7.159 -3.0206 -1.0100  0.5767
 4092SOL    HW223739   0.748   3.957   7.186  0.2285  0.6056  0.4723
 4093SOL     OW23740   0.360   4.330   3.156 -0.6008 -0.5936  0.1265
 4093SOL    HW123741   0.384   4.239   3.173 -1.2740 -0.6239  0.9187
 4093SOL    HW223742   0.308   4.346   3.235 -0.2631  1.1244  0.0085
 4094SOL     OW23743   2.820   0.619   5.845  0.3110  1.3397  0.4002
 4094SOL    HW123744   2.728   0.640   5.865 -0.1128  1.5631 -1.8097
 4094SOL    HW223745   2.838   0.670   5.766 -1.7837 -1.2385 -1.7454
 4095SOL     OW23746   4.265   3.549  12.465 -0.1411  1.1787 -0.7432
 4095SOL    HW123747   4.203   3.621  12.451 -1.3246  0.5362  1.2421
 4095SOL    HW223748   4.295   3.575  12.552 -1.7045 -2.2587  0.8166
 4096SOL     OW23749   2.367   2.449   2.648 -0.2565 -0.1286 -0.4840
 4096SOL    HW123750   2.342   2.474   2.559  1.8443 -0.9579 -1.2957
 4096SOL    HW223751   2.361   2.530   2.699 -0.9991 -0.7003  0.3355
 4097SOL     OW23752   2.869   0.618   3.937 -0.1456  0.3723 -0.0110
 4097SOL    HW123753   2.839   0.554   4.002 -0.6690 -0.1361 -0.7619
 4097SOL    HW223754   2.942   0.654   3.988 -1.4715  0.9330  1.4837
 4098SOL     OW23755   4.604   0.495   9.445  0.0135 -0.1996  0.3478
 4098SOL    HW123756   4.660   0.522   9.518  0.5764  0.3810 -0.2935
 4098SOL    HW223757   4.521   0.535   9.471  1.2531 -0.9022  5.2366
 4099SOL     OW23758   3.296   0.211   9.135 -0.1680 -0.0907 -0.8159
 4099SOL    HW123759   3.335   0.232   9.050  1.0812  0.4535 -0.1078
 4099SOL    HW223760   3.299   0.290   9.188  2.6799 -2.2135  2.1093
 4100SOL     OW23761   1.798   4.125   1.618  0.0630 -0.2574  0.4289
 4100SOL    HW123762   1.815   4.172   1.536 -1.2621 -2.0739 -0.8826
 4100SOL    HW223763   1.813   4.200   1.676 -1.0308 -0.6242  1.1802
 4101SOL     OW23764   0.320   4.613  10.561  0.5020 -0.1371  0.6152
 4101SOL    HW123765   0.252   4.648  10.619  0.2045  1.9921 -1.0299
 4101SOL    HW223766   0.263   4.601  10.486  1.4350  0.0074 -0.1236
 4102SOL     OW23767   1.783   3.199  10.528 -0.1566  0.0459 -0.6009
 4102SOL    HW123768   1.787   3.142  10.451  3.7827 -0.8481  0.2188
 4102SOL    HW223769   1.764   3.134  10.596  0.1862  1.0272  0.4204
 4103SOL     OW23770   0.509   0.200  10.378  0.3199 -0.2744 -0.4663
 4103SOL    HW123771   0.534   0.117  10.419 -2.6521 -1.0266 -0.1711
 4103SOL    HW223772   0.417   0.180  10.361 -0.0205  1.3848 -0.5776
 4104SOL     OW23773   1.048   3.484   5.001  0.0457 -0.4842  0.0552
 4104SOL    HW123774   1.109   3.434   5.056  1.3935 -0.3334 -1.2960
 4104SOL    HW223775   1.070   3.572   5.032  0.0088 -0.6552  0.5674
 4105SOL     OW23776   2.990   0.192   6.376 -0.1531 -0.0576 -0.5457
 4105SOL    HW123777   3.040   0.131   6.430  0.5015  1.6530  0.7710
 4105SOL    HW223778   3.039   0.193   6.294  0.5945 -2.1154 -0.1370
 4106SOL     OW23779   4.528   1.921   5.703  0.1381 -0.2501  0.3944
 4106SOL    HW123780   4.566   1.854   5.760  1.3960 -2.4832 -3.0493
 4106SOL    HW223781   4.476   1.972   5.764 -0.2217  0.7944 -0.7930
 4107SOL     OW23782   2.480   2.585   3.724  0.0805 -0.1363  0.3267
 4107SOL    HW123783   2.542   2.627   3.783 -0.0159  0.0556  0.2903
 4107SOL    HW223784   2.421   2.529   3.775 -0.5570 -0.3978 -0.6895
 4108SOL     OW23785   0.787   3.219   3.467  0.2427  0.3008 -0.4356
 4108SOL    HW123786   0.723   3.149   3.458  0.1792  0.5639 -2.1762
 4108SOL    HW223787   0.801   3.260   3.381  2.9391  2.3720  0.9679
 4109SOL     OW23788   2.731   2.443   9.241 -0.3299  0.0796 -0.0648
 4109SOL    HW123789   2.823   2.468   9.249 -0.3406 -0.2245  0.9546
 4109SOL    HW223790   2.691   2.453   9.327  1.3759 -0.5051  0.8063
 4110SOL     OW23791   1.788   3.102   9.404  0.2691 -0.2386  0.1302
 4110SOL    HW123792   1.746   3.039   9.345 -2.0207 -0.0437  1.5254
 4110SOL    HW223793   1.760   3.062   9.487 -0.5119 -0.7240 -0.3615
 4111SOL     OW23794   3.014   1.243   2.145  0.0234 -0.2366  1.0772
 4111SOL    HW123795   3.008   1.156   2.186  0.2913 -0.6307  0.2984
 4111SOL    HW223796   3.008   1.294   2.225 -0.2979  0.6554  0.4737
 4112SOL     OW23797   1.681   2.630   4.883  0.3331 -0.3590 -0.0768
 4112SOL    HW123798   1.632   2.695   4.831 -0.4218 -1.8521 -1.2153
 4112SOL    HW223799   1.647   2.549   4.846  0.4235 -0.4372  0.0118
 4113SOL     OW23800   0.861   4.555   3.292  0.2189  0.7773  0.2314
 4113SOL    HW123801   0.928   4.505   3.246 -2.7474 -1.1113 -2.1149
 4113SOL    HW223802   0.854   4.635   3.238 -0.2815 -0.2164 -1.1795
 4114SOL     OW23803   4.111   3.085   4.408 -0.2958  0.6997  0.3169
 4114SOL    HW123804   4.065   3.165   4.384 -1.6497 -0.7003 -1.7025
 4114SOL    HW223805   4.075   3.060   4.493  0.1860 -1.2931 -0.0663
 4115SOL     OW23806   3.872   4.006  11.357  0.2594  0.0017  0.2571
 4115SOL    HW123807   3.885   3.915  11.332  1.0783  0.2308 -0.1587
 4115SOL    HW223808   3.906   3.995  11.446  2.6023 -1.9145 -0.8957
 4116SOL     OW23809   0.081   1.098   3.112  0.3177 -0.4554 -0.4221
 4116SOL    HW123810   0.090   1.160   3.040 -0.4959  2.6720  2.1971
 4116SOL    HW223811   0.086   1.016   3.063  0.9821 -0.0489 -1.0321
 4117SOL     OW23812   3.161   3.929   7.827  0.2316  0.4186  0.2155
 4117SOL    HW123813   3.147   3.947   7.920 -3.6744  0.8825 -0.4787
 4117SOL    HW223814   3.074   3.923   7.788  0.8519 -0.5560 -1.0218
 4118SOL     OW23815   3.674   0.102  13.472 -0.3212  0.0281 -0.3828
 4118SOL    HW123816   3.622   0.146  13.540 -0.2267  0.4266 -0.5663
 4118SOL    HW223817   3.757   0.148  13.476  0.0699 -0.9374  3.2236
 4119SOL     OW23818   3.864   0.295   6.586  0.2609 -0.5628  0.3865
 4119SOL    HW123819   3.869   0.389   6.600 -2.7956 -0.5353  1.3054
 4119SOL    HW223820   3.874   0.260   6.675  0.1117  1.2091  1.1090
 4120SOL     OW23821   2.516   0.970   5.693  0.0347  0.3449 -0.6638
 4120SOL    HW123822   2.571   0.942   5.620 -0.2538  0.4572 -0.9211
 4120SOL    HW223823   2.534   1.064   5.697  1.8470 -0.0081 -0.4749
 4121SOL     OW23824   3.488   0.679   3.738 -0.3553 -0.1549  0.1493
 4121SOL    HW123825   3.509   0.674   3.645 -2.3643  0.5228 -0.3590
 4121SOL    HW223826   3.407   0.626   3.743  0.3878 -1.4582 -1.5380
 4122SOL     OW23827   4.035   3.654   5.577 -0.3175  0.2376  0.5380
 4122SOL    HW123828   4.012   3.622   5.489  0.4579 -1.6504  1.0345
 4122SOL    HW223829   4.052   3.744   5.548 -0.4630 -0.7887 -2.8009
 4123SOL     OW23830   0.349   2.552  13.818 -0.2718  0.4857 -0.1345
 4123SOL    HW123831   0.413   2.521  13.881 -0.0768 -1.0172 -1.0757
 4123SOL    HW223832   0.375   2.506  13.738 -0.6603  2.0023 -1.1298
 4124SOL     OW23833   1.595   1.644   6.426 -0.0298 -0.6575 -0.6743
 4124SOL    HW123834   1.512   1.615   6.389 -0.6079  0.0918  0.0265
 4124SOL    HW223835   1.619   1.721   6.374 -0.6500  0.0457  0.0646
 4125SOL     OW23836   2.386   0.092   4.618  0.5381  0.5846 -0.1910
 4125SOL    HW123837   2.332   0.135   4.685  0.2041  0.4176 -0.3565
 4125SOL    HW223838   2.417   0.021   4.673  1.8234  1.1575 -0.1752
 4126SOL     OW23839   2.457   0.069  10.794  0.6391  0.3663 -0.4257
 4126SOL    HW123840   2.460   0.041  10.885 -3.2144  0.9758 -0.1212
 4126SOL    HW223841   2.542   0.033  10.768 -0.4533 -1.1351 -1.9567
 4127SOL     OW23842   2.583   0.511  14.934  0.1026  0.1220  0.6533
 4127SOL    HW123843   2.542   0.434  14.895  0.7656 -0.5863  1.3667
 4127SOL    HW223844   2.556   0.571  14.864 -0.1484  0.8654  1.3767
 4128SOL     OW23845   0.151   0.573   6.371  0.3431  0.5698  0.4691
 4128SOL    HW123846   0.071   0.625   6.371  0.3396  0.5714  1.9535
 4128SOL    HW223847   0.124   0.498   6.424 -0.9522 -0.2698 -1.3482
 4129SOL     OW23848   2.213   0.708   7.766 -0.4727  0.2085 -0.1221
 4129SOL    HW123849   2.191   0.625   7.724  0.2231 -1.8648  3.6759
 4129SOL    HW223850   2.252   0.756   7.693  1.0755 -3.1032 -1.4422
 4130SOL     OW23851   2.796   0.973   1.544 -0.2992  0.2675 -0.5909
 4130SOL    HW123852   2.720   0.962   1.601  1.0861  4.4225  2.0485
 4130SOL    HW223853   2.853   0.898   1.564 -1.8635 -0.6944  0.2604
 4131SOL     OW23854   0.778   0.263  11.018  0.0508 -0.5643  0.4373
 4131SOL    HW123855   0.753   0.286  11.107  4.2425 -1.6269  1.8911
 4131SOL    HW223856   0.850   0.203  11.036  0.7519  0.0892 -0.1869
 4132SOL     OW23857   1.183   1.330   2.254 -0.2796  0.4499  0.1008
 4132SOL    HW123858   1.269   1.297   2.228 -0.0440  0.0792  1.3533
 4132SOL    HW223859   1.126   1.274   2.201  2.8657 -1.7265 -0.9851
 4133SOL     OW23860   1.694   2.013   4.062 -0.4952 -0.7185  0.1025
 4133SOL    HW123861   1.754   1.974   4.125 -0.4596  0.2373  0.6602
 4133SOL    HW223862   1.646   1.933   4.041 -1.5176  0.3724 -1.7289
 4134SOL     OW23863   2.976   2.315  14.905 -0.2707  0.4006 -0.0711
 4134SOL    HW123864   2.983   2.398  14.858 -0.0260  1.7504  2.3569
 4134SOL    HW223865   3.041   2.268  14.854  0.5036  0.5465  0.7793
 4135SOL     OW23866   0.321   3.636   8.923 -0.3990 -0.4937  0.2332
 4135SOL    HW123867   0.239   3.587   8.917 -0.5266 -0.5349  2.1829
 4135SOL    HW223868   0.380   3.567   8.954  0.5996  0.6748  0.9650
 4136SOL     OW23869   3.178   0.183   4.105  0.0528 -0.2347 -0.5471
 4136SOL    HW123870   3.217   0.253   4.158 -3.1680 -0.3371  1.9797
 4136SOL    HW223871   3.105   0.237   4.076  0.8488  1.8125  1.2159
 4137SOL     OW23872   3.782   2.263   5.369  0.0052  0.4556 -0.4118
 4137SOL    HW123873   3.702   2.258   5.316 -0.0942  0.8639 -0.3001
 4137SOL    HW223874   3.778   2.175   5.407  0.0201  1.1068  1.0892
 4138SOL     OW23875   4.498   4.386   3.362 -0.0066 -0.8378  0.3604
 4138SOL    HW123876   4.512   4.362   3.454  0.8625 -1.7711 -0.0125
 4138SOL    HW223877   4.468   4.305   3.321 -1.7843  0.1349 -0.2856
 4139SOL     OW23878   0.338   1.951   8.398 -0.3151  0.2550  0.6616
 4139SOL    HW123879   0.420   1.906   8.378  0.2430  1.1651  0.8541
 4139SOL    HW223880   0.382   2.018   8.452  0.3286 -0.1745  0.6726
 4140SOL     OW23881   0.449   0.884   5.200 -0.2718  0.0882  0.0134
 4140SOL    HW123882   0.505   0.817   5.239 -0.8238 -1.2623 -1.5206
 4140SOL    HW223883   0.505   0.959   5.218  0.6673 -0.4677 -0.5905
 4141SOL     OW23884   2.544   3.244   8.940  0.0161 -0.2406 -0.6559
 4141SOL    HW123885   2.629   3.266   8.978 -1.1743  0.4397  1.6074
 4141SOL    HW223886   2.562   3.153   8.915  2.2903  0.2287 -0.7053
 4142SOL     OW23887   3.855   3.003   7.212  0.1805 -0.5166 -0.0227
 4142SOL    HW123888   3.940   3.044   7.194  0.3138 -0.9010 -0.2746
 4142SOL    HW223889   3.883   2.929   7.266  3.2880 -0.6993 -1.8719
 4143SOL     OW23890   2.652   3.203   4.212  0.1696  0.1251 -0.1454
 4143SOL    HW123891   2.637   3.133   4.276 -1.5453 -1.3234 -2.1546
 4143SOL    HW223892   2.670   3.282   4.263 -1.2939 -0.0827  0.6741
 4144SOL     OW23893   3.365   3.516  11.190  0.3675 -0.0678 -0.1394
 4144SOL    HW123894   3.355   3.446  11.253 -0.3666  1.2255  1.1867
 4144SOL    HW223895   3.351   3.596  11.240 -0.5347 -0.9495  1.0162
 4145SOL     OW23896   4.232   0.556  14.470 -0.1691 -0.6313 -0.3059
 4145SOL    HW123897   4.144   0.541  14.436  0.1719 -2.8725 -0.1749
 4145SOL    HW223898   4.269   0.470  14.453 -0.1099 -0.9131  1.2327
 4146SOL     OW23899   3.535   0.314  15.564  0.4714 -0.1247  0.2949
 4146SOL    HW123900   3.611   0.371  15.572 -1.2160  2.1014  0.3479
 4146SOL    HW223901   3.470   0.368  15.519  0.2296  0.4919  1.3745
 4147SOL     OW23902   1.387   1.558   1.179 -0.0747  0.0866  0.7360
 4147SOL    HW123903   1.340   1.554   1.262 -1.5668 -1.6418 -0.2023
 4147SOL    HW223904   1.410   1.651   1.176 -1.0683  0.3340  0.8284
 4148SOL     OW23905   4.199   3.497   2.099  0.3135 -0.0113  0.1829
 4148SOL    HW123906   4.231   3.564   2.159 -2.2230  1.5464 -0.1932
 4148SOL    HW223907   4.188   3.417   2.151 -0.8407  0.6865  1.0060
 4149SOL     OW23908   1.866   1.597   6.491  0.1587  0.1470 -0.8108
 4149SOL    HW123909   1.861   1.677   6.544 -0.4081  0.2324 -0.9964
 4149SOL    HW223910   1.780   1.608   6.451 -0.1158  0.5355 -0.1088
 4150SOL     OW23911   3.698   4.228  13.886 -0.4461  0.2096  0.1298
 4150SOL    HW123912   3.739   4.314  13.877  0.5203 -0.3645 -0.8440
 4150SOL    HW223913   3.774   4.176  13.860  1.5535  2.4283  1.5438
 4151SOL     OW23914   1.829   3.152   8.578 -0.2736 -0.0572 -0.4929
 4151SOL    HW123915   1.907   3.168   8.631 -2.3553  1.1054  2.1984
 4151SOL    HW223916   1.851   3.064   8.546  1.2528  0.1181  0.0691
 4152SOL     OW23917   4.026   3.936   3.955 -0.0724  0.1115  0.0749
 4152SOL    HW123918   4.092   4.004   3.953  0.9247 -0.7683  2.8505
 4152SOL    HW223919   4.007   3.934   3.861  0.0753 -0.9238  0.0681
 4153SOL     OW23920   2.260   0.448   4.160 -0.6388  0.2603  0.6756
 4153SOL    HW123921   2.338   0.491   4.195  0.8790 -1.3133 -0.8242
 4153SOL    HW223922   2.192   0.491   4.212 -0.2377 -0.2428  1.6168
 4154SOL     OW23923   4.037   3.654  16.378 -0.7924  0.7555  0.3293
 4154SOL    HW123924   3.943   3.634  16.376 -0.6508  0.2574 -1.6833
 4154SOL    HW223925   4.033   3.748  16.391 -1.3708  1.1464 -2.5588
 4155SOL     OW23926   2.476   3.419   8.418 -0.2350  0.1839  0.6504
 4155SOL    HW123927   2.391   3.391   8.386  0.0228  0.5904 -0.3936
 4155SOL    HW223928   2.499   3.486   8.353 -0.3266  0.3486  0.7889
 4156SOL     OW23929   3.850   0.463  16.935 -0.1634  0.8672 -0.0274
 4156SOL    HW123930   3.873   0.449  16.843 -2.4313  0.7087 -0.5534
 4156SOL    HW223931   3.862   0.375  16.970 -0.8850  0.5571 -0.5643
 4157SOL     OW23932   3.840   0.797   3.949 -0.0002  0.4964  0.0958
 4157SOL    HW123933   3.809   0.863   3.887 -3.6892 -0.8728  0.4941
 4157SOL    HW223934   3.935   0.801   3.956  0.1152 -2.1413 -0.1907
 4158SOL     OW23935   2.947   1.214   8.794 -0.0505  0.0506  0.3030
 4158SOL    HW123936   2.900   1.171   8.866  1.3408 -1.3875  0.3388
 4158SOL    HW223937   3.027   1.163   8.804  0.1562 -0.0490 -1.9780
 4159SOL     OW23938   0.904   2.050   6.230 -0.0329 -0.5489  0.2477
 4159SOL    HW123939   0.896   2.033   6.136  1.4718  0.2277 -0.0321
 4159SOL    HW223940   0.889   2.144   6.232  0.9174 -0.3810 -0.3185
 4160SOL     OW23941   4.339   1.406  11.755  0.4472  0.2093  0.4748
 4160SOL    HW123942   4.277   1.452  11.698 -0.4746  0.9433  2.0790
 4160SOL    HW223943   4.357   1.332  11.697 -0.0496  0.9918 -0.6869
 4161SOL     OW23944   3.498   4.545   6.631 -0.1097 -0.1956  0.0235
 4161SOL    HW123945   3.562   4.476   6.650  0.1247 -0.4747 -1.8713
 4161SOL    HW223946   3.422   4.493   6.657  0.5878  0.3537  3.2972
 4162SOL     OW23947   2.327   2.483   2.358 -0.2982 -0.0793 -0.1788
 4162SOL    HW123948   2.254   2.421   2.355  0.3973 -0.7961 -2.2771
 4162SOL    HW223949   2.298   2.564   2.315 -1.9190 -0.6162 -0.0988
 4163SOL     OW23950   0.616   2.140   4.252  0.0016 -0.0805 -0.2251
 4163SOL    HW123951   0.695   2.181   4.217 -0.3204  2.2003  1.7514
 4163SOL    HW223952   0.590   2.086   4.177 -0.1116  1.1625 -1.0781
 4164SOL     OW23953   1.933   2.704   4.955 -0.4747 -0.3350 -0.3005
 4164SOL    HW123954   1.846   2.671   4.933 -0.7882 -0.1629  0.6960
 4164SOL    HW223955   1.980   2.621   4.943 -1.2555 -0.7370 -0.5895
 4165SOL     OW23956   0.797   4.212   3.870 -0.0863  0.5165  0.6282
 4165SOL    HW123957   0.875   4.196   3.923 -0.3854 -4.5288 -0.4579
 4165SOL    HW223958   0.723   4.170   3.914 -0.0907 -0.5621 -0.4057
 4166SOL     OW23959   1.705   1.039  17.001  0.2250  0.3591  0.0998
 4166SOL    HW123960   1.640   1.076  17.062  1.2292  2.0704  0.1214
 4166SOL    HW223961   1.670   1.074  16.920  0.5579  0.1410 -0.1359
 4167SOL     OW23962   0.786   1.957   3.808  0.3461  0.2921  0.5048
 4167SOL    HW123963   0.702   1.912   3.814  0.3076 -0.3028 -4.6394
 4167SOL    HW223964   0.792   1.984   3.717 -0.0785  0.6509  0.5864
 4168SOL     OW23965   0.819   4.165   4.276  0.0475  0.2081  0.2444
 4168SOL    HW123966   0.777   4.232   4.330 -1.5782 -0.1829 -0.5396
 4168SOL    HW223967   0.778   4.085   4.309 -0.7982  1.4498  2.2026
 4169SOL     OW23968   0.778   1.173   3.973 -0.1744 -0.7415  0.0709
 4169SOL    HW123969   0.793   1.210   3.886 -1.0837 -1.0968 -0.2313
 4169SOL    HW223970   0.865   1.184   4.013 -0.0203  3.2861 -1.3485
 4170SOL     OW23971   3.955   2.768   7.383 -0.3170 -0.3299 -0.3977
 4170SOL    HW123972   3.883   2.712   7.411 -0.5157 -0.6459 -1.5363
 4170SOL    HW223973   4.034   2.722   7.412  1.0514  1.5529 -1.1494
 4171SOL     OW23974   1.766   3.875  10.299 -0.1703 -0.1327 -0.0145
 4171SOL    HW123975   1.791   3.945  10.360 -1.5993 -0.5315  1.0078
 4171SOL    HW223976   1.677   3.903  10.278  0.4631  1.5973 -0.4311
 4172SOL     OW23977   0.792   4.694   1.731 -0.1387 -0.3293 -0.1309
 4172SOL    HW123978   0.755   4.670   1.816 -0.2973  0.3720 -0.0059
 4172SOL    HW223979   0.841   4.612   1.726 -2.9394 -1.9073 -1.7045
 4173SOL     OW23980   0.861   4.009  11.340 -0.2651  0.4336  0.3956
 4173SOL    HW123981   0.840   3.916  11.341 -2.0777  0.8031 -2.9413
 4173SOL    HW223982   0.879   4.020  11.246  0.0804 -0.8073  0.3214
 4174SOL     OW23983   0.455   1.681  15.166  1.1095 -0.4290 -0.1184
 4174SOL    HW123984   0.382   1.660  15.108 -0.6810 -2.4092  2.8510
 4174SOL    HW223985   0.459   1.776  15.180  1.4983 -0.1225 -2.4188
 4175SOL     OW23986   0.272   2.783   8.649  0.0415 -0.1226 -0.1242
 4175SOL    HW123987   0.349   2.831   8.681  0.3243 -0.0920 -0.8572
 4175SOL    HW223988   0.220   2.751   8.723  1.7419 -1.5399  0.4384
 4176SOL     OW23989   2.423   4.177   7.021 -0.1727  0.3749  0.0379
 4176SOL    HW123990   2.453   4.088   7.006  0.0589  0.6280 -0.9693
 4176SOL    HW223991   2.330   4.155   7.020 -1.1154  4.3826 -0.6940
 4177SOL     OW23992   4.506   1.473   7.101  0.0833  0.2217  0.0269
 4177SOL    HW123993   4.516   1.410   7.172  1.4079  0.7318  0.2985
 4177SOL    HW223994   4.570   1.536   7.133  0.0959  0.5052 -0.5674
 4178SOL     OW23995   2.463   0.825   1.071  0.2886 -0.1433  0.3082
 4178SOL    HW123996   2.528   0.782   1.127 -0.7533 -0.0073  1.6087
 4178SOL    HW223997   2.517   0.878   1.013  1.1521 -0.3275  0.9398
 4179SOL     OW23998   1.283   3.301  14.370  0.3003  1.0733  0.7393
 4179SOL    HW123999   1.260   3.385  14.409  0.1688  2.4142 -2.1637
 4179SOL    HW224000   1.264   3.238  14.440  0.0484 -0.9385 -1.1138
 4180SOL     OW24001   0.237   1.957   2.871  0.2281 -0.2826 -0.3986
 4180SOL    HW124002   0.260   2.007   2.792 -2.2714  0.2777 -0.7644
 4180SOL    HW224003   0.143   1.944   2.862  0.2263 -0.3072 -0.3416
 4181SOL     OW24004   2.552   1.598   6.629  0.0003 -0.0926  0.2687
 4181SOL    HW124005   2.581   1.647   6.706 -0.7634 -1.3268  1.3615
 4181SOL    HW224006   2.604   1.640   6.561 -2.1723 -0.9266 -1.8882
 4182SOL     OW24007   0.669   3.411  13.086  0.4001 -0.4868 -0.6994
 4182SOL    HW124008   0.713   3.448  13.009 -1.8758  1.5022 -1.0500
 4182SOL    HW224009   0.581   3.402  13.050 -0.9409  2.1244  1.9334
 4183SOL     OW24010   3.639   0.633   4.576  0.2173  0.6697 -0.0184
 4183SOL    HW124011   3.599   0.551   4.605 -1.9552  1.5343 -0.5910
 4183SOL    HW224012   3.602   0.644   4.489 -0.2988  0.9997  0.2486
 4184SOL     OW24013   2.879   2.067  10.602 -0.1331  0.1082  0.5595
 4184SOL    HW124014   2.965   2.086  10.638 -0.6777  0.8099  1.4855
 4184SOL    HW224015   2.856   2.160  10.596 -3.2244 -0.6065  1.3046
 4185SOL     OW24016   4.699   2.726   8.348  0.6492 -0.0060  0.0677
 4185SOL    HW124017   4.688   2.750   8.440  1.9643  0.2219  0.1580
 4185SOL    HW224018   4.615   2.759   8.317  0.5208 -0.2624  0.1401
 4186SOL     OW24019   1.547   3.326   3.093 -0.4262 -0.0766  0.0624
 4186SOL    HW124020   1.504   3.411   3.080 -0.6986  0.0152  1.6048
 4186SOL    HW224021   1.611   3.342   3.162  0.4683 -0.0758 -0.7709
 4187SOL     OW24022   3.987   2.976   6.887 -0.2851 -0.1310 -0.2728
 4187SOL    HW124023   4.013   3.061   6.924  2.6918 -1.1430  0.0391
 4187SOL    HW224024   4.001   2.990   6.793  1.3121  2.1468  0.2887
 4188SOL     OW24025   2.199   2.568  11.377  0.4737 -0.2623 -0.3156
 4188SOL    HW124026   2.148   2.639  11.338  0.1327 -0.6193 -0.5243
 4188SOL    HW224027   2.132   2.511  11.413  2.4875 -1.4651  1.5133
 4189SOL     OW24028   4.399   3.674  13.709  0.1723 -0.1487  0.3948
 4189SOL    HW124029   4.376   3.688  13.617  0.8663 -0.9734  0.0959
 4189SOL    HW224030   4.488   3.642  13.695 -0.8891 -2.9573  0.0041
 4190SOL     OW24031   0.951   2.855   1.938  0.1941 -0.4151  0.0133
 4190SOL    HW124032   0.872   2.894   1.903 -0.0827 -0.2276  0.8351
 4190SOL    HW224033   1.018   2.919   1.961 -1.6870  0.4483  3.0666
 4191SOL     OW24034   4.708   4.163  15.652  0.5263 -0.0594  0.4090
 4191SOL    HW124035   0.006   4.118  15.735 -0.1029 -1.3216 -0.1296
 4191SOL    HW224036   4.683   4.249  15.685  0.1729  0.1302 -0.3463
 4192SOL     OW24037   0.127   0.002   2.872 -0.3834  0.0279 -0.2528
 4192SOL    HW124038   0.166   4.640   2.903  1.3052  0.3149 -1.6179
 4192SOL    HW224039   0.038   4.690   2.889  0.7085 -2.0301  1.4969
 4193SOL     OW24040   1.471   1.324   7.836  0.2014 -0.1831  0.3226
 4193SOL    HW124041   1.542   1.262   7.852 -0.7431 -1.2127  0.4940
 4193SOL    HW224042   1.457   1.366   7.921  0.8442  1.9416 -0.6350
 4194SOL     OW24043   2.279   1.824   5.602  0.2881 -0.0733 -0.1899
 4194SOL    HW124044   2.186   1.806   5.589  0.0359  0.9235  0.2586
 4194SOL    HW224045   2.281   1.849   5.695 -0.2652 -1.1999  0.1274
 4195SOL     OW24046   2.139   4.328  15.364  0.5167 -0.0977  0.1860
 4195SOL    HW124047   2.133   4.409  15.313  1.6164 -0.6574 -0.8334
 4195SOL    HW224048   2.176   4.268  15.298 -0.5688  0.5132 -0.9873
 4196SOL     OW24049   0.327   3.081   3.425  0.4545  0.2398 -0.0995
 4196SOL    HW124050   0.310   3.153   3.364  1.1443  0.0256 -0.5434
 4196SOL    HW224051   0.419   3.062   3.406 -0.1950 -1.1148 -1.9916
 4197SOL     OW24052   2.098   3.216   0.429  0.2258 -0.2343 -0.2158
 4197SOL    HW124053   2.048   3.298   0.432  1.7417  0.8338 -3.2535
 4197SOL    HW224054   2.129   3.211   0.338  0.9999 -3.3832  0.2359
 4198SOL     OW24055   0.636   0.421   3.865  0.0969  0.1219  0.2344
 4198SOL    HW124056   0.634   0.336   3.908 -1.0953  0.3542  0.6101
 4198SOL    HW224057   0.721   0.451   3.899  1.3903  0.6582 -3.3351
 4199SOL     OW24058   1.634   2.741   9.587 -0.3038  0.0894  0.1098
 4199SOL    HW124059   1.711   2.741   9.530  0.2923 -0.9846  0.9202
 4199SOL    HW224060   1.605   2.830   9.568 -2.3488 -0.3671  1.0531
 4200SOL     OW24061   4.178   2.446   6.084 -0.1064  0.2771  0.1640
 4200SOL    HW124062   4.164   2.524   6.031  1.3924  0.2754 -0.2429
 4200SOL    HW224063   4.238   2.484   6.147 -0.0839  3.0275 -1.4985
 4201SOL     OW24064   1.144   1.967  11.776 -0.1476 -0.5961 -0.6437
 4201SOL    HW124065   1.069   2.014  11.740 -1.0969 -2.6211 -1.2694
 4201SOL    HW224066   1.215   2.013  11.731 -1.1096  1.6524  0.1290
 4202SOL     OW24067   4.592   4.492   0.255  0.0994 -0.3376 -0.6511
 4202SOL    HW124068   4.616   4.579   0.224  0.2786 -0.4136 -0.7229
 4202SOL    HW224069   4.503   4.515   0.282  0.3967  0.0476  0.0143
 4203SOL     OW24070   2.778   2.942  10.674 -0.0004  0.2088 -0.7067
 4203SOL    HW124071   2.782   3.033  10.705  2.6400  0.4190 -1.6348
 4203SOL    HW224072   2.827   2.897  10.743 -0.4710  1.2331  0.3018
 4204SOL     OW24073   0.247   0.904   7.471 -0.2784 -0.0601  0.0493
 4204SOL    HW124074   0.158   0.869   7.471  0.7940 -2.8265 -0.6551
 4204SOL    HW224075   0.243   0.945   7.557  0.2328  0.3997 -0.1397
 4205SOL     OW24076   0.631   3.242   9.962 -0.3576  0.1621 -0.4881
 4205SOL    HW124077   0.619   3.289   9.880 -0.8625  1.0698  0.1116
 4205SOL    HW224078   0.542   3.215   9.983  0.0245 -0.7424 -0.0385
 4206SOL     OW24079   1.708   0.088   5.768  0.0176 -0.5772 -0.1257
 4206SOL    HW124080   1.732   0.132   5.850  0.1517 -0.6420 -0.1313
 4206SOL    HW224081   1.787   0.043   5.740 -0.4722 -1.1753 -0.5596
 4207SOL     OW24082   3.751   2.093   6.262  0.1970  0.5085 -0.5059
 4207SOL    HW124083   3.693   2.156   6.305  1.3009  1.3247 -0.1963
 4207SOL    HW224084   3.788   2.042   6.335 -1.3903  1.8878  1.2499
 4208SOL     OW24085   2.773   3.998  11.636 -0.0846 -0.0306 -0.0384
 4208SOL    HW124086   2.859   3.965  11.610  0.6835  0.1408  2.2816
 4208SOL    HW224087   2.727   3.914  11.635 -1.6498  0.8187 -0.6125
 4209SOL     OW24088   4.439   2.019  16.844 -0.3262 -0.5273 -0.2291
 4209SOL    HW124089   4.492   2.007  16.766  2.4164  0.3085  1.5151
 4209SOL    HW224090   4.373   2.082  16.814  1.4164  1.3915 -0.0440
 4210SOL     OW24091   1.133   4.458   8.356 -0.5381 -0.1362 -0.2638
 4210SOL    HW124092   1.157   4.395   8.424 -0.8152 -1.3456 -1.3092
 4210SOL    HW224093   1.057   4.491   8.405 -0.2802  0.5166 -0.3025
 4211SOL     OW24094   0.993   4.362  11.550  0.4973 -0.4074 -0.1177
 4211SOL    HW124095   1.026   4.411  11.626 -0.6377 -1.5692  1.1290
 4211SOL    HW224096   0.926   4.418  11.510  0.9748  1.3384  1.5503
 4212SOL     OW24097   3.523   3.048   2.679 -0.8412 -0.2709 -0.3934
 4212SOL    HW124098   3.509   3.045   2.584  0.9086 -0.2398 -0.6505
 4212SOL    HW224099   3.434   3.066   2.710 -0.3285 -0.9270  1.4105
 4213SOL     OW24100   2.304   3.620   4.500 -0.4162  0.2115 -0.2987
 4213SOL    HW124101   2.351   3.688   4.547 -0.3373 -0.8823  1.2033
 4213SOL    HW224102   2.281   3.669   4.421  1.1444  1.0934 -0.2024
 4214SOL     OW24103   0.411   4.435   3.541 -0.5501 -0.3366  0.2522
 4214SOL    HW124104   0.486   4.437   3.482 -0.0461  0.8589  0.9517
 4214SOL    HW224105   0.387   4.342   3.534 -0.3534 -0.5157  2.1096
 4215SOL     OW24106   0.718   0.009   2.489 -0.4735  0.1245  0.2940
 4215SOL    HW124107   0.681   4.687   2.566 -3.0116  2.2662  0.2623
 4215SOL    HW224108   0.637   0.058   2.470 -0.6711  0.2689  1.5332
 4216SOL     OW24109   2.645   2.369  15.699 -0.7942  0.4421  0.1512
 4216SOL    HW124110   2.570   2.317  15.731 -1.4591  0.3906 -1.4566
 4216SOL    HW224111   2.599   2.441  15.656 -2.4602  0.1312  1.3903
 4217SOL     OW24112   0.055   3.248   2.748 -0.3878 -0.3170 -0.4463
 4217SOL    HW124113   0.050   3.277   2.657  0.7186  0.5884 -0.2230
 4217SOL    HW224114   4.687   3.211   2.749 -1.4463  2.2330  0.9905
 4218SOL     OW24115   0.455   3.248   8.355  0.0837 -0.4599 -0.4413
 4218SOL    HW124116   0.489   3.167   8.315 -0.3670 -0.9368  0.1486
 4218SOL    HW224117   0.493   3.316   8.300  1.0304 -0.1761  0.5717
 4219SOL     OW24118   3.410   1.261  15.384 -0.1657  0.0800  0.4302
 4219SOL    HW124119   3.333   1.229  15.337  1.1787 -2.4254 -0.0938
 4219SOL    HW224120   3.476   1.255  15.315 -1.1718  1.5503 -0.6622
 4220SOL     OW24121   0.955   0.695   5.460 -0.5321  0.2650  0.2124
 4220SOL    HW124122   1.048   0.692   5.481 -0.2843  0.1865 -0.8876
 4220SOL    HW224123   0.942   0.789   5.446  1.1912  0.1232 -2.3260
 4221SOL     OW24124   3.395   2.482   5.060  0.0812 -0.0265 -0.1691
 4221SOL    HW124125   3.354   2.463   5.144  0.0554  1.2679  0.1092
 4221SOL    HW224126   3.464   2.416   5.059 -1.5059 -1.6831 -0.1668
 4222SOL     OW24127   2.908   4.414   5.768  0.0305  0.0731 -0.8775
 4222SOL    HW124128   2.840   4.432   5.702 -0.6845  3.0748  0.7157
 4222SOL    HW224129   2.971   4.483   5.749  0.7633  0.5476  3.2591
 4223SOL     OW24130   1.130   1.813   4.419  0.0642 -0.2492 -0.0442
 4223SOL    HW124131   1.216   1.829   4.458  0.3615  2.4026 -1.8009
 4223SOL    HW224132   1.149   1.740   4.360  0.0733 -1.0036  0.8867
 4224SOL     OW24133   4.424   3.026   7.704 -0.3641 -0.1001 -0.3038
 4224SOL    HW124134   4.468   3.110   7.718 -1.3579  0.0353  2.1149
 4224SOL    HW224135   4.391   3.008   7.793  0.1275  0.4548 -0.0076
 4225SOL     OW24136   2.800   3.360   7.591 -0.0030  0.2093 -0.2137
 4225SOL    HW124137   2.836   3.384   7.676 -0.8153  1.0455 -0.0912
 4225SOL    HW224138   2.770   3.271   7.610  0.6873  0.1207  0.4660
 4226SOL     OW24139   4.092   2.853   2.990  0.1956  0.4612 -0.2102
 4226SOL    HW124140   4.085   2.787   2.922 -0.0603 -2.2355  2.4298
 4226SOL    HW224141   4.027   2.919   2.965 -1.8863 -1.4116  0.3051
 4227SOL     OW24142   2.333   3.683  11.123 -0.0403 -0.0172 -0.0164
 4227SOL    HW124143   2.283   3.734  11.060  0.4579  2.9255  1.9581
 4227SOL    HW224144   2.324   3.732  11.205  0.7388  2.3633 -1.3383
 4228SOL     OW24145   1.091   4.690   8.710  0.0051 -0.2800  0.8368
 4228SOL    HW124146   1.119   4.666   8.799  0.9973  2.8556  1.3732
 4228SOL    HW224147   1.068   0.063   8.716 -0.5650 -0.3385 -0.5978
 4229SOL     OW24148   2.331   3.832   8.362 -0.0153 -0.2838 -0.3561
 4229SOL    HW124149   2.274   3.760   8.334 -1.2507  0.1822  0.9401
 4229SOL    HW224150   2.292   3.857   8.446  0.5084 -1.0723  0.1152
 4230SOL     OW24151   4.087   2.976  17.552 -0.0171 -0.1256  0.1673
 4230SOL    HW124152   4.131   2.892  17.540  1.0241  0.0282  2.9432
 4230SOL    HW224153   4.160   3.023  17.512  0.3431  0.1680  1.1602
 4231SOL     OW24154   0.090   0.411   8.004  0.0906 -0.4472  0.0398
 4231SOL    HW124155   0.009   0.435   8.048  0.0020  0.3341 -0.5488
 4231SOL    HW224156   0.117   0.503   7.997 -0.5143 -0.2114  0.8044
 4232SOL     OW24157   1.150   2.818   5.437  0.4418  0.1489 -0.6650
 4232SOL    HW124158   1.125   2.734   5.476  0.3225  0.1204 -0.8029
 4232SOL    HW224159   1.071   2.868   5.418 -0.2068 -0.6483 -0.0129
 4233SOL     OW24160   1.655   0.281  16.566 -0.2530  0.0141  0.4433
 4233SOL    HW124161   1.642   0.290  16.472 -1.3169  0.1380  0.6011
 4233SOL    HW224162   1.705   0.360  16.583 -1.5456  0.7156  1.0515
 4234SOL     OW24163   3.117   0.003   8.214 -0.5065 -0.6440  0.1383
 4234SOL    HW124164   3.185   4.718   8.146 -0.8266 -0.9467 -0.1615
 4234SOL    HW224165   3.084   4.633   8.209 -2.4663 -0.0404  2.4725
 4235SOL     OW24166   2.121   1.754  15.457  0.5254  0.4840  0.1336
 4235SOL    HW124167   2.091   1.673  15.497  0.3559  0.0494 -0.8849
 4235SOL    HW224168   2.085   1.735  15.370 -0.4915 -1.7693  1.0393
 4236SOL     OW24169   1.975   0.263   1.025  0.2904  0.4564 -0.5006
 4236SOL    HW124170   2.006   0.211   0.951 -1.4529 -1.6052  0.2237
 4236SOL    HW224171   2.027   0.234   1.100  0.1256 -0.3858 -0.7111
 4237SOL     OW24172   0.125   4.552   4.768  0.1214  0.1183 -0.3558
 4237SOL    HW124173   0.195   4.489   4.786 -0.0526  0.2381  0.7584
 4237SOL    HW224174   0.044   4.510   4.795  0.1736 -0.5962 -1.3404
 4238SOL     OW24175   2.664   4.152   3.501  0.1215  0.1278 -0.0682
 4238SOL    HW124176   2.692   4.234   3.542  1.4252  0.4652 -1.6153
 4238SOL    HW224177   2.652   4.176   3.409 -1.2775  3.6634  1.0439
 4239SOL     OW24178   4.451   2.214   3.061  0.4895  0.2993  0.1787
 4239SOL    HW124179   4.487   2.293   3.103  0.2539  0.8794 -0.7122
 4239SOL    HW224180   4.365   2.244   3.031  0.3203 -0.7125 -0.3603
 4240SOL     OW24181   0.027   0.407  11.527  0.0918 -0.2194  0.2008
 4240SOL    HW124182   4.716   0.321  11.557  0.3138 -1.4254 -3.0260
 4240SOL    HW224183   4.698   0.405  11.444  1.0478 -1.2092 -0.3404
 4241SOL     OW24184   0.975   2.205   7.714  0.0846  0.3128  0.3732
 4241SOL    HW124185   1.062   2.245   7.708 -0.4424  1.4367  0.2973
 4241SOL    HW224186   0.916   2.275   7.687 -1.4858 -0.9902  0.4359
 4242SOL     OW24187   2.083   1.384   6.112  0.1373 -0.2581  0.6734
 4242SOL    HW124188   2.089   1.469   6.069  0.6226 -0.1656  0.9312
 4242SOL    HW224189   2.102   1.407   6.203  1.5960  0.4200  0.1916
 4243SOL     OW24190   2.617   1.331   0.084 -0.1418 -0.2854 -0.3630
 4243SOL    HW124191   2.589   1.257   0.029 -0.2066 -0.0226 -0.6883
 4243SOL    HW224192   2.710   1.313   0.071  0.0538  0.1845  0.4240
 4244SOL     OW24193   1.156   0.052  14.095 -0.1669 -0.4337  0.1884
 4244SOL    HW124194   1.232   0.028  14.149 -1.0536 -1.5577  0.9202
 4244SOL    HW224195   1.155   0.140  14.131 -3.7957 -0.0877 -0.7655
 4245SOL     OW24196   0.479   1.172   0.318 -0.2328 -0.0294 -0.2791
 4245SOL    HW124197   0.570   1.195   0.299  0.3927 -2.2685 -0.0245
 4245SOL    HW224198   0.422   1.197   0.244  0.0338  1.9544  0.2116
 4246SOL     OW24199   0.240   2.031   8.160  1.1642 -0.0589  0.4941
 4246SOL    HW124200   0.245   2.090   8.235 -2.1734 -1.2697  1.6523
 4246SOL    HW224201   0.260   1.951   8.209  0.3547 -0.0812  0.7763
 4247SOL     OW24202   2.581   1.363   8.688  0.3278 -0.2122  0.0294
 4247SOL    HW124203   2.621   1.394   8.769 -2.4778  2.7830  0.2628
 4247SOL    HW224204   2.491   1.356   8.718  0.5554  0.5916  0.9153
 4248SOL     OW24205   1.468   1.019  17.589 -0.4598 -0.1473  0.3595
 4248SOL    HW124206   1.452   1.090  17.527  0.4559  0.3635  0.7090
 4248SOL    HW224207   1.441   0.939  17.543  1.9987 -1.2462  0.8254
 4249SOL     OW24208   0.698   0.805   2.130 -0.0277 -0.5390  0.2494
 4249SOL    HW124209   0.752   0.814   2.052  1.2990  0.8301  1.3148
 4249SOL    HW224210   0.715   0.888   2.174 -1.3887  0.9666 -2.0369
 4250SOL     OW24211   0.888   0.298  14.934 -0.1297 -0.4325 -0.1080
 4250SOL    HW124212   0.839   0.303  15.016 -1.9876 -1.4594 -1.1585
 4250SOL    HW224213   0.977   0.304  14.970  0.0888  1.6466 -1.0282
 4251SOL     OW24214   2.231   2.859   8.532  0.0056 -0.1517 -0.0375
 4251SOL    HW124215   2.290   2.785   8.544  0.1848  0.1608  1.0022
 4251SOL    HW224216   2.183   2.850   8.614 -1.3421 -1.0171 -0.9144
 4252SOL     OW24217   3.726   4.667   4.250 -0.3858 -0.2834  0.5001
 4252SOL    HW124218   3.774   4.712   4.319  1.1783  0.0607 -0.7825
 4252SOL    HW224219   3.757   4.580   4.275  0.8966  0.3611  1.1739
 4253SOL     OW24220   0.369   0.735  10.672 -0.3419 -0.1822 -0.1379
 4253SOL    HW124221   0.303   0.789  10.629  0.5547  1.2204  0.2343
 4253SOL    HW224222   0.386   0.784  10.752 -1.2832  1.1172 -0.7339
 4254SOL     OW24223   0.118   0.548   1.001  0.0658  0.0680 -0.1332
 4254SOL    HW124224   0.030   0.516   1.017 -0.1246  0.8195  0.3714
 4254SOL    HW224225   0.121   0.626   1.057 -0.5330  0.8848 -1.2446
 4255SOL     OW24226   1.817   0.012   5.175 -0.5913 -0.2747  0.1072
 4255SOL    HW124227   1.889   4.677   5.206 -1.0500 -0.5018  0.7679
 4255SOL    HW224228   1.747   4.666   5.170 -1.2874  0.3288  1.6674
 4256SOL     OW24229   4.380   0.580  12.651 -0.1770  0.2836  0.0470
 4256SOL    HW124230   4.328   0.515  12.699 -0.3342  1.1514  1.0578
 4256SOL    HW224231   4.461   0.570  12.700  0.6158  0.2512 -1.2736
 4257SOL     OW24232   2.246   2.369   0.552  0.0384 -0.0671  0.3891
 4257SOL    HW124233   2.323   2.323   0.518  0.0527 -0.0029  0.3355
 4257SOL    HW224234   2.267   2.387   0.643 -2.5073 -0.8744  1.1503
 4258SOL     OW24235   3.303   2.905   7.404  0.2018  0.5560  0.4079
 4258SOL    HW124236   3.296   2.958   7.325  0.6659  0.4850  0.3196
 4258SOL    HW224237   3.233   2.840   7.393 -0.3980  1.4699 -1.2539
 4259SOL     OW24238   2.770   0.399   9.542  0.2567 -0.1553  0.0286
 4259SOL    HW124239   2.788   0.306   9.529  1.6953  0.5875 -3.2458
 4259SOL    HW224240   2.846   0.421   9.488 -0.9548  0.3284 -1.4822
 4260SOL     OW24241   3.110   4.310   3.655 -0.7170 -0.2546  0.3756
 4260SOL    HW124242   3.085   4.331   3.565 -0.6514  1.1241  0.6791
 4260SOL    HW224243   3.059   4.375   3.704 -0.1328  0.9259 -0.5617
 4261SOL     OW24244   1.497   1.637   9.616  0.4331  0.2766 -0.1661
 4261SOL    HW124245   1.517   1.589   9.536 -2.5273 -0.2442 -0.5919
 4261SOL    HW224246   1.529   1.726   9.600 -0.1276  0.5738  0.3783
 4262SOL     OW24247   3.190   0.167   4.457 -0.0717  0.0063  0.2311
 4262SOL    HW124248   3.171   0.259   4.478  1.8841  0.3743  0.4408
 4262SOL    HW224249   3.264   0.184   4.398 -1.1171 -1.6208 -1.5552
 4263SOL     OW24250   4.242   1.494   3.405 -0.4477 -0.0405 -0.2518
 4263SOL    HW124251   4.277   1.405   3.408 -0.3903  0.0131  0.6315
 4263SOL    HW224252   4.243   1.514   3.498 -3.5184  2.4450 -0.7652
 4264SOL     OW24253   0.939   4.552   8.537  0.3390 -0.1249 -0.4195
 4264SOL    HW124254   0.852   4.571   8.571  0.5471 -1.5535  0.9174
 4264SOL    HW224255   0.988   4.589   8.610 -1.6713 -0.1419  0.9458
 4265SOL     OW24256   4.365   3.448  10.204 -0.6185 -0.6675 -0.5386
 4265SOL    HW124257   4.312   3.377  10.168 -1.6299  0.4808 -1.2972
 4265SOL    HW224258   4.310   3.477  10.276  0.3774 -3.2690  1.2552
 4266SOL     OW24259   1.826   1.415   7.648 -0.0165 -0.1155  0.2565
 4266SOL    HW124260   1.749   1.363   7.626 -0.6607  0.7050  0.5479
 4266SOL    HW224261   1.860   1.374   7.728  1.4379  0.7199  0.0818
 4267SOL     OW24262   1.343   2.295   5.228 -0.7114  0.1520 -0.2578
 4267SOL    HW124263   1.427   2.249   5.226 -0.4214  0.6836 -0.3450
 4267SOL    HW224264   1.321   2.313   5.320 -0.2632  0.3269 -0.1842
 4268SOL     OW24265   0.652   0.846  10.816 -0.2568 -0.0521 -0.5194
 4268SOL    HW124266   0.698   0.929  10.830  2.2970 -1.7656  1.1425
 4268SOL    HW224267   0.582   0.859  10.881 -0.5636 -2.9599 -0.2902
 4269SOL     OW24268   4.539   3.655   8.239 -0.4141  0.1966  0.4145
 4269SOL    HW124269   4.597   3.624   8.170  0.0878  1.3122  0.3287
 4269SOL    HW224270   4.524   3.571   8.283 -2.5616  0.0423 -0.6463
 4270SOL     OW24271   3.385   3.416   5.649  0.2214  0.7604 -0.1007
 4270SOL    HW124272   3.424   3.397   5.734 -3.5781  1.0869  1.6748
 4270SOL    HW224273   3.352   3.329   5.628  1.4557  0.8953 -2.7475
 4271SOL     OW24274   3.238   4.577   5.413  0.4455  0.3404 -0.0581
 4271SOL    HW124275   3.273   4.529   5.338 -1.3217 -0.6341 -0.2574
 4271SOL    HW224276   3.249   4.667   5.380 -1.3434  0.7105  0.3635
 4272SOL     OW24277   4.351   0.795  13.538  0.2044  0.6579 -0.7372
 4272SOL    HW124278   4.424   0.801  13.477 -0.2796 -0.0630 -1.3843
 4272SOL    HW224279   4.355   0.702  13.561 -2.3719  0.5334 -0.8516
 4273SOL     OW24280   3.249   3.475  15.582 -0.1467 -0.5328  0.3487
 4273SOL    HW124281   3.186   3.426  15.634  0.3710 -1.5876 -0.0244
 4273SOL    HW224282   3.224   3.560  15.619 -0.5933 -0.6948  0.4227
 4274SOL     OW24283   3.362   3.709   7.608  0.2852  0.4003  0.7339
 4274SOL    HW124284   3.310   3.770   7.660 -2.5267 -0.5468 -0.9724
 4274SOL    HW224285   3.296   3.668   7.552  0.8887 -1.4017  1.3475
 4275SOL     OW24286   4.214   2.081   8.639  0.0729  0.0951  0.3050
 4275SOL    HW124287   4.295   2.034   8.620  1.3496  2.0093  1.0086
 4275SOL    HW224288   4.178   2.101   8.552 -1.8248  0.6892  1.2185
 4276SOL     OW24289   1.871   4.547   3.579 -0.7363  0.4994 -0.0255
 4276SOL    HW124290   1.946   4.502   3.541 -1.7429 -0.0848 -1.2911
 4276SOL    HW224291   1.878   4.515   3.669  0.4310  1.1656  0.1245
 4277SOL     OW24292   3.453   3.972   2.096  0.7478  0.2189 -0.7542
 4277SOL    HW124293   3.538   4.015   2.095  1.1792 -0.5203  2.3191
 4277SOL    HW224294   3.409   4.032   2.157 -1.2286 -0.2353 -1.7134
 4278SOL     OW24295   0.799   1.917   2.664 -0.0169  0.3631 -1.2833
 4278SOL    HW124296   0.726   1.978   2.668 -0.8205 -0.5069 -2.8031
 4278SOL    HW224297   0.833   1.935   2.577  2.1291  1.4641 -0.2180
 4279SOL     OW24298   4.178   0.505   3.275  0.0084  0.0545  0.1398
 4279SOL    HW124299   4.268   0.476   3.262  0.2471  0.1619  1.4606
 4279SOL    HW224300   4.191   0.577   3.337 -2.5770 -0.4408  1.2924
 4280SOL     OW24301   1.984   0.659  14.658 -0.1810  0.6055 -0.1370
 4280SOL    HW124302   1.963   0.580  14.708  1.9928  1.0141  1.4661
 4280SOL    HW224303   2.076   0.646  14.633 -0.1297  0.7666 -0.0363
 4281SOL     OW24304   2.523   2.870   5.658 -0.1189  0.3783 -0.0522
 4281SOL    HW124305   2.507   2.801   5.723 -0.7687 -0.9446 -1.6333
 4281SOL    HW224306   2.590   2.827   5.605 -1.1385  1.5474 -2.2778
 4282SOL     OW24307   2.565   2.501   4.398 -0.2906  0.2557 -0.3472
 4282SOL    HW124308   2.642   2.504   4.454  0.1936 -0.0034 -1.0048
 4282SOL    HW224309   2.575   2.418   4.351  0.3080  0.3389 -0.3627
 4283SOL     OW24310   3.230   2.353   8.611 -0.3589 -0.5293  0.2025
 4283SOL    HW124311   3.268   2.302   8.540  0.9950 -0.1963  0.6967
 4283SOL    HW224312   3.148   2.312   8.639 -1.3650  1.3860  0.1029
 4284SOL     OW24313   4.231   0.229   5.033 -0.4380  0.0451  0.3192
 4284SOL    HW124314   4.186   0.313   5.038 -0.1658  0.2275 -0.1977
 4284SOL    HW224315   4.308   0.245   4.979 -1.6032  0.1587 -1.3082
 4285SOL     OW24316   1.187   2.020   3.610 -0.4650 -0.5796  0.3455
 4285SOL    HW124317   1.169   2.114   3.604 -0.5176 -0.5855  0.4179
 4285SOL    HW224318   1.134   1.999   3.686 -0.1258 -0.7353  0.5416
 4286SOL     OW24319   1.082   3.315   1.326  0.4950 -0.6894  0.1065
 4286SOL    HW124320   1.072   3.367   1.406  0.1600 -1.9659  0.9014
 4286SOL    HW224321   1.151   3.261   1.365 -1.3768 -1.9673  1.7072
 4287SOL     OW24322   3.741   2.724  15.415  0.0778  0.0778 -0.1605
 4287SOL    HW124323   3.835   2.707  15.409  0.3950  1.6360  0.2227
 4287SOL    HW224324   3.740   2.735  15.510  2.2710  0.4462 -0.1724
 4288SOL     OW24325   2.642   3.478   1.197 -0.1294  0.0761 -0.3790
 4288SOL    HW124326   2.638   3.507   1.106 -1.1645  0.9263 -0.0611
 4288SOL    HW224327   2.710   3.412   1.189  1.8095  2.0887 -0.4630
 4289SOL     OW24328   2.461   0.530   4.353 -0.1994  0.2255 -0.4186
 4289SOL    HW124329   2.402   0.508   4.425 -0.0970  1.7409  0.1266
 4289SOL    HW224330   2.524   0.583   4.403  1.1539  0.2334 -2.1432
 4290SOL     OW24331   0.689   0.951  15.808 -0.6073 -0.3380  0.2868
 4290SOL    HW124332   0.704   0.896  15.885  0.4070 -1.8181 -0.9815
 4290SOL    HW224333   0.614   1.002  15.838 -0.4574 -0.2448  0.5046
 4291SOL     OW24334   2.897   0.143  17.674 -0.1048  0.2601 -0.0342
 4291SOL    HW124335   2.830   0.120   0.057  1.8027 -1.9026  1.1409
 4291SOL    HW224336   2.976   0.099   0.023  0.3308  0.1543 -1.2977
 4292SOL     OW24337   3.151   1.513   2.114 -0.2237  0.3184  0.2346
 4292SOL    HW124338   3.187   1.444   2.060 -1.1246  0.2324 -0.2629
 4292SOL    HW224339   3.157   1.583   2.048  0.0883 -0.4239 -0.5183
 4293SOL     OW24340   3.846   2.218   4.981 -0.2778  0.3308  0.2232
 4293SOL    HW124341   3.901   2.242   5.056  0.6555  0.9490 -0.6633
 4293SOL    HW224342   3.900   2.164   4.923 -1.4848 -0.5160 -0.1039
 4294SOL     OW24343   1.908   2.072  15.384  0.0730 -0.6112 -0.1309
 4294SOL    HW124344   1.847   2.095  15.455 -0.7559  0.5071 -1.2082
 4294SOL    HW224345   1.848   2.022  15.329 -1.0036 -0.0791  0.5603
 4295SOL     OW24346   1.018   2.030  11.376 -0.2903  0.1269 -0.0266
 4295SOL    HW124347   1.028   1.936  11.362 -0.8495  0.3935 -2.1956
 4295SOL    HW224348   1.063   2.069  11.302 -2.4201  1.2683 -0.7261
 4296SOL     OW24349   1.873   3.770  11.520 -0.1526  0.4809  0.2801
 4296SOL    HW124350   1.791   3.759  11.472 -0.8494  2.1743  1.0799
 4296SOL    HW224351   1.935   3.789  11.449  2.2309 -3.2002  1.3941
 4297SOL     OW24352   0.201   0.877   1.623 -0.1440 -0.1362 -0.2026
 4297SOL    HW124353   0.273   0.900   1.682 -0.3909 -2.8443  1.2022
 4297SOL    HW224354   0.169   0.791   1.651 -1.0840  0.0630 -0.6737
 4298SOL     OW24355   1.960   0.881   4.399 -0.2829 -0.6285  0.3518
 4298SOL    HW124356   2.025   0.895   4.468  0.2040  1.3528 -0.4981
 4298SOL    HW224357   1.917   0.966   4.396  1.2275  0.0801 -1.7470
 4299SOL     OW24358   1.623   1.415  16.563  0.3066  0.9950 -0.3611
 4299SOL    HW124359   1.706   1.461  16.573  0.1859  1.7281 -2.5725
 4299SOL    HW224360   1.555   1.481  16.576 -1.4790 -0.6424 -1.1662
 4300SOL     OW24361   4.136   0.548   2.984  0.2486  0.4800 -0.4696
 4300SOL    HW124362   4.053   0.500   2.992  1.0162 -0.8007 -0.1895
 4300SOL    HW224363   4.165   0.553   3.075 -0.1061 -2.5389 -0.1937
 4301SOL     OW24364   3.945   2.345   8.729 -0.7236  0.4731  0.4704
 4301SOL    HW124365   3.936   2.250   8.725  1.3883  0.3515 -0.9379
 4301SOL    HW224366   3.852   2.365   8.743 -1.2711  0.2147 -2.7315
 4302SOL     OW24367   3.275   0.825   6.371  0.0914  0.0996 -0.0130
 4302SOL    HW124368   3.270   0.898   6.434 -1.2282 -0.7523  0.8495
 4302SOL    HW224369   3.353   0.783   6.407 -0.4603  1.6417  2.9844
 4303SOL     OW24370   3.334   1.816   0.383  0.4425 -0.0451 -0.3312
 4303SOL    HW124371   3.364   1.786   0.468 -0.0670 -2.1775 -0.9131
 4303SOL    HW224372   3.416   1.816   0.333  0.8993  0.2583  0.4199
 4304SOL     OW24373   1.286   3.360   1.670 -0.1315  0.2829  0.2456
 4304SOL    HW124374   1.267   3.284   1.616 -1.9209  1.5801 -0.9526
 4304SOL    HW224375   1.378   3.376   1.646 -0.3674  0.3180 -0.6057
 4305SOL     OW24376   4.242   4.315   0.212 -0.1403  0.4699 -0.0891
 4305SOL    HW124377   4.288   4.351   0.288  1.3072 -2.4122  0.4156
 4305SOL    HW224378   4.213   4.231   0.248 -0.7401  0.3294 -0.8898
 4306SOL     OW24379   3.465   2.159   2.236 -0.8394  0.5068  0.2400
 4306SOL    HW124380   3.525   2.230   2.261 -1.0429  1.3516 -1.6376
 4306SOL    HW224381   3.502   2.074   2.261  1.0647  0.6384 -2.0286
 4307SOL     OW24382   0.102   0.015  13.576  0.7739 -0.3327 -0.5374
 4307SOL    HW124383   0.133   0.061  13.498  0.2143  0.7223 -0.1391
 4307SOL    HW224384   0.029   4.685  13.541  1.7603 -0.6575 -2.1295
 4308SOL     OW24385   3.583   4.604   8.194  0.2717 -0.5631  0.0236
 4308SOL    HW124386   3.508   4.560   8.154  0.7688 -2.1262  0.8144
 4308SOL    HW224387   3.623   4.521   8.220 -1.8862 -1.4079  0.7098
 4309SOL     OW24388   1.421   1.334   6.159  0.3653 -0.5815  0.3685
 4309SOL    HW124389   1.464   1.296   6.082 -0.6200  2.7466 -1.8115
 4309SOL    HW224390   1.365   1.260   6.181 -2.6234  1.2776 -0.9630
 4310SOL     OW24391   0.526   1.941   6.802  0.5305  0.0148  0.4618
 4310SOL    HW124392   0.521   1.849   6.830 -0.5589 -0.5359 -1.5529
 4310SOL    HW224393   0.550   1.989   6.881  0.8075  0.1778  0.2802
 4311SOL     OW24394   0.720   3.791   8.486 -0.8340  0.0018  0.6742
 4311SOL    HW124395   0.645   3.847   8.503  1.0142  2.7071 -0.1715
 4311SOL    HW224396   0.742   3.782   8.579 -1.2122 -0.9830  0.6676
 4312SOL     OW24397   2.712   2.005  15.783 -0.3528  0.1238 -0.0382
 4312SOL    HW124398   2.682   1.998  15.692  0.3583 -0.4189 -0.2373
 4312SOL    HW224399   2.794   2.055  15.783  0.4042 -1.0915 -0.4001
 4313SOL     OW24400   1.326   0.365   8.138 -0.1333 -0.1996  0.0634
 4313SOL    HW124401   1.348   0.317   8.218  2.3869  1.6280  0.4613
 4313SOL    HW224402   1.256   0.311   8.102 -1.0771 -0.5376  2.4206
 4314SOL     OW24403   4.021   0.957  17.020  0.3447 -0.4391  0.2717
 4314SOL    HW124404   3.933   0.995  17.026 -0.5812 -2.5975  0.4543
 4314SOL    HW224405   4.027   0.869  17.058  0.2370 -1.2863 -1.6412
 4315SOL     OW24406   1.602   2.658  17.493  0.2438  0.5477  0.0005
 4315SOL    HW124407   1.615   2.571  17.530  3.0818  0.9354 -0.0987
 4315SOL    HW224408   1.646   2.716  17.554  0.0329  0.8409 -0.1284
 4316SOL     OW24409   4.214   1.942   2.931 -0.4522 -0.3802  0.1265
 4316SOL    HW124410   4.151   2.007   2.902  2.2430  1.8830 -0.6161
 4316SOL    HW224411   4.160   1.865   2.913 -0.5431  0.1557 -1.8729
 4317SOL     OW24412   0.978   3.165   4.408  0.0805  0.3002 -0.7727
 4317SOL    HW124413   0.991   3.087   4.355 -0.2505 -1.3242  1.5622
 4317SOL    HW224414   1.061   3.212   4.397  0.0737  1.1598  2.9240
 4318SOL     OW24415   3.117   1.972   5.486  0.5941  0.2965 -0.2756
 4318SOL    HW124416   3.196   1.933   5.449  1.4366  1.2612  0.4769
 4318SOL    HW224417   3.145   2.011   5.569  3.9391  0.3926 -1.4438
 4319SOL     OW24418   2.706   3.943   2.173 -0.0992  0.0462  0.4193
 4319SOL    HW124419   2.758   4.022   2.162 -0.4159  0.4226  1.5815
 4319SOL    HW224420   2.732   3.899   2.092  0.7177 -1.4253  1.4867
 4320SOL     OW24421   4.230   0.759   0.488  0.0698  0.2462 -0.0095
 4320SOL    HW124422   4.283   0.771   0.409  0.1900 -0.2383 -0.0030
 4320SOL    HW224423   4.156   0.803   0.446  2.0251  2.2295 -1.3748
 4321SOL     OW24424   4.474   0.989   3.362  0.4774 -0.1391 -0.0126
 4321SOL    HW124425   4.491   1.029   3.447  1.6140  2.3904 -1.4399
 4321SOL    HW224426   4.563   0.968   3.332  0.1777 -2.9054  1.0317
 4322SOL     OW24427   1.940   3.882   2.065 -0.5146 -0.4046  0.7134
 4322SOL    HW124428   2.023   3.902   2.020 -0.6648  2.0915  1.5028
 4322SOL    HW224429   1.878   3.873   1.993  0.1664 -0.9121  0.1944
 4323SOL     OW24430   3.850   0.393  13.850 -0.0394  0.0341 -0.6752
 4323SOL    HW124431   3.869   0.310  13.804  1.1850  0.2093 -0.4929
 4323SOL    HW224432   3.905   0.391  13.928  0.1128 -0.1037 -0.7833
 4324SOL     OW24433   4.677   2.841   3.369 -1.2936  0.4185 -0.4444
 4324SOL    HW124434   0.024   2.810   3.308 -0.8175 -1.1366  0.8586
 4324SOL    HW224435   4.615   2.894   3.319 -0.1723  1.9017 -0.2656
 4325SOL     OW24436   1.397   0.285   0.744  0.1185  0.4011 -0.1910
 4325SOL    HW124437   1.370   0.214   0.686  0.4407  0.8228 -0.8602
 4325SOL    HW224438   1.442   0.336   0.676  1.6527 -1.4548 -0.5599
 4326SOL     OW24439   2.428   1.460   3.287 -0.0192  0.3230  0.2732
 4326SOL    HW124440   2.392   1.410   3.213  0.9065 -0.9565  0.7039
 4326SOL    HW224441   2.449   1.542   3.243 -0.1463  1.7360  2.8226
 4327SOL     OW24442   0.544   0.900  14.869  0.2086  0.2953  0.0516
 4327SOL    HW124443   0.569   0.966  14.804  0.5538  0.2759  0.1628
 4327SOL    HW224444   0.528   0.824  14.813 -0.6370  0.7013 -0.2456
 4328SOL     OW24445   1.425   0.780   5.231 -0.1145  0.2135  0.1408
 4328SOL    HW124446   1.450   0.760   5.141 -0.1810 -0.9420  0.3788
 4328SOL    HW224447   1.409   0.874   5.234  1.0021  0.3824  0.5753
 4329SOL     OW24448   4.217   2.523  17.030  0.0853 -0.1341 -0.3639
 4329SOL    HW124449   4.296   2.540  17.081 -0.0655 -1.3482  0.2698
 4329SOL    HW224450   4.168   2.603  17.050 -2.6243 -2.0225  0.5630
 4330SOL     OW24451   3.712   1.795   1.885 -0.2046  0.2509 -0.1871
 4330SOL    HW124452   3.674   1.861   1.828 -0.7751 -0.8154 -1.0619
 4330SOL    HW224453   3.651   1.726   1.857 -0.3959  0.8214 -1.1849
 4331SOL     OW24454   2.693   1.135   2.837  0.0907 -0.4497 -0.0372
 4331SOL    HW124455   2.785   1.136   2.864  0.4317  0.4049 -1.2194
 4331SOL    HW224456   2.675   1.042   2.825  0.3693 -0.3756 -0.9625
 4332SOL     OW24457   2.667   2.697   6.258 -0.3628 -0.1401 -0.0781
 4332SOL    HW124458   2.760   2.712   6.244 -0.1935  0.0970  1.3170
 4332SOL    HW224459   2.638   2.677   6.169  1.9624  0.2285 -0.9264
 4333SOL     OW24460   4.033   2.077   7.028 -0.1379 -0.0104 -0.3791
 4333SOL    HW124461   4.051   2.170   7.041  0.1839  0.0250 -1.0616
 4333SOL    HW224462   3.939   2.064   7.039  0.0959 -1.1411  0.2883
 4334SOL     OW24463   4.189   0.929   6.950 -0.3806 -0.6511 -0.0374
 4334SOL    HW124464   4.233   1.012   6.931 -0.5301 -0.3750  0.8168
 4334SOL    HW224465   4.250   0.864   6.916 -2.4680 -2.0959 -1.0121
 4335SOL     OW24466   3.085   4.516   3.880  0.3334  0.2041  0.5980
 4335SOL    HW124467   3.058   4.607   3.867 -0.0660 -0.1232 -0.9426
 4335SOL    HW224468   3.141   4.530   3.956 -0.8612 -1.2268  1.7450
 4336SOL     OW24469   3.733   1.800   2.896 -0.1943  0.6209 -0.1748
 4336SOL    HW124470   3.690   1.772   2.976 -0.1677 -2.8159 -1.3783
 4336SOL    HW224471   3.784   1.876   2.926 -0.1864  0.2900  0.6310
 4337SOL     OW24472   3.328   3.312  16.154 -0.5995  0.0321  0.7585
 4337SOL    HW124473   3.408   3.278  16.115 -0.4990  1.4965 -0.3284
 4337SOL    HW224474   3.277   3.231  16.152 -0.5183  0.0009 -0.2924
 4338SOL     OW24475   2.776   1.987   4.140 -0.1263  0.4733 -0.1321
 4338SOL    HW124476   2.682   1.987   4.124 -0.0755  1.4007 -0.4759
 4338SOL    HW224477   2.778   2.054   4.209  0.7949  0.7158 -0.3972
 4339SOL     OW24478   4.206   3.239   1.070 -0.1212  0.0485 -0.0050
 4339SOL    HW124479   4.268   3.276   1.007 -2.3770  1.4220 -1.3795
 4339SOL    HW224480   4.253   3.264   1.150  0.8673 -2.9584  0.3216
 4340SOL     OW24481   1.200   3.298   7.591 -0.0301  0.4828  0.3685
 4340SOL    HW124482   1.203   3.344   7.507 -3.6270 -0.2725 -0.1493
 4340SOL    HW224483   1.108   3.300   7.615 -0.2713  0.2660 -0.5383
 4341SOL     OW24484   4.625   0.206   8.739  0.4572  0.0452  0.2769
 4341SOL    HW124485   4.600   0.280   8.684 -1.3605 -0.8547 -0.1052
 4341SOL    HW224486   4.602   0.239   8.826 -0.3617 -2.6166  1.0925
 4342SOL     OW24487   1.611   4.649  12.664  0.6620  0.7601  0.3985
 4342SOL    HW124488   1.544   4.702  12.708 -1.4231  0.1404 -2.0278
 4342SOL    HW224489   1.581   4.560  12.683 -0.3083  1.1854  0.8421
 4343SOL     OW24490   3.142   0.021   2.215 -0.2512  0.2164  0.2790
 4343SOL    HW124491   3.175   4.653   2.230  1.2370  0.7234 -0.0105
 4343SOL    HW224492   3.173   0.076   2.287 -0.0185  0.2899  0.1217
 4344SOL     OW24493   4.205   2.226  14.186 -0.8283  0.5717 -0.4417
 4344SOL    HW124494   4.187   2.139  14.222  1.5776  1.3947  2.7834
 4344SOL    HW224495   4.300   2.234  14.197 -0.9376  2.7500 -1.1579
 4345SOL     OW24496   4.559   3.737   0.688 -0.1708  0.3094 -0.1135
 4345SOL    HW124497   4.556   3.747   0.592 -2.9612 -0.3598 -0.0915
 4345SOL    HW224498   4.584   3.829   0.698  1.4707 -0.3326  1.6418
 4346SOL     OW24499   3.492   2.971   0.201  0.3073 -0.1958  0.1575
 4346SOL    HW124500   3.464   2.940   0.287  0.5038 -2.4639 -0.5959
 4346SOL    HW224501   3.579   3.008   0.216 -0.4320  1.1339  1.2316
 4347SOL     OW24502   3.596   0.870   2.606 -0.3080  0.4519  0.2280
 4347SOL    HW124503   3.526   0.851   2.668 -0.0744 -1.9103 -0.2369
 4347SOL    HW224504   3.593   0.789   2.557  1.2089  0.3345  0.3050
 4348SOL     OW24505   3.870   0.798   3.129 -0.3083  0.4591  0.3845
 4348SOL    HW124506   3.914   0.856   3.067 -0.5037 -1.1251 -1.2229
 4348SOL    HW224507   3.870   0.716   3.079  0.8333  0.0831  0.9988
 4349SOL     OW24508   2.209   1.120  10.519  0.1581  0.4784  0.2875
 4349SOL    HW124509   2.183   1.155  10.433  2.0724  0.8380 -0.1348
 4349SOL    HW224510   2.283   1.179  10.535 -0.7061  1.8054 -0.5145
 4350SOL     OW24511   2.400   3.400   5.194  0.2842  0.4970 -0.2769
 4350SOL    HW124512   2.431   3.441   5.113  3.0222  1.1739  1.1415
 4350SOL    HW224513   2.403   3.306   5.175  1.8462  0.3492  0.7112
 4351SOL     OW24514   1.470   2.893  16.419  0.3468  0.5068  0.5724
 4351SOL    HW124515   1.389   2.943  16.414 -0.0456 -0.2086 -0.3733
 4351SOL    HW224516   1.443   2.802  16.434 -3.1014  1.8982  2.7188
 4352SOL     OW24517   3.607   4.539   5.051  0.2443 -0.1616  0.0601
 4352SOL    HW124518   3.684   4.486   5.032  1.3783  1.2459  0.6730
 4352SOL    HW224519   3.619   4.553   5.146  0.6253  2.0074 -0.2971
 4353SOL     OW24520   1.081   1.710   2.199  0.2045  0.4135  0.3521
 4353SOL    HW124521   1.138   1.654   2.252 -0.4139  0.5001  1.1079
 4353SOL    HW224522   1.037   1.650   2.140  1.6139 -0.5490  0.2943
 4354SOL     OW24523   1.756   3.359   2.394 -0.4312  0.2380 -0.0219
 4354SOL    HW124524   1.722   3.271   2.381  0.0354  0.1032 -0.3165
 4354SOL    HW224525   1.717   3.385   2.478 -1.8212  0.0003 -0.6018
 4355SOL     OW24526   1.836   0.739  13.770 -0.1121 -0.1817  0.0592
 4355SOL    HW124527   1.876   0.822  13.796  1.3978 -1.0732  0.5638
 4355SOL    HW224528   1.917   0.689  13.762  0.0608  0.1639 -0.2689
 4356SOL     OW24529   1.198   2.946   5.782  0.2684 -0.0359  0.0408
 4356SOL    HW124530   1.172   2.854   5.779 -2.6302  0.8392 -1.3519
 4356SOL    HW224531   1.122   2.974   5.834 -0.0926 -0.6136 -0.1848
 4357SOL     OW24532   3.925   2.604   9.817 -1.1253 -0.3628 -0.7782
 4357SOL    HW124533   3.938   2.519   9.775 -0.3012 -1.2511  1.2767
 4357SOL    HW224534   3.863   2.645   9.758 -1.7272 -0.8104 -0.4548
 4358SOL     OW24535   2.415   2.077  16.837 -0.5252  0.1614 -0.4108
 4358SOL    HW124536   2.365   2.002  16.872 -0.3696  0.0030 -0.5297
 4358SOL    HW224537   2.496   2.070  16.887  1.0200  0.2958 -2.9341
 4359SOL     OW24538   0.251   1.838   0.508 -0.3477 -0.3259 -0.4155
 4359SOL    HW124539   0.176   1.846   0.449  0.8135  1.7512 -1.6027
 4359SOL    HW224540   0.251   1.928   0.540 -0.2952 -0.7272  0.7264
 4360SOL     OW24541   0.666   1.694   8.996  0.1390  0.3441 -0.4404
 4360SOL    HW124542   0.658   1.682   8.901 -1.4432 -0.0324 -0.2508
 4360SOL    HW224543   0.608   1.770   9.005 -1.5099 -1.1268  1.2652
 4361SOL     OW24544   2.113   3.424  13.830 -0.0246  0.4408  0.4884
 4361SOL    HW124545   2.058   3.496  13.799  0.1557 -0.9843 -3.2060
 4361SOL    HW224546   2.179   3.468  13.883 -0.2939 -0.6791  1.7462
 4362SOL     OW24547   3.312   0.133  12.566 -0.6279 -0.0912 -0.2864
 4362SOL    HW124548   3.289   0.042  12.587  0.3112 -0.5816 -1.3457
 4362SOL    HW224549   3.338   0.140  12.474  0.0053  1.1907 -0.0075
 4363SOL     OW24550   2.644   4.570   1.072 -0.3883 -0.4499 -0.1228
 4363SOL    HW124551   2.700   4.642   1.099 -1.1154  0.8108 -1.9486
 4363SOL    HW224552   2.678   4.501   1.129  0.5709  2.7136  3.0591
 4364SOL     OW24553   4.717   1.136   7.313 -0.3195 -0.3867 -0.1629
 4364SOL    HW124554   0.018   1.119   7.405  0.7636 -0.8120 -0.4872
 4364SOL    HW224555   0.072   1.189   7.286 -0.5097 -0.1159 -0.1519
 4365SOL     OW24556   2.421   0.050  16.494  0.1188 -0.5277 -0.6581
 4365SOL    HW124557   2.433   0.063  16.588 -1.9036 -1.7713 -0.2218
 4365SOL    HW224558   2.456   0.132  16.459 -1.4337  0.4067  0.0300
 4366SOL     OW24559   2.294   2.265   8.725  0.1241 -0.5763  0.2796
 4366SOL    HW124560   2.301   2.179   8.767 -1.0052  0.5348  2.7054
 4366SOL    HW224561   2.213   2.291   8.767 -1.5706 -0.9248 -2.8258
 4367SOL     OW24562   0.687   0.152   8.799 -0.2251 -0.7357 -0.0872
 4367SOL    HW124563   0.739   0.230   8.783 -4.6175  2.0434 -0.7465
 4367SOL    HW224564   0.602   0.193   8.811 -0.0868 -1.1262  2.2077
 4368SOL     OW24565   0.575   3.664   2.538 -0.3621 -0.3191 -0.2234
 4368SOL    HW124566   0.655   3.648   2.489 -0.0611  0.7521 -0.0737
 4368SOL    HW224567   0.519   3.706   2.471  1.6925  0.3516 -1.5136
 4369SOL     OW24568   4.208   1.671  17.368  0.6722 -0.6068 -0.1150
 4369SOL    HW124569   4.196   1.636  17.456 -0.8100 -0.9415 -0.4429
 4369SOL    HW224570   4.215   1.596  17.308 -1.1935  0.0036 -1.0964
 4370SOL     OW24571   1.169   0.175   4.428 -0.2591  0.0541  0.4069
 4370SOL    HW124572   1.141   0.238   4.494 -1.1761  0.4887 -0.3885
 4370SOL    HW224573   1.127   0.202   4.346 -0.2986  0.1352  0.4535
 4371SOL     OW24574   1.649   0.873   8.664  0.3700 -0.0804 -0.1276
 4371SOL    HW124575   1.696   0.947   8.625  1.2536 -0.6125 -0.0707
 4371SOL    HW224576   1.683   0.868   8.753  1.2840  0.5318 -0.4492
 4372SOL     OW24577   1.731   3.502  17.487 -0.7372  0.6615 -0.7453
 4372SOL    HW124578   1.805   3.533  17.435  0.5255  1.6493  1.6413
 4372SOL    HW224579   1.665   3.567  17.464 -2.3170 -0.6460  0.1370
 4373SOL     OW24580   3.537   3.627   6.001  0.1815 -0.1156  0.6230
 4373SOL    HW124581   3.616   3.680   5.993 -0.4716  0.9680  1.2930
 4373SOL    HW224582   3.564   3.535   6.007 -2.0164 -0.6437  2.5600
 4374SOL     OW24583   0.317   3.815  11.276 -0.3916  0.3333  0.0459
 4374SOL    HW124584   0.254   3.776  11.337  1.3765 -1.3275  0.8128
 4374SOL    HW224585   0.255   3.831  11.205  0.5154  0.6020 -0.6817
 4375SOL     OW24586   2.986   4.137   2.355  0.6970 -0.4317 -0.1409
 4375SOL    HW124587   2.959   4.147   2.264  1.6715 -0.6891 -0.4553
 4375SOL    HW224588   2.910   4.092   2.393 -0.9938  0.9505 -1.9339
 4376SOL     OW24589   1.049   4.173   6.371 -0.3062  0.0667  0.2626
 4376SOL    HW124590   0.955   4.181   6.354 -0.4586  1.5464  1.8402
 4376SOL    HW224591   1.078   4.237   6.306  1.1675  0.1482  0.9937
 4377SOL     OW24592   0.326   0.249   8.866 -0.1317 -0.5147  0.0138
 4377SOL    HW124593   0.260   0.308   8.829  0.2993 -0.8326 -1.2674
 4377SOL    HW224594   0.402   0.305   8.880 -1.0068  0.9394 -1.0524
 4378SOL     OW24595   3.719   0.827   1.967 -0.0611 -0.1566 -0.1785
 4378SOL    HW124596   3.701   0.905   2.020 -1.1899 -0.6747  0.2137
 4378SOL    HW224597   3.798   0.793   2.008 -0.8656 -1.6838  0.1208
 4379SOL     OW24598   3.711   1.838   6.864 -0.3044 -0.5939 -0.3007
 4379SOL    HW124599   3.715   1.747   6.894  1.2358 -0.5381 -0.3777
 4379SOL    HW224600   3.770   1.820   6.791  0.2813  0.1085 -0.0027
 4380SOL     OW24601   2.051   3.183   9.421  0.0226  0.5936 -0.4289
 4380SOL    HW124602   2.070   3.125   9.348 -1.2548  1.7691 -1.6858
 4380SOL    HW224603   1.956   3.177   9.410 -0.2873 -1.7060  3.4474
 4381SOL     OW24604   1.087   0.224   1.301 -0.2882 -0.4693  0.0618
 4381SOL    HW124605   1.060   0.280   1.374 -1.1994 -0.8471  0.0120
 4381SOL    HW224606   1.007   0.207   1.252 -0.6535  1.5428 -0.0425
 4382SOL     OW24607   4.048   2.301  12.943 -0.5418  0.2851 -0.2460
 4382SOL    HW124608   4.121   2.283  12.885 -0.8373 -2.3963  0.2364
 4382SOL    HW224609   4.078   2.285  13.032 -1.8330 -0.5363  0.0430
 4383SOL     OW24610   2.231   0.380   9.170 -0.4026 -0.2066  0.0839
 4383SOL    HW124611   2.155   0.425   9.132  1.1233 -0.0344 -2.7222
 4383SOL    HW224612   2.258   0.321   9.099  0.2588 -0.5839  0.6504
 4384SOL     OW24613   3.788   3.803   3.537 -0.2588 -0.1013 -0.3369
 4384SOL    HW124614   3.713   3.750   3.509  0.7288 -0.9325 -1.3925
 4384SOL    HW224615   3.790   3.772   3.627  1.4248  0.4614 -0.1864
 4385SOL     OW24616   4.019   4.084  16.754 -0.0539  0.0435 -0.1485
 4385SOL    HW124617   4.050   4.005  16.709 -0.2962 -0.0259 -0.1909
 4385SOL    HW224618   3.992   4.048  16.838  0.0217 -2.4123 -1.1732
 4386SOL     OW24619   4.697   1.650   8.693  0.4137  0.2638  0.5567
 4386SOL    HW124620   4.701   1.589   8.766 -1.9327 -1.7357 -0.9553
 4386SOL    HW224621   4.687   1.730   8.744 -0.2358  0.5727 -0.0537
 4387SOL     OW24622   4.030   0.724   3.405  0.2973  0.3580 -0.1147
 4387SOL    HW124623   4.089   0.752   3.335  0.0701  0.7249 -0.1615
 4387SOL    HW224624   3.946   0.752   3.368 -0.0281 -0.4461  0.0040
 4388SOL     OW24625   0.831   3.694  12.529  0.1499 -0.1575  0.7177
 4388SOL    HW124626   0.787   3.774  12.500  1.7734 -0.3983 -2.3590
 4388SOL    HW224627   0.834   3.711  12.624 -0.7869  1.0436  0.5397
 4389SOL     OW24628   3.252   3.320   4.710  0.0430 -0.0909 -0.7037
 4389SOL    HW124629   3.301   3.306   4.791 -0.1936  2.6430 -0.0984
 4389SOL    HW224630   3.268   3.240   4.659  1.8171 -0.0231 -0.2520
 4390SOL     OW24631   1.833   0.249   5.319  0.5116  0.2133  0.5569
 4390SOL    HW124632   1.829   0.191   5.244  0.1343 -1.8796  2.2113
 4390SOL    HW224633   1.748   0.294   5.313  0.7009  0.4090 -0.6005
 4391SOL     OW24634   3.939   3.016   5.840 -0.2277 -0.2570 -0.0928
 4391SOL    HW124635   3.893   3.022   5.756  2.8613  1.4987 -1.6229
 4391SOL    HW224636   4.027   3.039   5.812  0.3017 -1.4646  0.5715
 4392SOL     OW24637   4.694   4.608   3.710 -0.3537 -0.3239  0.4328
 4392SOL    HW124638   0.001   4.670   3.778 -0.5941  0.3749 -0.1007
 4392SOL    HW224639   0.044   4.543   3.706  0.7602  0.8223  1.0571
 4393SOL     OW24640   2.261   0.583  14.678  0.1315 -0.5109  0.0705
 4393SOL    HW124641   2.352   0.604  14.699 -0.4522  0.2916  1.7985
 4393SOL    HW224642   2.287   0.554  14.590 -0.1821 -1.8634  0.4244
 4394SOL     OW24643   3.921   2.544   2.622  0.4683  0.9499  0.2731
 4394SOL    HW124644   3.853   2.534   2.689 -0.9723  1.2370 -1.1490
 4394SOL    HW224645   3.892   2.475   2.562 -0.3166  2.6781 -1.3627
 4395SOL     OW24646   2.557   0.886   5.945  0.5232 -0.1702  0.0044
 4395SOL    HW124647   2.529   0.963   5.993 -1.2697 -0.1241 -1.1380
 4395SOL    HW224648   2.552   0.918   5.854  2.0270 -0.9504 -0.3599
 4396SOL     OW24649   0.196   1.865   7.170 -0.8776 -0.2965  0.2998
 4396SOL    HW124650   0.255   1.889   7.241  0.4594  0.4731 -1.0742
 4396SOL    HW224651   0.141   1.943   7.173 -0.5881 -0.1032  0.5965
 4397SOL     OW24652   0.854   0.398   3.143 -0.0906  0.0904 -0.0927
 4397SOL    HW124653   0.884   0.467   3.084 -0.3611 -0.2064 -0.5786
 4397SOL    HW224654   0.833   0.452   3.220  1.7839  1.3946 -0.5154
 4398SOL     OW24655   2.020   2.777  13.936 -0.3920 -0.3501  0.3030
 4398SOL    HW124656   2.047   2.832  13.863 -0.6710 -0.8399 -0.1707
 4398SOL    HW224657   2.105   2.773  13.979  0.0892 -1.1146 -0.7268
 4399SOL     OW24658   1.344   3.615   0.554 -0.5352 -0.0558 -0.0075
 4399SOL    HW124659   1.339   3.528   0.594  0.4569 -0.5782 -1.0065
 4399SOL    HW224660   1.393   3.596   0.474 -1.4730 -0.9998 -0.3643
 4400SOL     OW24661   4.385   2.253  13.828 -0.3385  0.4442  0.1706
 4400SOL    HW124662   4.469   2.294  13.808 -0.4534  1.5885  2.0060
 4400SOL    HW224663   4.353   2.327  13.880 -0.7968  1.9976 -2.3666
 4401SOL     OW24664   0.246   2.444   4.761  0.0127 -0.1411  0.2144
 4401SOL    HW124665   0.271   2.506   4.692  1.3180  1.0730  1.7957
 4401SOL    HW224666   0.156   2.436   4.729  0.5157  0.3677 -1.3533
 4402SOL     OW24667   3.889   1.527   3.672  0.0328  0.2353 -0.1245
 4402SOL    HW124668   3.857   1.534   3.582 -0.0705  1.7695  0.0375
 4402SOL    HW224669   3.813   1.498   3.722  0.8426 -0.2314  0.8562
 4403SOL     OW24670   3.222   0.571   0.773 -0.7731  0.3091 -0.6055
 4403SOL    HW124671   3.180   0.487   0.790 -0.3724 -0.3380 -2.8436
 4403SOL    HW224672   3.246   0.584   0.682 -1.3771 -1.3888 -1.0079
 4404SOL     OW24673   2.238   4.122  14.075 -0.1733  0.2631  0.9971
 4404SOL    HW124674   2.173   4.086  14.135  0.9926 -2.1504  0.8397
 4404SOL    HW224675   2.285   4.177  14.137 -0.7772  2.3997 -0.4329
 4405SOL     OW24676   3.877   0.174   6.833 -0.3878 -0.9667  0.1410
 4405SOL    HW124677   3.899   0.180   6.926  0.1332 -1.6570  0.0642
 4405SOL    HW224678   3.951   0.117   6.812 -0.2639 -1.6142  2.3219
 4406SOL     OW24679   4.302   2.179   8.917 -0.0905 -0.5531 -0.7361
 4406SOL    HW124680   4.247   2.248   8.954  1.2092 -0.4752  1.0588
 4406SOL    HW224681   4.278   2.185   8.825 -0.0732 -2.7022 -0.8766
 4407SOL     OW24682   3.339   2.511   8.804  0.2029 -0.3579 -0.2698
 4407SOL    HW124683   3.286   2.472   8.874 -0.1138 -0.6025 -0.6472
 4407SOL    HW224684   3.300   2.460   8.733  0.4717  1.8351 -1.9754
 4408SOL     OW24685   1.105   0.105   5.232 -0.1822  0.6066  0.0321
 4408SOL    HW124686   1.178   0.163   5.212  1.2306 -0.8494  0.9908
 4408SOL    HW224687   1.102   0.100   5.327 -0.2010 -1.1162 -0.0666
 4409SOL     OW24688   3.405   1.955   5.749 -0.1071 -0.1792  0.3484
 4409SOL    HW124689   3.323   1.959   5.799  0.4289 -1.1184  1.3092
 4409SOL    HW224690   3.462   1.886   5.785 -1.3728 -0.3256  2.0718
 4410SOL     OW24691   1.826   1.682   5.560 -0.2637 -0.2780 -0.6372
 4410SOL    HW124692   1.903   1.626   5.557 -0.6614 -0.8357 -0.4736
 4410SOL    HW224693   1.768   1.622   5.608 -0.8745  0.1947 -0.7934
 4411SOL     OW24694   1.886   2.716   5.414  0.4371  0.7381  0.3092
 4411SOL    HW124695   1.851   2.763   5.490  2.2291  1.2984  0.7943
 4411SOL    HW224696   1.957   2.668   5.456  0.1199 -0.0023 -0.0179
 4412SOL     OW24697   1.081   2.137   5.482 -0.1916  0.3314  0.3424
 4412SOL    HW124698   0.985   2.130   5.477  0.0792 -2.9284 -0.3843
 4412SOL    HW224699   1.099   2.192   5.558  2.3696 -3.4013  2.3951
 4413SOL     OW24700   1.861   3.508   0.974  0.1669  0.3401 -0.2300
 4413SOL    HW124701   1.889   3.491   1.064  2.4746  3.2474 -0.4004
 4413SOL    HW224702   1.779   3.460   0.966  0.4794 -0.2746  0.2563
 4414SOL     OW24703   0.111   3.622   5.912  0.3548  0.1870 -0.3320
 4414SOL    HW124704   0.092   3.693   5.852 -0.1559  1.7506  1.7000
 4414SOL    HW224705   0.094   3.650   6.002 -0.0047 -0.8898 -0.0562
 4415SOL     OW24706   4.552   2.361  13.244 -0.1595 -0.4565  0.1040
 4415SOL    HW124707   4.595   2.421  13.183 -0.0181  0.7072  1.3478
 4415SOL    HW224708   4.611   2.381  13.317 -0.8059  0.1115  0.4716
 4416SOL     OW24709   0.722   3.056   0.367 -0.3188  0.2026 -0.5437
 4416SOL    HW124710   0.753   3.042   0.457 -0.5797 -0.1759 -0.5131
 4416SOL    HW224711   0.761   3.142   0.351  1.0126  0.0395  1.7507
 4417SOL     OW24712   1.621   3.656   8.772  0.1618  0.2350  0.0071
 4417SOL    HW124713   1.625   3.752   8.765 -2.1904  0.1547 -2.7188
 4417SOL    HW224714   1.694   3.634   8.713  1.9165  1.4009  1.7456
 4418SOL     OW24715   2.818   2.782   9.144 -0.1033  0.3933  0.1668
 4418SOL    HW124716   2.723   2.765   9.144 -0.0002 -0.1731  0.2403
 4418SOL    HW224717   2.830   2.849   9.212  1.9652 -1.3719  1.5604
 4419SOL     OW24718   2.933   0.286   4.056 -0.5405 -0.2836 -0.0682
 4419SOL    HW124719   2.878   0.350   4.102  1.4445  0.3533  1.3813
 4419SOL    HW224720   2.918   0.325   3.970  0.9369  2.1127  0.7624
 4420SOL     OW24721   2.418   3.598   0.705 -0.5282  0.2505  0.3411
 4420SOL    HW124722   2.342   3.655   0.719 -2.8240 -3.0212  1.0912
 4420SOL    HW224723   2.381   3.537   0.642 -0.8813  0.2993  0.5051
 4421SOL     OW24724   2.402   1.075  16.535 -0.5079  0.0831  0.6065
 4421SOL    HW124725   2.344   1.104  16.464  0.1003  0.6576  0.3488
 4421SOL    HW224726   2.340   1.056  16.606  2.3136  0.9838  3.2869
 4422SOL     OW24727   4.581   3.250   5.468 -0.3126  0.1384 -0.0187
 4422SOL    HW124728   4.578   3.333   5.422 -2.5724 -0.1135 -0.3173
 4422SOL    HW224729   4.621   3.196   5.400  1.0589  1.3178 -0.1386
 4423SOL     OW24730   0.347   3.045   4.727 -0.0644 -0.4585  0.5571
 4423SOL    HW124731   0.292   3.037   4.805 -0.0936  1.4804  0.7441
 4423SOL    HW224732   0.282   3.025   4.660  0.8292 -1.9152  0.1331
 4424SOL     OW24733   4.567   1.267   1.230  0.0113  0.2839 -0.3537
 4424SOL    HW124734   4.623   1.221   1.167 -0.0221  0.1983 -0.3219
 4424SOL    HW224735   4.552   1.197   1.294  2.2631 -0.5106 -0.7078
 4425SOL     OW24736   3.928   2.996   2.835  0.3137 -0.0096 -0.4539
 4425SOL    HW124737   3.913   2.940   2.758 -1.8132  0.2099 -0.1965
 4425SOL    HW224738   3.905   3.086   2.812 -3.0747 -1.0083 -1.0200
 4426SOL     OW24739   3.460   2.222   7.284  0.3750 -0.2678 -0.3393
 4426SOL    HW124740   3.553   2.218   7.307  0.1584 -0.3569  0.5052
 4426SOL    HW224741   3.415   2.185   7.359 -1.4649  0.3426 -1.1559
 4427SOL     OW24742   3.126   2.231  10.678  0.7071 -0.1289  0.3563
 4427SOL    HW124743   3.200   2.186  10.719  0.8303  0.0246  0.2993
 4427SOL    HW224744   3.165   2.240  10.591  1.6055  0.7997  0.8557
 4428SOL     OW24745   3.500   1.496  11.722 -0.4069 -0.2170 -0.0824
 4428SOL    HW124746   3.514   1.436  11.796  0.6969  1.7052  1.2497
 4428SOL    HW224747   3.592   1.493  11.696  0.4216  0.7157  2.7575
 4429SOL     OW24748   2.999   2.622   4.513  0.5070 -0.3363 -0.6093
 4429SOL    HW124749   3.062   2.564   4.470  1.9783  1.1321 -0.3916
 4429SOL    HW224750   3.036   2.623   4.601 -1.7500 -0.0815  0.3197
 4430SOL     OW24751   1.377   2.247   3.976 -0.0790 -0.0595 -0.3899
 4430SOL    HW124752   1.448   2.309   3.959  0.2217  0.1231  1.5067
 4430SOL    HW224753   1.413   2.162   3.949  0.7887  0.0612  0.3779
 4431SOL     OW24754   3.696   1.303   7.920  0.7278 -0.6995 -0.3290
 4431SOL    HW124755   3.666   1.358   7.848 -0.0284 -2.1836 -1.1497
 4431SOL    HW224756   3.629   1.322   7.986  1.8978 -1.0440  0.9650
 4432SOL     OW24757   0.065   0.969   4.927  0.4823 -0.2390 -0.2303
 4432SOL    HW124758   0.019   1.050   4.948 -2.7892 -1.7367 -1.6876
 4432SOL    HW224759   0.060   0.968   4.831  2.4209 -0.1605 -0.3471
 4433SOL     OW24760   4.386   3.678   5.846  0.3377 -0.7957 -0.0484
 4433SOL    HW124761   4.353   3.710   5.930  3.5423  0.6174  0.6763
 4433SOL    HW224762   4.446   3.753   5.838  0.4977 -1.0646 -1.3192
 4434SOL     OW24763   3.178   0.543  11.247 -0.0611  0.0562 -0.1710
 4434SOL    HW124764   3.203   0.488  11.321  0.3703  1.4721  0.7440
 4434SOL    HW224765   3.112   0.492  11.201  0.9595  1.2693 -2.9498
 4435SOL     OW24766   0.014   0.313   6.760 -0.1627  0.0971 -0.0072
 4435SOL    HW124767   0.033   0.269   6.843  1.0172 -0.3741 -0.5188
 4435SOL    HW224768   4.690   0.389   6.796  0.0627  0.4727 -0.5332
 4436SOL     OW24769   2.296   1.491   5.513  0.5638  0.5146  0.2898
 4436SOL    HW124770   2.335   1.496   5.600 -0.2976  2.0152  0.5860
 4436SOL    HW224771   2.365   1.528   5.459  2.3468 -0.4586  1.9152
 4437SOL     OW24772   4.110   3.193  16.301  0.2576 -0.5182  0.2873
 4437SOL    HW124773   4.113   3.243  16.219 -0.5310 -0.2304  0.4321
 4437SOL    HW224774   4.201   3.165  16.293 -0.0283 -1.8050  1.5108
 4438SOL     OW24775   0.618   2.224   1.439 -0.5692 -0.1762 -0.0698
 4438SOL    HW124776   0.702   2.268   1.451 -0.3894 -0.2558 -1.0168
 4438SOL    HW224777   0.575   2.260   1.517  0.8983 -0.0947  0.6949
 4439SOL     OW24778   0.146   3.205   6.754  0.0556 -0.8388  0.0876
 4439SOL    HW124779   0.091   3.141   6.709 -0.0656 -0.7831  0.1580
 4439SOL    HW224780   0.111   3.203   6.843 -2.0317  0.7074 -0.6889
 4440SOL     OW24781   0.072   4.404   3.893 -0.3405  0.2853  0.1817
 4440SOL    HW124782   0.157   4.360   3.894 -0.0057  0.9136 -2.0734
 4440SOL    HW224783   0.009   4.334   3.902 -1.1557  0.9023 -0.7216
 4441SOL     OW24784   0.241   2.955   2.863 -0.4414  0.0559  0.2556
 4441SOL    HW124785   0.277   3.043   2.875 -0.1579  0.1895 -1.4978
 4441SOL    HW224786   0.310   2.921   2.806 -1.1656 -2.1497  0.6898
 4442SOL     OW24787   3.708   3.917   4.972  0.0146 -0.3316 -0.1519
 4442SOL    HW124788   3.724   4.011   4.984  0.3340 -0.2061 -1.4555
 4442SOL    HW224789   3.624   3.904   5.015  0.5797 -1.7839  0.5181
 4443SOL     OW24790   1.642   2.190  11.959 -0.2004 -0.3972  0.6106
 4443SOL    HW124791   1.736   2.201  11.943 -0.2489  1.5876  1.6728
 4443SOL    HW224792   1.635   2.110  12.011  0.9029 -0.7453  0.2197
 4444SOL     OW24793   0.727   3.177   5.848  0.5838 -0.4526  0.1311
 4444SOL    HW124794   0.810   3.149   5.886  0.0533  0.5989  2.0631
 4444SOL    HW224795   0.666   3.130   5.905 -1.9801  1.7660 -0.7502
 4445SOL     OW24796   2.928   0.794   1.739  0.3552 -0.5529  0.7280
 4445SOL    HW124797   2.904   0.702   1.753 -2.5120 -0.0745 -1.1354
 4445SOL    HW224798   2.982   0.784   1.661 -2.0662  1.3833 -1.2085
 4446SOL     OW24799   1.245   0.728   5.830 -0.5335 -0.1503 -0.3505
 4446SOL    HW124800   1.239   0.666   5.903  1.4237 -0.0460 -0.0951
 4446SOL    HW224801   1.281   0.807   5.870  0.5373 -1.4331  1.2651
 4447SOL     OW24802   3.112   1.049   7.263 -0.1325  0.1781 -0.2846
 4447SOL    HW124803   3.116   1.022   7.355 -0.2718 -0.7445 -0.5495
 4447SOL    HW224804   3.039   1.002   7.224 -0.5298  2.4637 -2.2253
 4448SOL     OW24805   1.038   1.516   5.014  0.1166 -0.1240  0.1345
 4448SOL    HW124806   1.061   1.532   4.923  1.8111 -0.4526  0.4978
 4448SOL    HW224807   0.954   1.561   5.015 -0.1539 -0.6076 -0.5468
 4449SOL     OW24808   0.622   0.314   9.226 -0.3685  0.6851 -0.5259
 4449SOL    HW124809   0.575   0.392   9.196  0.7745  1.5739 -0.0328
 4449SOL    HW224810   0.708   0.323   9.184 -0.5602  0.1520 -1.0207
 4450SOL     OW24811   2.323   3.463  15.357 -0.4651  0.4746 -0.5283
 4450SOL    HW124812   2.312   3.421  15.442 -0.0930  0.5919 -0.4212
 4450SOL    HW224813   2.339   3.554  15.379 -1.2322 -0.0757  2.2782
 4451SOL     OW24814   0.922   3.615   5.789 -0.1715 -0.1345  0.2216
 4451SOL    HW124815   0.880   3.540   5.748  0.7459 -0.1129 -0.7661
 4451SOL    HW224816   0.977   3.635   5.713 -2.3751  0.7619 -1.1310
 4452SOL     OW24817   2.561   1.318   6.530  0.0409  0.0045 -0.0882
 4452SOL    HW124818   2.570   1.394   6.588 -0.9438  0.7507 -0.9095
 4452SOL    HW224819   2.546   1.355   6.443  0.2401  2.5304  0.9548
 4453SOL     OW24820   4.157   2.521   2.157  0.4168 -0.1049 -0.1693
 4453SOL    HW124821   4.073   2.559   2.133  0.3666 -0.0387  0.1148
 4453SOL    HW224822   4.142   2.427   2.145 -1.5981  0.1458  0.4942
 4454SOL     OW24823   3.123   3.892   4.567 -0.0668  0.2237 -0.0881
 4454SOL    HW124824   3.182   3.919   4.497  1.9074  4.1576  3.1281
 4454SOL    HW224825   3.076   3.826   4.516 -0.2465 -2.3957  3.4345
 4455SOL     OW24826   2.462   2.124   7.378 -0.3970 -0.2356 -0.4087
 4455SOL    HW124827   2.376   2.145   7.413 -0.1121  1.3597 -0.6621
 4455SOL    HW224828   2.522   2.188   7.417 -1.0444  0.3999 -0.4585
 4456SOL     OW24829   2.743   0.252   7.347  0.1515  0.5796 -0.0709
 4456SOL    HW124830   2.810   0.184   7.347 -0.7686 -0.3478 -2.0165
 4456SOL    HW224831   2.741   0.285   7.257  0.8037 -1.8538 -0.9729
 4457SOL     OW24832   4.248   0.840   3.235  0.7230 -0.1003  0.0141
 4457SOL    HW124833   4.309   0.897   3.282 -1.0453  1.5682  0.2765
 4457SOL    HW224834   4.309   0.772   3.206  1.1356 -0.2314  1.1899
 4458SOL     OW24835   1.929   3.036   7.896  0.3313  0.3906  0.3483
 4458SOL    HW124836   1.918   3.128   7.922 -0.3635  0.0660  1.1743
 4458SOL    HW224837   1.957   2.990   7.974 -1.1255 -0.0382  0.6188
 4459SOL     OW24838   0.520   2.854   3.798 -0.3677 -0.0024 -0.5025
 4459SOL    HW124839   0.553   2.876   3.711  2.4127  0.3551  0.6118
 4459SOL    HW224840   0.562   2.769   3.809  1.5286  0.5952 -3.2271
 4460SOL     OW24841   0.189   2.666   4.578 -0.0809  0.0682 -0.1888
 4460SOL    HW124842   0.113   2.677   4.635 -0.2240 -1.4716 -0.0596
 4460SOL    HW224843   0.251   2.732   4.607 -0.1951  0.3645 -0.6215
 4461SOL     OW24844   4.236   0.109  14.614 -1.3944 -0.3721 -0.3326
 4461SOL    HW124845   4.294   0.106  14.691 -0.9568  2.5906 -0.5393
 4461SOL    HW224846   4.272   0.175  14.554  0.6953 -0.5166  0.7516
 4462SOL     OW24847   3.486   4.256   5.766  0.2817 -0.3802 -0.1502
 4462SOL    HW124848   3.574   4.266   5.803 -0.7602  0.0311  2.2518
 4462SOL    HW224849   3.496   4.284   5.675  0.6218  1.6004  0.4887
 4463SOL     OW24850   0.541   1.181   1.856 -0.4693  0.0774  0.0719
 4463SOL    HW124851   0.461   1.227   1.880 -0.0257  1.0048 -0.2081
 4463SOL    HW224852   0.515   1.091   1.837  0.1386  0.5384 -2.9352
 4464SOL     OW24853   4.441   0.787  15.902 -0.1325 -0.0333  0.3668
 4464SOL    HW124854   4.359   0.834  15.920 -1.2162 -2.2369  1.2474
 4464SOL    HW224855   4.513   0.850  15.900 -1.1139  1.0058 -1.4788
 4465SOL     OW24856   1.514   4.367  12.685  0.1732  0.7142 -0.2160
 4465SOL    HW124857   1.525   4.275  12.711 -1.5575  0.4589 -0.3700
 4465SOL    HW224858   1.421   4.370  12.710  0.2230 -2.4803  0.4245
 4466SOL     OW24859   1.680   4.481   9.654 -0.1188  0.0315 -0.1983
 4466SOL    HW124860   1.651   4.430   9.729  0.5285  0.8372  0.5988
 4466SOL    HW224861   1.612   4.452   9.593  1.7188  1.6635 -3.0327
 4467SOL     OW24862   2.891   1.703   2.548 -0.3656 -0.1056 -0.4124
 4467SOL    HW124863   2.915   1.666   2.463 -0.6411  0.0729 -0.5689
 4467SOL    HW224864   2.796   1.692   2.545 -0.2739 -1.2673  0.5402
 4468SOL     OW24865   3.136   1.325  17.388  0.1211 -0.0139 -0.6893
 4468SOL    HW124866   3.175   1.367  17.311 -1.3594  0.8155 -0.9836
 4468SOL    HW224867   3.047   1.360  17.381  0.0940  0.0607  0.0231
 4469SOL     OW24868   3.984   1.549   5.618 -0.6804  0.2411  0.7332
 4469SOL    HW124869   3.914   1.523   5.678  0.2062  0.1969  1.7620
 4469SOL    HW224870   4.051   1.568   5.684  1.2701  0.8958 -1.4262
 4470SOL     OW24871   0.820   3.548   9.015  0.0565  0.6122 -0.5509
 4470SOL    HW124872   0.760   3.494   8.964 -1.8726  0.3190  1.9699
 4470SOL    HW224873   0.909   3.515   9.002  0.3027  0.9278  0.2852
 4471SOL     OW24874   4.419   4.082   4.804 -0.6034  0.5187 -0.0327
 4471SOL    HW124875   4.383   4.005   4.847 -0.8128 -0.1591 -1.3952
 4471SOL    HW224876   4.416   4.153   4.868  0.2245  1.9348 -1.5526
 4472SOL     OW24877   3.807   0.666  13.732 -0.5957  0.2747 -1.3950
 4472SOL    HW124878   3.729   0.642  13.783  1.1189 -3.1622 -0.3195
 4472SOL    HW224879   3.855   0.584  13.748 -0.5391  0.7815  1.0349
 4473SOL     OW24880   3.834   1.447   3.994  0.2502  0.7028 -0.0312
 4473SOL    HW124881   3.925   1.455   4.023 -0.2481 -0.8036  1.9819
 4473SOL    HW224882   3.825   1.356   4.024  1.2192  1.0727  1.3938
 4474SOL     OW24883   0.497   4.322   2.696 -0.3252  0.5381 -0.6408
 4474SOL    HW124884   0.541   4.239   2.678 -1.9761 -0.4976  0.0950
 4474SOL    HW224885   0.431   4.290   2.758 -0.3941  2.8308  0.4623
 4475SOL     OW24886   0.370   0.664  11.028 -0.0739  0.0217  0.1566
 4475SOL    HW124887   0.385   0.724  11.100 -0.2108  1.1227 -0.7400
 4475SOL    HW224888   0.361   0.725  10.955  2.1248  1.0968  0.8110
 4476SOL     OW24889   1.425   3.374   8.975 -0.2705 -0.2196 -0.8775
 4476SOL    HW124890   1.506   3.420   8.997 -2.7624  3.8326 -0.2822
 4476SOL    HW224891   1.373   3.451   8.951 -0.2097 -0.7954 -2.8205
 4477SOL     OW24892   0.134   1.198   3.919 -0.2471 -0.7150 -0.0908
 4477SOL    HW124893   0.150   1.287   3.889  1.1472 -0.4901  1.3500
 4477SOL    HW224894   0.218   1.156   3.900  0.7155  0.5696  1.3577
 4478SOL     OW24895   3.813   1.042   2.634 -0.0659 -0.3593  0.5677
 4478SOL    HW124896   3.790   1.073   2.547 -2.8177 -1.5435  0.8580
 4478SOL    HW224897   3.736   0.988   2.651  0.6166 -1.8524 -1.0986
 4479SOL     OW24898   3.411   3.481  15.899 -0.5980 -0.0149 -0.3164
 4479SOL    HW124899   3.378   3.529  15.975  1.8052  1.9983 -0.5186
 4479SOL    HW224900   3.334   3.439  15.861 -0.8689  0.7429 -0.6066
 4480SOL     OW24901   4.027   3.914   8.325  0.1893  0.5833 -0.0077
 4480SOL    HW124902   4.097   3.858   8.292  1.7069  1.4092  1.7850
 4480SOL    HW224903   4.053   3.922   8.417  2.7488 -2.3397 -0.4786
 4481SOL     OW24904   4.372   3.458   5.673 -0.1839  0.7778 -0.4458
 4481SOL    HW124905   4.462   3.437   5.649 -0.2123 -1.0398  1.0180
 4481SOL    HW224906   4.390   3.529   5.735 -0.2352  2.3607 -2.2532
 4482SOL     OW24907   0.385   1.100   3.762  0.2322  0.3931 -0.5366
 4482SOL    HW124908   0.474   1.065   3.769 -0.3708 -1.6597 -3.2418
 4482SOL    HW224909   0.398   1.186   3.721  0.1670  0.6961  0.0670
 4483SOL     OW24910   2.620   3.297  13.319  0.4193 -0.1948  0.1178
 4483SOL    HW124911   2.712   3.282  13.299  1.0339  2.5336  0.8013
 4483SOL    HW224912   2.596   3.241  13.393 -0.9247 -1.6341 -1.4117
 4484SOL     OW24913   1.712   3.029   0.909  0.1135  0.1653 -0.2987
 4484SOL    HW124914   1.710   2.999   0.818 -0.4951 -0.0291 -0.2235
 4484SOL    HW224915   1.804   3.053   0.920  0.4596 -0.6451 -1.4891
 4485SOL     OW24916   0.897   0.535   3.940 -0.3126  0.2040  0.5883
 4485SOL    HW124917   0.963   0.559   4.005 -1.1398 -0.0046  1.4974
 4485SOL    HW224918   0.870   0.620   3.905  0.3313 -0.0345 -0.4880
 4486SOL     OW24919   0.386   0.092  14.106  0.2482 -1.3152 -0.4076
 4486SOL    HW124920   0.315   0.152  14.082  0.4855 -0.5519  0.8468
 4486SOL    HW224921   0.416   0.065  14.019  2.9541 -2.1912  0.8220
 4487SOL     OW24922   2.389   4.545   2.366 -0.3628  0.4845  0.0823
 4487SOL    HW124923   2.310   4.578   2.324  0.8692  1.9776 -1.0826
 4487SOL    HW224924   2.424   4.492   2.295  2.1495  0.8500  1.0275
 4488SOL     OW24925   3.180   0.314   7.941  0.1391  0.0684 -0.3680
 4488SOL    HW124926   3.086   0.323   7.928  0.6467  2.1438 -2.5274
 4488SOL    HW224927   3.215   0.308   7.852  2.3957  1.1473  0.4470
 4489SOL     OW24928   3.175   4.710   7.706 -0.2009  0.1330 -0.5913
 4489SOL    HW124929   3.264   4.684   7.684 -0.0856  0.3456 -0.3660
 4489SOL    HW224930   3.173   0.083   7.683 -1.4039  0.5270  1.1008
 4490SOL     OW24931   2.351   3.794   5.574  0.3320 -0.2103 -0.1781
 4490SOL    HW124932   2.381   3.884   5.563  1.6032 -0.5192  0.7396
 4490SOL    HW224933   2.308   3.784   5.489  0.8492 -1.3042 -0.3155
 4491SOL     OW24934   1.549   1.900  11.744 -0.1288  0.0551  0.0464
 4491SOL    HW124935   1.636   1.940  11.750 -1.4674  3.2932 -1.7958
 4491SOL    HW224936   1.574   1.810  11.763 -2.4988 -0.5002  0.5583
 4492SOL     OW24937   0.957   1.010  15.741  0.1907  0.0264 -0.6917
 4492SOL    HW124938   0.867   1.003  15.772  0.4566  0.0277  0.0881
 4492SOL    HW224939   0.998   0.979  15.822 -0.4383 -1.2739 -0.8650
 4493SOL     OW24940   4.522   0.127   6.647 -0.4437  0.4961  0.5623
 4493SOL    HW124941   4.590   0.191   6.665  0.6517 -0.4363 -0.2842
 4493SOL    HW224942   4.581   0.053   6.658 -4.3064 -2.5146  1.0363
 4494SOL     OW24943   3.107   4.712   9.813 -0.1614 -0.1870 -0.5921
 4494SOL    HW124944   3.047   4.639   9.829  0.5179 -0.8890 -1.2520
 4494SOL    HW224945   3.093   0.007   9.719  1.2336 -1.1394 -0.9440
 4495SOL     OW24946   0.306   2.296   9.910  0.6703 -0.3443  0.0282
 4495SOL    HW124947   0.290   2.263   9.999  1.7369 -1.1087 -0.0574
 4495SOL    HW224948   0.400   2.306   9.897  0.8272 -1.0316  0.5927
 4496SOL     OW24949   2.757   3.303   8.054 -0.2972 -0.3919  0.1353
 4496SOL    HW124950   2.793   3.339   8.135 -1.0531 -1.4846  0.9530
 4496SOL    HW224951   2.710   3.226   8.086  2.0191 -1.3108  1.4102
 4497SOL     OW24952   0.150   0.211   7.199 -0.3112 -0.4307 -0.1490
 4497SOL    HW124953   0.173   0.170   7.116 -0.1362 -1.3901  0.3808
 4497SOL    HW224954   0.191   0.297   7.194 -0.8516 -0.0898  1.3613
 4498SOL     OW24955   0.781   3.508  11.490 -0.2506  0.3219 -0.8364
 4498SOL    HW124956   0.764   3.583  11.433 -0.1716  1.3663  0.5091
 4498SOL    HW224957   0.701   3.470  11.528 -0.4433  1.2853 -0.2731
 4499SOL     OW24958   4.611   4.044   7.506  0.7466 -0.0876  0.3192
 4499SOL    HW124959   4.517   4.045   7.525  1.3042  1.4884  3.0240
 4499SOL    HW224960   4.616   4.117   7.444  0.4291  0.7175  1.2333
 4500SOL     OW24961   1.718   0.790   2.023 -0.1086  0.1985  0.2292
 4500SOL    HW124962   1.753   0.727   1.960  0.8631 -2.3285  3.3050
 4500SOL    HW224963   1.796   0.807   2.076  0.1247 -1.9214  0.5456
 4501SOL     OW24964   2.522   3.460  14.078  0.1510 -0.7327 -0.0702
 4501SOL    HW124965   2.478   3.399  14.136 -1.4970  0.2437 -0.3033
 4501SOL    HW224966   2.609   3.461  14.119  2.0210 -0.2626 -4.0031
 4502SOL     OW24967   0.379   1.074  16.941 -0.3015  0.0273  0.1876
 4502SOL    HW124968   0.426   0.995  16.967 -2.6189 -0.7683  1.9968
 4502SOL    HW224969   0.449   1.109  16.885  1.8332  0.0805  2.8800
 4503SOL     OW24970   2.366   0.262  11.734 -0.2050  0.4835  0.4750
 4503SOL    HW124971   2.370   0.303  11.648  0.3164 -0.7750 -0.1074
 4503SOL    HW224972   2.456   0.280  11.762 -0.3096  0.3201  0.9307
 4504SOL     OW24973   4.243   3.072   8.306  0.1524  0.1032 -0.2673
 4504SOL    HW124974   4.274   2.981   8.304  0.3462  0.2248 -3.2261
 4504SOL    HW224975   4.174   3.071   8.372  1.3448 -0.1639  0.9550
 4505SOL     OW24976   2.349   4.156   1.768 -0.3528  0.8183  0.4250
 4505SOL    HW124977   2.253   4.155   1.765 -0.3282 -1.4986  0.2714
 4505SOL    HW224978   2.371   4.127   1.680 -0.6876  1.8549 -0.0025
 4506SOL     OW24979   1.176   3.704   7.514  0.3135  0.3861 -0.4050
 4506SOL    HW124980   1.228   3.706   7.594  2.5106 -3.5243 -1.7166
 4506SOL    HW224981   1.144   3.794   7.516  1.9045  0.9914 -1.4683
 4507SOL     OW24982   0.047   0.321   6.453 -0.0263 -0.2582  0.0483
 4507SOL    HW124983   0.116   0.266   6.490 -0.3137 -0.5282  0.1811
 4507SOL    HW224984   4.710   0.257   6.409 -1.2412  0.4746  0.5527
 4508SOL     OW24985   3.964   1.618  14.998  0.1921 -0.0537  0.0142
 4508SOL    HW124986   4.045   1.600  15.047  1.2875  0.0573 -1.7544
 4508SOL    HW224987   3.953   1.540  14.944  0.8002 -1.7042  2.2575
 4509SOL     OW24988   3.566   1.279  13.976  0.0085  0.3895 -0.7933
 4509SOL    HW124989   3.620   1.231  13.914  1.0295 -0.1217  0.4934
 4509SOL    HW224990   3.541   1.359  13.931 -1.9878 -0.2584 -0.8551
 4510SOL     OW24991   1.053   3.346   8.416  0.5822  0.5315  0.4682
 4510SOL    HW124992   1.023   3.272   8.468 -1.1436  1.1484  0.3539
 4510SOL    HW224993   1.020   3.326   8.329 -1.9535 -0.1315  1.5889
 4511SOL     OW24994   3.658   3.292   3.420  0.7333  0.0943  0.3225
 4511SOL    HW124995   3.570   3.280   3.456  0.0645  3.4191 -0.2111
 4511SOL    HW224996   3.645   3.335   3.336  1.3778 -0.0449  0.1521
 4512SOL     OW24997   1.742   2.816  15.849  0.2078 -0.3264  0.0456
 4512SOL    HW124998   1.763   2.909  15.857 -0.4911 -0.0858 -0.9961
 4512SOL    HW224999   1.713   2.806  15.759 -0.5936  0.5919  0.2085
 4513SOL     OW25000   1.427   2.567  13.817 -0.1070 -0.0106  1.1056
 4513SOL    HW125001   1.502   2.507  13.819  0.0835  0.1229 -1.1777
 4513SOL    HW225002   1.389   2.534  13.736 -0.0126 -0.6969  1.3453
 4514SOL     OW25003   1.989   3.135   0.026 -0.6010  0.0055 -0.4611
 4514SOL    HW125004   2.069   3.175   0.060 -1.0478 -0.1685  0.8245
 4514SOL    HW225005   2.010   3.047   0.056 -0.5044  0.7664  1.7106
 4515SOL     OW25006   2.030   2.107   1.927 -0.5959  0.6636  0.1953
 4515SOL    HW125007   2.046   2.113   1.832 -1.9363 -0.0383 -0.0851
 4515SOL    HW225008   1.998   2.019   1.949 -1.2348  0.5145 -1.3256
 4516SOL     OW25009   1.772   3.197   5.777  0.2932  0.6785 -0.1587
 4516SOL    HW125010   1.855   3.195   5.729  1.7278  1.0183  2.2676
 4516SOL    HW225011   1.719   3.258   5.727 -0.4614 -0.0585 -0.2479
 4517SOL     OW25012   3.314   1.692   8.587 -0.1533  0.3617 -0.4191
 4517SOL    HW125013   3.367   1.704   8.508 -1.1524 -1.3848 -1.3446
 4517SOL    HW225014   3.378   1.653   8.646 -0.0068  0.8740 -0.2386
 4518SOL     OW25015   0.034   4.311   3.090  0.1355  0.6124 -0.0828
 4518SOL    HW125016   0.054   4.242   3.153  3.0484 -0.1159 -1.8045
 4518SOL    HW225017   0.002   4.378   3.150 -0.5473  0.4449 -0.2718
 4519SOL     OW25018   0.197   0.459   4.737  0.7089 -0.1247  0.2745
 4519SOL    HW125019   0.169   0.491   4.823  0.3373 -0.3559  0.2362
 4519SOL    HW225020   0.176   0.526   4.671  2.0546 -0.2261 -0.2564
 4520SOL     OW25021   1.539   2.828  10.847 -0.6870 -0.4475 -0.0683
 4520SOL    HW125022   1.601   2.758  10.864  1.6428  1.3996 -0.9545
 4520SOL    HW225023   1.487   2.802  10.922 -0.1256 -0.4365  0.3202
 4521SOL     OW25024   3.939   0.596  16.403 -0.0575 -0.1447 -0.4497
 4521SOL    HW125025   3.917   0.664  16.467 -0.0492 -0.7881  0.2364
 4521SOL    HW225026   3.898   0.520  16.445  1.1368 -0.7419 -0.3600
 4522SOL     OW25027   3.479   4.350   4.480 -0.4274  0.4690  0.4653
 4522SOL    HW125028   3.517   4.263   4.476 -1.3443  0.1729 -2.2380
 4522SOL    HW225029   3.490   4.378   4.571  0.6352  1.0290  0.1623
 4523SOL     OW25030   1.138   0.211  14.963  0.5028  0.7308 -0.0144
 4523SOL    HW125031   1.202   0.191  14.895 -0.5535  0.6817 -0.9802
 4523SOL    HW225032   1.153   0.136  15.021 -1.6798 -1.2435 -2.0230
 4524SOL     OW25033   2.506   4.060   9.243  0.1449 -0.1946  0.5274
 4524SOL    HW125034   2.587   4.022   9.277  1.3209  1.5064 -0.3177
 4524SOL    HW225035   2.520   4.060   9.148 -2.7654  3.8061  0.0677
 4525SOL     OW25036   0.072   4.419   8.352  0.1708 -0.5156  0.0086
 4525SOL    HW125037   0.076   4.502   8.401  3.0547 -0.2980 -0.6116
 4525SOL    HW225038   0.167   4.409   8.346  0.1988 -0.4674  0.3392
 4526SOL     OW25039   1.417   1.113  10.943  0.2064 -0.4452  0.6508
 4526SOL    HW125040   1.431   1.027  10.983 -0.1352 -0.2733  1.1549
 4526SOL    HW225041   1.509   1.136  10.944  0.5263 -1.6181 -1.4568
 4527SOL     OW25042   3.670   2.603  14.143  0.2407 -0.2665  0.4318
 4527SOL    HW125043   3.689   2.521  14.189  1.2237 -0.4806 -0.3467
 4527SOL    HW225044   3.663   2.577  14.051 -0.5457  1.0764  0.1178
 4528SOL     OW25045   2.116   0.745  16.772 -0.1141 -0.2623  0.0727
 4528SOL    HW125046   2.049   0.700  16.720 -0.5053  1.2925 -0.7846
 4528SOL    HW225047   2.075   0.741  16.858  0.8518  2.6489  0.6663
 4529SOL     OW25048   0.573   2.322  14.404 -0.0386 -0.6730 -0.4134
 4529SOL    HW125049   0.513   2.328  14.479  2.2166 -1.3016  1.4526
 4529SOL    HW225050   0.635   2.386  14.440  0.9573 -0.5129 -2.4542
 4530SOL     OW25051   0.630   0.891   0.773 -0.5777  0.0104 -0.1255
 4530SOL    HW125052   0.610   0.909   0.865  1.5608 -0.7171  0.4774
 4530SOL    HW225053   0.603   0.971   0.729  1.4645 -0.4953 -2.2506
 4531SOL     OW25054   1.529   0.661   7.031 -0.9799 -0.1187  0.7683
 4531SOL    HW125055   1.493   0.581   7.069 -0.3651 -1.2289 -1.0192
 4531SOL    HW225056   1.622   0.664   7.051 -0.4218 -1.3105 -1.6967
 4532SOL     OW25057   4.249   2.398   4.908 -0.2499  0.3505  0.6007
 4532SOL    HW125058   4.250   2.481   4.957  0.2937  0.6501  0.0949
 4532SOL    HW225059   4.182   2.412   4.841 -0.2023  0.2040  0.5233
 4533SOL     OW25060   3.752   3.442   3.812 -0.1500 -0.2354 -0.1356
 4533SOL    HW125061   3.660   3.438   3.789 -0.4312  2.7073  0.4013
 4533SOL    HW225062   3.795   3.402   3.736  0.0875 -1.2785  0.5546
 4534SOL     OW25063   4.541   0.533   6.559 -0.7207 -0.1658 -0.4434
 4534SOL    HW125064   4.478   0.519   6.488  0.2208  1.4218 -1.5807
 4534SOL    HW225065   4.598   0.456   6.565  0.2272  0.4128 -2.1524
 4535SOL     OW25066   1.178   0.026   7.285 -0.3771 -0.9859 -0.2700
 4535SOL    HW125067   1.183   0.019   7.190 -0.4936 -0.1236 -0.3436
 4535SOL    HW225068   1.215   4.661   7.310 -0.2126 -1.1062 -0.9348
 4536SOL     OW25069   4.058   2.301  11.474  0.5807 -0.4843 -0.1191
 4536SOL    HW125070   4.024   2.281  11.561 -0.4947 -0.6534 -0.5703
 4536SOL    HW225071   4.089   2.390  11.492  0.1052 -0.2928 -0.2311
 4537SOL     OW25072   0.180   1.857  16.602  0.6175  0.5386 -0.4966
 4537SOL    HW125073   0.138   1.832  16.519 -2.7243  0.4168  1.2386
 4537SOL    HW225074   0.262   1.808  16.589  0.5749  0.5257 -0.7222
 4538SOL     OW25075   2.416   4.610   6.149 -0.3957 -0.6579  0.2820
 4538SOL    HW125076   2.361   4.541   6.112  1.1192 -0.5463 -2.1395
 4538SOL    HW225077   2.344   4.673   6.153  2.8002  3.0351  0.2026
 4539SOL     OW25078   0.742   3.345   0.923  0.1218 -0.2807  0.1288
 4539SOL    HW125079   0.697   3.329   0.840  2.1902  0.7687 -1.1847
 4539SOL    HW225080   0.662   3.335   0.975 -0.1224  1.3955  0.0660
 4540SOL     OW25081   2.604   0.607   2.366  0.3202 -0.2139  0.0029
 4540SOL    HW125082   2.556   0.563   2.295 -0.4363 -0.9799  1.0004
 4540SOL    HW225083   2.539   0.666   2.402 -0.3908 -0.4885 -0.8337
 4541SOL     OW25084   0.070   2.223  15.545 -0.0908 -0.7892 -0.2292
 4541SOL    HW125085   0.047   2.274  15.467 -0.3341  0.3116  0.5655
 4541SOL    HW225086   0.164   2.240  15.540 -0.4459  0.6375 -2.1447
 4542SOL     OW25087   1.739   1.822  14.812 -0.5940 -0.3296  0.2679
 4542SOL    HW125088   1.769   1.893  14.870  0.5086 -0.0791 -0.6148
 4542SOL    HW225089   1.785   1.840  14.730  0.1162 -0.5727  0.6124
 4543SOL     OW25090   2.958   3.043  14.865  0.0633 -1.0221 -0.2047
 4543SOL    HW125091   3.018   3.104  14.909 -1.7662  0.9050 -0.3856
 4543SOL    HW225092   2.899   3.110  14.832 -0.0090 -1.5185 -1.0665
 4544SOL     OW25093   2.520   0.387   5.776  0.3099  0.6243 -0.1837
 4544SOL    HW125094   2.517   0.447   5.702 -2.5011 -0.3293 -0.8542
 4544SOL    HW225095   2.550   0.446   5.845  1.6341 -0.7572  0.4408
 4545SOL     OW25096   3.982   3.736   8.085  0.6409  0.0567  0.3932
 4545SOL    HW125097   4.000   3.702   7.997 -0.8284  1.6122 -0.4915
 4545SOL    HW225098   4.071   3.730   8.121  0.0191  0.0463  1.9327
 4546SOL     OW25099   3.418   4.581   2.087 -0.0571  0.6359 -0.4070
 4546SOL    HW125100   3.336   4.543   2.119 -0.0754  2.5119  1.7674
 4546SOL    HW225101   3.463   4.504   2.052 -1.2741 -0.0095 -0.5486
 4547SOL     OW25102   4.670   2.923   4.268  0.1010  0.2076  0.4326
 4547SOL    HW125103   4.598   2.871   4.233 -1.0156 -0.4085  3.6363
 4547SOL    HW225104   4.673   2.985   4.195  1.2727 -2.6390 -1.9792
 4548SOL     OW25105   3.830   2.820  10.306  0.2797  0.2004 -0.1041
 4548SOL    HW125106   3.865   2.733  10.327  2.2447  0.6772 -1.4320
 4548SOL    HW225107   3.820   2.800  10.213  0.6102 -2.0291  0.3482
 4549SOL     OW25108   0.094   1.085   3.407  0.8236  0.1899  0.1847
 4549SOL    HW125109   0.083   0.991   3.394  0.3308  0.1413  0.9362
 4549SOL    HW225110   0.085   1.110   3.315  3.7198 -2.2005 -0.7260
 4550SOL     OW25111   4.228   1.376  16.793  0.1221 -0.4703 -0.0830
 4550SOL    HW125112   4.178   1.301  16.824  2.5137 -1.3680  1.6148
 4550SOL    HW225113   4.212   1.441  16.861 -0.5215  0.3066 -0.9706
 4551SOL     OW25114   3.234   2.789   4.596 -0.3134 -0.0414  0.1428
 4551SOL    HW125115   3.274   2.826   4.674 -0.3897  1.7198 -0.6540
 4551SOL    HW225116   3.299   2.799   4.526 -1.1219  1.1029 -0.4437
 4552SOL     OW25117   4.371   2.122  15.227  0.2375 -0.0342  0.1361
 4552SOL    HW125118   4.462   2.127  15.196  0.4012  2.0487  1.0074
 4552SOL    HW225119   4.340   2.212  15.218 -0.2046  0.0779  2.7512
 4553SOL     OW25120   2.186   1.860   3.492 -0.2977  0.3268  0.0102
 4553SOL    HW125121   2.209   1.770   3.517  1.6966  0.0150 -2.9526
 4553SOL    HW225122   2.177   1.865   3.397  5.1402 -1.0897 -0.5440
 4554SOL     OW25123   2.625   2.308   4.962  0.0469  0.3182  0.3678
 4554SOL    HW125124   2.646   2.287   4.871  1.0810 -1.1582  0.9343
 4554SOL    HW225125   2.680   2.251   5.017  0.1209 -0.8915 -0.9484
 4555SOL     OW25126   2.257   2.922   7.161 -0.4781  0.3115  0.1500
 4555SOL    HW125127   2.234   2.959   7.076 -0.7758  0.0978  0.1377
 4555SOL    HW225128   2.340   2.880   7.138  0.1646  1.7059 -0.0732
 4556SOL     OW25129   1.689   0.729   6.671  0.0242 -0.2484  0.0305
 4556SOL    HW125130   1.617   0.790   6.657  1.4526  1.3857 -0.1963
 4556SOL    HW225131   1.740   0.769   6.742  1.9095 -0.4609 -1.2076
 4557SOL     OW25132   1.439   4.108  12.721 -0.4660 -0.2980  0.0337
 4557SOL    HW125133   1.354   4.143  12.747 -0.2841 -0.9393  1.5094
 4557SOL    HW225134   1.421   4.090  12.629  1.4031  0.4082 -0.4662
 4558SOL     OW25135   0.323   1.814   6.353  0.2432 -0.0558  0.0959
 4558SOL    HW125136   0.352   1.818   6.262 -2.9732 -0.2387 -0.9334
 4558SOL    HW225137   0.380   1.874   6.402  0.1699 -0.6578  0.9263
 4559SOL     OW25138   2.179   1.124   8.225  0.3397  0.1009 -0.1405
 4559SOL    HW125139   2.087   1.111   8.201  0.3967  0.0136 -0.3093
 4559SOL    HW225140   2.175   1.171   8.308  2.8826 -3.3677  1.9722
 4560SOL     OW25141   0.280   3.566   7.104 -0.4876  0.7538  0.1131
 4560SOL    HW125142   0.373   3.557   7.122 -0.7548 -0.0673  1.0892
 4560SOL    HW225143   0.276   3.650   7.058  0.6538  0.0413 -1.2890
 4561SOL     OW25144   0.434   2.690  10.705  0.4336  0.0357  0.0263
 4561SOL    HW125145   0.342   2.688  10.733  0.3945 -2.1160 -0.2358
 4561SOL    HW225146   0.465   2.629  10.773  0.2164 -0.8488 -0.6661
 4562SOL     OW25147   0.905   4.686  17.318  0.6058 -0.0961  0.4609
 4562SOL    HW125148   0.834   4.622  17.327  0.4067 -0.0361 -0.7784
 4562SOL    HW225149   0.858   0.044  17.290 -0.0989 -0.4944  0.5417
 4563SOL     OW25150   4.138   0.409   8.130 -0.3706 -0.4578 -0.2012
 4563SOL    HW125151   4.226   0.369   8.132 -0.1324 -0.0358 -2.6680
 4563SOL    HW225152   4.089   0.371   8.203 -0.1674  1.1792  0.7763
 4564SOL     OW25153   3.198   2.636   4.222  0.5042 -0.1871 -0.1396
 4564SOL    HW125154   3.185   2.625   4.128  0.2505  2.9085 -0.4779
 4564SOL    HW225155   3.270   2.574   4.237 -1.6049 -3.1264 -2.1808
 4565SOL     OW25156   1.920   2.200  11.926 -0.0031  0.2274 -0.1456
 4565SOL    HW125157   1.929   2.243  12.012 -1.6055 -0.1871  0.2205
 4565SOL    HW225158   1.980   2.129  11.951 -0.8103 -1.0604 -1.9449
 4566SOL     OW25159   0.784   3.451   3.663 -0.6061 -0.0392 -0.5440
 4566SOL    HW125160   0.723   3.524   3.656  1.1209  1.4060 -0.4168
 4566SOL    HW225161   0.741   3.388   3.604 -1.5104 -1.1144  1.2499
 4567SOL     OW25162   4.005   0.913  15.597 -0.0333  0.2648  0.2992
 4567SOL    HW125163   3.956   0.986  15.559 -2.5103 -0.9937  1.0806
 4567SOL    HW225164   4.000   0.935  15.690 -1.7294  1.0187  0.0306
 4568SOL     OW25165   4.215   3.719   8.231  0.6281  0.6865  0.1237
 4568SOL    HW125166   4.230   3.626   8.219  1.5600  0.6508  1.6913
 4568SOL    HW225167   4.295   3.742   8.277  0.9723  0.2696 -0.2623
 4569SOL     OW25168   1.328   1.548   5.763 -0.3257 -0.2115 -0.2917
 4569SOL    HW125169   1.317   1.585   5.675 -2.7566  0.3551  0.2334
 4569SOL    HW225170   1.292   1.460   5.747  1.8006 -0.9819 -0.8699
 4570SOL     OW25171   0.641   4.156   7.664 -0.2245  0.1480 -0.2614
 4570SOL    HW125172   0.650   4.225   7.730 -0.4909  0.1366 -0.2143
 4570SOL    HW225173   0.671   4.075   7.704 -0.5462 -1.0258 -2.4098
 4571SOL     OW25174   1.097   1.380   9.787  0.2538 -0.1619 -0.4206
 4571SOL    HW125175   1.124   1.443   9.853  2.1508 -0.1858 -1.1831
 4571SOL    HW225176   1.003   1.376   9.806  0.4307 -2.0750  0.0939
 4572SOL     OW25177   3.504   1.966   2.828  0.6693 -0.6129 -0.0418
 4572SOL    HW125178   3.571   1.898   2.820  0.3180 -0.8362 -1.0378
 4572SOL    HW225179   3.537   1.999   2.912 -2.2971  3.0473 -0.3022
 4573SOL     OW25180   3.871   3.785   5.775 -0.0052  0.3387  0.4725
 4573SOL    HW125181   3.901   3.717   5.715 -0.1491  1.9279 -1.3861
 4573SOL    HW225182   3.957   3.820   5.799 -0.6175  0.4432  2.4935
 4574SOL     OW25183   0.991   1.798  10.152 -0.6603 -0.5415 -0.4206
 4574SOL    HW125184   0.911   1.770  10.106 -0.5152  0.8589 -1.5161
 4574SOL    HW225185   1.021   1.869  10.096 -0.8083 -0.1529 -0.0069
 4575SOL     OW25186   3.287   2.092   3.731 -0.4804  0.3297 -0.4381
 4575SOL    HW125187   3.342   2.031   3.781  0.3238 -0.1026 -1.8744
 4575SOL    HW225188   3.214   2.095   3.793 -0.7430 -0.2770 -0.7195
 4576SOL     OW25189   2.302   4.140   5.910 -0.0532  0.6769  0.1933
 4576SOL    HW125190   2.234   4.192   5.954  0.9127  1.1346  1.1735
 4576SOL    HW225191   2.375   4.152   5.971  0.3154  3.6420 -0.8227
 4577SOL     OW25192   2.346   2.050  17.231 -0.4224 -0.1277  0.0590
 4577SOL    HW125193   2.336   2.140  17.202  1.9186  0.2189  0.3902
 4577SOL    HW225194   2.312   2.071  17.318  0.3154 -0.9408  0.5444
 4578SOL     OW25195   3.423   1.425   8.673 -0.8418  0.4072  0.3551
 4578SOL    HW125196   3.514   1.438   8.700 -0.4615  0.7575 -1.0615
 4578SOL    HW225197   3.446   1.356   8.611 -0.8169  0.1789  0.6235
 4579SOL     OW25198   1.472   0.570   5.825 -0.3030  0.1434  0.6164
 4579SOL    HW125199   1.419   0.649   5.814 -3.4024 -1.9426  0.7989
 4579SOL    HW225200   1.504   0.586   5.913  2.4752  1.9489 -0.6991
 4580SOL     OW25201   0.030   3.498   1.103 -0.8816 -0.5053  0.3843
 4580SOL    HW125202   0.117   3.462   1.121 -0.1481  0.1249 -1.8553
 4580SOL    HW225203   0.052   3.548   1.025  0.0046 -1.5482 -0.0415
 4581SOL     OW25204   1.943   0.158   3.178  0.4078 -0.3149 -0.3302
 4581SOL    HW125205   1.848   0.149   3.167  0.6448  0.7261 -3.1969
 4581SOL    HW225206   1.952   0.252   3.163  1.5347 -0.5023 -0.7747
 4582SOL     OW25207   4.517   4.354  15.267 -0.0881 -0.0038  0.2542
 4582SOL    HW125208   4.566   4.432  15.293  1.8063 -1.2994  0.5131
 4582SOL    HW225209   4.569   4.318  15.196  0.7210  3.0554 -0.6893
 4583SOL     OW25210   1.360   4.155   3.941 -0.5982 -0.1743  0.1004
 4583SOL    HW125211   1.335   4.222   4.006  2.5384  0.9776  0.1302
 4583SOL    HW225212   1.372   4.079   3.999 -0.6187 -0.4209 -0.2223
 4584SOL     OW25213   1.766   0.146   6.749 -0.1624 -0.6527  0.1718
 4584SOL    HW125214   1.753   0.081   6.680 -2.0490  0.7878 -0.8407
 4584SOL    HW225215   1.678   0.178   6.771  0.9408  1.3171  1.6665
 4585SOL     OW25216   4.335   2.362  13.029 -0.1882  0.5009  0.3477
 4585SOL    HW125217   4.364   2.446  12.993 -0.8499  0.8493  0.6201
 4585SOL    HW225218   4.381   2.309  12.964  2.2662 -0.5424  2.9409
 4586SOL     OW25219   0.494   1.642  10.541 -0.5614  0.9236 -0.3776
 4586SOL    HW125220   0.584   1.670  10.557 -0.4222  0.7429 -0.8430
 4586SOL    HW225221   0.485   1.677  10.453  4.4637 -0.5837 -1.4909
 4587SOL     OW25222   3.207   4.062  17.414 -0.2324 -0.0800 -0.1860
 4587SOL    HW125223   3.186   3.972  17.389 -2.1011 -0.2973  2.1116
 4587SOL    HW225224   3.291   4.078  17.372 -0.6299  0.9458 -0.5957
 4588SOL     OW25225   1.879   0.446  12.421  0.1081  0.0942  0.0632
 4588SOL    HW125226   1.786   0.471  12.418  0.3039  0.7542 -0.4770
 4588SOL    HW225227   1.893   0.412  12.333  0.0508 -3.2052  1.3216
 4589SOL     OW25228   3.136   4.386  14.214  0.1306  0.4106 -0.2839
 4589SOL    HW125229   3.064   4.326  14.199 -0.3439  0.5974  1.2361
 4589SOL    HW225230   3.182   4.339  14.284  2.6718  1.4619 -1.2466
 4590SOL     OW25231   4.396   4.147   6.914  0.0347  0.2427  0.0698
 4590SOL    HW125232   4.357   4.113   6.834 -0.1557  1.0966 -0.2027
 4590SOL    HW225233   4.343   4.226   6.926  0.9971  0.9729 -0.4322
 4591SOL     OW25234   1.354   3.850   7.730 -0.2201  0.5112 -0.5921
 4591SOL    HW125235   1.372   3.921   7.669 -0.0364  1.7446  0.8881
 4591SOL    HW225236   1.312   3.905   7.796 -0.6648 -1.2402  0.6036
 4592SOL     OW25237   1.317   4.521   9.816  0.5659 -0.0338 -0.2820
 4592SOL    HW125238   1.396   4.525   9.870 -0.2273 -1.3737  0.9585
 4592SOL    HW225239   1.353   4.469   9.744  0.9476  2.4037 -1.8512
 4593SOL     OW25240   0.000   1.409   3.577 -0.0938 -0.6826  0.3327
 4593SOL    HW125241   4.665   1.486   3.566  0.5819 -0.3096 -0.4045
 4593SOL    HW225242   0.034   1.424   3.666  1.3239 -1.7118 -0.0412
 4594SOL     OW25243   2.054   2.855   0.320  0.0854  0.1215 -0.5107
 4594SOL    HW125244   2.033   2.909   0.397  0.9852 -2.1380  1.3278
 4594SOL    HW225245   2.148   2.836   0.326 -0.3561 -1.8490  0.2047
 4595SOL     OW25246   1.989   1.928   8.126  0.2568 -0.1620 -0.1637
 4595SOL    HW125247   2.070   1.980   8.131 -0.4485  0.6573  2.6433
 4595SOL    HW225248   1.954   1.944   8.214  0.5132 -1.3625  0.1509
 4596SOL     OW25249   4.585   3.330  10.969 -0.5602  1.1342  0.4344
 4596SOL    HW125250   4.597   3.283  10.886 -2.5876 -0.1309  0.8762
 4596SOL    HW225251   4.498   3.358  10.941 -0.5659  0.7374  0.0505
 4597SOL     OW25252   2.744   3.283   3.292 -0.0988  0.8879  0.4169
 4597SOL    HW125253   2.744   3.201   3.243 -2.3868  1.4580 -0.5302
 4597SOL    HW225254   2.726   3.345   3.222 -0.8814  2.9496  2.4205
 4598SOL     OW25255   1.601   1.615   4.685  0.3122 -0.3453  0.3001
 4598SOL    HW125256   1.651   1.547   4.730 -0.3358 -0.4299  0.9058
 4598SOL    HW225257   1.565   1.576   4.606  0.3053 -2.2122  1.2398
 4599SOL     OW25258   2.708   0.656   7.088 -0.3089  0.7306  0.1960
 4599SOL    HW125259   2.696   0.609   7.171  2.1999 -1.3802 -0.6701
 4599SOL    HW225260   2.801   0.678   7.086 -0.7566  2.4659 -0.9611
 4600SOL     OW25261   0.058   2.119  14.456 -0.1026  0.0402 -0.3345
 4600SOL    HW125262   0.060   2.084  14.367 -3.4927  1.9485 -1.1751
 4600SOL    HW225263   4.691   2.087  14.481 -0.1388 -0.2927 -0.8966
 4601SOL     OW25264   0.161   2.095  15.254  0.4419 -0.5244 -0.3532
 4601SOL    HW125265   0.133   2.092  15.345  1.5724 -0.2440  0.0053
 4601SOL    HW225266   0.186   2.188  15.250 -1.5743 -0.0998 -3.5530
 4602SOL     OW25267   3.490   2.117  12.656 -0.6529  0.3749 -0.4308
 4602SOL    HW125268   3.519   2.030  12.685 -0.6611  0.3888 -0.3810
 4602SOL    HW225269   3.429   2.132  12.729  0.5156 -0.2421  0.6630
 4603SOL     OW25270   3.427   1.918   3.879 -0.7429  0.5567  0.2526
 4603SOL    HW125271   3.499   1.856   3.882 -0.3904  0.8966 -1.6156
 4603SOL    HW225272   3.379   1.878   3.952  2.7711 -0.2156  2.1402
 4604SOL     OW25273   2.340   1.549  13.510  0.7731  0.1151  0.2877
 4604SOL    HW125274   2.340   1.500  13.592 -1.1485 -1.4647 -0.6626
 4604SOL    HW225275   2.282   1.623  13.530 -1.0113 -0.9474 -0.9692
 4605SOL     OW25276   4.269   3.470   3.193 -0.4253  0.5938 -0.4645
 4605SOL    HW125277   4.194   3.502   3.241  1.1008 -0.0297  2.3162
 4605SOL    HW225278   4.298   3.410   3.262 -0.4277  1.1034 -0.0229
 4606SOL     OW25279   1.143   0.898  12.327  0.4401  0.0209 -0.3985
 4606SOL    HW125280   1.073   0.861  12.273  0.1459 -2.4221  1.6315
 4606SOL    HW225281   1.161   0.824  12.386  0.8205  0.2509 -0.2254
 4607SOL     OW25282   3.419   1.227  15.658 -0.4705 -0.3091  0.4068
 4607SOL    HW125283   3.384   1.228  15.569  1.0416 -0.0564 -0.1675
 4607SOL    HW225284   3.465   1.309  15.675  0.3888 -0.4386 -1.3786
 4608SOL     OW25285   3.874   4.310  12.250 -0.3237 -0.2867 -0.0600
 4608SOL    HW125286   3.837   4.266  12.173  0.8470 -0.9194 -0.2619
 4608SOL    HW225287   3.807   4.277  12.310 -0.4787 -2.0810 -1.2268
 4609SOL     OW25288   1.931   4.291   1.155 -0.2154  0.6608 -0.5740
 4609SOL    HW125289   1.955   4.203   1.125 -0.0947  0.2742  0.6519
 4609SOL    HW225290   1.894   4.331   1.076  1.4550 -0.4541 -1.8980
 4610SOL     OW25291   0.274   0.788  15.465  0.4423  0.8661 -0.2419
 4610SOL    HW125292   0.331   0.864  15.472  1.8283 -0.4801  2.7635
 4610SOL    HW225293   0.239   0.785  15.554  3.1771  0.6370  0.8140
 4611SOL     OW25294   0.865   3.093   4.667  0.1810  0.2216  0.0741
 4611SOL    HW125295   0.901   3.100   4.578  2.2637 -1.5128  0.7821
 4611SOL    HW225296   0.922   3.140   4.728 -0.7605  2.6676 -0.9087
 4612SOL     OW25297   1.138   3.959   1.862  0.4083  0.1808  0.1270
 4612SOL    HW125298   1.118   3.866   1.854  1.8137 -0.2401  1.6228
 4612SOL    HW225299   1.163   3.964   1.954  1.9262  3.0942 -0.4421
 4613SOL     OW25300   0.442   0.113   3.460  0.3754 -0.3505  0.0001
 4613SOL    HW125301   0.459   0.035   3.407  2.2155 -0.0976  0.2258
 4613SOL    HW225302   0.397   0.165   3.394 -1.0733 -1.6287 -0.0510
 4614SOL     OW25303   0.986   2.395   2.263 -0.8358 -0.3538 -0.6520
 4614SOL    HW125304   0.911   2.450   2.287  0.3438  0.6344  0.7919
 4614SOL    HW225305   1.014   2.357   2.347 -1.3453 -1.8127 -1.1486
 4615SOL     OW25306   1.401   4.616   0.393 -0.2233  0.1097 -0.7514
 4615SOL    HW125307   1.313   4.603   0.359 -0.9382 -0.1299  1.1683
 4615SOL    HW225308   1.453   4.628   0.313  0.5781  2.0927  0.0495
 4616SOL     OW25309   0.658   2.513  14.205  0.1075 -0.1050  0.1062
 4616SOL    HW125310   0.722   2.576  14.172 -0.1507  1.0989  1.9271
 4616SOL    HW225311   0.708   2.476  14.277 -0.8146  1.1523  1.3788
 4617SOL     OW25312   0.836   4.705   7.024  0.7066  0.1805  0.0212
 4617SOL    HW125313   0.800   0.053   7.081  0.5612 -1.2838  1.6639
 4617SOL    HW225314   0.844   0.020   6.935 -0.8201 -1.1179 -0.6332
 4618SOL     OW25315   3.405   0.716   4.946 -0.0588 -0.1865  0.3743
 4618SOL    HW125316   3.380   0.700   4.855 -2.6765  1.0260  0.8773
 4618SOL    HW225317   3.315   0.727   4.979  0.4469  3.3840  0.5164
 4619SOL     OW25318   1.365   2.736   3.917  0.5662  0.8509 -0.0155
 4619SOL    HW125319   1.423   2.752   3.991  1.0952  0.1621 -0.2805
 4619SOL    HW225320   1.414   2.675   3.862 -1.4008 -0.2751 -0.5316
 4620SOL     OW25321   3.412   2.556   2.228 -0.4291  0.2119  0.2812
 4620SOL    HW125322   3.488   2.563   2.170  1.0542 -1.9080  1.9622
 4620SOL    HW225323   3.341   2.564   2.164  0.7864 -0.5658 -1.1754
 4621SOL     OW25324   1.417   1.235  11.256  0.4563  0.0029  0.2516
 4621SOL    HW125325   1.499   1.238  11.305 -0.0440  5.4155  0.7514
 4621SOL    HW225326   1.431   1.176  11.182 -1.7004 -1.2689  0.8675
 4622SOL     OW25327   2.577   3.281   3.510 -0.2965  0.3826 -0.3294
 4622SOL    HW125328   2.639   3.225   3.556 -1.1957 -0.6448 -0.3672
 4622SOL    HW225329   2.627   3.286   3.428 -0.1628  1.1855 -0.2011
 4623SOL     OW25330   2.323   2.752   5.165  0.3766 -0.2934 -0.1355
 4623SOL    HW125331   2.335   2.727   5.073  1.8093  2.1706 -0.6205
 4623SOL    HW225332   2.227   2.756   5.165  0.4120  0.6300 -0.2527
 4624SOL     OW25333   0.873   2.671   6.488 -0.1935  0.4402  0.6087
 4624SOL    HW125334   0.897   2.709   6.573 -0.4429  2.3182 -0.1562
 4624SOL    HW225335   0.818   2.736   6.444 -0.6733  1.0998  2.1935
 4625SOL     OW25336   4.340   3.043   3.012  0.3757  0.4609  0.2860
 4625SOL    HW125337   4.282   2.967   3.016  1.0544 -0.1163 -0.7417
 4625SOL    HW225338   4.285   3.117   3.036 -0.0690 -0.2469  1.4438
 4626SOL     OW25339   1.061   0.278   8.171 -0.6801  0.2768 -0.0978
 4626SOL    HW125340   0.994   0.275   8.103  0.0539  0.3787 -0.8257
 4626SOL    HW225341   1.016   0.327   8.240  1.4762  2.6809 -0.4059
 4627SOL     OW25342   2.220   4.455   6.424  0.5600  0.1030  0.2098
 4627SOL    HW125343   2.150   4.462   6.489 -0.6046  0.2135 -1.0802
 4627SOL    HW225344   2.210   4.529   6.364 -1.8074 -0.0715  0.3998
 4628SOL     OW25345   1.379   1.958  10.212 -0.0585 -0.6042  0.6279
 4628SOL    HW125346   1.418   1.908  10.141 -2.5443 -0.9776 -0.4728
 4628SOL    HW225347   1.455   1.984  10.264  0.6789  1.0881 -1.2954
 4629SOL     OW25348   1.868   4.532  15.602 -0.1917 -0.2340  0.6263
 4629SOL    HW125349   1.924   4.594  15.555  1.2518 -2.4376 -0.5152
 4629SOL    HW225350   1.936   4.470  15.627 -0.2328 -0.7374 -0.5254
 4630SOL     OW25351   1.773   2.416   6.280 -0.8832  0.2500 -0.5040
 4630SOL    HW125352   1.696   2.421   6.337  0.0253 -1.1072  0.8439
 4630SOL    HW225353   1.731   2.465   6.209 -1.3319  0.8770  0.1987
 4631SOL     OW25354   3.842   0.372   8.991  0.6482 -0.3844  0.5560
 4631SOL    HW125355   3.780   0.301   9.007 -0.9605  1.0920  0.8904
 4631SOL    HW225356   3.921   0.325   9.019  0.2854  0.1786  2.5374
 4632SOL     OW25357   0.646   1.625   2.966 -0.1949 -0.2422  0.2032
 4632SOL    HW125358   0.577   1.559   2.953 -1.2447  1.2861 -1.9781
 4632SOL    HW225359   0.693   1.621   2.883 -0.7073  1.8506 -0.1730
 4633SOL     OW25360   4.004   3.252   5.517  0.1773 -0.0973 -0.5017
 4633SOL    HW125361   4.057   3.267   5.596  1.6411 -1.2956 -1.2688
 4633SOL    HW225362   4.073   3.229   5.456  0.7269 -1.1141  0.5055
 4634SOL     OW25363   0.700   3.446   8.254  0.2869 -0.2064  0.7231
 4634SOL    HW125364   0.758   3.385   8.210 -1.8045  0.0983 -2.4131
 4634SOL    HW225365   0.749   3.528   8.245 -0.9851  0.5025  0.3017
 4635SOL     OW25366   2.315   3.021  15.139  0.0814 -0.4700 -0.0924
 4635SOL    HW125367   2.230   3.061  15.158 -0.1824 -0.8578 -0.4539
 4635SOL    HW225368   2.288   2.931  15.121  0.1657 -0.7380  1.1612
 4636SOL     OW25369   3.379   3.393   6.977 -0.2156 -0.3915 -0.1286
 4636SOL    HW125370   3.402   3.486   6.978  1.1007 -0.7114 -0.4091
 4636SOL    HW225371   3.297   3.392   6.928 -0.1079 -2.1986 -0.2598
 4637SOL     OW25372   1.735   0.045  14.627  0.0994 -0.0184 -0.9209
 4637SOL    HW125373   1.815   0.087  14.597  1.1815  0.6601  2.9648
 4637SOL    HW225374   1.747   4.688  14.571  3.1423 -0.2206 -0.0100
 4638SOL     OW25375   3.320   1.186   5.328  0.5214 -0.5020  0.6816
 4638SOL    HW125376   3.378   1.244   5.377  0.4627  0.0460  0.0883
 4638SOL    HW225377   3.335   1.103   5.375  1.9318 -0.5174  0.2099
 4639SOL     OW25378   0.302   4.472   4.411 -0.4792 -0.0692 -0.9670
 4639SOL    HW125379   0.381   4.417   4.414  1.4258  2.7281 -0.2311
 4639SOL    HW225380   0.291   4.476   4.315 -1.1457 -2.5093 -1.0081
 4640SOL     OW25381   3.080   4.117  17.104 -0.3002 -0.4472 -0.9018
 4640SOL    HW125382   3.096   4.025  17.082  0.6856 -0.0376 -1.8643
 4640SOL    HW225383   3.017   4.101  17.175  1.6684  0.1172  0.9391
 4641SOL     OW25384   1.821   4.235  12.815  0.6480  0.4895 -0.5648
 4641SOL    HW125385   1.856   4.319  12.786  0.6530  0.7854  0.2948
 4641SOL    HW225386   1.782   4.271  12.895 -0.0306 -0.8613 -0.2892
 4642SOL     OW25387   2.551   3.958   7.634  0.3156 -0.4098  0.0429
 4642SOL    HW125388   2.633   3.909   7.621  0.8047  0.0205  1.4406
 4642SOL    HW225389   2.573   4.051   7.620  0.3135 -0.1746  1.6207
 4643SOL     OW25390   2.514   3.368   9.779  1.0526 -0.0048 -0.2379
 4643SOL    HW125391   2.561   3.386   9.860 -3.6311  1.7019  2.0205
 4643SOL    HW225392   2.426   3.348   9.808  1.1555 -0.2442 -0.0917
 4644SOL     OW25393   1.793   1.072   8.525  0.2976 -0.1765 -0.0238
 4644SOL    HW125394   1.712   1.076   8.474 -0.2893  0.9967  1.0040
 4644SOL    HW225395   1.826   1.161   8.516  1.2184 -0.5233 -0.0324
 4645SOL     OW25396   4.240   1.555   2.021  0.2213 -0.4986 -0.0211
 4645SOL    HW125397   4.329   1.522   2.030  0.4317 -0.5220 -2.1892
 4645SOL    HW225398   4.191   1.474   2.030 -1.2911  0.3432 -0.7071
 4646SOL     OW25399   3.889   1.309   2.183  0.1538 -0.2638 -0.3136
 4646SOL    HW125400   3.967   1.362   2.200 -0.5955  0.3625  1.2341
 4646SOL    HW225401   3.858   1.344   2.099 -2.0914 -0.2101  0.5189
 4647SOL     OW25402   1.700   2.201  15.058 -0.6656  0.2704  0.4902
 4647SOL    HW125403   1.617   2.155  15.052 -0.4870  0.0646 -0.3985
 4647SOL    HW225404   1.729   2.183  14.969  0.3066  0.1602  0.8261
 4648SOL     OW25405   4.541   1.770  17.577  0.0452  0.0538  0.1988
 4648SOL    HW125406   4.628   1.731  17.573 -0.1705 -0.2947 -1.1733
 4648SOL    HW225407   4.547   1.826  17.500  0.3602  0.4928  0.5406
 4649SOL     OW25408   2.757   0.172   9.822 -0.3104  0.3093 -0.1827
 4649SOL    HW125409   2.838   0.131   9.792 -0.2007  1.5516 -1.5822
 4649SOL    HW225410   2.761   0.153   9.916  0.2220  2.3454  0.2193
 4650SOL     OW25411   4.140   2.799   6.474  0.3651  0.2007  0.2353
 4650SOL    HW125412   4.146   2.781   6.380 -2.1342 -0.0598  0.1067
 4650SOL    HW225413   4.204   2.739   6.511 -1.7058 -0.9016  2.0206
 4651SOL     OW25414   2.895   1.948   7.164  0.1540  0.2689 -0.3274
 4651SOL    HW125415   2.956   1.911   7.228  1.3936 -0.8080 -2.1131
 4651SOL    HW225416   2.812   1.905   7.183 -0.2337  1.9160  1.5798
 4652SOL     OW25417   2.309   0.947  13.596 -0.1585 -0.7349 -0.0896
 4652SOL    HW125418   2.389   0.948  13.545  0.6579 -0.2207  1.2029
 4652SOL    HW225419   2.239   0.976  13.538 -2.2086 -0.6102  2.4104
 4653SOL     OW25420   0.608   2.828   3.053  0.7465 -0.7564 -0.0081
 4653SOL    HW125421   0.525   2.793   3.084 -0.0501  0.9778 -0.1792
 4653SOL    HW225422   0.583   2.919   3.035 -1.3695 -1.8362 -2.4946
 4654SOL     OW25423   1.468   0.130   4.720  0.0762  0.1084  0.1810
 4654SOL    HW125424   1.476   0.145   4.626  1.5962 -0.0663  0.2879
 4654SOL    HW225425   1.375   0.151   4.733 -0.4619 -1.9573 -0.2517
 4655SOL     OW25426   3.868   0.293  13.377  0.2459  0.1378  0.0315
 4655SOL    HW125427   3.886   0.320  13.286 -1.6905  1.6799  0.1064
 4655SOL    HW225428   3.791   0.345  13.399 -1.0897 -0.5230 -3.0708
 4656SOL     OW25429   1.463   2.743   7.512 -0.5091  0.2998  0.2020
 4656SOL    HW125430   1.547   2.697   7.504 -0.3934  0.9865 -2.6326
 4656SOL    HW225431   1.460   2.752   7.607 -0.2707 -1.0137  0.3274
 4657SOL     OW25432   3.662   4.383   8.607 -0.2963 -0.5990 -0.0175
 4657SOL    HW125433   3.598   4.320   8.575 -0.6415 -1.4261  2.3550
 4657SOL    HW225434   3.613   4.456   8.644  1.4818  0.7009 -0.2006
 4658SOL     OW25435   3.611   1.867   5.333 -0.5224 -0.2995 -0.6138
 4658SOL    HW125436   3.661   1.789   5.311 -2.6902 -1.9621  0.3420
 4658SOL    HW225437   3.677   1.917   5.382  0.2758 -1.2792 -0.6846
 4659SOL     OW25438   3.223   3.065   0.535  0.0066  0.4380  0.1434
 4659SOL    HW125439   3.165   3.123   0.486  1.3736  2.4607  0.9075
 4659SOL    HW225440   3.204   3.082   0.628 -0.9993 -0.7791  0.1513
 4660SOL     OW25441   1.173   0.468   7.352  0.1697 -0.1947 -0.0479
 4660SOL    HW125442   1.157   0.374   7.362  0.9507 -0.1582  1.5842
 4660SOL    HW225443   1.104   0.494   7.291  0.4708 -0.5643 -0.5516
 4661SOL     OW25444   0.885   0.435   7.553 -0.3276 -0.6127 -0.6058
 4661SOL    HW125445   0.877   0.524   7.517 -0.0837 -2.1425 -4.5109
 4661SOL    HW225446   0.918   0.386   7.477  2.6682  0.6172 -0.1356
 4662SOL     OW25447   2.260   3.588   3.711 -0.1405  0.0557  0.8630
 4662SOL    HW125448   2.177   3.591   3.663 -0.2404  0.3922  1.0552
 4662SOL    HW225449   2.309   3.632   3.642  0.3986 -0.5912  0.8420
 4663SOL     OW25450   1.781   1.901   1.298 -0.1314  0.6822 -0.2020
 4663SOL    HW125451   1.720   1.963   1.338 -0.9286 -0.0734 -0.2527
 4663SOL    HW225452   1.758   1.892   1.205 -0.2806  1.1952 -0.2140
 4664SOL     OW25453   0.229   0.487   3.549 -0.5028 -0.5299  0.7102
 4664SOL    HW125454   0.165   0.444   3.606 -1.0875  0.6219  0.9323
 4664SOL    HW225455   0.162   0.505   3.483  1.6326 -0.0639 -1.3136
 4665SOL     OW25456   3.600   1.793   0.280 -0.3400 -0.1342 -0.2581
 4665SOL    HW125457   3.632   1.872   0.238 -2.7461  1.8942  1.7200
 4665SOL    HW225458   3.628   1.812   0.370  0.5303 -0.4397 -0.4638
 4666SOL     OW25459   4.651   1.723   6.288 -0.1628 -0.5620  0.5955
 4666SOL    HW125460   4.561   1.710   6.259 -0.8591  0.9999  2.0407
 4666SOL    HW225461   4.697   1.710   6.205  0.3449  1.6374  0.5237
 4667SOL     OW25462   3.417   0.366   8.085 -0.3268  0.1620 -0.2124
 4667SOL    HW125463   3.331   0.374   8.045 -0.7186  0.9732  0.7749
 4667SOL    HW225464   3.435   0.272   8.078 -1.9184 -0.1999  0.7158
 4668SOL     OW25465   2.102   3.361   2.552  0.0800  0.1371  0.3264
 4668SOL    HW125466   2.104   3.423   2.480 -0.2693  0.4518  0.5847
 4668SOL    HW225467   2.185   3.379   2.595 -0.1454 -0.2375  0.9181
 4669SOL     OW25468   4.079   1.357  16.536 -0.1103  0.2838 -0.0506
 4669SOL    HW125469   4.063   1.447  16.507 -1.0373  0.7594  1.9086
 4669SOL    HW225470   4.155   1.372  16.592 -0.0144  1.2705 -0.4417
 4670SOL     OW25471   4.401   0.766   0.261  0.3244 -0.1947 -0.3556
 4670SOL    HW125472   4.466   0.829   0.291  0.0070 -0.4895  0.9341
 4670SOL    HW225473   4.453   0.686   0.257  0.9546  0.1564  0.8776
 4671SOL     OW25474   2.818   0.927  10.744  0.0907  0.0016 -0.3864
 4671SOL    HW125475   2.748   0.928  10.810 -1.9725  1.0291 -2.5824
 4671SOL    HW225476   2.770   0.913  10.662  2.2150 -0.0679 -1.6032
 4672SOL     OW25477   1.459   1.121   4.410 -0.7004 -0.5110  0.2811
 4672SOL    HW125478   1.502   1.160   4.334  0.8455 -0.0427  1.3980
 4672SOL    HW225479   1.385   1.181   4.417 -1.4860 -0.9266 -4.8043
 4673SOL     OW25480   4.186   2.684   6.883 -0.0685 -0.5585  0.4174
 4673SOL    HW125481   4.125   2.753   6.857  1.2019  0.2099 -0.5790
 4673SOL    HW225482   4.219   2.726   6.962  0.6272 -0.0361 -0.1468
 4674SOL     OW25483   4.480   0.725   4.984  0.7463  0.6847 -0.1825
 4674SOL    HW125484   4.470   0.731   4.889  0.3747  0.8128 -0.1361
 4674SOL    HW225485   4.573   0.702   4.988  0.7674  0.5530 -1.3472
 4675SOL     OW25486   0.011   0.704   7.021 -0.1802 -0.0527  0.0191
 4675SOL    HW125487   0.019   0.680   7.113  0.8817 -0.4589 -0.1802
 4675SOL    HW225488   0.102   0.735   7.017 -0.5779  1.0026 -0.7672
 4676SOL     OW25489   1.625   1.976   5.877 -0.2674 -0.0199  0.0632
 4676SOL    HW125490   1.569   1.969   5.800 -0.1664 -0.1146 -0.0008
 4676SOL    HW225491   1.639   2.071   5.877 -1.5884  0.1814  0.5356
 4677SOL     OW25492   3.500   4.266  14.419  0.3647  0.2242  0.2929
 4677SOL    HW125493   3.498   4.187  14.365  0.4339  0.7384 -0.4672
 4677SOL    HW225494   3.408   4.292  14.424  0.1352 -0.9746  2.2080
 4678SOL     OW25495   1.901   0.430   3.344 -0.1692 -0.5347  0.3564
 4678SOL    HW125496   1.970   0.463   3.402  1.0307  0.8325 -1.8249
 4678SOL    HW225497   1.869   0.357   3.397  0.7378 -2.5498 -1.8331
 4679SOL     OW25498   3.108   4.039  10.639 -0.2304  0.2863 -0.1608
 4679SOL    HW125499   3.015   4.059  10.649 -0.4978 -2.0709  2.2074
 4679SOL    HW225500   3.109   3.944  10.624 -1.2539  0.5417 -1.8499
 4680SOL     OW25501   1.455   2.852   2.152  0.0665  0.1674  0.3006
 4680SOL    HW125502   1.410   2.786   2.099  2.3300 -2.1021  1.1956
 4680SOL    HW225503   1.429   2.936   2.116  0.1340  0.7156  1.5465
 4681SOL     OW25504   4.278   4.620   1.938  0.0134 -0.6847  0.2132
 4681SOL    HW125505   4.199   4.600   1.888 -0.2670 -0.1136  0.4335
 4681SOL    HW225506   4.337   4.560   1.891 -1.2520 -1.5320 -0.2826
 4682SOL     OW25507   2.192   3.965   7.363  0.1442  0.1300 -0.9766
 4682SOL    HW125508   2.210   4.058   7.377  1.5348 -0.1926 -0.5933
 4682SOL    HW225509   2.233   3.955   7.277  3.6076  0.8271  0.5857
 4683SOL     OW25510   1.392   0.682   3.401 -0.1328 -0.0791 -0.4697
 4683SOL    HW125511   1.455   0.619   3.436 -0.7717  0.3023  1.3387
 4683SOL    HW225512   1.338   0.624   3.349  0.4461 -1.7256  0.7842
 4684SOL     OW25513   4.271   2.110  12.821  0.2770 -0.3130 -0.4537
 4684SOL    HW125514   4.265   2.048  12.894 -0.1298  1.3846  0.9477
 4684SOL    HW225515   4.359   2.141  12.839 -0.2250  0.1178  1.2098
 4685SOL     OW25516   0.794   0.387   8.678 -0.3715 -0.0917 -0.4882
 4685SOL    HW125517   0.714   0.356   8.635  1.0497 -4.1860 -0.1660
 4685SOL    HW225518   0.770   0.472   8.715 -0.6139  0.4486 -1.9158
 4686SOL     OW25519   1.673   4.044   8.949  0.4262 -0.5424  0.5650
 4686SOL    HW125520   1.700   4.028   8.859 -3.1637  0.7615 -0.7124
 4686SOL    HW225521   1.733   3.983   8.993  0.1818  0.2549  1.9948
 4687SOL     OW25522   4.509   0.022  15.088  0.5284  0.0107  0.3637
 4687SOL    HW125523   4.585   4.702  15.047  0.2632 -0.0048 -0.1090
 4687SOL    HW225524   4.558   0.095  15.125 -1.2756  0.2088  2.4033
 4688SOL     OW25525   4.081   1.489   8.062  0.0785  0.3411  0.2654
 4688SOL    HW125526   4.048   1.450   8.144 -0.4896 -0.1173 -0.1825
 4688SOL    HW225527   4.051   1.424   7.999 -3.4740  0.9752  1.2662
 4689SOL     OW25528   2.311   2.030  10.165  0.0422  0.3950  0.0052
 4689SOL    HW125529   2.305   2.053  10.258  0.8641 -2.7620  0.8498
 4689SOL    HW225530   2.311   2.111  10.114  1.0873  1.4961  1.7683
 4690SOL     OW25531   1.855   3.472   4.499 -0.7115  0.1855  0.5820
 4690SOL    HW125532   1.879   3.499   4.411 -1.1188 -1.2543  0.0417
 4690SOL    HW225533   1.829   3.383   4.479 -0.3597  0.8849 -2.9631
 4691SOL     OW25534   1.280   2.417   6.591  0.1650  0.1557 -0.6972
 4691SOL    HW125535   1.232   2.407   6.509 -0.2492  0.7849 -0.5260
 4691SOL    HW225536   1.256   2.505   6.619  1.0807 -0.7878  3.0815
 4692SOL     OW25537   2.701   1.941   4.681 -1.0950  0.1877 -0.3771
 4692SOL    HW125538   2.620   1.902   4.713  1.3322 -3.8673  0.7984
 4692SOL    HW225539   2.710   1.889   4.601  0.9439 -0.2213  0.1221
 4693SOL     OW25540   2.333   3.397  15.610  0.0571  0.4084  0.0632
 4693SOL    HW125541   2.286   3.404  15.693  0.0754  2.6860 -0.1191
 4693SOL    HW225542   2.352   3.306  15.590 -0.0246  0.9475 -2.5114
 4694SOL     OW25543   3.600   1.869  12.733 -0.0046  0.2173 -0.0091
 4694SOL    HW125544   3.692   1.847  12.718 -0.1815  0.0897 -0.9031
 4694SOL    HW225545   3.591   1.801  12.800  1.3167 -1.2143 -1.2829
 4695SOL     OW25546   2.757   2.072   9.916  0.2086 -0.2519  0.8786
 4695SOL    HW125547   2.662   2.064   9.901  0.5427  1.2864 -2.1769
 4695SOL    HW225548   2.777   1.981   9.937  2.2483 -0.0874 -0.3466
 4696SOL     OW25549   1.397   1.336  12.262  0.1482  0.0965 -0.5897
 4696SOL    HW125550   1.345   1.333  12.182 -0.5815  1.0518 -0.1583
 4696SOL    HW225551   1.338   1.294  12.324 -0.0669 -0.8291 -1.4293
 4697SOL     OW25552   0.064   4.444  16.616  0.1669 -0.1123  0.0239
 4697SOL    HW125553   4.717   4.509  16.594 -0.6505 -0.1821  2.3010
 4697SOL    HW225554   0.075   4.393  16.536  2.5130  1.3334 -0.5757
 4698SOL     OW25555   2.449   1.735   3.934 -0.1744 -0.2583  0.2450
 4698SOL    HW125556   2.532   1.687   3.928  2.0430  3.6247 -0.6582
 4698SOL    HW225557   2.481   1.817   3.896 -1.5220  0.8121  1.4471
 4699SOL     OW25558   0.879   0.616   0.986 -0.7315  0.4835  0.0056
 4699SOL    HW125559   0.835   0.531   0.996  1.3194 -0.4880  0.7180
 4699SOL    HW225560   0.830   0.647   0.910 -0.8802  0.6460  0.1669
 4700SOL     OW25561   0.205   1.754   7.744  0.1551 -0.7606  0.2267
 4700SOL    HW125562   0.258   1.832   7.732  0.9303 -1.4075 -0.5087
 4700SOL    HW225563   0.265   1.680   7.737  1.6690  0.4806  0.2992
 4701SOL     OW25564   3.458   3.052   9.526  0.1045 -0.3913  0.1889
 4701SOL    HW125565   3.526   3.113   9.497 -0.8483 -0.2283 -1.6849
 4701SOL    HW225566   3.483   3.053   9.619 -0.1035 -0.4543  0.2457
 4702SOL     OW25567   4.191   1.964  11.907 -0.0650 -0.3901  0.4633
 4702SOL    HW125568   4.253   1.983  11.977  0.3583 -0.2024  0.0367
 4702SOL    HW225569   4.248   1.960  11.831 -2.2688  1.9547 -1.3061
 4703SOL     OW25570   2.235   2.707   2.236  0.1068  0.4055 -0.2548
 4703SOL    HW125571   2.165   2.760   2.198  0.0569  0.2451 -0.3914
 4703SOL    HW225572   2.270   2.773   2.295  1.0581  1.2368 -1.7267
 4704SOL     OW25573   0.971   3.834   2.230  0.1011 -0.3205  0.1893
 4704SOL    HW125574   0.928   3.843   2.144  0.0116 -1.0288  0.1566
 4704SOL    HW225575   1.060   3.815   2.202  0.7052 -0.2977  2.1076
 4705SOL     OW25576   0.274   0.482  14.060 -0.0374  0.8034  0.5323
 4705SOL    HW125577   0.301   0.551  14.120 -0.7849  1.1802  0.4275
 4705SOL    HW225578   0.360   0.448  14.034 -0.2648  0.7471 -0.1497
 4706SOL     OW25579   2.351   4.078   1.463  0.1666  0.2902  0.2170
 4706SOL    HW125580   2.332   4.172   1.463 -0.5510  0.1390 -1.6241
 4706SOL    HW225581   2.405   4.067   1.385 -0.0344 -2.7546  0.5369
 4707SOL     OW25582   3.280   0.531  12.400 -0.4150  0.0413  0.2467
 4707SOL    HW125583   3.197   0.557  12.360 -0.8907 -0.9808  0.5777
 4707SOL    HW225584   3.248   0.474  12.470 -2.3955  1.3675  0.4163
 4708SOL     OW25585   1.061   0.647  12.014  0.1525  0.4795 -0.0773
 4708SOL    HW125586   1.019   0.659  12.099 -0.4485 -0.7938 -0.1993
 4708SOL    HW225587   1.149   0.625  12.046  0.0121  1.2915  0.8436
 4709SOL     OW25588   2.801   3.054   3.111 -0.0020  0.1805 -0.3505
 4709SOL    HW125589   2.872   3.061   3.047  0.4076 -1.3588 -0.0467
 4709SOL    HW225590   2.837   2.971   3.141 -0.5436 -0.0104 -0.2453
 4710SOL     OW25591   1.939   0.368   4.201 -0.3623 -0.0704  0.4159
 4710SOL    HW125592   1.990   0.405   4.272 -2.1956  1.5938  0.8515
 4710SOL    HW225593   1.963   0.439   4.141 -0.5986 -0.0141  0.3893
 4711SOL     OW25594   0.772   0.012  15.049  0.2149  0.5299  0.3405
 4711SOL    HW125595   0.836   0.070  15.089  1.8737 -1.0215 -0.0886
 4711SOL    HW225596   0.745   4.696  15.134 -2.7330 -0.1360 -0.8586
 4712SOL     OW25597   3.563   0.795   9.007  0.0223  0.7098  0.4435
 4712SOL    HW125598   3.620   0.743   9.064  2.7540  1.8686 -1.2158
 4712SOL    HW225599   3.619   0.873   9.000  1.7732 -0.6213 -0.3460
 4713SOL     OW25600   0.652   2.666  16.991 -0.0794  0.1637  0.7154
 4713SOL    HW125601   0.558   2.682  16.996 -0.0628  0.6889 -0.6653
 4713SOL    HW225602   0.677   2.655  17.083  0.1585 -0.4305  0.5790
 4714SOL     OW25603   3.149   2.504  15.228  0.3033 -0.2991 -0.4291
 4714SOL    HW125604   3.080   2.568  15.211  0.4263  0.4570  1.8314
 4714SOL    HW225605   3.223   2.544  15.182  0.2441  2.6106  1.9919
 4715SOL     OW25606   1.859   1.828   6.020 -0.3083  0.0722 -0.2781
 4715SOL    HW125607   1.906   1.856   5.942  0.8678 -2.5106 -0.5118
 4715SOL    HW225608   1.775   1.873   6.015  1.0744  2.6520  0.0085
 4716SOL     OW25609   0.844   3.678   7.205 -0.2583  0.0234  0.0039
 4716SOL    HW125610   0.867   3.670   7.297 -1.2058 -0.5431  0.1966
 4716SOL    HW225611   0.848   3.588   7.172 -1.5494  0.5344 -1.5467
 4717SOL     OW25612   3.312   1.557   3.919  0.2282  0.0839  0.0883
 4717SOL    HW125613   3.314   1.630   3.981  0.6258 -0.1531  0.3495
 4717SOL    HW225614   3.216   1.552   3.919  0.2287  0.3575  2.0336
 4718SOL     OW25615   1.021   2.699   2.144 -0.1297  0.1853 -0.2325
 4718SOL    HW125616   0.972   2.757   2.086 -1.3620  0.7971  1.4394
 4718SOL    HW225617   0.952   2.675   2.205 -0.7849  2.4695 -0.0928
 4719SOL     OW25618   2.005   3.991   2.907  0.5874  0.4206  0.4277
 4719SOL    HW125619   2.033   3.983   2.816 -4.2426 -1.4208 -0.9119
 4719SOL    HW225620   2.032   4.081   2.926  1.4557  0.1262  0.5800
 4720SOL     OW25621   2.119   0.841   4.166  0.0209 -0.1857 -0.0616
 4720SOL    HW125622   2.186   0.878   4.224  0.8991 -1.6529 -0.1447
 4720SOL    HW225623   2.044   0.840   4.225 -0.0331 -1.1422 -0.1526
 4721SOL     OW25624   1.458   1.773   8.380 -0.5880  0.1745  0.1923
 4721SOL    HW125625   1.510   1.822   8.444 -0.1430  0.5070 -0.4380
 4721SOL    HW225626   1.525   1.724   8.334 -0.6425 -1.0834  1.4264
 4722SOL     OW25627   2.028   2.035  17.211  0.7674 -0.3168 -0.4516
 4722SOL    HW125628   2.083   2.104  17.248  2.5554 -2.1614  0.3014
 4722SOL    HW225629   2.100   1.981  17.177  0.9847 -1.1517  1.3364
 4723SOL     OW25630   0.337   1.133   1.623  0.2473 -0.3063 -0.0184
 4723SOL    HW125631   0.251   1.102   1.596  1.3710 -3.2488 -0.2136
 4723SOL    HW225632   0.391   1.096   1.554 -1.2708 -3.1204  0.3314
 4724SOL     OW25633   2.913   3.955   7.725  0.0158 -0.1913  0.5022
 4724SOL    HW125634   2.927   4.049   7.721  2.3437 -0.5041  1.3381
 4724SOL    HW225635   2.901   3.922   7.636 -0.2686 -0.4492  0.6358
 4725SOL     OW25636   1.882   2.901   4.506  0.4163 -0.5387 -0.2354
 4725SOL    HW125637   1.910   2.810   4.516 -0.7318 -0.9894 -1.0906
 4725SOL    HW225638   1.880   2.937   4.595  0.4455 -1.5516  0.1814
 4726SOL     OW25639   3.886   1.825   3.917  0.4511  0.2331  0.8433
 4726SOL    HW125640   3.861   1.907   3.958  0.1690  1.5394 -1.9614
 4726SOL    HW225641   3.800   1.791   3.890 -0.3038  2.8083  0.0678
 4727SOL     OW25642   0.966   3.770   7.765  0.4477 -0.0315  0.3513
 4727SOL    HW125643   0.997   3.860   7.756 -1.4188  0.5553 -0.0370
 4727SOL    HW225644   0.909   3.769   7.841 -0.0458 -0.9738 -0.0321
 4728SOL     OW25645   1.859   4.376   4.556  0.8143 -0.2391 -0.5281
 4728SOL    HW125646   1.911   4.437   4.504 -1.0623  1.4962 -0.3791
 4728SOL    HW225647   1.774   4.417   4.546  0.2387 -1.2091  0.3741
 4729SOL     OW25648   3.175   0.672   4.051  0.3244 -0.0350 -0.7358
 4729SOL    HW125649   3.201   0.660   3.960  0.7323  1.3813 -0.8012
 4729SOL    HW225650   3.233   0.745   4.072  1.4959 -0.5570 -2.1571
 4730SOL     OW25651   3.881   4.423   4.953  0.0548 -0.0104  0.0217
 4730SOL    HW125652   3.960   4.477   4.958  0.8198 -1.0961 -0.3394
 4730SOL    HW225653   3.876   4.412   4.858 -0.8119  2.6589 -0.2377
 4731SOL     OW25654   1.192   1.738   0.746  0.0823  0.6073 -0.2447
 4731SOL    HW125655   1.132   1.806   0.778 -0.4037 -2.2283  4.9292
 4731SOL    HW225656   1.263   1.799   0.727  0.3153 -0.3128 -2.3162
 4732SOL     OW25657   0.267   0.149   8.197  1.1483  0.1832 -0.4219
 4732SOL    HW125658   0.291   0.102   8.117  2.6122  0.0551  0.0968
 4732SOL    HW225659   0.192   0.203   8.174  2.0778  0.9119 -1.7307
 4733SOL     OW25660   4.040   0.800   7.486  0.0538  0.1579 -0.1662
 4733SOL    HW125661   4.073   0.889   7.474 -2.1910  0.9964 -0.1755
 4733SOL    HW225662   4.026   0.764   7.399  1.1615 -0.3447 -0.1476
 4734SOL     OW25663   3.825   0.485   7.095  0.5150 -0.5812 -0.4413
 4734SOL    HW125664   3.781   0.401   7.107 -2.8809  1.5032  1.8837
 4734SOL    HW225665   3.794   0.525   7.176  0.9578 -0.0141 -0.5553
 4735SOL     OW25666   2.598   1.342   4.272 -0.1521  0.3248 -0.0324
 4735SOL    HW125667   2.568   1.423   4.314 -1.2379  1.4833 -3.0523
 4735SOL    HW225668   2.659   1.303   4.335  0.1671  1.3038  0.2714
 4736SOL     OW25669   0.688   4.036   6.287  0.1572  0.5591  0.6749
 4736SOL    HW125670   0.734   4.005   6.209 -2.5466  0.1754 -0.7679
 4736SOL    HW225671   0.754   4.084   6.336  0.9787  0.6435 -0.5179
 4737SOL     OW25672   1.600   0.087  10.256 -0.0699 -0.2593  0.0068
 4737SOL    HW125673   1.671   0.071  10.319 -1.3192 -1.4712  1.1177
 4737SOL    HW225674   1.627   0.172  10.222 -1.6605 -0.4249 -1.6554
 4738SOL     OW25675   0.005   2.929  15.240  0.2737  0.3322 -0.2280
 4738SOL    HW125676   0.045   2.994  15.297  1.6005  1.4268 -2.3971
 4738SOL    HW225677   4.718   2.976  15.156 -1.3346  0.3358 -0.0945
 4739SOL     OW25678   0.798   1.751   7.643  0.1123  0.6056  0.2453
 4739SOL    HW125679   0.754   1.789   7.720 -0.1944  2.2591 -0.7503
 4739SOL    HW225680   0.877   1.806   7.641  0.2835  0.4642  2.7931
 4740SOL     OW25681   3.909   3.704  11.282 -0.0045  0.0950 -0.0832
 4740SOL    HW125682   3.919   3.612  11.255  0.6514  0.0924  0.1654
 4740SOL    HW225683   3.821   3.717  11.246  1.0707  3.2980 -1.5083
 4741SOL     OW25684   2.599   3.622  16.876 -0.0564  0.3885  0.3430
 4741SOL    HW125685   2.640   3.689  16.930 -1.6214  2.0972 -0.5913
 4741SOL    HW225686   2.579   3.552  16.938 -2.7035  0.0506 -0.8577
 4742SOL     OW25687   3.406   1.535   0.382  0.3797 -0.1995  0.1836
 4742SOL    HW125688   3.425   1.569   0.469 -1.5685 -1.0187  0.9441
 4742SOL    HW225689   3.333   1.474   0.396  0.8821 -0.6376  0.8694
 4743SOL     OW25690   3.367   2.122   0.012  0.3606  0.3587  0.1294
 4743SOL    HW125691   3.455   2.143   0.043 -0.1563  2.6868  0.0323
 4743SOL    HW225692   3.336   2.115   0.102  0.1856  2.6315  0.2599
 4744SOL     OW25693   2.240   3.292   3.046  0.3267 -0.5559 -0.4256
 4744SOL    HW125694   2.243   3.238   3.126  1.4606  2.1248  1.3574
 4744SOL    HW225695   2.227   3.377   3.090 -0.7512 -0.3021 -1.2308
 4745SOL     OW25696   0.491   1.656   1.177 -0.0138  0.0839 -0.2754
 4745SOL    HW125697   0.548   1.724   1.213 -0.7834  0.8697 -0.5462
 4745SOL    HW225698   0.556   1.591   1.151  0.3718  0.1672  0.4867
 4746SOL     OW25699   3.995   4.580   8.647  0.1838  0.0213  0.1979
 4746SOL    HW125700   4.068   4.597   8.587  0.1304 -0.1446  0.0861
 4746SOL    HW225701   4.043   4.581   8.730  2.8583 -1.2900 -1.3004
 4747SOL     OW25702   0.938   2.803   4.250 -0.0710 -0.1299 -0.5736
 4747SOL    HW125703   0.919   2.720   4.295 -2.2017  0.0066 -1.2664
 4747SOL    HW225704   1.014   2.833   4.302 -0.0982  1.1410 -1.2751
 4748SOL     OW25705   1.929   3.829  10.011 -0.3837  0.1862 -0.4273
 4748SOL    HW125706   1.926   3.803  10.103  1.5065  0.8560 -0.1758
 4748SOL    HW225707   1.848   3.793   9.975 -0.4083 -0.0128 -0.1730
 4749SOL     OW25708   2.841   3.922   6.555  0.2248  0.0130 -0.0386
 4749SOL    HW125709   2.863   3.842   6.602  0.6032  0.5933  0.7746
 4749SOL    HW225710   2.878   3.907   6.468  0.1955 -0.1617 -0.0215
 4750SOL     OW25711   1.449   1.989   2.306  0.1346  0.2344 -0.2881
 4750SOL    HW125712   1.428   1.923   2.372  1.8137  0.5245  0.5172
 4750SOL    HW225713   1.366   1.984   2.257 -0.5627  0.3042  0.8961
 4751SOL     OW25714   3.871   4.194   6.390  0.0278  0.2849 -0.2518
 4751SOL    HW125715   3.927   4.271   6.384  0.6949 -0.1031  0.9669
 4751SOL    HW225716   3.929   4.127   6.354 -0.4787  1.3157 -2.9701
 4752SOL     OW25717   1.485   2.746  15.923 -0.4166  0.1421 -0.0076
 4752SOL    HW125718   1.577   2.767  15.910  0.2106 -1.7227  1.3818
 4752SOL    HW225719   1.462   2.788  16.006  1.9668  1.2490  0.0897
 4753SOL     OW25720   2.844   1.551   7.212 -0.5072 -0.2261  0.1058
 4753SOL    HW125721   2.811   1.640   7.225 -1.9860 -0.9995  1.5788
 4753SOL    HW225722   2.762   1.503   7.222  0.2157 -0.9224  2.8617
 4754SOL     OW25723   2.716   4.570  12.651  0.2512  0.4008 -0.0577
 4754SOL    HW125724   2.800   4.531  12.677 -1.4386 -1.9401  1.9161
 4754SOL    HW225725   2.686   4.507  12.586 -0.1181  0.4242  0.0910
 4755SOL     OW25726   1.654   3.636   8.368  0.3395 -0.0401  0.1407
 4755SOL    HW125727   1.694   3.604   8.449 -0.9941  0.9536  1.2088
 4755SOL    HW225728   1.650   3.556   8.316  0.9047 -0.0856  0.1720
 4756SOL     OW25729   1.875   4.148   2.433  0.2093 -0.2829  0.5427
 4756SOL    HW125730   1.879   4.159   2.528  0.5370  1.8040  0.2986
 4756SOL    HW225731   1.790   4.192   2.429  0.8333  0.8769 -0.1309
 4757SOL     OW25732   2.064   3.600   4.652  0.4120 -0.0659 -0.5588
 4757SOL    HW125733   2.004   3.542   4.604 -0.5391  1.3340 -1.0436
 4757SOL    HW225734   2.148   3.590   4.607  1.2173 -0.4835  1.0100
 4758SOL     OW25735   0.366   3.796   5.894 -0.6578  0.0791 -0.5462
 4758SOL    HW125736   0.451   3.772   5.859 -0.3869 -1.9177  1.5264
 4758SOL    HW225737   0.306   3.730   5.858  0.8343 -1.0366 -0.9629
 4759SOL     OW25738   1.574   2.668   9.275  0.0750 -0.2484  0.1338
 4759SOL    HW125739   1.496   2.617   9.254 -1.6528  1.5024  2.3758
 4759SOL    HW225740   1.629   2.630   9.206 -1.0591  1.0639 -1.4900
 4760SOL     OW25741   0.739   0.981   4.509 -0.3443  0.1080  0.4542
 4760SOL    HW125742   0.698   0.916   4.567  1.9834 -3.0488 -1.4516
 4760SOL    HW225743   0.826   0.999   4.545 -0.8564  1.0338  1.2376
 4761SOL     OW25744   4.573   1.976   6.424 -0.3120  0.5590 -0.1700
 4761SOL    HW125745   4.542   1.967   6.514  1.1594  1.6063  0.4405
 4761SOL    HW225746   4.585   1.883   6.407  0.7465  0.3008  1.9530
 4762SOL     OW25747   4.211   4.714   7.016  0.0161  0.4648 -0.2893
 4762SOL    HW125748   4.120   0.022   7.009 -0.3191  0.0627  2.4465
 4762SOL    HW225749   4.216   4.718   7.112  1.0771 -1.3833 -0.2550
 4763SOL     OW25750   4.021   0.793   2.875 -0.1933  0.4523  0.2832
 4763SOL    HW125751   4.093   0.734   2.898  0.2659  2.0175  2.8604
 4763SOL    HW225752   4.067   0.876   2.859 -0.2948 -0.0784 -2.8636
 4764SOL     OW25753   2.652   2.748  13.241 -0.4716  0.6590 -0.0748
 4764SOL    HW125754   2.638   2.816  13.175 -0.1380  1.0549  0.2652
 4764SOL    HW225755   2.686   2.679  13.183 -0.8452  0.6586 -0.2898
 4765SOL     OW25756   4.396   2.964  11.132 -0.1772 -0.4837  0.4843
 4765SOL    HW125757   4.408   2.883  11.181  3.4657 -0.3434 -0.1505
 4765SOL    HW225758   4.485   2.988  11.103  0.0341  0.0054  1.5453
 4766SOL     OW25759   1.008   0.249   8.631 -0.6118  0.2900  0.1538
 4766SOL    HW125760   0.919   0.277   8.655 -0.0801  0.2680  2.1455
 4766SOL    HW225761   0.986   0.176   8.573 -0.2664  0.9569 -0.8245
 4767SOL     OW25762   3.337   2.956  17.427 -0.0549 -0.0328  0.0821
 4767SOL    HW125763   3.353   3.017  17.354  1.9126  1.2661  1.5783
 4767SOL    HW225764   3.365   2.878  17.381 -0.2177  0.8012 -1.4285
 4768SOL     OW25765   2.532   1.259   5.165 -0.7814  0.1789 -0.5297
 4768SOL    HW125766   2.505   1.177   5.208 -2.8322  1.1742  0.0714
 4768SOL    HW225767   2.594   1.307   5.221 -1.0177  0.8976 -0.8932
 4769SOL     OW25768   0.395   1.819   5.359 -0.4583  0.0431  0.1403
 4769SOL    HW125769   0.348   1.857   5.285  0.1129  1.8563  0.7022
 4769SOL    HW225770   0.381   1.727   5.338 -0.0992 -0.2945  1.3783
 4770SOL     OW25771   4.292   1.601   4.673  0.1067 -0.5487 -0.4393
 4770SOL    HW125772   4.373   1.573   4.632 -0.6317 -1.4978 -1.2474
 4770SOL    HW225773   4.235   1.618   4.598 -0.9623 -2.2910 -0.0275
 4771SOL     OW25774   4.491   2.597   9.054 -0.0161  0.2719 -0.0862
 4771SOL    HW125775   4.534   2.512   9.049  0.1749  0.4969 -2.0022
 4771SOL    HW225776   4.571   2.642   9.082  0.2791  0.3486 -1.0882
 4772SOL     OW25777   2.240   4.643   4.438  0.0321  0.3326  0.3945
 4772SOL    HW125778   2.288   0.004   4.459 -1.7134  0.7029  2.9329
 4772SOL    HW225779   2.291   4.595   4.503  0.8964  0.3038 -0.3020
 4773SOL     OW25780   4.295   2.559   8.853  0.2430 -0.5285  0.0553
 4773SOL    HW125781   4.370   2.576   8.796  0.2016  1.4736  0.6081
 4773SOL    HW225782   4.326   2.583   8.940 -1.8816 -1.3316  1.0267
 4774SOL     OW25783   2.198   1.324  16.610 -0.4706  0.3356 -0.2504
 4774SOL    HW125784   2.195   1.412  16.573 -0.1650  0.7425  0.7144
 4774SOL    HW225785   2.284   1.307  16.571 -1.1272 -1.8979 -0.7351
 4775SOL     OW25786   1.315   0.005   8.532  0.0481  0.1974 -0.5636
 4775SOL    HW125787   1.364   0.015   8.614 -0.1073  1.4906 -0.6135
 4775SOL    HW225788   1.229   0.002   8.574 -0.8439 -2.8649 -2.5966
 4776SOL     OW25789   3.006   2.625   7.521  0.2490  0.1376 -0.8087
 4776SOL    HW125790   3.060   2.631   7.600  0.9735 -0.6144 -1.2390
 4776SOL    HW225791   2.963   2.541   7.534  0.5883 -0.0887 -1.1453
 4777SOL     OW25792   1.251   2.636   1.778 -0.1111 -0.4644 -0.4384
 4777SOL    HW125793   1.233   2.547   1.748  0.2739 -1.2359  1.5939
 4777SOL    HW225794   1.290   2.673   1.699 -1.7669 -1.1059 -1.5564
 4778SOL     OW25795   3.054   2.131  16.762 -0.7949  0.2067 -0.4725
 4778SOL    HW125796   2.958   2.132  16.755 -0.5495  0.2566 -3.8205
 4778SOL    HW225797   3.064   2.102  16.853 -0.5563 -1.1284 -0.9317
 4779SOL     OW25798   1.362   4.690   3.737  0.6108 -0.2349 -0.1096
 4779SOL    HW125799   1.354   0.046   3.795  0.0715 -0.5829  0.2753
 4779SOL    HW225800   1.274   4.666   3.706  0.0148  0.1607  1.2595
 4780SOL     OW25801   3.032   2.304   6.786 -0.4159  0.1307 -0.5145
 4780SOL    HW125802   2.970   2.358   6.835  1.0749  1.3372  0.0305
 4780SOL    HW225803   3.050   2.236   6.852  0.2022 -0.1325 -0.9498
 4781SOL     OW25804   0.474   3.877   9.585 -0.1287 -0.4392 -0.3675
 4781SOL    HW125805   0.491   3.962   9.546 -0.5153  0.6148  1.7957
 4781SOL    HW225806   0.550   3.828   9.553  0.9093  1.2068 -0.4021
 4782SOL     OW25807   1.656   3.272   6.974 -0.4154  0.2414 -0.7327
 4782SOL    HW125808   1.692   3.361   6.968 -0.3249  0.1520 -1.5683
 4782SOL    HW225809   1.610   3.266   6.890  0.0358 -0.8771 -0.8921
 4783SOL     OW25810   4.510   2.738   4.679 -0.0032 -0.3310  0.3151
 4783SOL    HW125811   4.474   2.789   4.752 -0.3694  2.3003 -1.7207
 4783SOL    HW225812   4.438   2.682   4.651 -0.2899 -1.1013  2.5659
 4784SOL     OW25813   0.386   4.188   6.880 -0.0440 -0.5058  0.2074
 4784SOL    HW125814   0.319   4.200   6.948  1.8403  1.9384  1.6541
 4784SOL    HW225815   0.469   4.197   6.926  1.2824 -1.5545 -2.0158
 4785SOL     OW25816   0.099   4.041   6.311 -0.3699  0.2010 -0.7077
 4785SOL    HW125817   0.035   4.040   6.383 -1.1383  1.2339 -1.3839
 4785SOL    HW225818   0.105   3.946   6.301 -2.9198  0.1060 -1.3239
 4786SOL     OW25819   2.960   3.655   2.160 -0.4084  0.2202  0.0085
 4786SOL    HW125820   2.916   3.710   2.095  1.4297 -0.5116 -1.8497
 4786SOL    HW225821   3.026   3.623   2.099 -1.9954 -0.1032 -1.5312
 4787SOL     OW25822   4.441   4.352  11.131  0.3361 -0.1525 -0.0806
 4787SOL    HW125823   4.388   4.292  11.079 -0.8409  0.5916  0.2656
 4787SOL    HW225824   4.387   4.431  11.135  0.4974  0.0697 -2.2183
 4788SOL     OW25825   3.358   2.936  14.640 -0.0196  0.6253 -0.1468
 4788SOL    HW125826   3.331   2.982  14.720 -1.9521 -3.8474  1.7422
 4788SOL    HW225827   3.453   2.937  14.644 -0.1403  1.6971  2.3176
 4789SOL     OW25828   1.947   2.726  13.481 -0.1861 -0.2834 -0.0241
 4789SOL    HW125829   2.010   2.702  13.549  0.6749 -0.9552 -1.0670
 4789SOL    HW225830   1.963   2.820  13.474 -0.1336 -0.1853  1.3234
 4790SOL     OW25831   2.884   4.474   6.640 -0.4072  0.2122 -0.0042
 4790SOL    HW125832   2.951   4.454   6.575 -0.5399  1.4000 -0.5105
 4790SOL    HW225833   2.877   4.569   6.629  1.3359  0.1623 -1.4942
 4791SOL     OW25834   2.534   0.940  16.350  0.2767  0.0442 -0.0319
 4791SOL    HW125835   2.602   0.895  16.401 -0.4468 -1.1669 -0.1301
 4791SOL    HW225836   2.495   0.996  16.418  1.0036 -0.0228  0.4451
 4792SOL     OW25837   4.302   3.951  11.347  0.0198 -0.0715 -0.6958
 4792SOL    HW125838   4.336   3.936  11.258  1.6307  1.8820 -0.4186
 4792SOL    HW225839   4.245   3.875  11.356 -1.2825  0.9093 -0.7046
 4793SOL     OW25840   3.760   3.484   5.369 -0.0066  0.0853 -0.4316
 4793SOL    HW125841   3.776   3.506   5.461  0.4650 -0.1494 -0.4541
 4793SOL    HW225842   3.721   3.398   5.387  1.5260 -0.8103 -1.3537
 4794SOL     OW25843   2.688   2.467   7.269 -0.1963  0.8383 -0.3388
 4794SOL    HW125844   2.609   2.445   7.220  0.7088 -1.2728 -0.8060
 4794SOL    HW225845   2.758   2.419   7.224  1.1720  2.5938 -0.0992
 4795SOL     OW25846   1.231   3.107   8.556 -0.1174 -0.2976 -0.2408
 4795SOL    HW125847   1.243   3.151   8.640 -0.8149  0.7209 -0.6596
 4795SOL    HW225848   1.193   3.026   8.588  0.9434 -1.0688 -0.9558
 4796SOL     OW25849   0.332   0.715  16.449  0.4408 -0.3246  0.1938
 4796SOL    HW125850   0.272   0.748  16.382  0.6861 -3.6606 -1.6411
 4796SOL    HW225851   0.288   0.735  16.532 -2.3069  0.7000 -1.5006
 4797SOL     OW25852   2.517   0.618   4.743  0.1873 -0.0767  0.0140
 4797SOL    HW125853   2.440   0.568   4.770  1.3072 -1.7173  0.1594
 4797SOL    HW225854   2.570   0.549   4.702 -0.6599  1.7645 -4.1063
 4798SOL     OW25855   1.011   1.053   2.843 -0.3135  0.0133 -0.0056
 4798SOL    HW125856   1.105   1.062   2.830 -0.4641  1.4661 -0.1187
 4798SOL    HW225857   0.986   1.101   2.765  0.1328  0.1248 -0.0809
 4799SOL     OW25858   3.019   1.720   8.570 -0.8217  0.1361  0.1194
 4799SOL    HW125859   3.047   1.718   8.662  3.6682  0.7036 -1.1931
 4799SOL    HW225860   3.107   1.723   8.533 -0.1634  0.7689  1.7231
 4800SOL     OW25861   2.640   2.001  15.521 -0.3543 -0.9656  0.0081
 4800SOL    HW125862   2.709   1.944  15.487 -1.4710 -0.8344 -2.5651
 4800SOL    HW225863   2.641   2.073  15.457 -0.9606 -2.7170 -1.9930
 4801SOL     OW25864   4.212   4.032   3.572  0.2298  0.0047 -0.1247
 4801SOL    HW125865   4.238   4.057   3.483  1.3524 -2.4215 -0.4851
 4801SOL    HW225866   4.199   3.942   3.543  0.4852  0.2374 -0.9585
 4802SOL     OW25867   0.540   4.453   4.175 -0.7721 -0.4893  0.5291
 4802SOL    HW125868   0.611   4.500   4.218  1.2008 -1.3278 -1.8048
 4802SOL    HW225869   0.520   4.378   4.232 -1.8320  1.6881  3.0249
 4803SOL     OW25870   0.958   0.038   4.705  0.0792 -0.2045 -0.4981
 4803SOL    HW125871   0.909   4.675   4.708  2.7650 -1.8410 -1.7478
 4803SOL    HW225872   0.893   0.092   4.750 -0.8531 -0.4895 -1.4862
 4804SOL     OW25873   3.635   3.680  15.481 -0.1032  0.6468 -0.9038
 4804SOL    HW125874   3.554   3.722  15.451  0.1947  2.3776  0.7136
 4804SOL    HW225875   3.623   3.676  15.576  0.3290  1.6604 -0.8150
 4805SOL     OW25876   1.464   4.599  10.068  0.6740  0.0655 -0.1707
 4805SOL    HW125877   1.502   4.521  10.109 -0.8348 -0.8897 -0.5902
 4805SOL    HW225878   1.517   4.672  10.099  0.8234  1.1325 -3.0393
 4806SOL     OW25879   2.609   0.319   8.223  0.9603 -0.4328 -0.3051
 4806SOL    HW125880   2.585   0.305   8.314  1.7288  0.4324  0.0308
 4806SOL    HW225881   2.690   0.276   8.193  0.2992 -0.8915 -1.4668
 4807SOL     OW25882   0.817   2.323   2.492 -0.5896  0.4834  0.1034
 4807SOL    HW125883   0.770   2.395   2.451  1.7847  0.6863 -2.1966
 4807SOL    HW225884   0.853   2.352   2.576  2.4868  2.3392 -1.8777
 4808SOL     OW25885   0.737   4.626  10.804  0.4238 -0.4283 -1.0950
 4808SOL    HW125886   0.773   4.676  10.731 -0.1210 -0.5675 -1.4550
 4808SOL    HW225887   0.654   4.670  10.821  0.4630 -0.2100 -1.4756
 4809SOL     OW25888   1.244   4.191   0.808 -0.1351 -0.4594 -0.2545
 4809SOL    HW125889   1.161   4.166   0.767 -0.6020  0.2845  0.2462
 4809SOL    HW225890   1.246   4.283   0.782 -1.4085 -0.5131 -0.5536
 4810SOL     OW25891   4.237   3.060  12.901 -0.1482 -0.2881  0.3191
 4810SOL    HW125892   4.154   3.043  12.858 -0.6754 -1.0906  1.6501
 4810SOL    HW225893   4.218   3.112  12.979  1.8102 -1.0605  1.3306
 4811SOL     OW25894   3.503   0.119  13.732 -0.5628 -0.5184 -0.1737
 4811SOL    HW125895   3.563   0.065  13.783  1.1081  1.2569 -0.2633
 4811SOL    HW225896   3.545   0.205  13.742 -2.4013  0.3573  0.1559
 4812SOL     OW25897   1.335   3.152   9.295 -0.5310  0.1056 -0.4574
 4812SOL    HW125898   1.385   3.159   9.376  2.8289  0.8780 -2.5844
 4812SOL    HW225899   1.280   3.074   9.306 -0.6176  0.3263  0.5930
 4813SOL     OW25900   3.999   4.478   6.925 -0.7573  0.0870  0.2999
 4813SOL    HW125901   4.045   4.531   6.860  0.6650 -1.3755  0.1372
 4813SOL    HW225902   3.904   4.490   6.919 -0.7484 -1.5315 -3.0989
 4814SOL     OW25903   2.525   3.941   3.269 -0.0455 -1.1186 -0.2729
 4814SOL    HW125904   2.469   3.940   3.191  2.1320  0.4199 -1.8640
 4814SOL    HW225905   2.602   3.978   3.225  0.3428 -3.1872 -1.3696
 4815SOL     OW25906   2.213   3.850   6.807 -0.6464 -0.8605  0.5578
 4815SOL    HW125907   2.239   3.939   6.785  0.7778 -1.7672 -1.4674
 4815SOL    HW225908   2.299   3.809   6.813 -0.5424 -0.7445 -0.1390
 4816SOL     OW25909   2.191   2.983   5.347  0.2159 -0.4776 -0.5095
 4816SOL    HW125910   2.158   2.912   5.292  0.1810  0.6319 -1.9524
 4816SOL    HW225911   2.242   2.930   5.408 -1.1235  0.7865  1.7103
 4817SOL     OW25912   1.728   1.766   5.322  0.0840  0.0086 -0.6653
 4817SOL    HW125913   1.804   1.811   5.286  1.1360  0.8103  2.5441
 4817SOL    HW225914   1.755   1.742   5.410 -0.0570  1.4241 -0.2410
 4818SOL     OW25915   0.869   1.486   9.889 -0.5434 -0.1350  0.0430
 4818SOL    HW125916   0.841   1.569   9.928 -2.1167 -0.4273 -0.4546
 4818SOL    HW225917   0.842   1.428   9.959 -0.5686  0.3194  0.4116
 4819SOL     OW25918   4.019   0.091  14.304 -0.2459  0.4415  0.2467
 4819SOL    HW125919   4.032   0.113  14.397 -0.3544  3.3181 -0.4173
 4819SOL    HW225920   4.107   0.087  14.268 -1.0734 -0.6694 -1.6021
 4820SOL     OW25921   3.441   0.682   6.962 -0.4046 -0.0140  0.1274
 4820SOL    HW125922   3.411   0.735   7.036  0.6916 -0.7153  1.0605
 4820SOL    HW225923   3.381   0.719   6.897  2.5510  2.1969 -1.3088
 4821SOL     OW25924   3.829   4.496  12.691  0.2518  1.0177 -0.0135
 4821SOL    HW125925   3.865   4.551  12.761  0.1060  1.6669 -0.4521
 4821SOL    HW225926   3.765   4.557  12.654  0.9420  1.6079 -0.2358
 4822SOL     OW25927   4.630   1.155   0.287 -0.6656 -0.2471 -0.1993
 4822SOL    HW125928   4.610   1.084   0.348  1.9451 -1.3117 -0.5754
 4822SOL    HW225929   4.719   1.129   0.264 -1.0544 -0.1196 -1.8645
 4823SOL     OW25930   3.805   1.126   7.280  0.1442 -0.3825 -0.5190
 4823SOL    HW125931   3.848   1.046   7.250  0.3874  0.1699 -1.6282
 4823SOL    HW225932   3.727   1.135   7.226 -0.3902  3.7777  0.9409
 4824SOL     OW25933   2.919   4.496  11.266  0.3431 -0.2008  0.2709
 4824SOL    HW125934   2.863   4.462  11.336 -0.3057  1.3528  0.5096
 4824SOL    HW225935   2.858   4.550  11.216  4.8541  2.2022 -2.5122
 4825SOL     OW25936   0.092   4.045  10.252 -0.4436 -0.0946 -0.4988
 4825SOL    HW125937   0.069   4.138  10.241 -0.1137 -0.0711 -1.0144
 4825SOL    HW225938   0.188   4.045  10.254 -0.4410 -1.2250 -0.9377
 4826SOL     OW25939   2.845   1.266   5.279 -0.3762 -0.5283  0.1650
 4826SOL    HW125940   2.886   1.227   5.356  0.3193 -1.0859 -0.4877
 4826SOL    HW225941   2.811   1.189   5.233 -0.1368 -0.0866 -0.7636
 4827SOL     OW25942   3.991   0.785   6.218  0.6212 -0.5906 -0.5002
 4827SOL    HW125943   3.958   0.875   6.210 -1.9397 -1.4093  0.7995
 4827SOL    HW225944   3.951   0.761   6.302  0.7656 -0.4141 -0.3810
 4828SOL     OW25945   2.794   3.306   9.092  0.6360  0.3278  0.0795
 4828SOL    HW125946   2.745   3.317   9.173  0.2804  0.9214 -0.2143
 4828SOL    HW225947   2.861   3.241   9.114  0.3745 -0.0034 -0.0964
 4829SOL     OW25948   2.267   4.688   3.406  0.0536  0.5237 -0.1037
 4829SOL    HW125949   2.330   4.615   3.405  1.0902  1.3851  1.6466
 4829SOL    HW225950   2.217   4.656   3.331  1.9352 -0.3996 -0.9938
 4830SOL     OW25951   1.119   3.601   7.059 -0.8346 -0.2272  0.1920
 4830SOL    HW125952   1.031   3.566   7.063 -0.5177 -0.9121  1.1507
 4830SOL    HW225953   1.165   3.558   7.131 -2.2551 -1.3551  0.4035
 4831SOL     OW25954   0.118   2.233   8.746 -1.5323  0.1546 -0.0694
 4831SOL    HW125955   0.168   2.170   8.695  0.3197  0.8351  0.9109
 4831SOL    HW225956   0.097   2.171   8.816  0.6560  0.0438  0.4795
 4832SOL     OW25957   4.182   4.533   2.226 -0.0805 -0.0454 -0.1516
 4832SOL    HW125958   4.182   4.570   2.137 -1.2676 -0.6813 -0.4169
 4832SOL    HW225959   4.273   4.552   2.245 -0.2352  0.4770  0.0659
 4833SOL     OW25960   0.932   4.555   6.160  0.0304 -0.2450 -0.4652
 4833SOL    HW125961   0.853   4.579   6.112 -1.3047  0.9597  2.3381
 4833SOL    HW225962   0.956   4.647   6.176  1.2478 -0.2074 -2.5761
 4834SOL     OW25963   2.978   2.081  15.804  0.7730  0.0532 -0.0183
 4834SOL    HW125964   2.982   2.114  15.715  0.3888  0.8912  0.2735
 4834SOL    HW225965   3.036   2.137  15.855  1.6241 -1.8106  1.0713
 4835SOL     OW25966   3.887   1.429  16.237 -0.0963  0.3813  0.0846
 4835SOL    HW125967   3.940   1.481  16.296  3.0048 -0.2901 -2.1143
 4835SOL    HW225968   3.938   1.349  16.220  0.1837  0.5636  0.0831
 4836SOL     OW25969   3.048   2.116   6.995 -0.6152 -0.3228  0.0220
 4836SOL    HW125970   3.132   2.085   7.031  0.1415  0.3880 -1.1094
 4836SOL    HW225971   2.995   2.048   7.037 -0.1727  0.1734  1.4022
 4837SOL     OW25972   4.287   1.826  13.812  0.1658  0.3019  0.0920
 4837SOL    HW125973   4.312   1.856  13.724 -2.8037  2.2854 -0.0624
 4837SOL    HW225974   4.356   1.762  13.831 -1.9242 -2.2724 -1.0982
 4838SOL     OW25975   0.130   1.311   6.079 -0.2107 -0.1666  0.2236
 4838SOL    HW125976   0.074   1.328   6.155 -2.5946 -1.3015 -1.3096
 4838SOL    HW225977   0.218   1.317   6.116  0.6689  0.7213 -2.0077
 4839SOL     OW25978   1.576   1.004   7.441 -0.0161 -0.3061  0.1720
 4839SOL    HW125979   1.534   0.931   7.397 -0.2528  1.0390 -1.8789
 4839SOL    HW225980   1.608   1.043   7.359  0.7517 -1.6928 -0.1888
 4840SOL     OW25981   2.325   2.810   1.833  0.2903 -0.4755  0.5044
 4840SOL    HW125982   2.389   2.864   1.787 -0.6026  0.0556 -0.1347
 4840SOL    HW225983   2.245   2.863   1.833  0.2491 -0.5578 -0.9289
 4841SOL     OW25984   3.163   4.026   7.418 -0.0197  0.2630  0.6565
 4841SOL    HW125985   3.177   4.057   7.508 -0.5659  0.2831  0.7356
 4841SOL    HW225986   3.168   4.110   7.373  2.4620 -0.5124 -0.5545
 4842SOL     OW25987   3.563   2.176   6.928 -0.1031 -0.0709  0.3140
 4842SOL    HW125988   3.581   2.250   6.870 -2.0828 -0.6316 -1.0145
 4842SOL    HW225989   3.484   2.202   6.975 -0.1100  0.9039 -0.2566
 4843SOL     OW25990   0.142   1.578   8.091 -0.1440 -0.7194  0.2305
 4843SOL    HW125991   0.081   1.532   8.033  1.1026  0.0397 -1.6840
 4843SOL    HW225992   0.087   1.588   8.168 -0.8028 -2.1315 -0.0657
 4844SOL     OW25993   1.536   1.647   7.072  0.9683  0.0694  0.3979
 4844SOL    HW125994   1.504   1.589   7.002 -0.8408  1.7081 -0.1013
 4844SOL    HW225995   1.483   1.726   7.074  2.2747  0.9807 -0.7883
 4845SOL     OW25996   0.828   2.422   5.555  0.2140  0.5943 -0.4335
 4845SOL    HW125997   0.748   2.448   5.510  1.5455  2.3478 -1.8494
 4845SOL    HW225998   0.824   2.327   5.547 -0.6409  0.5756  0.2636
 4846SOL     OW25999   3.480   1.403   8.051  0.4068 -0.8615 -0.0050
 4846SOL    HW126000   3.395   1.375   8.018  0.5541 -0.0178 -1.1160
 4846SOL    HW226001   3.487   1.488   8.008 -1.4862 -1.1301 -0.8299
 4847SOL     OW26002   3.726   0.232   1.598  0.2421 -0.2085  0.1222
 4847SOL    HW126003   3.662   0.207   1.531 -0.7821 -0.0287  1.0292
 4847SOL    HW226004   3.708   0.326   1.601 -0.7463 -0.3555 -1.2584
 4848SOL     OW26005   4.293   2.298  13.467  0.0498  0.3275 -0.1050
 4848SOL    HW126006   4.302   2.383  13.510 -0.7700 -1.0473  2.8117
 4848SOL    HW226007   4.253   2.242  13.533  0.4028 -0.1086 -0.2597
 4849SOL     OW26008   4.253   3.727   0.485 -0.5317 -0.4340 -0.6960
 4849SOL    HW126009   4.205   3.801   0.523 -0.7033 -1.1116  0.4052
 4849SOL    HW226010   4.341   3.763   0.470 -0.2282 -0.4559  1.0393
 4850SOL     OW26011   4.003   0.389   4.337 -0.5378  0.1449  0.5331
 4850SOL    HW126012   4.082   0.334   4.332 -0.0035  0.9639 -0.0706
 4850SOL    HW226013   3.959   0.345   4.410 -1.1361 -1.1470 -0.5965
 4851SOL     OW26014   3.414   3.177   3.985  0.1400 -0.4456  0.0326
 4851SOL    HW126015   3.339   3.236   3.993 -0.3178 -0.9250 -0.7916
 4851SOL    HW226016   3.391   3.128   3.907  0.7172  1.5454 -1.3869
 4852SOL     OW26017   0.321   0.013   4.236 -0.1307  0.4754  0.8576
 4852SOL    HW126018   0.238   4.685   4.240  0.9313 -1.3137  1.2708
 4852SOL    HW226019   0.353   4.713   4.148 -2.3784 -0.1326  0.1922
 4853SOL     OW26020   0.255   4.326   8.656 -0.1413 -0.6682  0.5172
 4853SOL    HW126021   0.337   4.280   8.675 -1.1654 -2.0749  1.4901
 4853SOL    HW226022   0.285   4.415   8.636 -1.1748 -0.4146  0.0723
 4854SOL     OW26023   0.194   1.736   5.958  0.1520 -0.3622 -0.0642
 4854SOL    HW126024   0.264   1.727   6.022  1.4604 -0.7302 -1.5565
 4854SOL    HW226025   0.193   1.831   5.944 -1.4678 -0.2914  0.5000
 4855SOL     OW26026   3.977   3.718  10.550 -0.4956 -0.2567  0.3395
 4855SOL    HW126027   4.048   3.665  10.585  1.3734  1.6540 -0.5087
 4855SOL    HW226028   3.923   3.667  10.490  0.7082 -1.1076 -0.0260
 4856SOL     OW26029   4.231   2.443   2.461 -0.0898 -0.0808  0.4830
 4856SOL    HW126030   4.198   2.433   2.371 -1.2741 -0.4918  0.9647
 4856SOL    HW226031   4.322   2.419   2.444 -0.8541 -2.0101 -0.9396
 4857SOL     OW26032   2.124   4.666   6.304  0.1983 -0.4279 -0.3459
 4857SOL    HW126033   2.055   0.010   6.324 -0.5476 -0.6496 -2.1692
 4857SOL    HW226034   2.169   0.001   6.239  0.5013  1.3966  1.3971
 4858SOL     OW26035   0.505   4.424  17.671  0.6725  0.0600 -0.1720
 4858SOL    HW126036   0.495   4.503   0.043 -2.4419  1.6280 -3.0787
 4858SOL    HW226037   0.416   4.413  17.639  0.9001  0.3027 -0.8916
 4859SOL     OW26038   0.502   1.769   8.657  0.3938  0.5249  0.0219
 4859SOL    HW126039   0.454   1.807   8.583 -0.2165 -2.5266 -1.1150
 4859SOL    HW226040   0.532   1.853   8.691  1.5594  0.9146 -1.9655
 4860SOL     OW26041   3.507   0.139   4.608  0.2040 -0.5501 -0.7084
 4860SOL    HW126042   3.531   0.150   4.700 -0.8006  1.1869 -0.6572
 4860SOL    HW226043   3.424   0.095   4.622 -1.6561  2.2129 -3.0697
 4861SOL     OW26044   0.264   3.156  15.113 -0.4515 -0.0298 -0.2454
 4861SOL    HW126045   0.244   3.139  15.205  1.7610 -0.1956  0.2130
 4861SOL    HW226046   0.185   3.206  15.092  0.3060  1.3883  0.2358
 4862SOL     OW26047   2.788   1.662   3.777 -0.4253 -0.1818  0.3748
 4862SOL    HW126048   2.781   1.566   3.779  4.3242 -0.5772 -3.0464
 4862SOL    HW226049   2.831   1.681   3.694  0.1779 -3.2104 -0.0203
 4863SOL     OW26050   1.591   3.430   8.211  0.2287 -0.7614  0.7851
 4863SOL    HW126051   1.500   3.418   8.181 -0.2198  0.5114  1.6247
 4863SOL    HW226052   1.625   3.345   8.183  0.1342 -0.7023  0.4879
 4864SOL     OW26053   3.547   0.135   2.518 -0.5929  0.1833 -0.6341
 4864SOL    HW126054   3.509   0.082   2.448  4.0963 -0.3817 -2.7397
 4864SOL    HW226055   3.632   0.093   2.532 -0.1193  1.8759  1.6457
 4865SOL     OW26056   3.512   0.336   3.164  0.2808 -0.0078 -0.0562
 4865SOL    HW126057   3.432   0.288   3.145 -0.1473 -0.2502  2.3354
 4865SOL    HW226058   3.488   0.373   3.249 -0.1498  0.3735 -0.3461
 4866SOL     OW26059   0.409   2.491   7.514 -0.3435 -0.0463 -0.3710
 4866SOL    HW126060   0.475   2.530   7.570  0.1413  0.0970 -1.0420
 4866SOL    HW226061   0.421   2.398   7.534  2.3937  0.3699 -0.1422
 4867SOL     OW26062   0.450   1.904   4.749  0.1615 -0.3106 -0.1235
 4867SOL    HW126063   0.456   1.935   4.658  1.8014  0.8504  0.3898
 4867SOL    HW226064   0.356   1.898   4.766 -0.4149  0.2248 -3.0120
 4868SOL     OW26065   1.306   2.169   4.783 -0.1297 -0.3143  0.0303
 4868SOL    HW126066   1.214   2.160   4.808 -0.0492  2.4790  1.3250
 4868SOL    HW226067   1.330   2.229   4.853 -1.9328  1.0960 -0.5424
 4869SOL     OW26068   1.719   1.211   1.812 -0.3323  0.6327  0.3708
 4869SOL    HW126069   1.805   1.169   1.808 -1.0018 -0.6402 -0.7424
 4869SOL    HW226070   1.704   1.238   1.721  0.2579 -1.9564 -0.4791
 4870SOL     OW26071   4.601   1.696   7.355 -0.3790  0.0897  0.2567
 4870SOL    HW126072   4.640   1.707   7.269  0.0444  0.6080  0.5233
 4870SOL    HW226073   4.661   1.744   7.412 -0.3287 -1.1367  1.2562
 4871SOL     OW26074   4.413   2.702   8.130  0.0693 -0.0406  0.4589
 4871SOL    HW126075   4.389   2.655   8.050 -1.7857 -0.5376  1.2858
 4871SOL    HW226076   4.506   2.702   8.110 -0.5233  1.7865 -2.3147
 4872SOL     OW26077   4.487   1.584   2.860  0.5960 -1.0923  0.0113
 4872SOL    HW126078   4.574   1.608   2.893 -0.1244  0.6358  0.6460
 4872SOL    HW226079   4.444   1.532   2.928  2.0747 -0.5195  1.3771
 4873SOL     OW26080   3.519   1.191  13.079  0.1499 -0.2684 -0.0865
 4873SOL    HW126081   3.556   1.277  13.058 -1.9497  0.1850 -1.8879
 4873SOL    HW226082   3.431   1.203  13.114  1.1347  0.5264  2.1394
 4874SOL     OW26083   0.163   1.385   7.708  0.1921 -0.5792 -0.1015
 4874SOL    HW126084   0.097   1.453   7.691 -0.6536 -1.6132 -0.9907
 4874SOL    HW226085   0.176   1.390   7.802  2.5586 -0.4727 -0.4313
 4875SOL     OW26086   3.513   1.050   7.666  0.1515  0.4815  0.0026
 4875SOL    HW126087   3.536   1.004   7.747  2.6701  1.6476 -0.0582
 4875SOL    HW226088   3.590   1.031   7.613  0.5296 -1.2084  1.1579
 4876SOL     OW26089   3.719   1.432   3.443 -0.1553 -0.0841  0.4976
 4876SOL    HW126090   3.798   1.421   3.390 -0.0909 -1.4553  0.8858
 4876SOL    HW226091   3.658   1.471   3.380 -0.3622 -2.7053 -0.9250
 4877SOL     OW26092   1.216   3.036   9.043 -0.3188  0.3375 -0.3952
 4877SOL    HW126093   1.262   3.054   8.961 -0.4595  0.9111 -0.3500
 4877SOL    HW226094   1.259   3.093   9.107  0.7106  0.4860 -1.2184
 4878SOL     OW26095   4.463   0.746   5.295  0.4100 -0.0010 -0.4945
 4878SOL    HW126096   4.508   0.665   5.269  1.2993  0.1613  0.5402
 4878SOL    HW226097   4.499   0.814   5.238  1.3781  0.7102  0.9543
 4879SOL     OW26098   0.750   0.319  11.343 -0.0105  0.2062  0.3589
 4879SOL    HW126099   0.796   0.371  11.409 -0.9599 -0.2084  1.3411
 4879SOL    HW226100   0.676   0.377  11.323 -1.4802 -0.7044  3.1770
 4880SOL     OW26101   1.041   1.919   7.346  0.1047  0.4052 -0.2529
 4880SOL    HW126102   1.080   1.971   7.276  3.5901 -1.1987  0.5060
 4880SOL    HW226103   0.970   1.877   7.297 -0.2229  1.1883 -0.4567
 4881SOL     OW26104   0.960   1.843  10.414 -0.3062  0.0025  0.0398
 4881SOL    HW126105   0.973   1.809  10.325  0.0957 -2.0906  0.9000
 4881SOL    HW226106   1.030   1.908  10.419 -1.7298  1.5272  0.1133
 4882SOL     OW26107   1.628   3.484  11.438 -0.1956  0.6123  0.5028
 4882SOL    HW126108   1.595   3.574  11.440  2.5528  1.6577 -0.6170
 4882SOL    HW226109   1.584   3.466  11.355  2.8011 -1.7837 -0.5784
 4883SOL     OW26110   0.538   3.787   4.593 -0.2196 -0.2046  0.4371
 4883SOL    HW126111   0.613   3.742   4.633 -0.3367 -1.4008 -0.6854
 4883SOL    HW226112   0.503   3.713   4.544 -0.8279  1.2814 -1.3400
 4884SOL     OW26113   2.440   1.218   3.583 -0.7795  0.2932 -0.5477
 4884SOL    HW126114   2.528   1.180   3.586 -0.6731  0.5775  0.0433
 4884SOL    HW226115   2.471   1.307   3.567 -2.2122  1.1348  1.3491
 4885SOL     OW26116   0.237   3.611  11.825  0.2615 -0.1024 -0.4805
 4885SOL    HW126117   0.320   3.594  11.782 -0.2152  1.4056 -1.9620
 4885SOL    HW226118   0.234   3.706  11.823 -1.6018 -0.1628 -1.1351
 4886SOL     OW26119   0.150   2.154   4.666  0.6975  0.6790  0.1884
 4886SOL    HW126120   0.196   2.211   4.727  0.4275 -0.8577  1.8376
 4886SOL    HW226121   0.151   2.191   4.578 -0.8599  2.5471  0.9448
 4887SOL     OW26122   2.270   1.877   1.780 -0.0012 -0.5738 -0.3645
 4887SOL    HW126123   2.195   1.913   1.827  1.2093  2.4715 -0.7870
 4887SOL    HW226124   2.313   1.822   1.846  1.1011  1.2343  0.4308
 4888SOL     OW26125   1.034   1.993   2.802  0.4485  0.0796  0.2187
 4888SOL    HW126126   0.956   1.958   2.759 -0.5383  1.7946  0.5945
 4888SOL    HW226127   0.995   2.040   2.876  1.0857 -0.4770  0.9023
 4889SOL     OW26128   2.190   2.509   1.134 -0.2512 -0.0045  0.0411
 4889SOL    HW126129   2.187   2.574   1.064  1.7496  2.0205  1.8596
 4889SOL    HW226130   2.141   2.434   1.099 -0.8164 -1.1662  3.2983
 4890SOL     OW26131   1.926   2.502   8.459  0.4866  0.6606 -0.4982
 4890SOL    HW126132   1.969   2.544   8.384  0.7265 -1.8737 -1.7810
 4890SOL    HW226133   1.836   2.498   8.425 -0.9377  0.9672  3.2748
 4891SOL     OW26134   1.241   3.902   4.001  0.3410 -0.3684  0.1716
 4891SOL    HW126135   1.157   3.921   3.958  1.1781 -0.1844 -1.3786
 4891SOL    HW226136   1.212   3.856   4.080  0.1012  1.1789  0.9917
 4892SOL     OW26137   3.846   4.282   8.816 -0.3363  0.0618 -0.0619
 4892SOL    HW126138   3.787   4.305   8.745 -0.0260 -0.6545 -0.5477
 4892SOL    HW226139   3.897   4.362   8.831  3.1658 -2.0980 -0.4763
 4893SOL     OW26140   1.121   0.595   8.330  0.0285  0.4168  1.1277
 4893SOL    HW126141   1.042   0.542   8.322  0.2120  0.3135 -0.0794
 4893SOL    HW226142   1.153   0.569   8.416  1.1060 -4.1641 -0.6834
 4894SOL     OW26143   0.141   1.364  12.450 -0.1325  0.0882  0.6578
 4894SOL    HW126144   0.084   1.302  12.405  1.2215 -0.4866 -0.2904
 4894SOL    HW226145   0.224   1.358  12.401  0.3143  1.2190  1.2789
 4895SOL     OW26146   2.684   1.204   7.528 -0.7199 -0.2867  0.1629
 4895SOL    HW126147   2.679   1.109   7.516 -1.4987 -0.5010  2.2966
 4895SOL    HW226148   2.617   1.206   7.595 -2.3235 -1.6864 -1.3955
 4896SOL     OW26149   4.451   2.852   7.084 -0.0484 -0.6570 -0.3438
 4896SOL    HW126150   4.362   2.829   7.108  0.4525 -2.6038 -0.3546
 4896SOL    HW226151   4.502   2.831   7.162  0.8130 -0.7836 -0.9315
 4897SOL     OW26152   2.289   0.188   4.046  0.1365 -0.1118 -0.3111
 4897SOL    HW126153   2.266   0.251   4.115  0.3272 -0.6499  0.2452
 4897SOL    HW226154   2.227   0.118   4.065 -1.3895  1.0685 -0.9617
 4898SOL     OW26155   1.480   1.003   6.789 -0.1828  0.0797  0.3147
 4898SOL    HW126156   1.399   1.054   6.790 -0.6215 -0.6174 -0.3784
 4898SOL    HW226157   1.536   1.066   6.744  1.6092 -0.5722  1.6099
 4899SOL     OW26158   3.143   2.123  12.359 -0.0188  0.4354 -0.0787
 4899SOL    HW126159   3.231   2.091  12.339 -0.0152  1.2988 -1.4814
 4899SOL    HW226160   3.172   2.205  12.399  1.4898 -0.5767  0.9235
 4900SOL     OW26161   1.848   4.195   8.084 -0.1832  0.1644  0.3066
 4900SOL    HW126162   1.759   4.218   8.058  0.4465 -0.8397 -2.6394
 4900SOL    HW226163   1.832   4.166   8.174 -0.3549  0.7761  0.4746
 4901SOL     OW26164   0.979   1.786   0.420 -0.1425 -0.0859  0.0141
 4901SOL    HW126165   0.889   1.812   0.441 -0.0462 -1.9211  2.6847
 4901SOL    HW226166   0.965   1.742   0.336  1.1234 -2.8503  1.2509
 4902SOL     OW26167   4.006   0.449   4.619 -0.3084 -0.4016  0.2963
 4902SOL    HW126168   3.939   0.425   4.683 -0.9999  1.4900  0.2828
 4902SOL    HW226169   3.974   0.531   4.581 -1.4095 -0.4598  1.1024
 4903SOL     OW26170   4.291   3.348  10.892  0.1253  0.3994 -0.3868
 4903SOL    HW126171   4.259   3.273  10.843 -1.9459 -0.2140  1.8558
 4903SOL    HW226172   4.312   3.414  10.826  2.8761 -0.5235 -0.4250
 4904SOL     OW26173   2.817   2.829   7.573  0.3240 -0.6316  0.1888
 4904SOL    HW126174   2.898   2.787   7.545  1.0121 -0.6944  2.3298
 4904SOL    HW226175   2.760   2.787   7.507 -1.2539  1.4143  0.2490
 4905SOL     OW26176   2.898   2.411  15.374  0.5337 -0.5948  0.3658
 4905SOL    HW126177   2.888   2.485  15.314 -0.3653 -1.7372 -0.9038
 4905SOL    HW226178   2.912   2.340  15.311 -1.0786  0.7492 -1.4854
 4906SOL     OW26179   0.136   2.328  12.039 -0.0541 -0.1073  0.2164
 4906SOL    HW126180   0.134   2.332  12.135 -0.3205 -2.6212  0.3100
 4906SOL    HW226181   0.216   2.379  12.021  0.9363 -1.7495  0.0018
 4907SOL     OW26182   2.537   2.252   4.225  0.5990 -0.3031  0.2083
 4907SOL    HW126183   2.493   2.177   4.186  1.1114 -1.4496  1.8169
 4907SOL    HW226184   2.515   2.320   4.162  0.3087 -1.3045 -0.7634
 4908SOL     OW26185   3.708   2.767  15.042 -0.0472 -0.3172  0.1066
 4908SOL    HW126186   3.803   2.769  15.032 -0.0660  0.1745  0.0484
 4908SOL    HW226187   3.694   2.794  15.133 -0.2583  0.0422 -0.0352
 4909SOL     OW26188   2.083   2.346   2.354 -0.4257  0.1331  0.4402
 4909SOL    HW126189   2.047   2.404   2.422 -1.0969  1.2613 -0.8772
 4909SOL    HW226190   2.007   2.289   2.346 -0.6575  0.3650  0.9351
 4910SOL     OW26191   1.527   2.255  11.512 -0.2399  0.3146 -0.2057
 4910SOL    HW126192   1.454   2.317  11.520 -0.7536 -0.2067 -0.8489
 4910SOL    HW226193   1.590   2.303  11.567 -0.4777  2.0919 -1.4821
 4911SOL     OW26194   1.716   1.630   5.082  0.7078  0.0251  0.1094
 4911SOL    HW126195   1.685   1.692   5.148  0.4526 -1.0234  0.9890
 4911SOL    HW226196   1.759   1.560   5.133  1.6797  2.2119  2.2759
 4912SOL     OW26197   0.358   4.145   3.505  0.7293  0.9247 -0.1079
 4912SOL    HW126198   0.415   4.078   3.467  0.9914 -0.4380  2.6341
 4912SOL    HW226199   0.293   4.143   3.435  1.7319 -0.2025 -1.0112
 4913SOL     OW26200   4.240   1.417   6.711  0.2952 -0.6800  0.5042
 4913SOL    HW126201   4.257   1.440   6.802  1.1048 -0.7185  0.3627
 4913SOL    HW226202   4.148   1.443   6.707  0.2459 -0.8320  0.6573
 4914SOL     OW26203   0.003   3.468  11.288  0.1494 -0.3192  0.7178
 4914SOL    HW126204   0.048   3.428  11.214 -0.3200 -1.0309  0.8110
 4914SOL    HW226205   0.056   3.544  11.308 -0.7810 -0.1685  2.6724
 4915SOL     OW26206   2.649   0.402   1.628  0.0887 -0.7277 -0.2851
 4915SOL    HW126207   2.587   0.356   1.571 -0.9481 -1.1228  1.1428
 4915SOL    HW226208   2.592   0.380   1.702 -0.2592  1.1163 -0.0120
 4916SOL     OW26209   3.081   3.142  11.783 -0.1768 -0.7324 -0.1301
 4916SOL    HW126210   3.111   3.098  11.863 -0.8081 -0.0986  0.4513
 4916SOL    HW226211   3.037   3.064  11.749 -1.6522 -0.5828  1.4187
 4917SOL     OW26212   1.647   0.292   3.615 -0.0366  0.3271 -0.4347
 4917SOL    HW126213   1.679   0.206   3.641 -1.0018  0.5622  1.5565
 4917SOL    HW226214   1.711   0.355   3.649  1.0551 -0.0014 -1.8398
 4918SOL     OW26215   2.588   2.737   7.834  0.2104  0.4822 -0.7695
 4918SOL    HW126216   2.613   2.644   7.840  0.1033  0.7094  2.8483
 4918SOL    HW226217   2.669   2.781   7.861 -0.3841  0.2319  1.3729
 4919SOL     OW26218   2.137   3.770   9.101 -0.1003 -0.1345 -0.2390
 4919SOL    HW126219   2.213   3.748   9.155 -0.2889  0.3205  0.2120
 4919SOL    HW226220   2.084   3.829   9.154 -1.4668 -2.1556  0.6387
 4920SOL     OW26221   4.617   4.158   3.904  0.1278 -0.3585 -0.2583
 4920SOL    HW126222   4.563   4.100   3.957  1.5241 -1.2717  0.1456
 4920SOL    HW226223   4.597   4.133   3.813 -1.9555 -0.9425  0.3657
 4921SOL     OW26224   1.227   3.032  10.558 -0.2760  0.0953 -0.1004
 4921SOL    HW126225   1.323   3.028  10.561 -0.1891  2.8819  1.6132
 4921SOL    HW226226   1.215   3.080  10.476  0.4549 -1.7457 -1.2741
 4922SOL     OW26227   4.272   4.112   2.143  0.4049  0.0312  0.0633
 4922SOL    HW126228   4.215   4.179   2.183 -0.1955 -0.2139 -0.3786
 4922SOL    HW226229   4.210   4.054   2.099  1.2200 -1.5527  0.9963
 4923SOL     OW26230   3.570   2.115   6.542  0.1581  0.2068  0.3992
 4923SOL    HW126231   3.559   2.053   6.614 -1.7636  1.9219  1.5795
 4923SOL    HW226232   3.499   2.082   6.487 -0.5862  2.3816  0.0586
 4924SOL     OW26233   3.688   1.577   5.842 -0.0206 -0.0188 -0.8827
 4924SOL    HW126234   3.612   1.527   5.810 -1.3334  1.6754 -0.4156
 4924SOL    HW226235   3.741   1.506   5.880 -1.6423 -0.9910 -0.4179
 4925SOL     OW26236   2.250   4.445   6.031 -0.3991 -0.5926  0.2541
 4925SOL    HW126237   2.190   4.447   5.956 -2.3291  2.9592  1.8876
 4925SOL    HW226238   2.199   4.375   6.072  1.0037  0.5352  3.8327
 4926SOL     OW26239   1.717   1.424   2.894  0.7220 -0.0055 -0.2548
 4926SOL    HW126240   1.675   1.450   2.976  0.2291  2.8997 -1.4362
 4926SOL    HW226241   1.774   1.497   2.869 -0.9125  1.7681  1.2113
 4927SOL     OW26242   1.171   1.133  17.637  0.1874  0.5162 -0.6897
 4927SOL    HW126243   1.248   1.101  17.590  1.9104  0.6125  2.0546
 4927SOL    HW226244   1.138   1.051  17.672  0.8165  1.2291  1.5905
 4928SOL     OW26245   2.896   2.892   4.771 -0.0515 -0.1455 -0.0624
 4928SOL    HW126246   2.971   2.886   4.712  0.6416  0.9383  0.6973
 4928SOL    HW226247   2.910   2.983   4.800 -0.3011 -0.1859  0.1904
 4929SOL     OW26248   0.242   2.225  14.279  0.0687  0.1428 -0.5068
 4929SOL    HW126249   0.192   2.185  14.351 -1.6344 -0.1427 -1.8450
 4929SOL    HW226250   0.172   2.273  14.235  0.0506  0.5378 -0.0425
 4930SOL     OW26251   4.662   1.872   4.346 -0.5530  0.2801  0.6672
 4930SOL    HW126252   4.587   1.813   4.336 -1.7439  2.1234 -1.4591
 4930SOL    HW226253   4.637   1.934   4.414 -2.6405  0.5613 -0.3436
 4931SOL     OW26254   1.765   0.699   7.877 -0.2669 -0.1975  0.1697
 4931SOL    HW126255   1.755   0.669   7.967 -0.1399 -1.8169 -0.3685
 4931SOL    HW226256   1.776   0.793   7.892 -0.2121 -0.5879  2.4932
 4932SOL     OW26257   1.970   1.114   5.425  0.1055 -0.3136 -0.4688
 4932SOL    HW126258   1.928   1.199   5.441  0.8190  0.0037 -0.2597
 4932SOL    HW226259   1.899   1.058   5.456  0.8828 -0.9279  0.2059
 4933SOL     OW26260   0.901   4.156   2.811 -0.0730  0.6249  0.5347
 4933SOL    HW126261   0.918   4.164   2.717  0.5001  2.0379  0.7715
 4933SOL    HW226262   0.921   4.246   2.835  0.5927  0.0461  2.1312
 4934SOL     OW26263   3.956   0.600   7.644 -0.0421  0.5492 -0.5594
 4934SOL    HW126264   3.875   0.632   7.685 -0.7249 -1.7305 -0.1146
 4934SOL    HW226265   3.963   0.676   7.586  0.3835  1.6915  0.9559
 4935SOL     OW26266   0.314   0.441   2.043 -0.5284 -0.3141  0.5203
 4935SOL    HW126267   0.379   0.402   2.102 -2.1948 -1.1393  1.7850
 4935SOL    HW226268   0.256   0.369   2.017  0.6617 -0.5304 -1.5807
 4936SOL     OW26269   1.072   2.385   6.040  0.0128 -0.2406 -0.2523
 4936SOL    HW126270   1.004   2.357   5.979 -0.9051  1.5835 -0.0628
 4936SOL    HW226271   1.069   2.310   6.100  0.7095  0.3253  0.4801
 4937SOL     OW26272   1.323   4.418   4.669 -0.0871 -0.2565 -0.5485
 4937SOL    HW126273   1.272   4.428   4.750  0.4280  2.6142 -0.6105
 4937SOL    HW226274   1.253   4.388   4.611 -0.1989  1.4145 -1.2514
 4938SOL     OW26275   1.200   3.685   4.234 -0.3416 -0.2801 -0.2963
 4938SOL    HW126276   1.262   3.612   4.233  1.3080  1.0856  2.0468
 4938SOL    HW226277   1.131   3.642   4.283 -0.4118  1.8964  1.5120
 4939SOL     OW26278   1.971   3.013  13.442  0.6573  0.2044  0.4284
 4939SOL    HW126279   1.910   3.049  13.507  0.2504 -0.1056  0.2220
 4939SOL    HW226280   2.031   3.085  13.426 -0.0463 -0.1433 -3.7597
 4940SOL     OW26281   2.092   2.463   2.976  0.2551  0.0918  0.0584
 4940SOL    HW126282   2.136   2.409   2.910  1.3233  0.3274  0.5711
 4940SOL    HW226283   2.087   2.552   2.940  0.9871  0.5305  1.0319
 4941SOL     OW26284   0.484   0.053   2.225 -0.4476 -0.2247 -0.4672
 4941SOL    HW126285   0.410   0.103   2.260 -0.3166 -0.0636 -0.4221
 4941SOL    HW226286   0.542   0.122   2.193 -0.7360  0.5762  0.7412
 4942SOL     OW26287   1.609   2.285  12.604 -0.6039  0.3264  0.1267
 4942SOL    HW126288   1.559   2.205  12.618 -0.6481  0.5621  1.3096
 4942SOL    HW226289   1.627   2.278  12.510 -0.5641  1.1868  0.0656
 4943SOL     OW26290   4.647   3.058   4.767  0.0351 -0.3756 -0.8269
 4943SOL    HW126291   0.000   3.116   4.746  0.9063 -0.4983  1.8352
 4943SOL    HW226292   4.644   3.000   4.691 -0.1322  0.0754 -1.1609
 4944SOL     OW26293   3.518   2.985   7.663  0.0020 -0.1987  0.4047
 4944SOL    HW126294   3.586   3.051   7.657 -0.6807  0.7553  3.0839
 4944SOL    HW226295   3.466   3.028   7.731 -0.1907 -1.8941  1.3460
 4945SOL     OW26296   4.084   1.870   5.514  0.1200 -0.5273 -0.2179
 4945SOL    HW126297   4.095   1.852   5.607 -1.4125 -2.5012 -0.4139
 4945SOL    HW226298   4.166   1.918   5.503 -0.3524  0.2926 -0.0977
 4946SOL     OW26299   4.207   2.203   5.992 -0.0668 -0.1351  0.1857
 4946SOL    HW126300   4.168   2.137   6.050  1.5250  0.6255  2.1025
 4946SOL    HW226301   4.181   2.280   6.042  0.9325 -1.3291  2.5711
 4947SOL     OW26302   3.973   1.404  14.056  0.2170  0.1378 -0.1585
 4947SOL    HW126303   3.914   1.438  14.123 -0.3592  0.0785 -0.6406
 4947SOL    HW226304   3.955   1.311  14.063  0.4974  0.0384 -0.7706
 4948SOL     OW26305   1.015   2.852   3.548  0.0738 -0.1212 -0.8461
 4948SOL    HW126306   1.069   2.911   3.495  1.4207  0.6714  1.4238
 4948SOL    HW226307   1.070   2.843   3.626  0.7418 -1.2789 -1.4549
 4949SOL     OW26308   1.217   1.623   2.477  0.2329 -0.5947  0.3559
 4949SOL    HW126309   1.251   1.710   2.498 -1.3169  0.7573 -2.7590
 4949SOL    HW226310   1.150   1.616   2.545  0.2781 -0.5927  0.4005
 4950SOL     OW26311   0.806   2.687   2.303 -0.2801  0.3992  0.4578
 4950SOL    HW126312   0.736   2.624   2.320 -1.6801  2.3453  1.8922
 4950SOL    HW226313   0.756   2.767   2.320 -1.1951  0.0491 -0.5959
 4951SOL     OW26314   3.330   2.206   2.498  0.2425 -0.3320  0.2888
 4951SOL    HW126315   3.367   2.118   2.492  2.2844  0.5356  0.1541
 4951SOL    HW226316   3.304   2.219   2.407  0.6459 -1.3652  0.0222
 4952SOL     OW26317   1.365   1.359   4.108 -0.2019  0.2224 -0.4065
 4952SOL    HW126318   1.336   1.324   4.024 -2.8922 -0.3283  0.7641
 4952SOL    HW226319   1.461   1.358   4.101 -0.3698 -1.2843 -2.4658
 4953SOL     OW26320   0.855   1.255   3.722 -0.5257 -0.0481 -0.5598
 4953SOL    HW126321   0.908   1.184   3.686  0.9326  1.2618 -1.0122
 4953SOL    HW226322   0.787   1.269   3.657  1.8538  2.3195 -2.5397
 4954SOL     OW26323   1.724   3.441  14.736  0.2258  0.2116 -0.1200
 4954SOL    HW126324   1.777   3.415  14.811  2.6744 -0.8840 -2.2164
 4954SOL    HW226325   1.723   3.361  14.683  1.3278  0.7839 -1.0232
 4955SOL     OW26326   0.090   0.486   8.390 -0.0580 -0.4213 -0.4329
 4955SOL    HW126327   0.076   0.566   8.339 -3.8600 -0.4547  0.6246
 4955SOL    HW226328   0.028   0.512   8.458  0.3420 -1.6014  0.3699
 4956SOL     OW26329   1.396   3.639  16.261 -0.4607 -0.3018  0.1006
 4956SOL    HW126330   1.332   3.568  16.260 -0.8707  0.0749  0.0717
 4956SOL    HW226331   1.362   3.704  16.322  1.3798  0.0850  0.7421
 4957SOL     OW26332   0.712   1.502   3.216 -0.6588  0.0145 -0.2445
 4957SOL    HW126333   0.699   1.549   3.133 -0.1855 -0.3027 -0.4980
 4957SOL    HW226334   0.685   1.574   3.273 -0.7610  0.0191 -0.2995
 4958SOL     OW26335   3.906   2.513   9.407  0.4571  0.5937 -0.1064
 4958SOL    HW126336   3.922   2.602   9.378  0.9696  1.4623  2.8792
 4958SOL    HW226337   3.817   2.509   9.443  1.1195 -1.4043  1.3129
 4959SOL     OW26338   0.983   0.836   9.664 -0.1665  0.2236  0.0226
 4959SOL    HW126339   0.989   0.927   9.637 -2.3379  0.4483  0.2438
 4959SOL    HW226340   1.068   0.802   9.692 -0.1187  0.4050  0.0967
 4960SOL     OW26341   1.994   2.969   0.852 -0.1361  0.8360  0.2381
 4960SOL    HW126342   2.031   3.030   0.788  0.0409  0.4139 -0.0653
 4960SOL    HW226343   2.019   2.892   0.801 -1.8601 -0.9207  2.0570
 4961SOL     OW26344   1.094   3.309   9.289  0.6194 -0.0145 -0.9645
 4961SOL    HW126345   1.112   3.358   9.370 -0.1600 -0.0540 -0.7648
 4961SOL    HW226346   1.162   3.242   9.285  0.9375  0.4005 -2.3164
 4962SOL     OW26347   3.517   4.085   4.473 -0.2060  0.4925 -0.2612
 4962SOL    HW126348   3.536   4.008   4.528  0.6206  0.0793 -1.1346
 4962SOL    HW226349   3.426   4.070   4.446 -0.6888  2.7372  0.1715
 4963SOL     OW26350   4.467   3.858   2.437  0.0384 -0.2449  0.9047
 4963SOL    HW126351   4.419   3.934   2.471  1.8510  2.3217 -2.3156
 4963SOL    HW226352   4.537   3.846   2.502 -0.4213  0.8735  1.6096
 4964SOL     OW26353   1.810   1.106   4.403  0.4044  0.1862 -0.6112
 4964SOL    HW126354   1.771   1.100   4.490  0.1461  1.2989 -0.6519
 4964SOL    HW226355   1.742   1.122   4.338  1.7140  1.5108 -1.6341
 4965SOL     OW26356   0.389   1.558   7.635  1.0197 -0.4813 -0.2011
 4965SOL    HW126357   0.425   1.564   7.547 -0.0703 -2.5509 -0.7797
 4965SOL    HW226358   0.347   1.472   7.633  1.5341 -0.7885  1.6689
 4966SOL     OW26359   1.542   3.174   1.086  0.0435  0.0367 -0.3937
 4966SOL    HW126360   1.589   3.138   1.011 -0.0138  0.6473 -0.7259
 4966SOL    HW226361   1.450   3.160   1.062 -0.2768 -0.1194  0.9137
 4967SOL     OW26362   1.583   2.999   4.318 -0.7339  0.6166  0.3978
 4967SOL    HW126363   1.507   2.988   4.260 -1.7290 -0.1891  1.8462
 4967SOL    HW226364   1.651   2.943   4.282 -1.7591 -1.5599  1.8739
 4968SOL     OW26365   1.875   3.414   6.585  0.2607  0.0947  0.0452
 4968SOL    HW126366   1.879   3.483   6.520  1.2644  0.8931  0.9616
 4968SOL    HW226367   1.950   3.435   6.641 -0.2591  0.7157  0.5091
 4969SOL     OW26368   2.011   3.470   3.636 -0.3762 -0.0196 -0.5840
 4969SOL    HW126369   2.040   3.419   3.711  0.0177  0.4331 -0.4322
 4969SOL    HW226370   1.944   3.523   3.679  0.1383  0.4431 -0.3616
 4970SOL     OW26371   1.119   4.696  11.885  0.6611  0.2240 -0.4501
 4970SOL    HW126372   1.201   4.683  11.838  0.5173 -3.0943  0.2416
 4970SOL    HW226373   1.149   0.029  11.960  0.3347 -1.9209  1.1837
 4971SOL     OW26374   0.171   0.350   5.717 -0.5152 -0.5268 -0.2730
 4971SOL    HW126375   0.136   0.280   5.772 -1.4413 -0.7783 -1.2009
 4971SOL    HW226376   0.194   0.414   5.785 -0.4828  1.0525 -1.7806
 4972SOL     OW26377   3.464   3.475   0.774 -0.3482  0.5236 -0.0558
 4972SOL    HW126378   3.512   3.539   0.827  1.2488 -1.6332  1.1289
 4972SOL    HW226379   3.479   3.403   0.835  0.3406  1.8848  1.3802
 4973SOL     OW26380   2.061   2.976  10.877 -0.2093  0.1705 -0.4959
 4973SOL    HW126381   2.046   3.071  10.880 -1.3992 -0.0154 -0.4557
 4973SOL    HW226382   2.067   2.964  10.972  1.2451 -0.7052 -0.6983
 4974SOL     OW26383   1.763   2.747  16.468 -0.1339  0.0333 -0.3373
 4974SOL    HW126384   1.705   2.771  16.395  1.1687 -0.8107 -1.6408
 4974SOL    HW226385   1.854   2.747  16.439 -0.0825  2.8297 -0.1577
 4975SOL     OW26386   1.281   3.889   6.127  0.5622 -0.4802  0.0531
 4975SOL    HW126387   1.221   3.819   6.101 -1.4488  1.5422 -0.7047
 4975SOL    HW226388   1.265   3.885   6.221  1.2820 -0.1217  0.1892
 4976SOL     OW26389   1.765   3.498   8.597  0.5015 -0.1418  0.2337
 4976SOL    HW126390   1.739   3.435   8.665 -1.0174 -1.2373 -1.3733
 4976SOL    HW226391   1.860   3.510   8.602  0.6740 -1.5394  0.4433
 4977SOL     OW26392   2.633   4.302   2.313 -0.8289  0.3011  0.5798
 4977SOL    HW126393   2.727   4.294   2.300 -0.8736  0.3581  0.2075
 4977SOL    HW226394   2.628   4.328   2.405  1.1348  0.1023  0.7330
 4978SOL     OW26395   1.066   1.725   5.656  0.2663 -0.1292 -0.4030
 4978SOL    HW126396   1.001   1.658   5.634 -0.1753  0.2241 -0.1711
 4978SOL    HW226397   1.132   1.695   5.594 -1.9393  1.5862 -3.5596
 4979SOL     OW26398   4.313   0.565  11.644 -0.5040 -0.7204  0.2777
 4979SOL    HW126399   4.255   0.634  11.612  2.1981  0.7871 -1.3682
 4979SOL    HW226400   4.395   0.614  11.644 -0.4946 -0.7366  0.4586
 4980SOL     OW26401   0.592   0.521  11.878  0.0212  0.0336  0.0414
 4980SOL    HW126402   0.576   0.427  11.876  0.6977 -0.1111  1.3290
 4980SOL    HW226403   0.639   0.539  11.797 -1.5969  2.1553 -0.4033
 4981SOL     OW26404   2.241   1.964   7.689  0.6343 -0.3961 -0.1754
 4981SOL    HW126405   2.152   1.933   7.669  0.6362  0.4691 -1.5266
 4981SOL    HW226406   2.286   1.887   7.655  1.4908  1.3965 -3.0231
 4982SOL     OW26407   3.998   1.697   8.401 -0.3357 -0.0597 -0.6155
 4982SOL    HW126408   4.044   1.760   8.345  0.8618 -0.6069 -0.2519
 4982SOL    HW226409   4.066   1.682   8.467  0.1704 -0.9605 -1.3451
 4983SOL     OW26410   3.727   1.382   9.149 -0.0671 -0.4278 -0.6915
 4983SOL    HW126411   3.707   1.351   9.061  3.9723 -0.6699 -1.5209
 4983SOL    HW226412   3.649   1.346   9.191 -0.2242  1.4710  0.6573
 4984SOL     OW26413   1.360   2.761   9.488 -0.5092 -0.0385 -0.1839
 4984SOL    HW126414   1.432   2.725   9.436 -0.8044  0.5376 -0.9877
 4984SOL    HW226415   1.413   2.822   9.539 -1.9511  1.2049 -0.1662
 4985SOL     OW26416   0.456   2.990   8.751  0.2604 -0.4347  0.3303
 4985SOL    HW126417   0.386   3.055   8.755  0.2561 -0.4866  1.0847
 4985SOL    HW226418   0.507   3.010   8.830  1.7800  1.2290 -1.0573
 4986SOL     OW26419   0.343   1.266   6.536 -0.7600  0.0052  0.2861
 4986SOL    HW126420   0.411   1.311   6.486 -0.9579  0.6911  0.6292
 4986SOL    HW226421   0.308   1.208   6.469 -1.5069  2.5485 -1.5421
 4987SOL     OW26422   1.187   3.955   2.615  0.4891  0.6297  0.7477
 4987SOL    HW126423   1.094   3.960   2.596  0.1613 -0.6723  1.9607
 4987SOL    HW226424   1.197   4.024   2.680 -3.4595  2.0928 -0.2711
 4988SOL     OW26425   3.805   4.235  16.661  0.2296  0.0073  0.8096
 4988SOL    HW126426   3.771   4.266  16.745 -0.3369  0.4127  0.4324
 4988SOL    HW226427   3.883   4.186  16.686 -0.2431 -0.7214  0.8543
 4989SOL     OW26428   3.124   1.619  11.226 -0.0459  0.5519 -0.8110
 4989SOL    HW126429   3.120   1.536  11.179 -0.0227  0.1887 -0.1703
 4989SOL    HW226430   3.035   1.650  11.208 -0.2478  0.6971  0.4700
 4990SOL     OW26431   2.940   3.648   1.267  0.7473  0.2698  0.9353
 4990SOL    HW126432   2.911   3.682   1.183  3.3194  1.9936  0.7630
 4990SOL    HW226433   3.030   3.622   1.247  0.4021 -0.6751  0.5954
 4991SOL     OW26434   0.421   4.266   5.211  0.4727  0.2630  0.2988
 4991SOL    HW126435   0.387   4.234   5.294  1.9509  0.2089  0.8922
 4991SOL    HW226436   0.405   4.357   5.237 -1.1986  0.2073 -0.5410
 4992SOL     OW26437   0.328   1.834   3.258 -0.5372 -0.1755  0.7670
 4992SOL    HW126438   0.241   1.854   3.291  0.2350  0.9011  2.1525
 4992SOL    HW226439   0.299   1.808   3.171 -0.0400  0.7428  0.3238
 4993SOL     OW26440   1.471   3.556   7.242 -0.7089  0.2786 -0.2599
 4993SOL    HW126441   1.513   3.537   7.158 -0.4959 -0.0845 -0.0688
 4993SOL    HW226442   1.523   3.630   7.274 -3.2079  1.3795  1.2548
 4994SOL     OW26443   0.632   3.809   3.074  0.3994 -0.0446 -0.0484
 4994SOL    HW126444   0.611   3.782   2.984 -0.3296  0.6180 -0.0767
 4994SOL    HW226445   0.620   3.904   3.067  0.7425  0.0676  0.9927
 4995SOL     OW26446   2.293   2.312   5.073 -0.0304 -0.0337 -0.0851
 4995SOL    HW126447   2.296   2.230   5.024 -0.3995  0.6180 -1.1824
 4995SOL    HW226448   2.258   2.368   5.003  1.4429  3.3430  1.8583
 4996SOL     OW26449   3.213   1.669   7.936  0.1706 -0.2484 -0.0987
 4996SOL    HW126450   3.145   1.675   7.869  1.7526 -0.1322 -1.6739
 4996SOL    HW226451   3.185   1.737   7.998  2.8627  0.5427  0.2449
 4997SOL     OW26452   2.428   1.802   7.897  0.4182 -0.0143 -0.4547
 4997SOL    HW126453   2.344   1.764   7.923  2.4748 -3.1535  1.5862
 4997SOL    HW226454   2.473   1.811   7.981  0.5576 -1.9170 -0.3143
 4998SOL     OW26455   0.548   2.621   9.736 -0.5072 -0.3622  0.2212
 4998SOL    HW126456   0.583   2.696   9.785  1.1526 -1.5762  0.8738
 4998SOL    HW226457   0.614   2.560   9.769  2.6818 -0.1949 -5.9659
 4999SOL     OW26458   1.556   2.991   0.654 -0.2451 -0.4068 -0.0129
 4999SOL    HW126459   1.578   2.948   0.571  0.7695 -0.9715  0.5515
 4999SOL    HW226460   1.535   2.910   0.700 -0.0085 -0.4844 -0.0401
 5000SOL     OW26461   2.627   1.639   9.390 -0.0009 -0.0468 -0.5114
 5000SOL    HW126462   2.665   1.718   9.351 -0.2108  1.3943  2.1538
 5000SOL    HW226463   2.615   1.594   9.307 -0.1064 -1.5180  0.3134
 5001SOL     OW26464   3.229   0.116   7.073 -0.1575 -0.2863  0.1669
 5001SOL    HW126465   3.148   0.143   7.032 -0.8881  0.2185  1.9322
 5001SOL    HW226466   3.287   0.131   6.999  0.7593 -0.9089  0.7506
 5002SOL     OW26467   1.002   1.935   8.949 -0.3013 -0.1771  0.3370
 5002SOL    HW126468   0.975   1.954   9.039 -1.6568 -0.8241  0.0648
 5002SOL    HW226469   1.013   1.840   8.946  1.2829 -0.0046  0.7267
 5003SOL     OW26470   2.413   0.009   6.597  0.3386  0.3106  0.1463
 5003SOL    HW126471   2.324   0.016   6.562  0.2585 -0.7075  0.1480
 5003SOL    HW226472   2.418   0.091   6.646 -1.0710 -0.4001  1.4920
 5004SOL     OW26473   1.418   0.130   4.978  0.3230 -0.2385 -0.7791
 5004SOL    HW126474   1.473   0.132   4.900  0.6263 -0.1463 -0.5652
 5004SOL    HW226475   1.330   0.130   4.941 -0.9942 -0.9175  2.3371
 5005SOL     OW26476   2.982   2.066   9.283  0.2169 -0.2255  0.3193
 5005SOL    HW126477   2.999   1.974   9.261  2.1300  0.4343 -0.9765
 5005SOL    HW226478   3.017   2.107   9.204 -0.1003 -2.0115 -0.7441
 5006SOL     OW26479   3.171   1.046   6.814  0.4301 -0.3855 -0.5414
 5006SOL    HW126480   3.077   1.029   6.808 -0.1271  2.4903 -0.2269
 5006SOL    HW226481   3.172   1.139   6.836 -0.4312 -0.5097  0.0242
 5007SOL     OW26482   4.709   2.119  11.635 -0.6309  0.8802  0.0153
 5007SOL    HW126483   4.666   2.046  11.592  0.8369 -1.5356  2.7154
 5007SOL    HW226484   0.007   2.161  11.550 -3.2375  0.3452 -0.7801
 5008SOL     OW26485   2.496   1.111   1.245  0.2998 -0.0531  0.5610
 5008SOL    HW126486   2.577   1.149   1.211  0.0463  0.4544  0.5258
 5008SOL    HW226487   2.428   1.159   1.198 -0.1245 -0.3928  0.8221
 5009SOL     OW26488   0.668   4.307   1.513 -0.0167 -0.1452  0.2885
 5009SOL    HW126489   0.732   4.297   1.443 -0.9669  1.1145 -0.7533
 5009SOL    HW226490   0.725   4.284   1.587 -0.4832 -0.8238  0.4354
 5010SOL     OW26491   1.531   1.811   1.977 -0.0503  0.3192  0.0753
 5010SOL    HW126492   1.584   1.864   2.037 -1.1808  1.4363  0.1177
 5010SOL    HW226493   1.596   1.758   1.933 -1.5830 -0.5981 -1.0767
 5011SOL     OW26494   1.412   0.237   3.021  0.0621  0.1384  0.6622
 5011SOL    HW126495   1.448   0.197   2.942 -0.7983 -0.2274  0.4552
 5011SOL    HW226496   1.329   0.276   2.996  0.5153  1.4701  1.2146
 5012SOL     OW26497   2.586   1.548   7.751 -0.5210 -0.4307  0.4343
 5012SOL    HW126498   2.622   1.629   7.789 -1.9494 -0.9735  2.9488
 5012SOL    HW226499   2.538   1.507   7.823  0.0830 -1.9091 -0.0187
 5013SOL     OW26500   4.434   1.901   4.694  0.0728 -0.1365 -0.5339
 5013SOL    HW126501   4.495   1.966   4.658  0.9768 -1.8993 -2.1669
 5013SOL    HW226502   4.480   1.819   4.707 -0.3067 -0.0120  1.5641
 5014SOL     OW26503   0.815   2.228   1.643  0.9969  0.0921 -0.7474
 5014SOL    HW126504   0.862   2.283   1.581  0.3688  0.0856 -1.2231
 5014SOL    HW226505   0.764   2.296   1.687  3.5439  0.6967  1.3148
 5015SOL     OW26506   1.142   3.554   8.989  0.6057  0.0686 -0.1749
 5015SOL    HW126507   1.223   3.596   8.961  0.1231  1.5488  0.6865
 5015SOL    HW226508   1.122   3.617   9.058 -1.1346 -1.7652  0.9970
 5016SOL     OW26509   4.609   4.066   3.220  0.4065  0.3955  0.4045
 5016SOL    HW126510   4.578   4.041   3.307 -1.0609 -2.2630 -0.8730
 5016SOL    HW226511   4.682   4.003   3.215 -0.5139 -0.3941 -3.1539
 5017SOL     OW26512   2.737   4.332   8.997  0.7399 -0.2692  0.0213
 5017SOL    HW126513   2.669   4.271   8.969  1.3914 -1.2868  0.6416
 5017SOL    HW226514   2.810   4.274   9.020  1.7149  1.0953  0.3639
 5018SOL     OW26515   4.211   4.615   8.455 -0.1569 -0.0251  0.3053
 5018SOL    HW126516   4.238   4.698   8.415 -2.2413  0.6355  0.2817
 5018SOL    HW226517   4.243   4.557   8.386  0.6837  1.4299 -0.5301
 5019SOL     OW26518   1.891   4.182  17.534  0.1674  0.3332  0.7950
 5019SOL    HW126519   1.983   4.184  17.561 -0.5268 -2.5782  3.3825
 5019SOL    HW226520   1.865   4.267  17.570  0.1954  1.5284 -1.9831
 5020SOL     OW26521   2.471   1.492   9.567  0.1658  0.4871 -0.4018
 5020SOL    HW126522   2.506   1.552   9.501  1.5056  0.6591  0.4722
 5020SOL    HW226523   2.528   1.506   9.642 -0.9858 -0.3802  0.6367
 5021SOL     OW26524   0.879   2.911  13.215  0.1502  0.5819  0.1124
 5021SOL    HW126525   0.930   2.924  13.136 -0.3816  0.0905 -0.3116
 5021SOL    HW226526   0.849   2.996  13.248 -0.7139  0.4299 -0.2918
 5022SOL     OW26527   0.290   3.633   4.940  0.3332  0.3668  0.2360
 5022SOL    HW126528   0.321   3.619   5.029 -3.1228 -0.5244  1.2966
 5022SOL    HW226529   0.324   3.559   4.889  1.3303  1.7021 -1.0439
 5023SOL     OW26530   1.472   2.361   0.381 -0.0354  0.4188  0.0231
 5023SOL    HW126531   1.445   2.333   0.294 -0.3785 -0.5034  0.4223
 5023SOL    HW226532   1.562   2.329   0.390 -0.0536  0.2325 -0.5000
 5024SOL     OW26533   3.716   4.484  15.193  0.0717  0.1128 -0.0404
 5024SOL    HW126534   3.727   4.527  15.278 -0.8476 -4.3264  2.2976
 5024SOL    HW226535   3.797   4.506  15.147 -0.3329  0.5408 -0.5414
 5025SOL     OW26536   4.471   0.698   3.189  0.0359  0.2387  0.2170
 5025SOL    HW126537   4.465   0.647   3.108 -3.4016 -0.9275  1.2339
 5025SOL    HW226538   4.552   0.747   3.170 -0.4629  1.0250  0.1130
 5026SOL     OW26539   2.027   3.970  14.292 -0.7420  0.5133 -0.0151
 5026SOL    HW126540   2.010   4.051  14.339  2.2537 -0.6783  3.1757
 5026SOL    HW226541   2.088   3.923  14.349 -0.7548 -1.3080 -1.4694
 5027SOL     OW26542   4.647   3.285  17.191  0.4624 -0.0525 -0.2351
 5027SOL    HW126543   4.618   3.294  17.100  0.8806 -1.1234 -0.4705
 5027SOL    HW226544   0.006   3.231  17.182 -0.1174 -1.1738  1.3828
 5028SOL     OW26545   1.956   3.490   8.812  0.2315  0.4027  0.0518
 5028SOL    HW126546   1.982   3.582   8.821 -0.6016  0.5728  0.7414
 5028SOL    HW226547   2.035   3.438   8.813  0.9786  1.5664  1.0722
 5029SOL     OW26548   3.746   1.522  15.271  0.1578  0.4313 -0.1405
 5029SOL    HW126549   3.695   1.485  15.198 -0.2348 -0.2999  0.5024
 5029SOL    HW226550   3.738   1.451  15.335  1.1538 -1.7872 -2.4660
 5030SOL     OW26551   3.003   0.340   0.198  0.0058  0.4190 -0.0655
 5030SOL    HW126552   3.029   0.431   0.191 -1.5852  0.8215 -0.7558
 5030SOL    HW226553   2.909   0.356   0.189 -0.1580 -0.4343  0.1061
 5031SOL     OW26554   1.681   4.061   2.942  0.0435  0.8462  0.2200
 5031SOL    HW126555   1.768   4.101   2.931  0.2763  0.0700 -0.7209
 5031SOL    HW226556   1.631   4.101   2.871 -0.9331 -0.8927 -0.0708
 5032SOL     OW26557   3.722   1.379   2.961 -0.1093  0.2244 -0.2643
 5032SOL    HW126558   3.807   1.383   2.916 -0.4799  1.6661 -0.8399
 5032SOL    HW226559   3.659   1.357   2.893 -0.5462  0.9453 -0.0943
 5033SOL     OW26560   1.461   4.237   2.190  0.0468  0.1229  0.2880
 5033SOL    HW126561   1.393   4.300   2.166 -1.5697 -2.1044 -0.9678
 5033SOL    HW226562   1.416   4.191   2.260 -0.1902  0.3988  0.3182
 5034SOL     OW26563   2.794   2.661   9.946 -0.1192  0.4734  0.1225
 5034SOL    HW126564   2.867   2.684  10.004 -0.8636  0.0550  1.2112
 5034SOL    HW226565   2.806   2.566   9.934  2.0604  0.7546 -0.0222
 5035SOL     OW26566   2.606   2.852  14.263 -0.0150 -0.3919  0.0416
 5035SOL    HW126567   2.578   2.911  14.192  1.6780 -0.3817 -0.6047
 5035SOL    HW226568   2.607   2.764  14.225 -2.6795 -0.0414 -0.8667
 5036SOL     OW26569   1.300   3.404   9.506  0.4643 -0.4327 -0.4997
 5036SOL    HW126570   1.346   3.443   9.431  0.3330  0.3629 -0.1630
 5036SOL    HW226571   1.349   3.321   9.508  2.1341  0.5085 -2.0450
 5037SOL     OW26572   1.988   2.280   0.442  0.1650 -0.2742  0.3495
 5037SOL    HW126573   1.951   2.298   0.528 -0.2142  1.9292 -0.2731
 5037SOL    HW226574   2.078   2.257   0.462  1.3359  0.7049 -3.6931
 5038SOL     OW26575   0.028   4.436  17.274 -0.4851 -0.1924 -0.3903
 5038SOL    HW126576   4.672   4.473  17.319  0.8829  0.7045  1.1938
 5038SOL    HW226577   0.070   4.514  17.236 -0.9255 -0.5804 -1.6811
 5039SOL     OW26578   1.384   2.930   7.900  0.1126  0.1650  0.5042
 5039SOL    HW126579   1.428   2.865   7.844  0.3166  1.6305 -1.0305
 5039SOL    HW226580   1.377   2.991   7.827  0.3412  0.4066  0.6841
 5040SOL     OW26581   2.810   4.436   9.272 -0.2526 -0.0485 -0.3261
 5040SOL    HW126582   2.786   4.414   9.182 -0.6245  1.2329 -0.5380
 5040SOL    HW226583   2.906   4.446   9.269 -0.0578 -2.0212 -0.5528
 5041SOL     OW26584   1.166   1.293   6.673 -0.2741 -0.6085 -0.2780
 5041SOL    HW126585   1.198   1.363   6.615 -3.0738 -0.2300 -1.3735
 5041SOL    HW226586   1.179   1.333   6.758  1.1803 -1.1367 -0.2416
 5042SOL     OW26587   2.645   4.291  10.766 -0.4439  0.0423  0.3862
 5042SOL    HW126588   2.600   4.373  10.748  0.4661  0.3832 -0.3799
 5042SOL    HW226589   2.604   4.269  10.849  0.7836 -0.3978  0.8842
 5043SOL     OW26590   0.080   1.423   2.550  0.3108  0.0336 -0.2353
 5043SOL    HW126591   0.034   1.408   2.467  0.5673  0.6982 -0.5060
 5043SOL    HW226592   0.151   1.360   2.539 -0.6470 -0.5521 -3.2200
 5044SOL     OW26593   3.698   0.662   5.383  0.0696 -0.1076  0.3110
 5044SOL    HW126594   3.605   0.679   5.397  0.8595  1.4317  3.7211
 5044SOL    HW226595   3.736   0.745   5.354 -1.2582  0.3958  0.0128
 5045SOL     OW26596   0.449   0.518   6.854 -0.1060  0.2420  0.2253
 5045SOL    HW126597   0.379   0.542   6.793 -0.2090 -1.5795 -0.3511
 5045SOL    HW226598   0.510   0.592   6.845  1.3356 -1.2067 -1.8432
 5046SOL     OW26599   0.731   2.507   6.082  0.5107 -0.0602 -0.1308
 5046SOL    HW126600   0.794   2.574   6.108  0.9454  0.6003 -2.8421
 5046SOL    HW226601   0.669   2.510   6.155  0.4404 -2.3517 -0.0896
 5047SOL     OW26602   4.275   0.933   7.694 -0.5526 -0.1014  0.2411
 5047SOL    HW126603   4.252   0.908   7.783 -1.2497  0.1170  0.1249
 5047SOL    HW226604   4.231   1.018   7.694 -1.7506 -0.7111  1.0093
 5048SOL     OW26605   0.688   4.641  13.938  0.4595 -0.2990 -0.1836
 5048SOL    HW126606   0.672   4.610  14.028 -0.9196 -0.9039 -0.6409
 5048SOL    HW226607   0.597   4.656  13.913  0.6748  0.4298 -0.5136
 5049SOL     OW26608   1.766   4.196   2.701  0.2156 -0.3276 -0.0312
 5049SOL    HW126609   1.672   4.215   2.706  0.3755  0.2828  0.7057
 5049SOL    HW226610   1.809   4.281   2.693  0.0601 -0.1025  1.5273
 5050SOL     OW26611   2.706   2.691   2.195  0.5493  0.2131  0.0181
 5050SOL    HW126612   2.655   2.669   2.117 -0.4729  0.7796  0.5251
 5050SOL    HW226613   2.775   2.624   2.193 -0.8219 -1.2729  2.5447
 5051SOL     OW26614   3.988   4.107   1.744 -0.3805  0.3463 -0.1306
 5051SOL    HW126615   3.898   4.139   1.735  0.3521  2.4133 -0.2655
 5051SOL    HW226616   4.030   4.169   1.684 -3.1041  0.5190 -1.8712
 5052SOL     OW26617   1.872   3.559   5.364 -0.5977 -0.3767  0.0900
 5052SOL    HW126618   1.946   3.503   5.342 -0.2090 -0.6146  2.0094
 5052SOL    HW226619   1.817   3.549   5.287 -2.3748 -1.0428  1.4506
 5053SOL     OW26620   2.477   2.393   7.117  0.4533 -0.2827 -0.0403
 5053SOL    HW126621   2.492   2.298   7.126  1.7826 -0.0082  0.7533
 5053SOL    HW226622   2.382   2.401   7.112  0.4698 -0.1231 -0.0761
 5054SOL     OW26623   1.146   0.514   0.504 -0.0908 -0.0218 -0.4752
 5054SOL    HW126624   1.226   0.566   0.514  0.8615 -1.6477  0.4686
 5054SOL    HW226625   1.097   0.538   0.583  1.9697 -2.8559  1.7129
 5055SOL     OW26626   1.049   1.020   7.050  0.2057 -0.4622 -0.0257
 5055SOL    HW126627   1.050   1.108   7.086  0.4524 -0.2058 -0.6641
 5055SOL    HW226628   1.040   0.965   7.128  0.6584 -1.3851 -0.6202
 5056SOL     OW26629   3.599   3.140   1.376 -0.1408  0.5590 -0.1426
 5056SOL    HW126630   3.519   3.167   1.331 -0.1797  0.0971 -0.3473
 5056SOL    HW226631   3.671   3.175   1.323  0.0197 -0.7236 -0.7576
 5057SOL     OW26632   0.803   1.686   2.381  0.2764  0.5984 -0.6488
 5057SOL    HW126633   0.881   1.734   2.354  0.4485 -0.4907 -2.0920
 5057SOL    HW226634   0.830   1.599   2.353  1.3071  0.3919  1.0029
 5058SOL     OW26635   1.746   0.957   3.710 -0.1119  0.3153 -0.1919
 5058SOL    HW126636   1.712   0.870   3.732  0.1601  0.1570 -0.3952
 5058SOL    HW226637   1.838   0.935   3.724 -0.2432 -1.0516 -1.4934
 5059SOL     OW26638   3.148   0.266   9.829 -0.3994 -0.3634  0.5347
 5059SOL    HW126639   3.134   0.171   9.820 -0.5820 -0.2410 -0.4762
 5059SOL    HW226640   3.217   0.268   9.895  0.8304 -2.6549 -0.6782
 5060SOL     OW26641   1.705   3.498   7.630 -0.2534 -0.0259 -0.1162
 5060SOL    HW126642   1.627   3.551   7.613  0.6413  1.1131 -0.6513
 5060SOL    HW226643   1.750   3.547   7.699  2.9017  1.5122 -3.2274
 5061SOL     OW26644   3.020   2.423   6.200 -0.2517  0.1048 -0.8041
 5061SOL    HW126645   3.072   2.399   6.124  0.9055 -0.1799  0.0802
 5061SOL    HW226646   2.929   2.401   6.180 -0.0657 -0.5024 -0.9588
 5062SOL     OW26647   4.125   3.880   5.443  0.0068 -0.3824 -0.2157
 5062SOL    HW126648   4.205   3.875   5.494  0.4816 -1.3852 -1.0622
 5062SOL    HW226649   4.162   3.933   5.373 -0.3839  0.2744  0.0723
 5063SOL     OW26650   1.284   0.494   1.074  0.4973  0.0841 -0.7706
 5063SOL    HW126651   1.243   0.479   0.989 -2.8985  0.2807  0.8524
 5063SOL    HW226652   1.371   0.513   1.038  0.6071 -0.6989 -0.9142
 5064SOL     OW26653   0.237   2.806   9.303 -0.4298  0.1583  0.0285
 5064SOL    HW126654   0.214   2.759   9.384  0.3686  0.1438  0.2446
 5064SOL    HW226655   0.228   2.894   9.340 -0.9435  0.6306 -1.2433
 5065SOL     OW26656   0.344   1.641   2.781 -0.1624 -0.0860  0.1902
 5065SOL    HW126657   0.405   1.705   2.745 -1.0455 -0.2621 -1.5956
 5065SOL    HW226658   0.393   1.563   2.755 -0.0063  1.1002 -2.9889
 5066SOL     OW26659   3.235   1.418   5.887 -0.1611 -0.0054 -0.5525
 5066SOL    HW126660   3.172   1.348   5.868 -0.1642  0.2386 -1.4608
 5066SOL    HW226661   3.290   1.384   5.957  0.1350 -0.4671 -1.0022
 5067SOL     OW26662   0.591   0.311   2.186  0.3336 -0.1647 -0.0669
 5067SOL    HW126663   0.670   0.365   2.193 -0.2091  0.7893 -1.3891
 5067SOL    HW226664   0.539   0.361   2.249 -0.2291  0.9552 -1.4141
 5068SOL     OW26665   3.210   4.669   6.768  0.0458 -0.7339 -0.0674
 5068SOL    HW126666   3.279   0.011   6.790 -1.0849  0.1431  1.0212
 5068SOL    HW226667   3.243   4.593   6.816  2.3804  0.3497  0.0524
 5069SOL     OW26668   3.854   2.405  10.593  0.0177  0.8529  0.2261
 5069SOL    HW126669   3.764   2.382  10.571 -0.1471  2.4096 -0.7616
 5069SOL    HW226670   3.850   2.465  10.668  3.3918  0.4730  0.7072
 5070SOL     OW26671   2.413   0.523   8.915  0.0124 -0.1915  0.2604
 5070SOL    HW126672   2.443   0.504   8.826 -0.7713 -0.9280  0.1497
 5070SOL    HW226673   2.382   0.433   8.924 -1.5264  0.2105 -0.9105
 5071SOL     OW26674   2.226   3.941  11.028 -0.1409 -0.9580 -0.5106
 5071SOL    HW126675   2.302   3.984  10.988  0.2371 -1.6949 -0.5826
 5071SOL    HW226676   2.209   4.005  11.098 -0.6048 -2.0586  0.3873
 5072SOL     OW26677   2.926   1.764   3.545  0.1562 -0.4259  0.1760
 5072SOL    HW126678   2.997   1.709   3.511 -0.3931 -1.9728  1.4860
 5072SOL    HW226679   2.971   1.847   3.534  0.7524 -1.1035 -2.4248
 5073SOL     OW26680   2.160   4.108   3.222 -0.2619 -0.1826 -0.1490
 5073SOL    HW126681   2.143   4.018   3.251  2.8614 -0.3771  1.0753
 5073SOL    HW226682   2.079   4.140   3.260  0.5111 -0.1007  1.4231
 5074SOL     OW26683   0.802   1.390  10.306  0.0561 -0.0847 -0.3754
 5074SOL    HW126684   0.851   1.391  10.224 -2.3702 -2.9174 -1.8276
 5074SOL    HW226685   0.712   1.404  10.277 -0.1249  1.2452  0.7749
 5075SOL     OW26686   3.643   4.212  10.995 -0.1071  0.2403  0.2560
 5075SOL    HW126687   3.653   4.155  10.919  2.2062 -1.3667  1.7684
 5075SOL    HW226688   3.557   4.249  10.973 -2.3188 -2.6330  4.0671
 5076SOL     OW26689   1.563   4.220   8.565 -0.3827  0.4758 -0.4121
 5076SOL    HW126690   1.497   4.152   8.579 -0.0978  0.3096  0.1622
 5076SOL    HW226691   1.593   4.239   8.654 -0.1516  1.1334 -0.6311
 5077SOL     OW26692   0.151   2.275   3.685 -0.0391 -0.1464  0.0664
 5077SOL    HW126693   0.144   2.289   3.780 -1.5391  1.5117 -0.2790
 5077SOL    HW226694   0.142   2.359   3.640  1.2731 -0.0332  0.0041
 5078SOL     OW26695   1.611   4.273   1.479 -0.2115  0.3516  0.1336
 5078SOL    HW126696   1.559   4.348   1.506  2.0973  1.8640  0.3355
 5078SOL    HW226697   1.551   4.200   1.497  1.2256 -1.2295 -1.4005
 5079SOL     OW26698   2.643   3.260   2.177 -0.2257  0.5218 -0.0484
 5079SOL    HW126699   2.722   3.291   2.133 -1.1706  2.1444 -0.5670
 5079SOL    HW226700   2.670   3.168   2.176 -2.6164 -0.1741 -0.8696
 5080SOL     OW26701   3.735   4.690   4.578 -0.0225 -0.1043 -0.0872
 5080SOL    HW126702   3.644   4.719   4.588  0.3483  0.1685  2.4158
 5080SOL    HW226703   3.768   0.001   4.662  1.3143  1.2969 -1.1209
 5081SOL     OW26704   3.883   1.659   7.944  0.5651  0.0662 -0.4430
 5081SOL    HW126705   3.923   1.677   7.859  0.4231 -2.3243 -1.0087
 5081SOL    HW226706   3.946   1.594   7.976  0.0222  0.0757  0.6263
 5082SOL     OW26707   1.878   0.562   5.223 -0.0207  0.6420 -0.1404
 5082SOL    HW126708   1.887   0.550   5.129  0.3170 -1.4647  0.1774
 5082SOL    HW226709   1.819   0.488   5.233  1.1659 -0.3013 -0.0650
 5083SOL     OW26710   4.610   3.795  14.119  0.8054  0.6464 -0.4029
 5083SOL    HW126711   4.681   3.848  14.156 -0.4024  0.6050  1.9682
 5083SOL    HW226712   4.661   3.741  14.058 -2.2873 -2.2449 -0.4292
 5084SOL     OW26713   1.596   2.180   8.699  0.1546  0.2010  0.4002
 5084SOL    HW126714   1.518   2.191   8.753 -1.8353 -0.7344 -2.2626
 5084SOL    HW226715   1.622   2.272   8.696  1.6965 -0.1962  1.6878
 5085SOL     OW26716   2.020   3.506  17.432  1.0383 -0.2390  0.2998
 5085SOL    HW126717   1.978   3.437  17.483 -0.2457  2.6933  3.2651
 5085SOL    HW226718   2.076   3.547  17.498 -0.9001  1.6188  0.8040
 5086SOL     OW26719   3.393   1.001   5.513 -0.3689  0.0812  0.6235
 5086SOL    HW126720   3.467   1.023   5.570  0.7047  0.6367 -0.9673
 5086SOL    HW226721   3.394   0.906   5.502 -0.4270  0.1012  0.4479
 5087SOL     OW26722   1.539   3.547   6.157 -0.4399 -0.3422 -0.0220
 5087SOL    HW126723   1.555   3.636   6.189  3.0197 -0.0729 -2.4179
 5087SOL    HW226724   1.629   3.534   6.126  0.4711  1.5008  1.8643
 5088SOL     OW26725   3.135   2.458   9.004 -0.0427  0.2647 -0.0020
 5088SOL    HW126726   3.041   2.471   9.019 -0.5636 -0.4696 -2.6906
 5088SOL    HW226727   3.150   2.368   9.030  2.4717  1.2908  2.0562
 5089SOL     OW26728   2.168   0.493  16.949 -0.0047  0.4263 -0.0991
 5089SOL    HW126729   2.125   0.544  17.018 -0.1406 -0.2786  0.3302
 5089SOL    HW226730   2.171   0.563  16.884 -0.1449 -0.0838 -0.6549
 5090SOL     OW26731   0.015   4.186  16.773  0.3455 -0.2409 -0.0684
 5090SOL    HW126732   0.045   4.274  16.750 -0.6347  0.2102  0.3403
 5090SOL    HW226733   4.660   4.182  16.713 -0.1612  1.3178  0.4510
 5091SOL     OW26734   0.128   3.375  11.066  0.4091  0.3770  0.3237
 5091SOL    HW126735   0.052   3.345  11.015  0.4822  0.1043  0.3725
 5091SOL    HW226736   0.205   3.351  11.013 -0.8278  1.9462 -2.1646
 5092SOL     OW26737   1.109   0.685   4.070 -0.6653 -0.1114 -0.3039
 5092SOL    HW126738   1.151   0.770   4.086  1.0110 -1.1554  0.7819
 5092SOL    HW226739   1.181   0.654   4.014 -0.6374 -0.1793 -0.2297
 5093SOL     OW26740   4.463   0.397   7.091 -0.2317  0.0223  0.2175
 5093SOL    HW126741   4.528   0.408   7.022  2.8434  1.5982  3.3913
 5093SOL    HW226742   4.471   0.302   7.100  1.8487  0.2183  0.3625
 5094SOL     OW26743   2.377   1.187  16.871 -0.4374  0.1715 -0.1907
 5094SOL    HW126744   2.465   1.211  16.843  0.0797  1.0896  2.2511
 5094SOL    HW226745   2.374   1.092  16.865 -1.5135  0.2974 -1.8784
 5095SOL     OW26746   0.995   2.718  16.153  0.0143  0.0331 -0.2468
 5095SOL    HW126747   0.961   2.639  16.195 -0.7822 -0.6269 -2.1266
 5095SOL    HW226748   0.971   2.693  16.064 -0.0770  1.0381 -0.4999
 5096SOL     OW26749   0.191   3.134   8.132  0.4773  0.0149 -0.7291
 5096SOL    HW126750   0.154   3.212   8.090 -0.2670 -0.2803 -0.6305
 5096SOL    HW226751   0.190   3.070   8.061 -0.7592  0.6038 -1.2391
 5097SOL     OW26752   0.920   3.440   0.012  0.4557 -0.2387 -0.3940
 5097SOL    HW126753   0.890   3.470  17.608  0.8755 -0.1125 -0.4943
 5097SOL    HW226754   1.014   3.456   0.005  0.0509  1.3536 -2.0629
 5098SOL     OW26755   1.370   1.292  16.214 -0.3663  0.4985 -0.1653
 5098SOL    HW126756   1.420   1.367  16.247  0.6188  0.3473 -1.3256
 5098SOL    HW226757   1.289   1.339  16.197 -0.9399 -1.4886 -2.9066
 5099SOL     OW26758   4.276   3.705  10.874  0.5118  0.0682  0.0014
 5099SOL    HW126759   4.264   3.649  10.951  0.8357 -1.3064 -0.9538
 5099SOL    HW226760   4.203   3.679  10.817 -1.0902 -1.5985  2.8215
 5100SOL     OW26761   1.367   3.987   0.567 -0.2104  0.2002  0.1270
 5100SOL    HW126762   1.455   3.995   0.605  0.4553 -1.0483 -1.1557
 5100SOL    HW226763   1.333   4.076   0.574  0.1170  0.3527 -0.2423
 5101SOL     OW26764   4.504   3.324   6.927  0.7578  0.0654  0.5154
 5101SOL    HW126765   4.537   3.321   7.016  0.3494 -0.4035  0.6530
 5101SOL    HW226766   4.496   3.231   6.904 -0.3760 -0.3208  2.5499
 5102SOL     OW26767   2.547   1.905  13.418  0.2324  0.0463 -0.4322
 5102SOL    HW126768   2.615   1.972  13.423 -1.2173  1.4880  0.0243
 5102SOL    HW226769   2.519   1.889  13.508 -1.1941 -0.9532 -1.0555
 5103SOL     OW26770   3.165   2.533  10.317  0.4210  0.8626  0.0214
 5103SOL    HW126771   3.247   2.582  10.319  0.7916  0.2490 -0.1049
 5103SOL    HW226772   3.190   2.441  10.308 -2.0036  0.0898  1.2979
 5104SOL     OW26773   2.436   1.344   5.722 -0.3924  0.6503 -0.2908
 5104SOL    HW126774   2.429   1.358   5.817 -0.3490 -0.0586 -0.1788
 5104SOL    HW226775   2.361   1.286   5.709 -0.4033  0.5411  0.2212
 5105SOL     OW26776   4.477   2.377   9.740  0.7360  0.7691  0.4775
 5105SOL    HW126777   4.440   2.455   9.780 -0.3921  1.3348 -1.6712
 5105SOL    HW226778   4.541   2.353   9.807  0.4477  0.2228  0.5609
 5106SOL     OW26779   0.024   2.547   6.100  0.2518  0.1417 -0.2386
 5106SOL    HW126780   4.662   2.516   6.061  0.0747  0.8483 -0.4251
 5106SOL    HW226781   0.084   2.480   6.065  2.1308  0.7176  1.8813
 5107SOL     OW26782   3.104   3.513  10.717  0.0828 -0.1259  0.0194
 5107SOL    HW126783   3.143   3.449  10.658 -1.1649 -2.0216  1.2300
 5107SOL    HW226784   3.164   3.508  10.792 -0.5042 -0.4559  0.4759
 5108SOL     OW26785   3.970   2.800   4.953 -0.1511 -0.0550  0.4505
 5108SOL    HW126786   3.891   2.749   4.937 -0.0936  0.6949 -2.1252
 5108SOL    HW226787   3.956   2.874   4.894  0.4984 -0.5487 -0.3237
 5109SOL     OW26788   0.459   4.417   6.040  0.4627  0.0488 -0.6457
 5109SOL    HW126789   0.418   4.473   6.106  2.7101  0.3023  0.5542
 5109SOL    HW226790   0.394   4.353   6.010 -0.0391  0.5761 -0.6892
 5110SOL     OW26791   1.763   4.204   0.944  0.4461  0.9800  0.5400
 5110SOL    HW126792   1.673   4.236   0.948 -0.3851 -1.4150  0.7347
 5110SOL    HW226793   1.765   4.109   0.945 -0.8538  0.9245 -1.3855
 5111SOL     OW26794   0.845   4.020   5.620  0.6345  0.3907 -0.3206
 5111SOL    HW126795   0.779   3.996   5.686  2.2582 -1.0846  0.7606
 5111SOL    HW226796   0.842   3.941   5.566 -0.0872  0.1978 -0.0122
 5112SOL     OW26797   1.285   0.524   4.470 -0.2701 -0.2082  0.0814
 5112SOL    HW126798   1.218   0.570   4.419  1.3657  0.5351 -1.3770
 5112SOL    HW226799   1.220   0.479   4.525  0.9517  0.4401  2.0772
 5113SOL     OW26800   1.920   3.520   2.895  0.2364 -0.1242 -0.3908
 5113SOL    HW126801   1.941   3.498   2.986 -0.0979  1.7487  0.1411
 5113SOL    HW226802   1.878   3.605   2.902  0.2242 -0.1765  0.1613
 5114SOL     OW26803   4.606   4.161   0.588 -0.6085  0.0016 -0.0185
 5114SOL    HW126804   4.693   4.123   0.593 -1.0748 -1.0666  0.0018
 5114SOL    HW226805   4.632   4.247   0.619  0.4410  0.2336 -1.5371
 5115SOL     OW26806   1.637   3.841   2.371  0.4690  0.5165  0.3415
 5115SOL    HW126807   1.574   3.854   2.442  0.4461 -0.4641  0.5001
 5115SOL    HW226808   1.574   3.833   2.299  1.9419 -2.5877 -0.5847
 5116SOL     OW26809   2.184   3.805   4.001 -0.4768  0.0289 -0.3512
 5116SOL    HW126810   2.187   3.888   3.953  0.0562  0.1150 -0.1692
 5116SOL    HW226811   2.243   3.745   3.955 -0.7420  0.1491 -0.8434
 5117SOL     OW26812   1.836   2.238   0.902  0.0238 -0.3806  0.3104
 5117SOL    HW126813   1.745   2.238   0.873 -0.0229 -1.0902  0.4514
 5117SOL    HW226814   1.843   2.314   0.959 -0.6490  0.7202 -1.0896
 5118SOL     OW26815   0.641   4.509   2.816 -0.1902  0.4317  0.5017
 5118SOL    HW126816   0.587   4.436   2.785  0.4801  0.7705 -1.4004
 5118SOL    HW226817   0.726   4.467   2.828 -1.3899 -2.0720  0.3236
 5119SOL     OW26818   1.319   4.392  11.671 -0.2938 -0.5258 -0.0840
 5119SOL    HW126819   1.250   4.335  11.703  0.4756 -0.8982  0.9134
 5119SOL    HW226820   1.315   4.466  11.731  0.5679 -0.7205  0.2115
 5120SOL     OW26821   4.364   1.092   8.446 -0.1589  0.5000 -0.1465
 5120SOL    HW126822   4.346   1.133   8.361  0.6491 -0.9130 -0.9921
 5120SOL    HW226823   4.414   1.159   8.493 -0.1193 -0.8813  1.7766
 5121SOL     OW26824   3.667   0.742   8.459 -0.3488 -0.0326  0.4297
 5121SOL    HW126825   3.622   0.723   8.541  0.6097  1.1698  1.2263
 5121SOL    HW226826   3.592   0.778   8.411 -0.2908 -1.4748 -0.7541
 5122SOL     OW26827   3.015   1.389   4.734 -0.1283  0.0410 -0.4875
 5122SOL    HW126828   2.996   1.298   4.757  1.0575 -0.1243 -0.1144
 5122SOL    HW226829   2.940   1.434   4.772 -0.8608  1.1863 -3.3158
 5123SOL     OW26830   4.068   2.546   8.032  0.4083 -0.6939  0.1215
 5123SOL    HW126831   4.088   2.460   7.994  2.3874  0.0087 -0.4151
 5123SOL    HW226832   4.068   2.524   8.125 -2.2577 -0.7785  0.0950
 5124SOL     OW26833   1.518   1.581  12.689 -0.2220 -0.1694 -0.5933
 5124SOL    HW126834   1.590   1.527  12.723  0.8294  1.4335 -0.2534
 5124SOL    HW226835   1.552   1.587  12.600 -0.0596  1.2967 -0.4414
 5125SOL     OW26836   3.607   0.910   6.047  0.5082 -0.2935  0.1461
 5125SOL    HW126837   3.607   0.900   6.142 -0.4158 -3.5688 -0.2167
 5125SOL    HW226838   3.513   0.924   6.032  0.6451  2.2428  1.6056
 5126SOL     OW26839   0.012   0.733   1.769  0.5311  0.7670 -0.0534
 5126SOL    HW126840   0.078   0.665   1.760 -1.3049 -1.0940  0.7543
 5126SOL    HW226841   4.701   0.739   1.679 -2.0568 -1.4792  0.6731
 5127SOL     OW26842   1.379   0.740   6.831  0.0295  0.2917  0.0682
 5127SOL    HW126843   1.434   0.713   6.904  1.0479  0.9307 -0.4707
 5127SOL    HW226844   1.412   0.828   6.814  1.6740 -1.0645 -3.7550
 5128SOL     OW26845   0.700   2.399  13.162 -0.2434  0.4198  0.4321
 5128SOL    HW126846   0.668   2.487  13.181  1.1695  0.8774  0.6833
 5128SOL    HW226847   0.641   2.371  13.092 -0.9201 -1.0264  1.5873
 5129SOL     OW26848   2.307   2.997   7.779  0.3869 -0.5462 -0.6468
 5129SOL    HW126849   2.329   2.951   7.860  1.1287 -0.7940 -0.9856
 5129SOL    HW226850   2.377   2.962   7.723 -2.3017 -4.8032 -1.3169
 5130SOL     OW26851   0.720   2.304  17.566  0.0576  0.4767  0.1373
 5130SOL    HW126852   0.746   2.212  17.573 -1.0707  0.0977 -0.5252
 5130SOL    HW226853   0.642   2.299  17.511  0.1563 -0.3919  0.0827
 5131SOL     OW26854   0.779   2.123   4.039  0.4326 -0.3814 -0.1426
 5131SOL    HW126855   0.851   2.168   3.996 -0.0402 -0.0811 -0.6273
 5131SOL    HW226856   0.743   2.076   3.963 -1.0384  1.5440 -0.6550
 5132SOL     OW26857   1.428   3.566   2.607  0.2650  1.1871  0.2073
 5132SOL    HW126858   1.386   3.570   2.694 -0.5447 -2.3257 -0.0474
 5132SOL    HW226859   1.423   3.659   2.584  0.6762  1.5285  1.4782
 5133SOL     OW26860   1.293   1.229   3.880 -0.2853 -0.2623 -0.3225
 5133SOL    HW126861   1.328   1.255   3.795  1.8704 -1.0046  0.3511
 5133SOL    HW226862   1.323   1.138   3.884 -1.1340 -0.6240 -2.0173
 5134SOL     OW26863   2.897   1.210   1.687  0.2053 -0.3382  0.2847
 5134SOL    HW126864   2.840   1.146   1.644  1.2689 -1.4685  0.5674
 5134SOL    HW226865   2.833   1.257   1.741 -1.6254  0.6158 -2.6596
 5135SOL     OW26866   0.120   3.780  11.062 -0.1374 -0.1790  0.3188
 5135SOL    HW126867   0.083   3.830  10.990 -1.4714 -0.6713  0.6566
 5135SOL    HW226868   0.052   3.714  11.077 -0.0333 -0.8310 -2.0778
 5136SOL     OW26869   3.875   3.719   7.745  1.3098  0.5153 -0.1514
 5136SOL    HW126870   3.813   3.683   7.809  1.7200  2.1974  1.1794
 5136SOL    HW226871   3.952   3.676   7.783  1.0325 -1.0654 -1.3570
 5137SOL     OW26872   2.189   3.909   1.967  0.0914 -0.2219  0.1107
 5137SOL    HW126873   2.243   3.985   1.987 -2.4330  1.8919 -1.0895
 5137SOL    HW226874   2.251   3.852   1.920  1.6615  0.3041  1.5487
 5138SOL     OW26875   3.675   4.246   7.482  0.3442  0.1163 -0.0812
 5138SOL    HW126876   3.734   4.273   7.411 -0.4043  1.2621 -0.2649
 5138SOL    HW226877   3.686   4.324   7.536 -2.6404  0.5253 -0.0972
 5139SOL     OW26878   2.159   4.108   2.250  0.2368 -0.5450 -0.0481
 5139SOL    HW126879   2.242   4.121   2.204  0.1632  0.3095  0.0541
 5139SOL    HW226880   2.174   4.117   2.344  2.5641 -2.3398 -0.2322
 5140SOL     OW26881   3.801   2.989   3.195 -0.2753 -0.0079  0.3216
 5140SOL    HW126882   3.770   3.077   3.172 -1.2495 -0.2210  0.8591
 5140SOL    HW226883   3.850   2.972   3.115 -1.1038  0.2476 -0.2417
 5141SOL     OW26884   1.679   4.068   4.894  0.0411  0.0676 -0.7077
 5141SOL    HW126885   1.601   4.040   4.847  0.3156  0.3942 -1.3589
 5141SOL    HW226886   1.655   4.145   4.947 -0.9657 -1.3132  0.8445
 5142SOL     OW26887   3.514   1.483  15.738  0.1060 -0.2653 -0.5879
 5142SOL    HW126888   3.597   1.474  15.786  0.2357 -0.1196 -0.7845
 5142SOL    HW226889   3.446   1.463  15.803 -1.3703  2.4191 -1.3113
 5143SOL     OW26890   3.351   2.148   7.516 -0.3947 -0.5643  0.0492
 5143SOL    HW126891   3.317   2.202   7.588  0.4740 -0.4844  0.4056
 5143SOL    HW226892   3.315   2.060   7.531 -1.9057  0.2501  1.2773
 5144SOL     OW26893   4.278   3.600  16.762 -0.0999  0.1044 -0.0058
 5144SOL    HW126894   4.313   3.550  16.688 -0.9476  1.9530 -1.6390
 5144SOL    HW226895   4.346   3.577  16.826 -1.1653  1.2449  1.5198
 5145SOL     OW26896   3.738   2.614  12.389  0.0896  0.3403  0.3469
 5145SOL    HW126897   3.771   2.697  12.354 -1.8393  0.6284 -0.7960
 5145SOL    HW226898   3.740   2.643  12.480 -0.3112  0.3226  0.3636
 5146SOL     OW26899   3.997   0.580   1.949  0.0398  0.0682  0.6570
 5146SOL    HW126900   3.999   0.543   1.861  1.0244  0.1929  0.6282
 5146SOL    HW226901   4.090   0.584   1.968  0.4182 -0.9617 -0.9829
 5147SOL     OW26902   0.621   0.781   6.204 -0.4861 -0.3498 -0.1431
 5147SOL    HW126903   0.661   0.710   6.256  0.0073  0.2096  0.2426
 5147SOL    HW226904   0.699   0.807   6.156 -1.8401  0.8075 -1.6902
 5148SOL     OW26905   1.695   0.170  13.527  1.1112  0.3684  0.3835
 5148SOL    HW126906   1.785   0.201  13.527  1.1799  0.1579  1.6846
 5148SOL    HW226907   1.706   0.078  13.550  0.3793  0.1707 -0.0425
 5149SOL     OW26908   0.762   4.453  14.212 -0.4148 -0.7193 -0.5451
 5149SOL    HW126909   0.740   4.523  14.273  2.4350 -1.1604  0.9682
 5149SOL    HW226910   0.737   4.382  14.271 -3.5116  0.6130 -0.2326
 5150SOL     OW26911   2.756   2.121   6.713 -0.3799  0.0075  0.3085
 5150SOL    HW126912   2.744   2.078   6.628 -0.4278  0.3395  0.1478
 5150SOL    HW226913   2.832   2.077   6.751  0.0126  1.2849  1.0189
 5151SOL     OW26914   1.687   2.136   6.567  0.5017 -0.1559 -0.1049
 5151SOL    HW126915   1.679   2.231   6.562 -0.5052 -0.2295  0.2241
 5151SOL    HW226916   1.773   2.128   6.609 -0.7495 -2.0758  2.0751
 5152SOL     OW26917   2.780   1.640   6.466  0.3806 -0.3386 -0.1775
 5152SOL    HW126918   2.761   1.583   6.392 -1.5429 -1.1418  0.9342
 5152SOL    HW226919   2.875   1.630   6.479  0.8754  2.7467 -1.3562
 5153SOL     OW26920   1.210   3.685   3.187 -0.5839  0.3645 -0.2716
 5153SOL    HW126921   1.300   3.660   3.171 -1.0769 -0.2713 -2.0255
 5153SOL    HW226922   1.176   3.721   3.105  0.7563 -0.2044 -1.0715
 5154SOL     OW26923   1.213   2.971   3.417  0.5299  0.3157 -0.7555
 5154SOL    HW126924   1.236   2.945   3.328  0.2696  1.2073 -1.0815
 5154SOL    HW226925   1.228   3.065   3.404 -2.3898  0.5674 -2.2806
 5155SOL     OW26926   4.500   0.637   0.502 -0.7841  0.0933  0.1544
 5155SOL    HW126927   4.583   0.683   0.514 -0.6681  0.3158 -1.4373
 5155SOL    HW226928   4.430   0.696   0.531  0.4680  0.7347  1.8365
 5156SOL     OW26929   0.313   2.853   2.323  0.1094  1.0989  0.2277
 5156SOL    HW126930   0.278   2.873   2.236 -0.9039 -0.0823  0.3556
 5156SOL    HW226931   0.246   2.899   2.373  2.2217  1.9605  2.2374
 5157SOL     OW26932   0.997   0.644   6.027 -0.5873 -0.4020  0.2973
 5157SOL    HW126933   0.950   0.610   6.103 -0.8537  3.6156  1.9723
 5157SOL    HW226934   1.078   0.593   6.035 -1.5920 -2.1438 -0.7442
 5158SOL     OW26935   2.266   1.100   7.309 -0.0968 -0.3459 -0.8511
 5158SOL    HW126936   2.278   1.021   7.256 -0.5864  0.2394 -1.8438
 5158SOL    HW226937   2.171   1.093   7.312  0.0580 -1.4212  1.1606
 5159SOL     OW26938   2.724   2.481  11.870  0.1053 -0.5964 -0.4733
 5159SOL    HW126939   2.647   2.493  11.925  0.7030 -1.3169  0.5143
 5159SOL    HW226940   2.783   2.430  11.926 -0.4677 -0.8298 -0.0787
 5160SOL     OW26941   4.294   3.959  13.513  0.0963 -0.1429 -0.2313
 5160SOL    HW126942   4.313   4.018  13.586 -1.8957 -1.1478  1.0972
 5160SOL    HW226943   4.208   3.995  13.490  1.2965  2.0000 -1.4537
 5161SOL     OW26944   1.753   4.265  15.610 -0.2746 -0.4048  0.0783
 5161SOL    HW126945   1.772   4.283  15.702  0.4425  0.0662 -0.1649
 5161SOL    HW226946   1.703   4.184  15.615  0.5620 -0.8434  1.2989
 5162SOL     OW26947   0.055   2.205   2.697  0.2463 -0.3054 -0.1473
 5162SOL    HW126948   4.711   2.272   2.721 -0.1513 -1.5928  2.3665
 5162SOL    HW226949   0.137   2.255   2.702 -0.2321  0.4229  0.3866
 5163SOL     OW26950   2.866   4.712   2.726  0.4507  0.0569 -0.1675
 5163SOL    HW126951   2.873   4.646   2.795  1.0613  1.5414  1.2075
 5163SOL    HW226952   2.898   4.666   2.649  1.8736  3.7139 -1.7711
 5164SOL     OW26953   1.406   3.354   1.264  0.5274  0.0728  0.4867
 5164SOL    HW126954   1.448   3.303   1.195 -0.9808  0.9564 -1.0830
 5164SOL    HW226955   1.385   3.287   1.328 -0.3183  0.3820  0.5308
 5165SOL     OW26956   0.779   0.541  11.675  0.0837  0.3825  0.1647
 5165SOL    HW126957   0.853   0.595  11.704  0.1600 -0.7394  2.0534
 5165SOL    HW226958   0.795   0.565  11.584  1.0849  0.8091  0.4561
 5166SOL     OW26959   4.257   3.838  14.673 -0.5376 -0.1563 -0.3110
 5166SOL    HW126960   4.324   3.798  14.728 -0.6450 -0.3365 -0.3114
 5166SOL    HW226961   4.302   3.869  14.594 -0.4793 -0.3888 -0.3688
 5167SOL     OW26962   0.157   0.529   9.731 -0.0073 -0.3054 -0.2584
 5167SOL    HW126963   0.204   0.495   9.807  1.5460  0.3003 -0.9388
 5167SOL    HW226964   0.172   0.623   9.742  2.9649 -0.6787 -0.9249
 5168SOL     OW26965   1.095   0.156   9.022 -0.2282 -0.3071 -0.4085
 5168SOL    HW126966   1.185   0.128   9.037  0.1324  0.5338 -1.0056
 5168SOL    HW226967   1.112   0.249   9.035  3.1212 -0.7717 -1.6159
 5169SOL     OW26968   0.276   2.511  11.083 -0.8341  0.2562  0.1214
 5169SOL    HW126969   0.337   2.585  11.087 -2.2593  1.4743 -0.5282
 5169SOL    HW226970   0.198   2.557  11.051 -0.1143  0.1404 -1.7559
 5170SOL     OW26971   2.008   3.147  12.370  0.2124 -0.3179 -0.2526
 5170SOL    HW126972   1.964   3.167  12.288 -0.3196 -0.8126 -0.0786
 5170SOL    HW226973   2.101   3.150  12.348  0.2384  1.7934  0.0726
 5171SOL     OW26974   1.541   4.664  15.462 -0.0174 -0.1295 -0.9339
 5171SOL    HW126975   1.568   0.025  15.417  0.5873  0.6564  0.8723
 5171SOL    HW226976   1.456   4.699  15.491  0.5132 -1.1570  1.8343
 5172SOL     OW26977   1.847   2.369   4.807  0.4878  0.3607  0.2752
 5172SOL    HW126978   1.761   2.397   4.777  0.8834  0.6480 -0.6039
 5172SOL    HW226979   1.845   2.279   4.772  2.6032  0.2709  0.3422
 5173SOL     OW26980   2.757   3.606   1.480 -0.0043 -0.4989 -0.4516
 5173SOL    HW126981   2.830   3.608   1.542 -0.4839  1.4256  0.0461
 5173SOL    HW226982   2.801   3.566   1.404  1.7145 -0.2836  0.4324
 5174SOL     OW26983   2.582   4.327   4.186  0.3707  0.0826 -0.3255
 5174SOL    HW126984   2.589   4.235   4.162 -0.3405 -0.6572  2.3066
 5174SOL    HW226985   2.515   4.365   4.129  1.8864  0.0188 -2.1458
 5175SOL     OW26986   0.685   3.899   7.708  0.1259 -0.2920 -0.0886
 5175SOL    HW126987   0.690   3.815   7.662  0.2404 -1.3358  1.8375
 5175SOL    HW226988   0.757   3.884   7.770 -0.2857  0.3641  0.5420
 5176SOL     OW26989   4.127   2.670  10.951  0.0966  0.3006  0.1107
 5176SOL    HW126990   4.219   2.660  10.923  0.2908  2.8988 -0.1747
 5176SOL    HW226991   4.099   2.760  10.936  1.3290  0.5756 -0.5964
 5177SOL     OW26992   1.764   2.081   4.905 -0.0595  0.1991 -0.2954
 5177SOL    HW126993   1.758   1.990   4.877 -1.1844  0.0965  0.2923
 5177SOL    HW226994   1.672   2.097   4.925  1.3441  4.3973  2.9712
 5178SOL     OW26995   3.659   3.898   6.880 -0.0935 -0.0232 -0.6061
 5178SOL    HW126996   3.649   3.991   6.859  0.2851 -0.0868 -1.0723
 5178SOL    HW226997   3.625   3.892   6.969  1.5784  0.1847  0.0515
 5179SOL     OW26998   3.761   0.623   9.082 -0.6004 -0.2271  0.0010
 5179SOL    HW126999   3.825   0.611   9.153 -0.4950 -0.9937 -0.2234
 5179SOL    HW227000   3.771   0.539   9.038 -0.3106 -0.4517  0.4860
 5180SOL     OW27001   1.660   2.109   1.429  0.6374  0.1467 -0.1514
 5180SOL    HW127002   1.713   2.177   1.387 -1.2153  1.0885 -0.9893
 5180SOL    HW227003   1.711   2.090   1.507 -1.5218  1.4292  1.5487
 5181SOL     OW27004   2.040   2.019   3.919 -0.3951  0.2278 -0.7854
 5181SOL    HW127005   2.046   2.040   3.826 -0.3896 -1.4423 -1.1715
 5181SOL    HW227006   2.057   2.103   3.962 -0.0850 -0.5320  0.5672
 5182SOL     OW27007   1.068   1.338   4.622  0.0759 -0.1534  0.2504
 5182SOL    HW127008   1.148   1.304   4.582 -0.1661 -1.4510  0.8524
 5182SOL    HW227009   1.009   1.344   4.547 -1.4120  1.0135  1.5086
 5183SOL     OW27010   3.803   1.943   5.501  0.2411  0.2488 -0.1616
 5183SOL    HW127011   3.788   1.975   5.590 -1.6277 -1.7431  0.2373
 5183SOL    HW227012   3.897   1.927   5.513  0.5109  0.7978 -1.6055
 5184SOL     OW27013   2.041   1.120   6.241 -0.5424  0.2571 -0.2717
 5184SOL    HW127014   2.052   1.074   6.158 -1.3188  0.3853 -0.4444
 5184SOL    HW227015   2.025   1.209   6.211  0.5644  0.4489 -0.3121
 5185SOL     OW27016   2.955   0.549  13.456 -0.0364  0.0371  0.0671
 5185SOL    HW127017   2.945   0.594  13.540  1.0003 -0.3653  0.4117
 5185SOL    HW227018   3.034   0.588  13.420 -0.2221 -1.0375 -1.5046
 5186SOL     OW27019   4.259   3.031  14.463  0.0396 -0.2636 -0.5683
 5186SOL    HW127020   4.198   2.995  14.398 -1.0918  0.1163  0.3029
 5186SOL    HW227021   4.254   3.125  14.447  1.1812 -0.2901 -1.1212
 5187SOL     OW27022   4.110   0.064  12.727  0.3924  0.2309  0.2928
 5187SOL    HW127023   4.069   0.037  12.810  1.2389  0.2310  0.7151
 5187SOL    HW227024   4.184   0.113  12.762  0.4703 -0.6220  1.3291
 5188SOL     OW27025   0.789   0.847   4.116  0.0837  0.1826  0.6400
 5188SOL    HW127026   0.723   0.778   4.124  0.2819 -0.0883 -0.0432
 5188SOL    HW227027   0.788   0.849   4.020  0.0509 -2.0036  0.5997
 5189SOL     OW27028   2.298   4.027   0.103 -0.0366  0.3328 -0.0979
 5189SOL    HW127029   2.246   4.099   0.067 -1.8277 -1.0344 -0.1960
 5189SOL    HW227030   2.259   3.959   0.048  2.5505 -1.3744  0.1736
 5190SOL     OW27031   3.554   2.845   9.787  0.0723 -0.4937  0.1557
 5190SOL    HW127032   3.542   2.938   9.768  1.9596 -0.6261 -1.6431
 5190SOL    HW227033   3.500   2.835   9.866 -0.1360 -0.3129  0.0372
 5191SOL     OW27034   0.598   1.403   6.352  0.3670 -0.0352 -0.2492
 5191SOL    HW127035   0.669   1.460   6.379 -0.0608 -0.5040  1.8415
 5191SOL    HW227036   0.649   1.325   6.330  0.1119  0.1064 -1.3606
 5192SOL     OW27037   4.141   2.180   6.295 -0.2429  0.0696  0.3561
 5192SOL    HW127038   4.082   2.213   6.362  0.7148 -1.1840  1.8204
 5192SOL    HW227039   4.220   2.227   6.322  1.1119 -1.8707 -0.2074
 5193SOL     OW27040   4.714   2.365   7.943 -0.1948  0.4077  0.0927
 5193SOL    HW127041   0.025   2.274   7.938 -1.2087  0.0001  1.3491
 5193SOL    HW227042   0.058   2.407   7.886 -1.3340  1.1728 -0.6084
 5194SOL     OW27043   4.680   3.924  13.767 -0.2815  0.3254  0.4276
 5194SOL    HW127044   4.649   3.843  13.729  1.2546  0.1951 -0.5519
 5194SOL    HW227045   4.611   3.946  13.830 -1.1496 -3.1382  0.6983
 5195SOL     OW27046   3.155   0.571   8.988  0.1622  0.2143  0.2789
 5195SOL    HW127047   3.125   0.634   8.923  0.8858  1.9042  1.5727
 5195SOL    HW227048   3.237   0.539   8.948 -0.5343 -0.2463 -0.7797
 5196SOL     OW27049   3.505   3.421   7.614  0.4289  0.4103  0.3217
 5196SOL    HW127050   3.465   3.488   7.670 -0.1193 -1.9295  2.7343
 5196SOL    HW227051   3.458   3.341   7.638  2.8109 -1.0239  0.1986
 5197SOL     OW27052   1.996   3.824   6.461  0.2184 -1.0474 -0.5832
 5197SOL    HW127053   1.922   3.881   6.480  1.0556 -0.5972  1.2584
 5197SOL    HW227054   2.072   3.879   6.480 -0.1649 -0.5609 -0.4408
 5198SOL     OW27055   4.410   0.769   6.679  0.1206 -0.3192  0.5263
 5198SOL    HW127056   4.455   0.796   6.758  0.8736 -2.3650  0.8028
 5198SOL    HW227057   4.483   0.768   6.618 -0.3693 -1.4477 -0.0468
 5199SOL     OW27058   3.357   2.162   4.294  0.1102 -0.1071  0.2503
 5199SOL    HW127059   3.345   2.084   4.240 -0.6580 -0.6055  1.1428
 5199SOL    HW227060   3.447   2.188   4.272 -0.7185  1.3325 -1.5092
 5200SOL     OW27061   0.659   1.969   6.545 -0.0560  0.2413 -0.1575
 5200SOL    HW127062   0.747   1.970   6.583  0.0594 -2.4298 -0.3874
 5200SOL    HW227063   0.612   1.956   6.628  0.8397 -0.2805  0.2697
 5201SOL     OW27064   4.476   1.654   7.839 -0.2442 -0.5639 -0.0040
 5201SOL    HW127065   4.503   1.736   7.881  0.0428 -0.5857 -0.1427
 5201SOL    HW227066   4.381   1.666   7.836 -0.2624 -0.6650  0.2229
 5202SOL     OW27067   3.386   3.942   2.491  0.5676  0.0608  0.7479
 5202SOL    HW127068   3.470   3.983   2.473  0.5444  0.0456  0.6072
 5202SOL    HW227069   3.381   3.960   2.585  0.9870  1.6344  0.4555
 5203SOL     OW27070   3.491   1.150   2.596 -0.0976  0.5027 -0.4286
 5203SOL    HW127071   3.463   1.066   2.633 -2.2554  1.1629 -0.5311
 5203SOL    HW227072   3.548   1.132   2.522  0.2758  1.9368 -0.4886
 5204SOL     OW27073   0.588   4.679  14.580  0.3849 -0.7853 -0.4078
 5204SOL    HW127074   0.648   4.702  14.651  1.1775 -0.8641 -1.0562
 5204SOL    HW227075   0.547   4.599  14.615  1.5906 -0.8255  0.9022
 5205SOL     OW27076   0.668   0.209  10.701 -0.1817  0.7961 -0.2255
 5205SOL    HW127077   0.631   0.150  10.767 -1.1326  0.7128 -0.8317
 5205SOL    HW227078   0.630   0.175  10.619 -0.8111  1.5128 -0.2269
 5206SOL     OW27079   1.872   3.628   9.185  0.0004  0.0662  0.2394
 5206SOL    HW127080   1.966   3.632   9.166 -0.1091  2.1934  0.1111
 5206SOL    HW227081   1.883   3.570   9.260  0.6005  1.5389  1.2970
 5207SOL     OW27082   2.118   1.687   3.014 -0.7953 -0.3583 -0.5214
 5207SOL    HW127083   2.056   1.713   2.947 -2.6940  1.8912  2.1451
 5207SOL    HW227084   2.204   1.697   2.973 -0.8144 -1.5187 -0.8664
 5208SOL     OW27085   0.932   3.009   3.285  0.0043  0.3046 -0.4371
 5208SOL    HW127086   1.000   3.073   3.264  2.2699 -1.1610  2.3446
 5208SOL    HW227087   0.866   3.069   3.318  0.5784  0.7651 -0.1233
 5209SOL     OW27088   1.221   0.732   9.748  0.1340  0.6082  0.0046
 5209SOL    HW127089   1.296   0.689   9.707  0.5894  0.0358  1.4568
 5209SOL    HW227090   1.228   0.692   9.834  1.2247 -0.4095 -0.5511
 5210SOL     OW27091   3.570   3.878   6.613 -0.3172 -0.4709  0.5607
 5210SOL    HW127092   3.562   3.850   6.705 -0.0458  0.0520  0.7420
 5210SOL    HW227093   3.528   3.964   6.617 -0.5059 -0.5008 -1.1213
 5211SOL     OW27094   1.433   3.245   0.723  0.1920 -0.7612  0.1776
 5211SOL    HW127095   1.462   3.156   0.704  0.5731 -0.3204 -1.3497
 5211SOL    HW227096   1.397   3.265   0.636  0.4111 -0.6571  0.1089
 5212SOL     OW27097   1.695   2.513   9.075  0.3535  0.8421  0.1199
 5212SOL    HW127098   1.704   2.426   9.112  1.6694  0.6469 -0.6592
 5212SOL    HW227099   1.769   2.514   9.015  1.5003  2.4260  1.5767
 5213SOL     OW27100   4.553   4.433   2.639  0.3268  0.0313  0.0882
 5213SOL    HW127101   4.579   4.399   2.725 -0.0112 -1.6754 -0.5011
 5213SOL    HW227102   4.635   4.471   2.606 -0.1078 -0.5219 -1.6137
 5214SOL     OW27103   2.035   4.579  15.263 -0.4093 -0.1868  0.2099
 5214SOL    HW127104   2.003   4.662  15.228 -0.7418 -0.3954  0.0072
 5214SOL    HW227105   2.070   4.610  15.346  0.5126  0.4645 -0.4244
 5215SOL     OW27106   4.387   2.836  16.944  0.1647  0.3066  0.8156
 5215SOL    HW127107   4.388   2.766  17.009 -1.7114  0.0139  0.5478
 5215SOL    HW227108   4.294   2.851  16.925  0.8575  2.5955 -0.7423
 5216SOL     OW27109   1.529   2.548  12.426 -0.1231 -0.2365  0.3969
 5216SOL    HW127110   1.543   2.584  12.513  0.4748  1.9219 -0.6021
 5216SOL    HW227111   1.434   2.551  12.424 -0.0454  0.6402 -1.6307
 5217SOL     OW27112   2.943   3.512   4.274  0.2471 -0.8965  0.1793
 5217SOL    HW127113   2.975   3.421   4.276 -0.0395 -0.9821  0.7530
 5217SOL    HW227114   2.854   3.510   4.308  0.9024  1.8307  2.0349
 5218SOL     OW27115   0.446   3.481   6.497 -0.3762 -0.5857  0.1869
 5218SOL    HW127116   0.355   3.455   6.487 -0.4483  0.0727 -0.7816
 5218SOL    HW227117   0.466   3.438   6.581 -0.8809  0.9256  1.0930
 5219SOL     OW27118   2.096   4.610   2.245  0.0079 -0.1561 -0.1228
 5219SOL    HW127119   2.054   4.538   2.293 -1.7487  0.5400 -0.6370
 5219SOL    HW227120   2.031   4.622   2.176  0.8948  2.3423 -0.5148
 5220SOL     OW27121   1.313   2.382   4.944 -0.0480 -0.4641  0.0152
 5220SOL    HW127122   1.313   2.361   5.038 -1.1678  0.6089  0.2534
 5220SOL    HW227123   1.241   2.446   4.942  0.1553 -0.2111  0.7817
 5221SOL     OW27124   2.324   1.430  12.062  0.8535  0.3593 -0.4817
 5221SOL    HW127125   2.274   1.364  12.014  2.6472 -1.8018  0.6361
 5221SOL    HW227126   2.373   1.370  12.118 -0.6617  2.6726  3.3607
 5222SOL     OW27127   3.233   0.002   7.330  0.7351 -0.0426  0.3097
 5222SOL    HW127128   3.256   0.008   7.238 -2.5569 -3.0051 -0.6509
 5222SOL    HW227129   3.303   4.669   7.368  1.4003  0.5203 -0.1404
 5223SOL     OW27130   4.210   0.102   9.570 -0.5280  0.2654 -0.0779
 5223SOL    HW127131   4.243   0.067   9.653  0.0190  0.5830 -0.1584
 5223SOL    HW227132   4.277   0.170   9.557 -0.7293  0.4184 -0.2980
 5224SOL     OW27133   1.010   2.033   4.795 -0.0234  0.2973 -0.4806
 5224SOL    HW127134   0.968   1.984   4.865  0.9784  1.8935  1.2175
 5224SOL    HW227135   0.990   1.976   4.721 -2.1310 -0.5315  0.7344
 5225SOL     OW27136   2.254   3.163  12.260  0.2691 -0.1899  0.0430
 5225SOL    HW127137   2.320   3.094  12.265 -0.1889 -0.5481  1.1318
 5225SOL    HW227138   2.305   3.230  12.215 -3.2528  2.4393 -0.1103
 5226SOL     OW27139   4.150   4.162  11.212 -0.2693 -0.2648 -0.5089
 5226SOL    HW127140   4.228   4.119  11.246 -0.5162 -0.0844  0.2915
 5226SOL    HW227141   4.079   4.124  11.265  0.8109  0.0051  1.1416
 5227SOL     OW27142   1.738   0.623   8.126 -0.5541 -0.1499  0.1888
 5227SOL    HW127143   1.777   0.699   8.169 -1.9132  1.2177 -0.9974
 5227SOL    HW227144   1.667   0.611   8.189 -0.1740 -2.6203  0.1359
 5228SOL     OW27145   3.459   2.493   4.403  0.1426 -0.5828 -0.3090
 5228SOL    HW127146   3.463   2.523   4.493  0.0512 -1.4233 -0.0199
 5228SOL    HW227147   3.381   2.437   4.408  0.7429 -1.7006 -3.1215
 5229SOL     OW27148   3.853   2.782   4.625 -0.8064 -0.4915 -0.0097
 5229SOL    HW127149   3.906   2.841   4.679 -0.1449 -0.3568 -0.8079
 5229SOL    HW227150   3.848   2.840   4.549  1.8619 -0.2365  0.0093
 5230SOL     OW27151   2.070   1.491  15.672  0.0764  0.1455  0.5164
 5230SOL    HW127152   2.157   1.513  15.639 -0.8921  0.8952 -1.4981
 5230SOL    HW227153   2.085   1.470  15.764 -0.8463 -0.3873  0.5432
 5231SOL     OW27154   1.993   3.666   1.753 -0.0259 -0.4551 -0.2505
 5231SOL    HW127155   1.917   3.649   1.697  0.6416  1.2743 -1.6777
 5231SOL    HW227156   1.975   3.758   1.769 -0.7572 -0.8041  0.8889
 5232SOL     OW27157   1.471   1.965   4.212  0.0418 -0.4822 -0.4196
 5232SOL    HW127158   1.558   2.004   4.200 -1.1940  2.4820  0.3481
 5232SOL    HW227159   1.411   1.970   4.137 -0.8631  0.0745  0.3534
 5233SOL     OW27160   1.780   1.004  15.276  0.0109 -0.0444  0.7235
 5233SOL    HW127161   1.810   1.063  15.206 -0.9255  1.4520  1.5748
 5233SOL    HW227162   1.696   1.048  15.291  0.6364  1.6571 -0.7196
 5234SOL     OW27163   3.493   0.445   2.928 -0.4462 -0.5614 -0.1282
 5234SOL    HW127164   3.481   0.365   2.876  0.6520 -1.1226  0.4686
 5234SOL    HW227165   3.530   0.409   3.009 -0.6948  0.0241  0.2504
 5235SOL     OW27166   2.426   3.272  13.813  0.2192  0.0552  0.0916
 5235SOL    HW127167   2.443   3.319  13.894 -0.5853  2.1914 -0.9897
 5235SOL    HW227168   2.490   3.202  13.827 -0.1690 -0.3045  0.0865
 5236SOL     OW27169   3.044   1.205   4.537 -0.0565 -0.0902  0.0325
 5236SOL    HW127170   3.040   1.212   4.632 -0.1528  1.7479 -0.1026
 5236SOL    HW227171   3.121   1.148   4.540  1.7645  2.2892 -1.4356
 5237SOL     OW27172   3.699   1.845  11.019  0.0488  0.2137  0.0888
 5237SOL    HW127173   3.618   1.884  10.986 -0.0093 -0.2566 -0.3268
 5237SOL    HW227174   3.745   1.913  11.069 -1.5081  0.2044  1.5447
 5238SOL     OW27175   1.001   4.355   0.588  0.2653 -0.3192 -0.7020
 5238SOL    HW127176   1.070   4.395   0.642 -0.3415  0.0256 -0.1728
 5238SOL    HW227177   0.956   4.434   0.557 -1.4364  0.1188  2.8807
 5239SOL     OW27178   1.878   3.173  12.140  0.3177  0.1700  0.3689
 5239SOL    HW127179   1.899   3.086  12.106  0.5854 -0.8489  3.1388
 5239SOL    HW227180   1.896   3.227  12.063 -1.0616 -0.5690 -0.4748
 5240SOL     OW27181   1.084   2.908   6.503 -0.2492 -0.6216 -0.2168
 5240SOL    HW127182   1.048   2.872   6.585  2.2001 -1.5319  0.4507
 5240SOL    HW227183   1.169   2.866   6.491  0.7969  1.4823 -0.1986
 5241SOL     OW27184   2.479   2.313  11.155  0.4797 -0.0972 -0.3127
 5241SOL    HW127185   2.482   2.219  11.139  0.6517 -0.2111  0.3798
 5241SOL    HW227186   2.543   2.324  11.226  1.6056 -1.2148 -1.1507
 5242SOL     OW27187   4.618   0.898   1.156 -0.1382 -0.3280 -0.0255
 5242SOL    HW127188   4.558   0.967   1.126  0.9277  0.1694 -0.9921
 5242SOL    HW227189   4.559   0.834   1.196 -1.5250  0.0733 -1.3943
 5243SOL     OW27190   0.237   3.070   4.299 -0.2906  0.1235 -0.4281
 5243SOL    HW127191   0.215   3.150   4.251 -1.1433 -1.4902 -2.7047
 5243SOL    HW227192   0.326   3.047   4.271 -1.3532 -1.9217 -2.0815
 5244SOL     OW27193   2.589   3.139  13.542  0.2147  0.5776  0.0598
 5244SOL    HW127194   2.645   3.073  13.501 -1.3630 -1.4371  1.1128
 5244SOL    HW227195   2.609   3.125  13.635 -1.9702 -0.9626  0.2987
 5245SOL     OW27196   4.393   1.447   4.910  0.0361 -0.3787 -0.5632
 5245SOL    HW127197   4.378   1.541   4.919  1.5590 -0.3066  1.3845
 5245SOL    HW227198   4.307   1.411   4.893 -0.2190  0.8627 -1.9829
 5246SOL     OW27199   0.523   2.550  14.860 -1.0926 -0.3948  0.2916
 5246SOL    HW127200   0.428   2.551  14.856 -1.0034  1.9150 -1.5007
 5246SOL    HW227201   0.547   2.642  14.851 -0.3579 -0.5041  1.0866
 5247SOL     OW27202   4.496   2.793   5.949 -0.6168 -0.4868  0.4052
 5247SOL    HW127203   4.448   2.780   5.867 -1.1074  0.7478  0.4941
 5247SOL    HW227204   4.472   2.882   5.972 -1.2844 -0.5704  0.0263
 5248SOL     OW27205   1.860   1.806   1.843 -0.2880 -0.2630 -0.7250
 5248SOL    HW127206   1.923   1.778   1.908  1.0624 -2.2953 -2.9282
 5248SOL    HW227207   1.856   1.739   1.775  0.0740 -0.5702 -0.4415
 5249SOL     OW27208   2.884   3.279   6.197  0.2838  0.7437 -0.0465
 5249SOL    HW127209   2.841   3.210   6.146  1.9841  1.0344 -1.8935
 5249SOL    HW227210   2.806   3.334   6.197 -1.2896 -1.4853 -0.3294
 5250SOL     OW27211   3.068   3.669   6.133 -0.5483  0.6920  0.6064
 5250SOL    HW127212   3.009   3.653   6.060  0.5208 -2.0956  0.3772
 5250SOL    HW227213   3.150   3.683   6.086 -0.9813  1.3017  0.0252
 5251SOL     OW27214   4.402   3.838  12.671  0.4150 -0.1771  0.4769
 5251SOL    HW127215   4.366   3.846  12.583  0.2546  0.2452  0.5807
 5251SOL    HW227216   4.415   3.929  12.696  0.5484  0.1642 -0.8487
 5252SOL     OW27217   2.675   1.356  14.941  0.0731  0.2148  0.7147
 5252SOL    HW127218   2.600   1.370  14.883  0.7669  2.7576  0.4343
 5252SOL    HW227219   2.738   1.311  14.883 -1.6626 -0.4862 -0.6257
 5253SOL     OW27220   0.714   2.608   3.174  0.1450  0.1605  0.2316
 5253SOL    HW127221   0.678   2.623   3.261  0.2411 -0.9841  0.4746
 5253SOL    HW227222   0.694   2.688   3.127 -0.7713  0.4398  1.1046
 5254SOL     OW27223   0.609   3.360   4.296  0.2881 -0.1582 -0.0979
 5254SOL    HW127224   0.597   3.340   4.203 -0.5117 -0.7473  0.1332
 5254SOL    HW227225   0.668   3.288   4.319 -0.7243 -1.6785 -2.2726
 5255SOL     OW27226   0.230   0.467  11.333 -0.3303 -0.8412  0.2687
 5255SOL    HW127227   0.190   0.432  11.412  0.0880 -0.8843  0.4647
 5255SOL    HW227228   0.262   0.553  11.364  0.3524 -0.1242 -2.4567
 5256SOL     OW27229   3.436   1.520   3.661  0.6072 -0.2682 -0.3141
 5256SOL    HW127230   3.382   1.519   3.740  2.4651  0.9871  0.9524
 5256SOL    HW227231   3.515   1.500   3.711 -0.2974  1.1152  1.6474
 5257SOL     OW27232   3.855   0.087   4.808  0.0340 -0.5127  0.7530
 5257SOL    HW127233   3.940   0.079   4.852  0.5094 -0.4389 -0.1298
 5257SOL    HW227234   3.836   0.180   4.818 -1.0948 -0.5664 -0.8944
 5258SOL     OW27235   1.830   3.024  14.892 -0.2140  0.2675 -0.3194
 5258SOL    HW127236   1.893   3.000  14.825 -1.3899 -0.1094 -1.2951
 5258SOL    HW227237   1.895   3.073  14.942  1.1215 -0.5110 -1.2829
 5259SOL     OW27238   3.023   2.007   6.504  0.5122 -0.0725  0.3668
 5259SOL    HW127239   3.043   2.100   6.517 -0.1697 -0.0474  1.2715
 5259SOL    HW227240   2.943   2.018   6.452 -0.1952  0.2674  1.5201
 5260SOL     OW27241   2.605   3.051  14.618 -0.3531 -0.1478 -0.5945
 5260SOL    HW127242   2.526   3.052  14.564 -0.4792  0.7850 -0.3847
 5260SOL    HW227243   2.658   2.988  14.568 -0.1764  0.1930 -0.8363
 5261SOL     OW27244   1.389   3.042   4.814  0.0899 -0.1517  0.1214
 5261SOL    HW127245   1.322   2.976   4.830 -1.5678  1.7337  0.9388
 5261SOL    HW227246   1.350   3.083   4.736 -0.7487  0.7573  1.0203
 5262SOL     OW27247   2.272   3.601  14.008 -0.5352 -0.5473 -0.0586
 5262SOL    HW127248   2.335   3.544  14.052 -0.9783 -0.3420  0.8318
 5262SOL    HW227249   2.258   3.679  14.061  1.1572  0.3573 -0.9444
 5263SOL     OW27250   1.815   2.377  14.150 -0.1188 -0.3292 -0.1365
 5263SOL    HW127251   1.819   2.283  14.167  0.4997 -0.5575 -1.5449
 5263SOL    HW227252   1.909   2.394  14.156 -0.3620  1.3108 -0.8320
 5264SOL     OW27253   2.031   2.319   8.836  0.4094 -0.5154  0.1489
 5264SOL    HW127254   1.999   2.409   8.831  0.1409 -0.5664  0.9802
 5264SOL    HW227255   1.964   2.283   8.894 -1.2703  2.3426 -0.0329
 5265SOL     OW27256   3.135   1.057  13.163 -0.5188  0.2954  0.0166
 5265SOL    HW127257   3.076   1.027  13.232  2.0666 -1.7056  1.3333
 5265SOL    HW227258   3.148   0.977  13.112  0.8940  1.7797 -1.9851
 5266SOL     OW27259   0.045   1.875   9.692  0.3287  0.2742  0.3689
 5266SOL    HW127260   4.714   1.923   9.757 -3.6681  1.4793 -3.6211
 5266SOL    HW227261   0.014   1.787   9.709 -2.7481  1.3015  0.1147
 5267SOL     OW27262   2.340   3.218  11.904  0.0012 -0.2063  0.5331
 5267SOL    HW127263   2.414   3.270  11.872  0.9506 -1.6386  0.3882
 5267SOL    HW227264   2.324   3.229  11.998 -0.7565 -1.2853  0.5309
 5268SOL     OW27265   1.617   3.956   1.494  0.6165 -0.3753  0.2163
 5268SOL    HW127266   1.686   3.995   1.549 -0.2692 -1.5090  2.1461
 5268SOL    HW227267   1.656   3.951   1.407  1.1886  1.1468  0.3711
 5269SOL     OW27268   4.205   1.642   3.177 -0.7847  0.2228 -0.3194
 5269SOL    HW127269   4.226   1.585   3.251 -3.0273  0.4578  0.4880
 5269SOL    HW227270   4.170   1.584   3.109 -1.5284 -0.2544  0.4722
 5270SOL     OW27271   2.080   4.660  15.507 -0.0237 -0.4192 -0.2674
 5270SOL    HW127272   2.058   4.711  15.585  0.6461 -1.5620  0.6788
 5270SOL    HW227273   2.170   4.651  15.539 -0.2855 -0.5643  0.4270
 5271SOL     OW27274   2.866   4.336   8.623  0.3366  0.3193 -0.4865
 5271SOL    HW127275   2.873   4.399   8.695  0.0361 -1.2440  0.9200
 5271SOL    HW227276   2.786   4.287   8.637  0.1498  0.4505 -1.0976
 5272SOL     OW27277   4.110   1.866   5.802 -0.2365  0.5223 -0.4356
 5272SOL    HW127278   4.179   1.842   5.864 -0.5368 -0.8603 -0.6324
 5272SOL    HW227279   4.038   1.812   5.835  1.4426 -0.8291  1.0223
 5273SOL     OW27280   0.881   1.716   6.895 -0.4111  0.2850 -0.3387
 5273SOL    HW127281   0.902   1.739   6.804 -1.8079  3.1095  0.0382
 5273SOL    HW227282   0.786   1.707   6.887 -0.5556  0.6082  1.0534
 5274SOL     OW27283   1.203   0.387   7.679  0.3068  0.2619  0.3073
 5274SOL    HW127284   1.139   0.414   7.614  0.2599 -0.0904  0.2054
 5274SOL    HW227285   1.178   0.295   7.692 -0.9211  0.6860  0.8833
 5275SOL     OW27286   2.688   4.166   9.527  0.2263 -0.2815 -0.3050
 5275SOL    HW127287   2.605   4.213   9.519 -1.2316 -2.3781  2.3733
 5275SOL    HW227288   2.671   4.088   9.474  1.0116 -0.3997 -0.3904
 5276SOL     OW27289   0.105   0.019   8.777  0.3019 -0.2587 -0.2724
 5276SOL    HW127290   0.167   0.086   8.748 -0.3820  0.1821 -0.7138
 5276SOL    HW227291   0.024   0.070   8.778  0.5592  0.1167  2.7512
 5277SOL     OW27292   2.532   4.379   6.312 -0.0693 -0.0451 -0.2511
 5277SOL    HW127293   2.496   4.440   6.248  0.7568  0.7660  0.0556
 5277SOL    HW227294   2.570   4.442   6.373  1.4222 -1.1077 -0.0733
 5278SOL     OW27295   3.752   1.455  10.285  0.2325 -0.5634 -0.2092
 5278SOL    HW127296   3.796   1.411  10.212 -1.3031 -2.2454 -0.1089
 5278SOL    HW227297   3.765   1.392  10.355 -1.5305 -2.6378 -1.7681
 5279SOL     OW27298   4.436   0.415   3.299 -0.0741 -0.5275 -0.5846
 5279SOL    HW127299   4.447   0.498   3.252  0.8741  0.3270  1.1503
 5279SOL    HW227300   4.463   0.353   3.231  1.3913 -1.0500  0.4698
 5280SOL     OW27301   1.199   0.044   2.191 -0.9161 -0.7075 -0.4865
 5280SOL    HW127302   1.204   0.116   2.129 -2.1555 -0.3012 -0.1271
 5280SOL    HW227303   1.119   0.002   2.160 -2.4413  1.3984  0.5678
 5281SOL     OW27304   0.498   2.269  14.924 -0.6681 -0.3168  0.5217
 5281SOL    HW127305   0.565   2.275  14.992 -0.9552  1.6870  0.6048
 5281SOL    HW227306   0.529   2.328  14.856 -0.3716 -1.5401 -0.3937
 5282SOL     OW27307   2.507   4.402   5.798  0.0966  0.0627  0.4153
 5282SOL    HW127308   2.531   4.494   5.792  0.8446 -0.2147 -1.0145
 5282SOL    HW227309   2.503   4.385   5.892 -0.0235  0.2988  0.4515
 5283SOL     OW27310   4.108   0.459   2.244 -0.1517  0.7148 -0.1921
 5283SOL    HW127311   4.018   0.488   2.255  0.6738  1.7978  3.6304
 5283SOL    HW227312   4.146   0.533   2.196  0.1163  1.7441  1.6169
 5284SOL     OW27313   2.851   2.210  13.182 -0.5704 -0.0510  0.1587
 5284SOL    HW127314   2.922   2.257  13.226 -0.0191 -0.4731 -0.2911
 5284SOL    HW227315   2.863   2.245  13.094  1.5571  0.2395  0.5712
 5285SOL     OW27316   4.709   4.651   8.494 -0.2346  0.0155 -0.7453
 5285SOL    HW127317   4.664   4.600   8.561  2.8214 -0.6093  0.7848
 5285SOL    HW227318   4.659   0.013   8.502  2.2096  1.2561  1.5272
 5286SOL     OW27319   4.665   2.422  15.346  0.4761  0.0171  0.7648
 5286SOL    HW127320   4.627   2.503  15.312 -1.4851 -1.8359 -1.4603
 5286SOL    HW227321   4.697   2.393  15.260  0.7752  0.2785  0.7864
 5287SOL     OW27322   2.095   1.064  16.986 -0.3381  0.4087 -0.3773
 5287SOL    HW127323   2.062   0.975  16.999 -2.1617  1.2604  0.7698
 5287SOL    HW227324   2.147   1.063  17.066 -2.3602 -0.8201  0.9009
 5288SOL     OW27325   0.830   2.732   7.752  0.1483 -0.3717  0.2812
 5288SOL    HW127326   0.823   2.821   7.785 -1.2163 -0.5639  0.4925
 5288SOL    HW227327   0.925   2.735   7.737  0.1441  1.5984  0.7049
 5289SOL     OW27328   0.555   1.439   7.445 -0.0462  0.2944 -0.4532
 5289SOL    HW127329   0.649   1.428   7.433 -0.3804 -0.7749 -2.1224
 5289SOL    HW227330   0.537   1.357   7.492  1.2870  0.0339 -0.3833
 5290SOL     OW27331   2.884   2.051  12.395 -0.1108 -0.8255 -0.5117
 5290SOL    HW127332   2.975   2.074  12.379 -0.1798 -0.7447 -0.7854
 5290SOL    HW227333   2.897   1.959  12.375 -2.3965 -1.2909  0.1314
 5291SOL     OW27334   1.144   2.683   5.812 -0.2653 -0.1074  0.3040
 5291SOL    HW127335   1.090   2.726   5.878 -3.6164 -2.3138 -0.9948
 5291SOL    HW227336   1.194   2.622   5.867  0.7091 -0.6172 -1.1446
 5292SOL     OW27337   4.503   1.682  13.901 -0.7075  0.1914  0.0508
 5292SOL    HW127338   4.581   1.687  13.845 -0.2223  1.4422  0.8595
 5292SOL    HW227339   4.535   1.735  13.974  0.3360 -1.3642  0.7446
 5293SOL     OW27340   2.484   3.988   6.245 -0.5636 -0.4519  0.1111
 5293SOL    HW127341   2.569   3.957   6.215 -0.8832 -1.4388  0.2277
 5293SOL    HW227342   2.507   4.006   6.336 -1.5559  0.2861  0.2227
 5294SOL     OW27343   0.043   1.244   6.484  0.7801 -0.1129  0.5073
 5294SOL    HW127344   0.111   1.240   6.417  1.4370 -1.3821  1.2441
 5294SOL    HW227345   0.039   1.337   6.504  0.7450 -0.2542  1.1797
 5295SOL     OW27346   1.275   3.118   1.461  0.2199 -0.2055 -0.5410
 5295SOL    HW127347   1.340   3.062   1.503 -0.1141  0.3089  0.6596
 5295SOL    HW227348   1.226   3.054   1.409  0.4448 -0.3424 -0.5840
 5296SOL     OW27349   2.742   1.309   6.827  0.3073  0.2270 -1.0376
 5296SOL    HW127350   2.711   1.281   6.913 -1.3765  1.7466 -1.1660
 5296SOL    HW227351   2.727   1.224   6.786  0.0477 -0.2587  0.0600
 5297SOL     OW27352   4.623   3.855   5.714 -0.0821  0.3231 -0.0599
 5297SOL    HW127353   4.643   3.939   5.672  1.4747  0.3202  0.6651
 5297SOL    HW227354   4.623   3.880   5.807 -2.4057 -3.5757  0.9753
 5298SOL     OW27355   4.706   2.666   5.731  0.3578  0.7965  0.7317
 5298SOL    HW127356   4.644   2.712   5.788  0.1256 -0.4909  1.5082
 5298SOL    HW227357   4.675   2.696   5.645  0.6091  1.7972  0.9878
 5299SOL     OW27358   0.579   1.484  17.458  0.4184  0.1608 -0.1182
 5299SOL    HW127359   0.668   1.515  17.473  0.9935 -2.1324  1.1920
 5299SOL    HW227360   0.609   1.415  17.399 -3.2812 -0.0829 -1.7315
 5300SOL     OW27361   2.321   2.517   6.067 -0.4754 -0.5565  0.3200
 5300SOL    HW127362   2.251   2.572   6.103 -0.8093  0.3181 -1.6392
 5300SOL    HW227363   2.380   2.512   6.142  0.0082  1.4948  0.0794
 5301SOL     OW27364   2.322   3.736  15.424  0.5210 -0.4477  0.4242
 5301SOL    HW127365   2.303   3.773  15.338  2.3826  0.7180  0.4939
 5301SOL    HW227366   2.262   3.786  15.480  0.5950 -0.6038  0.6429
 5302SOL     OW27367   0.060   3.144   1.046 -0.0335 -0.4223  0.0009
 5302SOL    HW127368   0.093   3.154   1.135 -0.9906  1.0068  0.1947
 5302SOL    HW227369   4.719   3.070   1.051 -1.3063  0.6170  0.0875
 5303SOL     OW27370   3.167   2.605   3.939 -0.0291 -0.0341 -0.3292
 5303SOL    HW127371   3.192   2.513   3.950  0.2693 -0.1092 -1.6314
 5303SOL    HW227372   3.102   2.596   3.869 -0.7945  0.5737  0.2931
 5304SOL     OW27373   1.487   0.852   4.384  0.1677 -0.6157 -0.3281
 5304SOL    HW127374   1.467   0.940   4.413  0.1814 -0.3425 -1.1282
 5304SOL    HW227375   1.527   0.817   4.463  1.7758  3.5889  0.7113
 5305SOL     OW27376   4.377   0.914  15.378  0.7003  0.5101  0.4674
 5305SOL    HW127377   4.352   0.961  15.457  1.6338  1.3071  0.2836
 5305SOL    HW227378   4.408   0.837  15.426 -1.4021 -0.0447  0.9424
 5306SOL     OW27379   4.070   4.184   0.924 -0.4995 -0.3546 -0.0587
 5306SOL    HW127380   4.113   4.160   0.842 -2.4660 -0.7883 -0.9664
 5306SOL    HW227381   4.142   4.210   0.981 -0.7010  1.0331 -0.4320
 5307SOL     OW27382   4.142   3.947  10.972  0.8641  0.3831 -0.7934
 5307SOL    HW127383   4.059   3.922  10.932  1.0851  1.9447 -2.2261
 5307SOL    HW227384   4.195   3.869  10.956  0.7475  0.0899  0.2273
 5308SOL     OW27385   3.904   0.100   2.878 -0.3686  0.3653  0.2614
 5308SOL    HW127386   3.961   0.073   2.950 -2.1636 -0.9678  1.1640
 5308SOL    HW227387   3.820   0.067   2.907 -0.7574  1.0309 -0.1004
 5309SOL     OW27388   4.163   2.626   5.302  0.2391 -0.0705 -0.6261
 5309SOL    HW127389   4.258   2.626   5.313  0.3459  2.4921 -1.5771
 5309SOL    HW227390   4.134   2.621   5.393  1.3360  0.2046 -0.2661
 5310SOL     OW27391   1.037   3.400   2.749 -0.3451  0.4414  0.3559
 5310SOL    HW127392   1.065   3.315   2.714  0.6265  0.9735 -0.1549
 5310SOL    HW227393   0.997   3.439   2.671  3.9096 -1.2006 -2.6461
 5311SOL     OW27394   3.130   1.231   0.990  0.0822 -0.6393  0.7558
 5311SOL    HW127395   3.124   1.326   1.007  1.9544 -0.2268 -0.9368
 5311SOL    HW227396   3.043   1.209   1.024  0.4417 -2.0765  0.7225
 5312SOL     OW27397   1.781   1.966   0.990 -0.3179 -0.3810  0.2046
 5312SOL    HW127398   1.784   2.018   0.909 -0.1246  1.7467  1.5862
 5312SOL    HW227399   1.865   1.922   1.001 -1.5272 -2.6793  0.2952
 5313SOL     OW27400   1.568   1.617   4.288  0.1001 -0.0151  0.3945
 5313SOL    HW127401   1.585   1.526   4.313 -0.9623 -0.3114  0.0554
 5313SOL    HW227402   1.561   1.619   4.192 -1.7447 -0.5790  0.5012
 5314SOL     OW27403   4.667   0.327  14.518  0.2929 -0.0029 -0.2417
 5314SOL    HW127404   4.648   0.417  14.491 -0.3026  0.4009  1.5253
 5314SOL    HW227405   0.035   0.310  14.484  0.3940  0.6394 -0.3032
 5315SOL     OW27406   0.702   1.909   5.577  0.8543  0.0724  0.0413
 5315SOL    HW127407   0.608   1.913   5.599  1.1888  2.0391  1.0600
 5315SOL    HW227408   0.712   1.817   5.554 -1.8849  0.1949 -1.6693
 5316SOL     OW27409   1.926   4.369  14.096  0.2610  0.0055  0.5933
 5316SOL    HW127410   1.977   4.419  14.161  2.7566 -2.6379  0.6741
 5316SOL    HW227411   1.981   4.370  14.018 -0.9486 -1.0706 -0.2757
 5317SOL     OW27412   4.210   2.228   5.426 -0.2451  0.3793  0.0947
 5317SOL    HW127413   4.222   2.230   5.331 -1.7973 -1.7504 -0.1567
 5317SOL    HW227414   4.260   2.148   5.443  0.3437  0.1199 -2.7248
 5318SOL     OW27415   3.797   3.828   1.149 -0.4202  0.1559  0.2318
 5318SOL    HW127416   3.802   3.917   1.115 -2.9745 -0.0394 -0.6489
 5318SOL    HW227417   3.871   3.789   1.102 -0.9182 -1.1835  0.5395
 5319SOL     OW27418   2.789   0.708   7.607  0.0779  0.2451 -0.0707
 5319SOL    HW127419   2.747   0.634   7.651 -1.4988  1.5564  0.6560
 5319SOL    HW227420   2.858   0.661   7.561  0.4933  0.2492  0.5517
 5320SOL     OW27421   2.740   3.386   4.644  0.0701 -0.2522 -0.5720
 5320SOL    HW127422   2.683   3.353   4.714  0.9510  0.1174  0.3299
 5320SOL    HW227423   2.798   3.314   4.620  2.0212  1.0868  0.1867
 5321SOL     OW27424   3.377   0.155   6.846 -0.2512  0.1979  0.3173
 5321SOL    HW127425   3.351   0.246   6.832  0.0961  0.0869 -1.0619
 5321SOL    HW227426   3.472   0.156   6.836 -0.0753 -0.3559  1.9799
 5322SOL     OW27427   2.693   2.463  13.380  0.7181  0.0292 -0.2456
 5322SOL    HW127428   2.690   2.438  13.473  1.0304  2.0431  0.3152
 5322SOL    HW227429   2.609   2.507  13.370  1.9501  2.2911 -0.6870
 5323SOL     OW27430   1.227   2.739  11.504 -0.2215 -0.0304 -0.1964
 5323SOL    HW127431   1.267   2.784  11.429  1.3577  0.0363  0.6739
 5323SOL    HW227432   1.139   2.741  11.466 -0.3583 -1.8781  0.0399
 5324SOL     OW27433   2.790   4.517   5.544 -0.9537 -0.2204  0.4411
 5324SOL    HW127434   2.744   4.591   5.505 -2.0014  0.2621  2.6053
 5324SOL    HW227435   2.852   4.489   5.476  0.1296  0.9282  0.9519
 5325SOL     OW27436   4.287   3.238   2.755  0.1646 -0.3583 -0.4813
 5325SOL    HW127437   4.268   3.321   2.710  2.3358  2.3135  3.5222
 5325SOL    HW227438   4.254   3.252   2.844 -1.0820 -0.5997 -0.9023
 5326SOL     OW27439   4.700   1.350   8.411 -0.2834 -0.0873  0.2281
 5326SOL    HW127440   0.068   1.389   8.405 -0.5347  0.4212 -0.2037
 5326SOL    HW227441   4.656   1.417   8.358  0.9195 -1.3892 -2.4138
 5327SOL     OW27442   4.463   0.241   1.185 -0.1318 -0.2153 -0.1055
 5327SOL    HW127443   4.385   0.292   1.163  0.1156 -0.1731 -0.8856
 5327SOL    HW227444   4.485   0.198   1.102 -0.3061 -1.8837  0.7118
 5328SOL     OW27445   3.187   4.477   4.315 -0.0823  0.3673  0.3720
 5328SOL    HW127446   3.187   4.390   4.276  1.4948 -0.5459  2.4072
 5328SOL    HW227447   3.179   4.538   4.242  1.4716  1.0061  0.7227
 5329SOL     OW27448   0.421   3.987   4.461  0.5200 -0.3908  0.5420
 5329SOL    HW127449   0.384   4.018   4.543  1.6269  2.8251 -0.1644
 5329SOL    HW227450   0.497   3.943   4.498 -0.1026 -1.7947  0.1714
 5330SOL     OW27451   3.326   3.292   2.968  0.1559  0.2917  0.2542
 5330SOL    HW127452   3.402   3.341   2.935 -0.7801  0.8159 -1.0982
 5330SOL    HW227453   3.280   3.357   3.021 -1.3397 -1.3877  1.0329
 5331SOL     OW27454   0.030   2.827   6.083 -0.1817  0.0308 -0.2686
 5331SOL    HW127455   4.657   2.849   6.076 -0.2460  0.0523  0.5995
 5331SOL    HW227456   0.017   2.734   6.102 -1.1555  0.2665  0.1987
 5332SOL     OW27457   0.873   3.072  15.142 -0.2705 -0.3391 -0.0215
 5332SOL    HW127458   0.953   3.107  15.181 -0.7439  1.7897 -1.0056
 5332SOL    HW227459   0.853   3.001  15.203  1.0527 -0.4946  0.2298
 5333SOL     OW27460   4.328   4.044   1.427  0.3376  0.0039  0.3757
 5333SOL    HW127461   4.413   4.002   1.428  0.7423  0.8324  1.3031
 5333SOL    HW227462   4.279   3.980   1.478  1.9842  0.0576  2.0280
 5334SOL     OW27463   0.132   1.879   8.518 -1.0554  0.1232  0.2820
 5334SOL    HW127464   0.207   1.909   8.466 -0.3471 -0.9978  0.6656
 5334SOL    HW227465   0.068   1.945   8.490  0.1417  0.5130 -1.5641
 5335SOL     OW27466   0.249   1.246   1.860  0.5002 -0.1114 -0.7018
 5335SOL    HW127467   0.195   1.313   1.819  0.0792  0.0332  0.0732
 5335SOL    HW227468   0.268   1.195   1.782  0.5786 -0.3859 -0.5031
 5336SOL     OW27469   3.044   2.387   5.104  1.2431  0.2581  0.0341
 5336SOL    HW127470   3.046   2.305   5.055  0.8409 -0.3379  1.0293
 5336SOL    HW227471   3.088   2.452   5.050  0.0643  1.0881  0.0685
 5337SOL     OW27472   0.012   2.288   5.878  0.0278 -0.1573 -0.7119
 5337SOL    HW127473   4.707   2.335   5.798 -1.1009  3.3019  1.6516
 5337SOL    HW227474   0.106   2.303   5.884 -0.1974  0.5206  1.4384
 5338SOL     OW27475   0.867   3.904   2.537  0.2698  0.0261  0.1130
 5338SOL    HW127476   0.787   3.913   2.485  1.0454  0.7947 -0.9696
 5338SOL    HW227477   0.927   3.909   2.462 -0.0217  0.0031 -0.1191
 5339SOL     OW27478   1.468   1.629   7.504 -0.7882 -1.3777  0.2560
 5339SOL    HW127479   1.506   1.578   7.432  1.2559 -2.1645  1.8958
 5339SOL    HW227480   1.536   1.695   7.515  0.1152 -2.0966 -0.9050
 5340SOL     OW27481   2.383   1.889  16.580  0.1581  0.0713  0.1302
 5340SOL    HW127482   2.378   1.816  16.519  3.2134 -0.7702  0.8880
 5340SOL    HW227483   2.470   1.871  16.616  0.7750 -0.2134 -1.5443
 5341SOL     OW27484   1.253   4.449   2.245  0.1548 -0.3400  0.0712
 5341SOL    HW127485   1.292   4.474   2.162  0.9679 -0.3075  0.4585
 5341SOL    HW227486   1.242   4.531   2.293 -1.1299  0.5631 -1.7957
 5342SOL     OW27487   0.470   2.572  17.659 -0.1238  0.1076 -0.3066
 5342SOL    HW127488   0.410   2.644  17.638 -0.6103 -0.6810 -1.5795
 5342SOL    HW227489   0.500   2.608   0.062  2.6525  0.8480 -1.6022
 5343SOL     OW27490   1.469   4.033   3.669  0.1381 -0.2259  0.1139
 5343SOL    HW127491   1.440   4.104   3.726  0.7911 -0.2579  0.4776
 5343SOL    HW227492   1.406   4.037   3.597 -1.1008 -2.3895  1.0653
 5344SOL     OW27493   1.228   1.814   7.705 -0.6916  0.2540  0.3405
 5344SOL    HW127494   1.218   1.832   7.798  0.1408 -0.2938  0.5405
 5344SOL    HW227495   1.145   1.844   7.669 -0.4493  0.2116 -0.2650
 5345SOL     OW27496   0.957   1.305   8.449  0.4563  0.5659  0.7266
 5345SOL    HW127497   0.962   1.257   8.367 -2.3981 -1.6823  1.8567
 5345SOL    HW227498   0.944   1.241   8.519  1.8751 -1.4418 -0.8502
 5346SOL     OW27499   3.298   1.952  13.315 -0.2653  0.0913  0.1571
 5346SOL    HW127500   3.265   2.004  13.241 -2.5310 -0.5047  0.7541
 5346SOL    HW227501   3.225   1.969  13.375  0.3444 -0.3014  0.9998
 5347SOL     OW27502   2.688   4.621   9.460 -0.2252  0.0754  0.1104
 5347SOL    HW127503   2.686   4.612   9.556  1.0044  0.5442  0.1864
 5347SOL    HW227504   2.709   4.534   9.426 -3.2372 -1.1309  1.3276
 5348SOL     OW27505   3.537   3.888   5.221  0.0555  0.0044 -0.0433
 5348SOL    HW127506   3.453   3.844   5.206  1.3422 -1.8067 -1.9077
 5348SOL    HW227507   3.597   3.815   5.204  0.2766  0.6133 -1.8128
 5349SOL     OW27508   1.147   0.494   8.592 -0.2600 -0.0640  0.1054
 5349SOL    HW127509   1.106   0.408   8.605 -1.0181  0.8622  3.8068
 5349SOL    HW227510   1.133   0.527   8.680 -1.7231  1.9413 -0.8975
 5350SOL     OW27511   0.021   0.960   5.434 -0.2507 -0.2130 -0.4446
 5350SOL    HW127512   4.714   0.950   5.343  0.2031  1.7841 -0.7818
 5350SOL    HW227513   0.038   1.053   5.448  1.4725 -0.4155 -1.1446
 5351SOL     OW27514   3.361   3.229  15.345  0.5719 -0.3504  0.2490
 5351SOL    HW127515   3.293   3.265  15.402 -0.5815 -3.7808  1.0633
 5351SOL    HW227516   3.420   3.188  15.408  0.0906  1.5325  1.9192
 5352SOL     OW27517   4.211   4.355   4.247  0.1862 -0.7400 -0.0652
 5352SOL    HW127518   4.288   4.318   4.204  0.4210  0.6914 -0.8667
 5352SOL    HW227519   4.186   4.418   4.180  1.6281 -2.2738 -2.0458
 5353SOL     OW27520   1.558   3.870   6.398 -0.0016 -0.0199 -0.1248
 5353SOL    HW127521   1.465   3.886   6.381  0.2166 -0.1194 -1.4266
 5353SOL    HW227522   1.589   3.839   6.313  1.4714 -1.7808  1.0466
 5354SOL     OW27523   1.990   0.886   3.766 -0.2023 -0.1182  0.5646
 5354SOL    HW127524   2.076   0.915   3.736  0.1123 -0.6430  0.9544
 5354SOL    HW227525   2.020   0.840   3.844  0.3470  0.1681  0.5218
 5355SOL     OW27526   2.717   1.713  12.135 -0.4769 -0.1541  0.2223
 5355SOL    HW127527   2.693   1.621  12.147 -2.2581  0.5028  1.7579
 5355SOL    HW227528   2.748   1.714  12.044  0.4350  0.4797  0.5415
 5356SOL     OW27529   2.909   4.191   6.430  0.1233  0.2281 -0.2868
 5356SOL    HW127530   2.839   4.194   6.495  0.5052  0.5289  0.1057
 5356SOL    HW227531   2.861   4.176   6.348 -0.4436  1.4342 -0.1804
 5357SOL     OW27532   2.197   2.827   6.627 -0.0634 -0.4357  0.2998
 5357SOL    HW127533   2.215   2.857   6.538  0.6811 -0.3871  0.4706
 5357SOL    HW227534   2.282   2.802   6.662  0.1833 -1.2248 -0.8412
 5358SOL     OW27535   0.579   3.357   7.371  0.2122  0.1048 -0.1681
 5358SOL    HW127536   0.530   3.301   7.430  0.7388  1.3149  1.4081
 5358SOL    HW227537   0.668   3.355   7.406 -0.3192 -1.0854  1.1144
 5359SOL     OW27538   2.395   0.218   7.053  0.4161 -0.0865  0.7657
 5359SOL    HW127539   2.299   0.218   7.057  0.4495 -1.1918  1.6494
 5359SOL    HW227540   2.425   0.130   7.076 -1.5972 -0.9225  0.2096
 5360SOL     OW27541   4.178   2.003  14.335  0.3512  0.0445  0.1027
 5360SOL    HW127542   4.192   1.934  14.271 -1.2901  0.0587 -0.2680
 5360SOL    HW227543   4.156   1.942  14.406  0.6761 -0.8804 -0.6006
 5361SOL     OW27544   0.980   1.943   7.629  0.0860 -0.0985 -0.2033
 5361SOL    HW127545   0.989   1.953   7.535 -0.4823 -2.0726 -0.4548
 5361SOL    HW227546   0.977   2.034   7.660 -0.4718 -0.1070 -0.2483
 5362SOL     OW27547   0.752   3.600   2.342 -0.2756 -0.6978  0.0115
 5362SOL    HW127548   0.828   3.656   2.323 -0.3546 -0.1308  1.3813
 5362SOL    HW227549   0.689   3.625   2.275  0.8030 -0.4025 -0.8831
 5363SOL     OW27550   4.512   1.299  11.920  0.0364 -0.0614 -0.4024
 5363SOL    HW127551   4.469   1.343  11.848 -1.5432 -0.5764  0.2277
 5363SOL    HW227552   4.437   1.258  11.963  1.3269 -1.6043  0.3960
 5364SOL     OW27553   1.953   4.456   8.113 -0.1470  0.0278 -0.1997
 5364SOL    HW127554   1.897   4.382   8.090 -0.9026  0.7400 -0.6835
 5364SOL    HW227555   1.900   4.528   8.078  0.1990  1.2181  1.7149
 5365SOL     OW27556   0.158   1.431   5.102 -0.5317 -0.0724 -0.2966
 5365SOL    HW127557   0.182   1.373   5.029  2.3836  1.9018 -0.9014
 5365SOL    HW227558   0.164   1.511   5.050 -0.5410 -0.9168 -1.5920
 5366SOL     OW27559   0.099   1.136   9.253 -0.5095 -0.0484 -0.5196
 5366SOL    HW127560   0.142   1.126   9.337  0.7947 -0.9239 -1.2981
 5366SOL    HW227561   0.109   1.231   9.243 -1.5222  0.1710  0.6357
 5367SOL     OW27562   1.896   1.371   2.345 -0.4871  0.5176 -0.3600
 5367SOL    HW127563   1.804   1.355   2.325 -0.3181 -0.7436 -0.1259
 5367SOL    HW227564   1.891   1.449   2.401  1.0941 -0.6255  1.3428
 5368SOL     OW27565   4.059   3.952   1.953 -0.0588  1.0850  0.0467
 5368SOL    HW127566   3.995   3.880   1.950  0.4549  0.6890 -1.4935
 5368SOL    HW227567   4.040   3.992   1.869 -0.9369 -2.5189 -1.4683
 5369SOL     OW27568   2.546   0.046   9.273 -0.9249  0.5814  0.1185
 5369SOL    HW127569   2.500   0.089   9.345  0.6960 -1.4685  2.3973
 5369SOL    HW227570   2.610   0.006   9.332  0.2446 -0.5200 -1.8868
 5370SOL     OW27571   0.010   4.236   8.543 -0.3543  0.5627  0.2137
 5370SOL    HW127572   0.028   4.312   8.487 -1.7775 -0.1247 -1.1776
 5370SOL    HW227573   0.086   4.219   8.599  0.0586  1.6358 -0.0128
 5371SOL     OW27574   4.112   2.150  16.229  0.0695 -0.0319  0.4018
 5371SOL    HW127575   4.059   2.229  16.240  0.4283  0.2258  0.2962
 5371SOL    HW227576   4.172   2.170  16.300 -0.8726 -0.0796  1.2092
 5372SOL     OW27577   3.490   2.989  10.351  0.1519 -0.3208  0.5665
 5372SOL    HW127578   3.524   2.959  10.267 -0.8265  0.9908 -0.3037
 5372SOL    HW227579   3.512   3.081  10.339  1.4836 -0.6923  0.1912
 5373SOL     OW27580   0.609   1.250   2.365 -0.1840  0.1663 -0.1318
 5373SOL    HW127581   0.526   1.203   2.362  0.1977 -0.6777  2.3193
 5373SOL    HW227582   0.578   1.338   2.386  0.4220  0.1228  0.9690
 5374SOL     OW27583   1.774   1.446   5.916  0.0732  0.0377  0.2680
 5374SOL    HW127584   1.739   1.492   5.992 -2.1499 -0.8790 -0.1831
 5374SOL    HW227585   1.749   1.357   5.941  0.3476  0.1273  0.8422
 5375SOL     OW27586   1.643   4.131   5.863  0.7275  0.2499  0.1324
 5375SOL    HW127587   1.557   4.161   5.893 -0.1048 -2.0857  0.0290
 5375SOL    HW227588   1.610   4.056   5.815  0.5710 -0.0588  0.7179
 5376SOL     OW27589   1.954   3.775   6.842 -0.4742  0.8521 -0.3172
 5376SOL    HW127590   1.902   3.842   6.798 -0.9077  0.1608 -0.8452
 5376SOL    HW227591   2.042   3.813   6.842 -0.6451  1.2455 -0.1042
 5377SOL     OW27592   3.323   3.961   5.470 -0.2159  0.2103  0.6703
 5377SOL    HW127593   3.330   3.894   5.402  0.1027  1.1851 -0.2473
 5377SOL    HW227594   3.246   3.934   5.518 -0.0077 -1.4118  0.0867
 5378SOL     OW27595   4.645   0.771   4.416  0.1042 -0.1991 -0.1963
 5378SOL    HW127596   4.711   0.833   4.385  0.2613  0.5736  1.6729
 5378SOL    HW227597   4.627   0.718   4.338 -1.4928  2.0269 -1.3578
 5379SOL     OW27598   3.627   1.858   8.618  0.1690 -0.6583  0.2001
 5379SOL    HW127599   3.599   1.803   8.544 -0.2988 -0.2504  0.0698
 5379SOL    HW227600   3.722   1.853   8.622  0.1124 -1.4463  0.5927
 5380SOL     OW27601   3.600   1.600   3.026  0.5298 -0.2731  0.0417
 5380SOL    HW127602   3.533   1.575   2.963  1.6108 -2.1749 -0.3442
 5380SOL    HW227603   3.664   1.529   3.024 -0.2818 -0.9403 -1.8885
 5381SOL     OW27604   1.413   3.292   0.298  0.3504 -0.3177  0.3835
 5381SOL    HW127605   1.343   3.326   0.243 -0.5245 -3.1698 -0.3000
 5381SOL    HW227606   1.441   3.212   0.252 -0.3002 -0.8451  0.8950
 5382SOL     OW27607   1.176   2.189  13.479 -0.4897 -0.5434  0.0357
 5382SOL    HW127608   1.082   2.197  13.499 -0.5560 -0.1199 -0.4416
 5382SOL    HW227609   1.189   2.277  13.445 -0.8154 -0.2026  0.7885
 5383SOL     OW27610   4.171   1.872   1.877 -0.0345 -0.3760 -0.3821
 5383SOL    HW127611   4.087   1.834   1.850  0.3200 -0.6145 -1.1437
 5383SOL    HW227612   4.196   1.910   1.792 -1.7842  2.4622  0.3691
 5384SOL     OW27613   2.931   4.565   3.560 -0.7314  0.0985  0.3671
 5384SOL    HW127614   2.859   4.503   3.573 -0.6592 -0.1848 -0.5529
 5384SOL    HW227615   2.883   4.638   3.598 -0.8923 -0.3895  1.1036
 5385SOL     OW27616   2.300   0.985   3.385 -0.0857  0.5911  0.3041
 5385SOL    HW127617   2.286   0.901   3.341 -1.5642  0.1196  1.6559
 5385SOL    HW227618   2.386   1.000   3.347 -0.4462  0.3771 -0.5849
 5386SOL     OW27619   3.944   2.934   3.423  0.0589  0.5364 -0.3185
 5386SOL    HW127620   3.883   2.943   3.350 -1.5207 -0.5344  0.8935
 5386SOL    HW227621   4.010   2.885   3.373 -2.1268  0.2556 -2.9170
 5387SOL     OW27622   4.683   1.610  12.816  0.4103  0.1809 -0.2915
 5387SOL    HW127623   4.672   1.602  12.721  2.5741 -1.2886 -0.4265
 5387SOL    HW227624   4.718   1.699  12.816  0.2851  0.2377 -2.1952
 5388SOL     OW27625   4.689   0.524   3.415  0.5826  0.5169 -0.2690
 5388SOL    HW127626   4.718   0.522   3.324  1.8349  0.1861  0.1379
 5388SOL    HW227627   4.602   0.486   3.400  0.7835  0.8820 -2.2698
 5389SOL     OW27628   4.411   2.034   2.464  0.2065 -0.3889  0.7927
 5389SOL    HW127629   4.416   2.071   2.553 -1.1970 -0.0914  0.7404
 5389SOL    HW227630   4.506   2.037   2.455 -0.1084  2.4722 -1.4679
 5390SOL     OW27631   2.454   1.696   3.199  0.0034 -0.1711  0.6349
 5390SOL    HW127632   2.382   1.758   3.194 -0.6070 -0.9431 -0.0228
 5390SOL    HW227633   2.526   1.756   3.176 -0.1908 -0.7392 -1.4160
 5391SOL     OW27634   2.678   2.331   6.238 -0.2046  0.1080  0.4329
 5391SOL    HW127635   2.618   2.324   6.313 -2.1196 -0.6871 -1.1700
 5391SOL    HW227636   2.608   2.306   6.177 -0.0500 -0.1159  0.3503
 5392SOL     OW27637   3.788   1.767   9.397 -0.7081  0.4635  0.1670
 5392SOL    HW127638   3.879   1.745   9.374 -1.8955 -4.4457  0.2157
 5392SOL    HW227639   3.793   1.821   9.476 -0.8429 -1.7065  1.6666
 5393SOL     OW27640   2.288   0.381   6.187  0.1990  0.0188 -0.4236
 5393SOL    HW127641   2.381   0.402   6.180  0.3155 -0.2715  0.2901
 5393SOL    HW227642   2.260   0.428   6.108 -1.1241 -2.2563 -1.3014
 5394SOL     OW27643   0.472   0.852   6.820  0.2801  0.1017  0.1308
 5394SOL    HW127644   0.553   0.802   6.814  0.4288  0.3225  0.3401
 5394SOL    HW227645   0.515   0.937   6.818 -0.6204  0.6068  1.3879
 5395SOL     OW27646   4.056   1.251  13.814  0.2068  0.5092 -0.4025
 5395SOL    HW127647   4.034   1.304  13.890  0.2542 -0.3907  0.2345
 5395SOL    HW227648   4.145   1.226  13.838  0.2685  0.5446 -0.5946
 5396SOL     OW27649   4.214   3.081   1.336 -0.4233 -0.3863 -0.0872
 5396SOL    HW127650   4.239   3.075   1.244 -0.1865 -0.1176 -0.0405
 5396SOL    HW227651   4.239   3.169   1.364 -0.3144 -0.4995  0.1793
 5397SOL     OW27652   4.139   1.607   4.442  0.0901 -0.2594  0.0631
 5397SOL    HW127653   4.160   1.602   4.348 -0.7385 -0.4990 -0.1041
 5397SOL    HW227654   4.050   1.641   4.436  0.7688  1.2312 -1.9249
 5398SOL     OW27655   0.082   0.195  13.801  0.1257 -0.1108  0.0666
 5398SOL    HW127656   0.116   0.163  13.884  0.5079 -2.5520 -1.0295
 5398SOL    HW227657   0.101   0.127  13.737  0.1170 -0.7663  0.7546
 5399SOL     OW27658   4.226   1.934   7.603  0.8398  0.1097 -0.0474
 5399SOL    HW127659   4.132   1.918   7.605  1.2490 -2.0568  0.8828
 5399SOL    HW227660   4.227   2.002   7.535 -0.0780  2.0219  1.8636
 5400SOL     OW27661   1.737   3.997   8.679  0.3599  0.2162  0.2622
 5400SOL    HW127662   1.700   3.948   8.605 -1.5260  1.9159  0.0644
 5400SOL    HW227663   1.829   3.998   8.653  0.2200 -0.3111 -0.2454
 5401SOL     OW27664   0.438   1.006  15.109 -0.2339 -0.0001  0.3966
 5401SOL    HW127665   0.467   0.926  15.152  3.6508  0.6599 -1.0353
 5401SOL    HW227666   0.476   0.990  15.023 -1.9968 -0.7145 -0.2627
 5402SOL     OW27667   0.514   0.740   6.497 -0.2180  0.3163 -0.0175
 5402SOL    HW127668   0.523   0.780   6.583  0.2853  1.4748 -0.6010
 5402SOL    HW227669   0.598   0.760   6.454 -0.3404  2.9417  0.9338
 5403SOL     OW27670   3.571   2.906  10.112  0.4222 -0.4699 -0.0274
 5403SOL    HW127671   3.580   2.812  10.101 -1.5232 -0.4854 -1.4636
 5403SOL    HW227672   3.615   2.926  10.029 -0.0554  0.5764 -0.0349
 5404SOL     OW27673   2.370   1.971   1.324 -0.2654  0.1633  0.2522
 5404SOL    HW127674   2.354   2.065   1.314 -2.7025 -0.4196 -1.3890
 5404SOL    HW227675   2.349   1.960   1.417  0.3470  1.7239  0.5763
 5405SOL     OW27676   4.527   0.866   2.557  0.2598 -0.8699  0.2830
 5405SOL    HW127677   4.497   0.854   2.467  0.2091  0.4000  0.1264
 5405SOL    HW227678   4.452   0.908   2.599  1.3296 -0.6246  1.9475
 5406SOL     OW27679   3.835   4.019   2.597 -0.2369  0.3856 -0.0217
 5406SOL    HW127680   3.758   4.023   2.540 -1.3391  1.8225  1.5582
 5406SOL    HW227681   3.839   3.924   2.612  0.0026  0.3081 -0.5575
 5407SOL     OW27682   1.889   2.904   4.789  0.6867  0.2795  0.0195
 5407SOL    HW127683   1.909   2.853   4.867 -1.5064 -0.9769 -0.2548
 5407SOL    HW227684   1.796   2.911   4.809 -0.0997 -1.6115 -3.0660
 5408SOL     OW27685   2.616   2.376   2.047 -0.5252 -0.0293  0.0277
 5408SOL    HW127686   2.689   2.398   1.990 -0.5766 -0.8197 -0.3428
 5408SOL    HW227687   2.544   2.413   1.997 -0.9800  1.1247  1.5174
 5409SOL     OW27688   0.393   4.466  11.943 -0.3345  0.7947 -0.2303
 5409SOL    HW127689   0.475   4.515  11.946  0.5931 -0.8138  0.7813
 5409SOL    HW227690   0.365   4.468  12.034  2.0676 -4.2342  0.6080
 5410SOL     OW27691   0.818   3.009  10.400  0.5433 -0.1776 -0.4589
 5410SOL    HW127692   0.894   3.066  10.406  0.5324 -0.2556  0.3764
 5410SOL    HW227693   0.793   2.983  10.488 -0.7443 -1.8030 -1.2979
 5411SOL     OW27694   2.044   2.797   7.828  0.1353  0.0005 -0.2555
 5411SOL    HW127695   1.981   2.869   7.821 -0.2522 -0.3244 -0.0249
 5411SOL    HW227696   2.067   2.811   7.920 -1.9722 -1.5872  0.4865
 5412SOL     OW27697   1.816   0.506   5.608  0.1230  0.4328  0.0885
 5412SOL    HW127698   1.866   0.425   5.601  1.6911  1.1572  2.8233
 5412SOL    HW227699   1.729   0.471   5.625  0.6204  0.5723  2.8251
 5413SOL     OW27700   2.909   2.523   8.167 -0.1159 -0.0613  0.1790
 5413SOL    HW127701   2.903   2.427   8.168 -0.2065 -0.0769 -1.5251
 5413SOL    HW227702   2.969   2.554   8.234 -0.0085  0.0886  0.0129
 5414SOL     OW27703   2.604   0.643  13.452  0.0959  0.2782  0.0008
 5414SOL    HW127704   2.560   0.559  13.464 -1.4605  1.6594  3.7708
 5414SOL    HW227705   2.690   0.619  13.416 -0.4513  0.2852 -1.3161
 5415SOL     OW27706   0.667   3.408   7.685  0.2778 -0.1917 -0.3822
 5415SOL    HW127707   0.675   3.447   7.772  0.9170  0.9756 -0.9742
 5415SOL    HW227708   0.615   3.330   7.706 -0.3584  0.5127  0.7066
 5416SOL     OW27709   4.640   3.847   6.708 -0.0278  0.0472  0.1349
 5416SOL    HW127710   4.551   3.826   6.737 -0.7679  0.2330 -2.0594
 5416SOL    HW227711   4.650   3.767   6.656  1.5061  0.1975  0.1888
 5417SOL     OW27712   3.301   4.229   5.421  0.0613  0.1245  0.0929
 5417SOL    HW127713   3.217   4.252   5.461 -1.1046 -0.6233 -1.8856
 5417SOL    HW227714   3.295   4.134   5.417  0.6320  0.1253 -0.9202
 5418SOL     OW27715   2.453   0.867  13.244  0.2951 -1.0523  0.0491
 5418SOL    HW127716   2.415   0.902  13.164  1.2895  1.5639  0.7404
 5418SOL    HW227717   2.525   0.816  13.207  0.4517  0.7215 -2.1024
 5419SOL     OW27718   2.580   0.969   7.163 -0.0689  0.4684  0.6692
 5419SOL    HW127719   2.535   0.916   7.229 -0.5891 -0.6037 -0.5664
 5419SOL    HW227720   2.539   0.944   7.080  1.6750  1.8345 -0.5893
 5420SOL     OW27721   3.116   2.866   7.035  0.1388 -0.3650  0.0376
 5420SOL    HW127722   3.138   2.775   7.014 -1.7252 -0.3254 -2.0613
 5420SOL    HW227723   3.193   2.907   7.074 -1.8595  0.5982  3.0031
 5421SOL     OW27724   4.483   2.006   8.329  0.2814 -0.3290  0.1935
 5421SOL    HW127725   4.483   2.027   8.423 -1.2553  0.6356 -0.0302
 5421SOL    HW227726   4.557   2.057   8.297 -1.1865  0.3685 -2.0531
 5422SOL     OW27727   4.451   2.328   5.765  0.3784  0.4722 -0.2875
 5422SOL    HW127728   4.472   2.240   5.796  0.2931  0.7810  0.6435
 5422SOL    HW227729   4.492   2.390   5.826  0.6217  0.4665 -0.4451
 5423SOL     OW27730   0.110   1.069  15.366  0.5137 -0.7861  0.1644
 5423SOL    HW127731   0.187   1.123  15.380  0.2284 -0.2750 -0.2421
 5423SOL    HW227732   0.045   1.137  15.384  2.2736  1.2097 -1.1098
 5424SOL     OW27733   4.094   1.872  12.854  0.1257  0.5532 -0.4130
 5424SOL    HW127734   4.133   1.852  12.768 -1.7071 -1.5923 -0.7138
 5424SOL    HW227735   4.022   1.929  12.827 -1.0017 -0.8732 -0.3419
 5425SOL     OW27736   0.050   0.162  11.121  0.0362  0.2160 -0.2911
 5425SOL    HW127737   0.011   0.093  11.174 -0.8869  1.2677  0.3913
 5425SOL    HW227738   4.713   0.237  11.139 -0.9919 -0.7342  0.3560
 5426SOL     OW27739   1.582   1.120   3.882  0.0158 -0.2352 -0.1680
 5426SOL    HW127740   1.618   1.059   3.818 -2.5310 -0.2298 -1.6246
 5426SOL    HW227741   1.639   1.195   3.861  0.7317  0.0388  2.7465
 5427SOL     OW27742   1.249   3.234   6.831 -0.3399  0.4617  0.1714
 5427SOL    HW127743   1.310   3.171   6.793  1.2533  1.3816  1.2022
 5427SOL    HW227744   1.211   3.267   6.750  3.9343  1.7997 -1.2934
 5428SOL     OW27745   4.491   0.345   2.779 -0.6512 -0.1981 -0.3306
 5428SOL    HW127746   4.423   0.357   2.712  1.3034 -0.2057 -2.3272
 5428SOL    HW227747   4.565   0.307   2.731 -1.3718 -1.5644 -0.3584
 5429SOL     OW27748   1.539   2.968   8.160  0.2814 -0.1355  0.2244
 5429SOL    HW127749   1.490   2.967   8.078  0.0006 -1.6211  0.4081
 5429SOL    HW227750   1.494   3.020   8.226 -1.3142 -0.6790 -0.4293
 5430SOL     OW27751   3.195   4.472   7.873 -0.2191  0.3529 -0.2203
 5430SOL    HW127752   3.134   4.482   7.800 -1.1600  1.0423  0.6602
 5430SOL    HW227753   3.214   4.563   7.896 -1.0864  0.5670 -0.3699
 5431SOL     OW27754   2.297   2.704   4.105 -0.2989  0.4999  0.3098
 5431SOL    HW127755   2.326   2.643   4.038  1.2266  1.9993 -0.4002
 5431SOL    HW227756   2.383   2.725   4.142 -0.9151 -0.1822  2.1309
 5432SOL     OW27757   0.957   3.159   6.623  0.0733  0.9869 -0.2413
 5432SOL    HW127758   1.018   3.231   6.608  1.3449 -0.0169  0.0911
 5432SOL    HW227759   0.891   3.184   6.558 -0.3608 -1.0977 -0.6215
 5433SOL     OW27760   0.209   0.269   4.195  0.0644  0.2678  0.0513
 5433SOL    HW127761   0.240   0.179   4.205  1.4686  0.7498 -0.0350
 5433SOL    HW227762   0.176   0.284   4.284 -1.5861  0.0233 -0.5193
 5434SOL     OW27763   3.878   1.200   3.534  0.0562 -0.6337  0.0188
 5434SOL    HW127764   3.913   1.160   3.455 -1.5190  1.3802 -1.6754
 5434SOL    HW227765   3.829   1.272   3.496 -0.2380 -1.0288 -0.3488
 5435SOL     OW27766   0.951   3.478   8.005  0.3905  0.1797  0.1939
 5435SOL    HW127767   0.940   3.405   8.066  0.7466 -1.2348 -1.4151
 5435SOL    HW227768   0.861   3.494   7.978  1.0076  2.0032 -0.8137
 5436SOL     OW27769   1.309   0.192   4.012  0.0541  0.4649  0.2086
 5436SOL    HW127770   1.221   0.230   4.015 -0.9217 -1.8932  1.8690
 5436SOL    HW227771   1.340   0.235   3.933 -0.6479 -1.8009 -1.2993
 5437SOL     OW27772   3.385   0.195   8.857 -0.1697 -0.2830 -0.1656
 5437SOL    HW127773   3.404   0.222   8.767 -0.1104  1.0344  0.2484
 5437SOL    HW227774   3.303   0.147   8.843 -0.9413  0.9907 -0.0209
 5438SOL     OW27775   0.624   2.966   6.798 -0.5664 -0.0238  1.0074
 5438SOL    HW127776   0.621   2.913   6.718  0.0405 -0.6760  1.4177
 5438SOL    HW227777   0.537   3.004   6.795 -1.2133 -1.4195  2.0619
 5439SOL     OW27778   4.702   2.962   2.289 -0.0744 -0.4394  0.7978
 5439SOL    HW127779   4.707   2.926   2.200  1.5738  1.4455  0.1208
 5439SOL    HW227780   4.608   2.954   2.306 -0.5681  0.1938 -1.5885
 5440SOL     OW27781   1.523   0.748   3.857 -0.0694 -1.0717 -0.6947
 5440SOL    HW127782   1.563   0.795   3.930  0.6870 -1.6859 -0.7115
 5440SOL    HW227783   1.447   0.699   3.887 -0.9010  0.5698 -0.1212
 5441SOL     OW27784   1.578   3.459  10.464  0.3341  0.8727  0.5590
 5441SOL    HW127785   1.547   3.527  10.524 -0.7966 -0.0655  1.0341
 5441SOL    HW227786   1.509   3.463  10.397  2.4497 -2.4639 -1.7703
 5442SOL     OW27787   3.948   0.977   7.070  0.1481 -0.4287 -0.2958
 5442SOL    HW127788   4.023   0.949   7.018 -2.2107 -1.6724 -3.0282
 5442SOL    HW227789   3.918   1.054   7.021  2.2727  0.8793  0.4650
 5443SOL     OW27790   0.692   0.557   8.383  0.6225 -0.2748  0.0201
 5443SOL    HW127791   0.624   0.608   8.339 -0.4812 -1.2967  0.5477
 5443SOL    HW227792   0.730   0.623   8.441  1.8688 -1.5223  0.6152
 5444SOL     OW27793   1.136   4.047   6.990 -0.0138 -0.2042  0.0240
 5444SOL    HW127794   1.043   4.067   6.978 -0.2944 -2.0156 -0.7302
 5444SOL    HW227795   1.140   4.053   7.086 -1.7135 -1.1806  0.1516
 5445SOL     OW27796   3.317   0.141   3.473  0.2996  0.3516  0.5706
 5445SOL    HW127797   3.393   0.084   3.479  0.1346  0.0474 -0.2591
 5445SOL    HW227798   3.254   0.069   3.481  0.2942  0.3419  0.4431
 5446SOL     OW27799   4.663   2.912   4.534  0.5483 -0.4223  0.1156
 5446SOL    HW127800   4.609   2.834   4.541 -0.3285  0.1084 -0.7326
 5446SOL    HW227801   4.657   2.940   4.443 -0.1937  1.1291  0.6407
 5447SOL     OW27802   2.213   4.239   7.369 -0.1946 -0.3275 -0.1020
 5447SOL    HW127803   2.269   4.215   7.443  0.1282 -0.0097 -0.2411
 5447SOL    HW227804   2.155   4.300   7.415  1.6646 -0.5090  2.4756
 5448SOL     OW27805   2.469   1.106  12.682  0.1381 -0.0733  0.2495
 5448SOL    HW127806   2.557   1.141  12.693  0.1743 -0.7188  1.9729
 5448SOL    HW227807   2.485   1.013  12.662 -1.6218 -0.3985  0.3193
 5449SOL     OW27808   4.496   0.341  15.954 -0.4182  0.0762  0.0518
 5449SOL    HW127809   4.431   0.324  15.886  0.7652 -1.2925 -0.7364
 5449SOL    HW227810   4.534   0.255  15.971  0.1610 -0.3912 -3.6571
 5450SOL     OW27811   2.437   4.395   2.099  0.0485  0.3802 -0.2873
 5450SOL    HW127812   2.509   4.444   2.060 -0.3042  0.7503 -0.4800
 5450SOL    HW227813   2.367   4.448   2.061 -0.2882 -0.6971 -1.1748
 5451SOL     OW27814   1.252   3.907   2.099  0.2931  0.3168 -0.4921
 5451SOL    HW127815   1.342   3.874   2.105  0.3829  0.8420  1.2175
 5451SOL    HW227816   1.260   3.958   2.180  0.7009  1.6984 -1.4071
 5452SOL     OW27817   4.045   4.587   5.459 -0.0281  0.1932  0.6877
 5452SOL    HW127818   4.124   4.534   5.473  0.0172  0.6424  2.1345
 5452SOL    HW227819   3.980   4.520   5.483 -1.0365  0.7542 -0.5027
 5453SOL     OW27820   2.967   1.580   9.200  0.4083 -0.2839  0.8383
 5453SOL    HW127821   3.039   1.643   9.205 -1.1836  1.7168 -1.9739
 5453SOL    HW227822   2.983   1.516   9.130  2.6080 -1.6815  2.5975
 5454SOL     OW27823   4.093   0.914  12.469 -0.0092 -0.4051 -0.3762
 5454SOL    HW127824   4.008   0.952  12.445  0.6735  1.2019 -0.2859
 5454SOL    HW227825   4.095   0.926  12.564 -0.8676  0.7863 -0.5030
 5455SOL     OW27826   0.245   2.842  10.534 -0.4640 -0.6010 -0.2970
 5455SOL    HW127827   0.185   2.899  10.487  1.4641  2.3662  0.8296
 5455SOL    HW227828   0.212   2.859  10.623  2.6908  0.7422  0.6100
 5456SOL     OW27829   4.110   2.665   5.930  0.1389 -0.0738  0.3627
 5456SOL    HW127830   4.030   2.699   5.890  1.9233  1.5261 -1.8482
 5456SOL    HW227831   4.133   2.602   5.862  0.9557 -0.6737  1.1919
 5457SOL     OW27832   3.283   2.611   0.425 -0.1419 -0.2140 -0.2359
 5457SOL    HW127833   3.259   2.578   0.512  1.5082 -0.6123  0.0722
 5457SOL    HW227834   3.255   2.534   0.375  1.7283  0.1004 -1.7674
 5458SOL     OW27835   3.917   1.247   2.772 -0.4724 -0.0381 -0.4255
 5458SOL    HW127836   3.855   1.182   2.738  2.3069 -4.1533  2.2315
 5458SOL    HW227837   3.918   1.303   2.695  0.1307  1.5194  0.7062
 5459SOL     OW27838   1.187   2.536   0.674  0.1063  0.2861 -0.3387
 5459SOL    HW127839   1.117   2.473   0.693 -0.5458  1.4506  1.1679
 5459SOL    HW227840   1.184   2.533   0.579  2.9376 -1.4522 -0.3623
 5460SOL     OW27841   1.588   4.718  13.232  0.2367  0.1210 -0.3838
 5460SOL    HW127842   1.541   0.041  13.160 -1.1215 -2.8317 -1.2767
 5460SOL    HW227843   1.537   4.641  13.256  0.0505  0.3135 -0.1668
 5461SOL     OW27844   3.871   0.121  12.399 -0.3438  0.3758  0.2408
 5461SOL    HW127845   3.926   0.086  12.329 -0.3960  1.7167 -0.4772
 5461SOL    HW227846   3.795   0.064  12.413  0.3004 -0.1023  1.7507
 5462SOL     OW27847   3.629   3.332   2.506  0.6019 -0.8155  0.0421
 5462SOL    HW127848   3.569   3.267   2.542 -1.9741  2.6653  2.0004
 5462SOL    HW227849   3.627   3.308   2.413  2.0456 -1.0562  0.0689
 5463SOL     OW27850   3.552   4.321   5.466  0.5703 -0.5418  0.8812
 5463SOL    HW127851   3.587   4.233   5.453  0.1356 -0.4082 -1.1895
 5463SOL    HW227852   3.464   4.311   5.431  0.5662  1.7799  0.2047
 5464SOL     OW27853   1.687   2.850   7.007 -0.9445 -0.8288 -0.1503
 5464SOL    HW127854   1.614   2.858   7.068 -1.1632 -0.7494 -0.4221
 5464SOL    HW227855   1.636   2.819   6.931  1.6324 -2.9690 -1.0202
 5465SOL     OW27856   0.227   4.236  17.255 -0.2092 -0.1298 -0.1653
 5465SOL    HW127857   0.151   4.293  17.270 -0.3991  0.3826 -2.9901
 5465SOL    HW227858   0.203   4.213  17.165  0.3046  0.8366 -0.5528
 5466SOL     OW27859   4.604   3.187   7.443 -0.0171 -0.3371 -0.0046
 5466SOL    HW127860   4.648   3.145   7.517  1.2349 -1.2208 -1.2635
 5466SOL    HW227861   4.594   3.277   7.474 -2.5213 -1.0727  1.3037
 5467SOL     OW27862   1.078   4.160   4.441  0.2595 -0.6883 -0.0564
 5467SOL    HW127863   1.019   4.116   4.379 -0.4417  2.8963 -1.9148
 5467SOL    HW227864   1.030   4.240   4.462  2.1975  0.6837 -0.8583
 5468SOL     OW27865   2.648   4.138   8.625 -0.1624 -0.2440 -0.1103
 5468SOL    HW127866   2.648   4.043   8.638  0.3160  0.3579  4.1626
 5468SOL    HW227867   2.608   4.140   8.538  0.1481 -0.4516 -0.2606
 5469SOL     OW27868   2.940   0.863  14.753 -0.6021 -0.0298  0.2737
 5469SOL    HW127869   2.931   0.827  14.665  2.0568 -1.4761  0.5972
 5469SOL    HW227870   2.848   0.878  14.772 -0.6857 -0.7199  0.4045
 5470SOL     OW27871   2.094   1.487   2.695 -0.2982  0.5078 -0.4312
 5470SOL    HW127872   2.103   1.487   2.790 -1.7695  1.9801 -0.2869
 5470SOL    HW227873   2.074   1.394   2.679 -3.2197  0.2891  4.5141
 5471SOL     OW27874   4.466   0.296   2.296 -0.2169 -0.1971 -0.5181
 5471SOL    HW127875   4.377   0.269   2.277 -0.2675 -0.8571  0.6330
 5471SOL    HW227876   4.513   0.280   2.215 -1.4063 -1.5636 -0.9268
 5472SOL     OW27877   2.759   3.007   2.715  0.2011  0.0954 -0.0511
 5472SOL    HW127878   2.774   3.082   2.657  0.4885  0.7801  0.9076
 5472SOL    HW227879   2.830   3.010   2.779 -0.7207  1.1213  0.9216
 5473SOL     OW27880   1.255   0.450  15.137  0.1545 -0.4189  0.0094
 5473SOL    HW127881   1.323   0.403  15.187  0.7675  0.2579 -0.1899
 5473SOL    HW227882   1.225   0.380  15.079 -1.0576 -0.4262  0.6441
 5474SOL     OW27883   1.394   1.158   8.635  0.1633  0.2283 -0.2488
 5474SOL    HW127884   1.469   1.184   8.688 -0.1455  2.3243 -0.8344
 5474SOL    HW227885   1.318   1.172   8.691  0.0589  0.2719 -0.3997
 5475SOL     OW27886   0.348   1.550   6.720  0.3533  0.0642  0.8242
 5475SOL    HW127887   0.325   1.584   6.634  0.3987 -0.1848  0.7143
 5475SOL    HW227888   0.361   1.456   6.709 -1.8195  0.0620 -1.5631
 5476SOL     OW27889   0.774   2.903   8.214 -0.2865  0.1270  0.4551
 5476SOL    HW127890   0.833   2.854   8.156  0.8931 -0.8423  2.4548
 5476SOL    HW227891   0.773   2.994   8.184 -2.7473 -0.2378 -0.5217
 5477SOL     OW27892   3.934   3.523   6.052  0.1602  0.3884 -0.4945
 5477SOL    HW127893   3.921   3.592   6.117 -0.1410 -0.6855  0.5614
 5477SOL    HW227894   3.843   3.497   6.044  0.1285  0.8815 -1.7539
 5478SOL     OW27895   1.738   1.805   9.348 -0.4064 -0.7674  0.5220
 5478SOL    HW127896   1.682   1.748   9.400 -0.2284  0.1938  1.7538
 5478SOL    HW227897   1.740   1.879   9.409  0.4126  0.6135 -1.1497
 5479SOL     OW27898   1.691   2.583  10.425  0.0540 -0.0313  0.4250
 5479SOL    HW127899   1.710   2.526  10.350 -1.6838  0.0457 -0.0745
 5479SOL    HW227900   1.623   2.532  10.469  1.1088 -1.9004 -0.1259
 5480SOL     OW27901   3.738   4.461   5.775 -0.4964  0.6509 -0.2665
 5480SOL    HW127902   3.756   4.555   5.770  1.7669  0.2534  0.5180
 5480SOL    HW227903   3.646   4.458   5.749 -1.1110  2.2062  1.7545
 5481SOL     OW27904   4.123   3.929   2.287 -0.2975 -0.0533  0.0214
 5481SOL    HW127905   4.041   3.926   2.237 -0.5569  1.1283  0.3784
 5481SOL    HW227906   4.171   4.008   2.263  0.4417 -0.5984 -0.3291
 5482SOL     OW27907   2.717   2.331   5.508  0.5610 -0.0827 -0.2370
 5482SOL    HW127908   2.787   2.392   5.482 -0.1622  0.2984 -1.3256
 5482SOL    HW227909   2.731   2.242   5.476 -0.4480 -0.5776  0.6750
 5483SOL     OW27910   2.417   3.303   0.339  0.6081 -0.0184  0.5130
 5483SOL    HW127911   2.416   3.285   0.433 -2.9273  0.0522  0.5192
 5483SOL    HW227912   2.364   3.383   0.336  0.2599 -0.2366  0.7564
 5484SOL     OW27913   3.464   0.936   8.637 -0.3483  0.3468  0.4350
 5484SOL    HW127914   3.424   0.919   8.551  0.6015 -3.5051  0.7615
 5484SOL    HW227915   3.463   0.845   8.667  3.3108  0.3733  0.5653
 5485SOL     OW27916   0.709   2.712  13.924  0.5203  0.8025 -0.0654
 5485SOL    HW127917   0.779   2.681  13.982  0.2824 -1.4337 -0.9861
 5485SOL    HW227918   0.746   2.792  13.886  2.0897 -0.5822 -1.4782
 5486SOL     OW27919   0.432   0.454   5.112 -0.1551  0.0539  0.0684
 5486SOL    HW127920   0.463   0.533   5.156 -0.8336 -0.0632  0.7726
 5486SOL    HW227921   0.457   0.469   5.021  0.2899 -4.1110 -0.4858
 5487SOL     OW27922   2.918   1.087   3.576  0.3268  0.3355 -0.2772
 5487SOL    HW127923   2.910   1.003   3.531  0.8374  1.1964 -1.9435
 5487SOL    HW227924   2.975   1.139   3.519 -0.9504  1.1829 -0.7849
 5488SOL     OW27925   0.618   0.035  16.191 -0.5751  0.1867 -0.1648
 5488SOL    HW127926   0.551   0.103  16.197 -0.3272  0.3670  0.4969
 5488SOL    HW227927   0.603   4.708  16.273  0.5478 -1.3977 -0.8612
 5489SOL     OW27928   4.134   1.956   5.121 -0.0305 -0.1563 -0.2847
 5489SOL    HW127929   4.193   1.966   5.045 -1.2041  0.5202 -1.1087
 5489SOL    HW227930   4.114   2.045   5.152  0.2468 -0.3732  0.5148
 5490SOL     OW27931   2.727   4.217   7.934 -0.1840  0.0938 -0.0744
 5490SOL    HW127932   2.739   4.195   7.842 -1.1147 -1.7122  0.2316
 5490SOL    HW227933   2.675   4.297   7.923  0.0104  0.7864  3.8440
 5491SOL     OW27934   0.670   2.183   8.475 -0.0491  0.1878  1.0816
 5491SOL    HW127935   0.577   2.159   8.481 -0.0172  0.2483  1.9141
 5491SOL    HW227936   0.673   2.256   8.537  0.8804  1.5183 -0.5466
 5492SOL     OW27937   1.392   1.530   2.010 -0.6059 -0.1779  0.0304
 5492SOL    HW127938   1.444   1.561   2.084 -1.0638 -0.5275  0.4941
 5492SOL    HW227939   1.458   1.472   1.971  1.3560  1.3418  1.0813
 5493SOL     OW27940   4.501   1.286   7.278 -0.1950  0.5061  0.1706
 5493SOL    HW127941   4.565   1.220   7.305 -0.8191  0.1814  0.8377
 5493SOL    HW227942   4.429   1.237   7.238  1.5891 -1.2870 -0.8385
 5494SOL     OW27943   0.998   4.667   2.911  0.5864  0.4277 -1.0139
 5494SOL    HW127944   1.051   0.011   2.862 -1.2731  3.0173  0.3665
 5494SOL    HW227945   0.909   4.702   2.916  0.5132 -0.1186  1.1726
 5495SOL     OW27946   1.822   0.599   1.862 -0.1781 -0.3481  0.6816
 5495SOL    HW127947   1.762   0.527   1.878  1.8952 -1.4773  3.3185
 5495SOL    HW227948   1.847   0.587   1.770 -0.7784  1.4374  0.2891
 5496SOL     OW27949   3.183   3.728   0.673 -0.0531  0.7024 -0.6632
 5496SOL    HW127950   3.108   3.678   0.643  1.0117 -0.5950 -1.1510
 5496SOL    HW227951   3.231   3.738   0.591  3.5091  0.3769  1.3840
 5497SOL     OW27952   3.833   3.462   7.581 -0.0055  0.1775 -0.4083
 5497SOL    HW127953   3.812   3.553   7.605  0.8050 -0.0117  0.9919
 5497SOL    HW227954   3.751   3.419   7.607  1.9902 -2.9380  0.6863
 5498SOL     OW27955   0.817   1.963  16.834 -0.5577 -0.3950 -0.2367
 5498SOL    HW127956   0.831   2.030  16.768  2.5619  2.0010  2.8938
 5498SOL    HW227957   0.731   1.939  16.799 -1.3560  0.0025  1.4782
 5499SOL     OW27958   0.096   3.958   2.898  0.6523  0.0129  0.0114
 5499SOL    HW127959   0.021   4.015   2.881  0.6916  0.0288 -0.1081
 5499SOL    HW227960   0.050   3.882   2.934  0.3364  0.5827  0.8045
 5500SOL     OW27961   3.033   3.158   6.560 -0.1312  0.0385  0.2778
 5500SOL    HW127962   3.026   3.111   6.643  1.2457  0.1844  0.4653
 5500SOL    HW227963   3.085   3.235   6.583 -1.8153  0.1323  3.6850
 5501SOL     OW27964   0.734   2.779   3.410 -0.5922 -0.4030 -0.3021
 5501SOL    HW127965   0.805   2.833   3.446 -2.2685  1.5355  0.0759
 5501SOL    HW227966   0.719   2.725   3.487 -1.4454  0.6930  0.2893
 5502SOL     OW27967   2.103   1.383  16.919 -0.0627 -0.5710 -0.0495
 5502SOL    HW127968   2.092   1.371  17.013 -0.6616  0.1605 -0.0254
 5502SOL    HW227969   2.141   1.471  16.916  1.1391 -1.0804  0.0326
 5503SOL     OW27970   3.689   4.349   8.238 -0.4467 -0.4312  0.0273
 5503SOL    HW127971   3.761   4.353   8.301 -0.2407  0.2975 -0.2530
 5503SOL    HW227972   3.695   4.257   8.213 -0.8844 -0.2319 -0.8017
 5504SOL     OW27973   2.662   1.582   7.502  0.3232 -0.2172  0.2605
 5504SOL    HW127974   2.646   1.573   7.596  0.1539 -0.7018  0.1859
 5504SOL    HW227975   2.612   1.661   7.487  1.2270 -0.0638 -1.9030
 5505SOL     OW27976   3.423   0.383  15.801 -0.0628  0.3277  0.4576
 5505SOL    HW127977   3.332   0.355  15.806  0.6240 -2.1493 -0.6102
 5505SOL    HW227978   3.456   0.345  15.720 -2.7017 -0.3671 -0.2679
 5506SOL     OW27979   4.486   2.924   6.314  0.7104  0.1935  0.4180
 5506SOL    HW127980   4.473   2.921   6.409 -2.8508 -1.7045 -0.0996
 5506SOL    HW227981   4.486   2.832   6.287 -0.9948  0.4216 -0.3772
 5507SOL     OW27982   3.595   3.029   6.782 -0.5249  0.2218  0.4098
 5507SOL    HW127983   3.599   2.934   6.792 -1.7028  0.3725  2.2476
 5507SOL    HW227984   3.620   3.057   6.871  1.0022  2.8316 -0.8284
 5508SOL     OW27985   1.377   0.265  15.295  0.3091 -0.0469 -0.4527
 5508SOL    HW127986   1.473   0.256  15.294  0.4663  1.7152 -0.7082
 5508SOL    HW227987   1.348   0.199  15.232 -1.5244 -0.8474  1.2211
 5509SOL     OW27988   3.804   2.535   8.021 -0.2179 -0.2956 -0.3393
 5509SOL    HW127989   3.891   2.526   8.059  0.7790  0.3322 -2.4739
 5509SOL    HW227990   3.808   2.468   7.954  0.8574 -2.6950  2.1222
 5510SOL     OW27991   4.428   0.425   9.074 -0.2223 -0.5166  0.2308
 5510SOL    HW127992   4.503   0.478   9.102  0.1555 -1.1336  0.3773
 5510SOL    HW227993   4.431   0.353   9.137  0.8215  1.0206  1.9516
 5511SOL     OW27994   4.268   2.545  15.831  0.1949 -0.0249  0.4603
 5511SOL    HW127995   4.364   2.543  15.823  0.2169 -2.0711  1.0854
 5511SOL    HW227996   4.251   2.600  15.907  1.0271 -1.2107  1.5004
 5512SOL     OW27997   4.666   0.773   6.513 -0.6529 -0.3755  0.4077
 5512SOL    HW127998   4.640   0.681   6.515 -1.6615 -0.0449  2.5089
 5512SOL    HW227999   4.626   0.797   6.430 -0.1850  1.2874  0.6755
 5513SOL     OW28000   3.033   1.365  13.456 -0.6404  0.0557  0.3217
 5513SOL    HW128001   3.030   1.405  13.370  3.3948  0.2936  0.3219
 5513SOL    HW228002   2.956   1.401  13.500 -1.3867 -0.2853 -0.7058
 5514SOL     OW28003   3.545   4.693   5.460 -0.0135  0.1319 -0.7023
 5514SOL    HW128004   3.487   4.718   5.389  1.8373  2.9065 -1.2711
 5514SOL    HW228005   3.571   0.064   5.476 -0.7934  0.5790 -1.9578
 5515SOL     OW28006   1.091   1.965   1.977  0.0968  0.1301 -0.0284
 5515SOL    HW128007   1.030   1.926   1.915 -1.5146  1.3926  0.7629
 5515SOL    HW228008   1.163   1.902   1.982 -0.4116 -0.4056  0.5770
 5516SOL     OW28009   2.098   2.261   1.089  0.2106 -0.0785 -0.5401
 5516SOL    HW128010   2.155   2.213   1.151  0.4072 -0.8792 -1.3365
 5516SOL    HW228011   2.107   2.212   1.007  0.1694  0.5107 -0.8913
 5517SOL     OW28012   1.886   4.376   1.651 -0.2444 -0.2415 -0.8245
 5517SOL    HW128013   1.918   4.356   1.563  0.2370  2.3179 -1.2431
 5517SOL    HW228014   1.815   4.440   1.638 -0.3825 -0.1973  0.1918
 5518SOL     OW28015   4.007   0.766   7.217  0.5937  0.4605 -0.3868
 5518SOL    HW128016   4.006   0.849   7.170  2.4285  1.6185  1.6536
 5518SOL    HW228017   4.015   0.702   7.146  1.1507  1.1152 -0.9171
 5519SOL     OW28018   3.693   1.717   8.136 -0.0562 -0.3794 -0.4175
 5519SOL    HW128019   3.637   1.690   8.063 -2.2808 -1.4711  1.6756
 5519SOL    HW228020   3.780   1.694   8.103 -0.5831 -1.2563 -1.2129
 5520SOL     OW28021   1.330   3.335   2.459  0.5090 -0.1509  0.9193
 5520SOL    HW128022   1.361   3.416   2.497 -1.5160  0.8565  0.4387
 5520SOL    HW228023   1.321   3.363   2.368  2.3886  0.1199  0.8266
 5521SOL     OW28024   3.016   1.211  13.929  0.1476 -0.0194 -0.6556
 5521SOL    HW128025   3.107   1.188  13.949  0.3173  0.6225 -0.6926
 5521SOL    HW228026   2.980   1.138  13.879  0.1087 -0.6663  0.3161
 5522SOL     OW28027   3.469   1.241   3.328  0.2445 -0.3468 -0.0326
 5522SOL    HW128028   3.413   1.185   3.382  0.3450 -1.0217 -0.6259
 5522SOL    HW228029   3.515   1.296   3.392 -0.5330  0.1910  0.0641
 5523SOL     OW28030   2.961   4.667  17.463 -0.4735 -0.4085 -0.1051
 5523SOL    HW128031   2.986   0.038  17.483  0.0266 -0.2125 -1.5912
 5523SOL    HW228032   3.043   4.641  17.422  1.8517  1.2559  3.6002
 5524SOL     OW28033   2.847   2.560  16.060 -0.6212 -0.0846 -0.6256
 5524SOL    HW128034   2.886   2.519  16.137  1.6875  0.3001 -1.5954
 5524SOL    HW228035   2.779   2.615  16.100  1.6425  0.8207  1.9796
 5525SOL     OW28036   0.805   4.273   6.395  0.8005 -0.3586  0.2106
 5525SOL    HW128037   0.766   4.274   6.483  2.3525 -1.4371  0.9095
 5525SOL    HW228038   0.763   4.351   6.358  5.0775  0.7352 -2.2800
 5526SOL     OW28039   0.626   4.488   6.338 -0.6841  0.1562 -0.1160
 5526SOL    HW128040   0.645   4.515   6.248 -3.6922  0.1956 -0.7365
 5526SOL    HW228041   0.571   4.413   6.316 -0.9725  0.8293 -1.7141
 5527SOL     OW28042   1.971   2.526   6.458  0.0410  0.5774  0.2013
 5527SOL    HW128043   2.046   2.466   6.464 -0.8527 -0.5475  0.0205
 5527SOL    HW228044   1.907   2.473   6.412  2.7750 -1.0163 -1.7460
 5528SOL     OW28045   2.394   3.359   4.393  0.1127 -0.0746 -0.1565
 5528SOL    HW128046   2.426   3.301   4.463 -0.1961 -0.5040 -0.3713
 5528SOL    HW228047   2.357   3.428   4.448 -0.4491 -2.8413  2.9347
 5529SOL     OW28048   0.159   1.318  15.595  0.4745  0.0617 -0.1345
 5529SOL    HW128049   0.077   1.334  15.549 -1.9337  1.7296  4.7679
 5529SOL    HW228050   0.225   1.330  15.525  0.3240  0.8144 -0.1410
 5530SOL     OW28051   1.772   1.963   1.648 -0.1090 -0.0841 -0.2768
 5530SOL    HW128052   1.754   1.871   1.668 -0.0093 -0.5961 -2.5726
 5530SOL    HW228053   1.867   1.969   1.656 -0.0781 -0.7282 -0.1145
 5531SOL     OW28054   1.692   0.226   2.995  0.6926  0.1245 -0.1817
 5531SOL    HW128055   1.600   0.225   3.018  1.0215 -1.0212  1.0875
 5531SOL    HW228056   1.682   0.222   2.900 -0.4249  1.6452 -0.1210
 5532SOL     OW28057   2.699   1.778   7.258  0.0193 -0.1651 -0.2021
 5532SOL    HW128058   2.635   1.819   7.200  0.6364  0.1018 -0.6962
 5532SOL    HW228059   2.653   1.791   7.341 -0.2777 -0.2782 -0.3467
 5533SOL     OW28060   3.664   3.139   6.094  0.2776 -0.3825 -0.1111
 5533SOL    HW128061   3.735   3.079   6.120 -0.7967 -0.7952  1.8561
 5533SOL    HW228062   3.588   3.086   6.071  1.2024 -1.4220 -0.7798
 5534SOL     OW28063   0.508   4.192   8.698  0.0360  0.2761  0.6294
 5534SOL    HW128064   0.513   4.170   8.791  0.4742 -2.2473  0.0227
 5534SOL    HW228065   0.524   4.107   8.656  1.8801  0.0792  1.7358
 5535SOL     OW28066   2.634   3.254   8.658 -0.4725  0.6661 -0.0795
 5535SOL    HW128067   2.609   3.282   8.570 -1.8905 -0.5120 -0.0528
 5535SOL    HW228068   2.547   3.257   8.699 -0.1076  0.2181  0.7233
 5536SOL     OW28069   4.119   1.130   4.979 -0.4776 -0.2816  0.4578
 5536SOL    HW128070   4.120   1.218   4.943 -1.0335 -0.8053 -0.8557
 5536SOL    HW228071   4.068   1.081   4.914 -1.8343  1.4053  0.2716
 5537SOL     OW28072   4.048   4.682   9.402  0.0546  0.4781 -0.1282
 5537SOL    HW128073   4.002   0.023   9.459  0.5294  1.3080 -0.6370
 5537SOL    HW228074   4.137   4.698   9.434 -0.8019  0.3206  2.2923
 5538SOL     OW28075   3.500   0.213   5.055  0.0661 -0.7473  0.5744
 5538SOL    HW128076   3.418   0.250   5.021  0.9652 -0.4456 -1.2421
 5538SOL    HW228077   3.519   0.144   4.992 -4.3186 -2.0606  0.6496
 5539SOL     OW28078   0.943   3.017   6.270 -0.5422 -0.0601 -0.2400
 5539SOL    HW128079   1.009   2.985   6.331  0.2678 -2.0570 -2.2012
 5539SOL    HW228080   0.907   3.094   6.315  0.9086 -0.8252  2.2332
 5540SOL     OW28081   1.769   3.250   4.814  0.7530 -0.1112 -0.2555
 5540SOL    HW128082   1.729   3.184   4.870 -0.1396  1.4004  0.8854
 5540SOL    HW228083   1.720   3.249   4.732  1.4651 -1.5875 -0.6584
 5541SOL     OW28084   1.478   1.501   4.955  0.8614 -0.3056  0.3495
 5541SOL    HW128085   1.509   1.419   4.994 -1.1066  0.7319  4.0569
 5541SOL    HW228086   1.548   1.559   4.985 -0.3529  1.2586  0.1260
 5542SOL     OW28087   0.307   3.957   4.164  0.6831 -0.1354  0.1864
 5542SOL    HW128088   0.291   4.051   4.155  0.3018 -0.0706  1.6015
 5542SOL    HW228089   0.390   3.953   4.210  1.5831  0.2736 -1.4152
 5543SOL     OW28090   1.496   3.693  11.672  0.3074  0.5457 -0.0348
 5543SOL    HW128091   1.424   3.695  11.609  1.6181  1.5231 -1.4979
 5543SOL    HW228092   1.578   3.715  11.628  1.2705 -1.4553  0.7197
 5544SOL     OW28093   1.724   2.977   2.796  0.3600  0.4672  0.3080
 5544SOL    HW128094   1.696   3.058   2.840 -0.3963  0.9444 -1.0754
 5544SOL    HW228095   1.680   2.968   2.712 -0.1975  1.4580  0.4914
 5545SOL     OW28096   0.080   1.317  12.702 -0.2398  0.0022 -0.4730
 5545SOL    HW128097   0.104   1.357  12.619 -0.4954 -3.3065 -2.1464
 5545SOL    HW228098   0.031   1.389  12.742 -1.7446 -0.3581 -1.6724
 5546SOL     OW28099   0.384   2.527   3.989 -0.0824 -0.5011  0.4665
 5546SOL    HW128100   0.417   2.566   4.070 -2.4204  0.7637  0.7985
 5546SOL    HW228101   0.463   2.477   3.969 -1.2638 -1.4624 -1.7290
 5547SOL     OW28102   2.161   0.518  14.933  0.2362  0.1343  0.2423
 5547SOL    HW128103   2.195   0.513  14.844 -0.3630  0.3398 -0.0002
 5547SOL    HW228104   2.116   0.602  14.936  1.3814  0.7285  0.7858
 5548SOL     OW28105   2.629   4.618   6.455 -0.3033  0.5374 -0.0367
 5548SOL    HW128106   2.540   4.645   6.477 -0.1684  0.7506  0.2409
 5548SOL    HW228107   2.689   4.642   6.526  0.6444 -1.4871 -0.1555
 5549SOL     OW28108   2.121   4.528  10.482  0.6250  1.0124 -0.0728
 5549SOL    HW128109   2.135   4.585  10.557  0.3844  0.9402  0.0240
 5549SOL    HW228110   2.137   4.586  10.407 -0.7676 -0.1626 -1.2833
 5550SOL     OW28111   2.982   0.284   2.615 -1.1172 -0.5708 -0.1663
 5550SOL    HW128112   2.966   0.282   2.709 -0.5123 -0.9424 -0.0724
 5550SOL    HW228113   3.024   0.369   2.606 -0.6808 -0.7258  0.4330
 5551SOL     OW28114   1.722   1.165   3.521  0.2466 -0.3882  0.3989
 5551SOL    HW128115   1.740   1.093   3.580  0.2242 -0.8622 -0.1709
 5551SOL    HW228116   1.641   1.136   3.479  0.7773 -2.4342  0.8050
 5552SOL     OW28117   2.181   3.896  17.582 -0.2212 -0.3644 -0.1651
 5552SOL    HW128118   2.169   3.877  17.489  1.2590 -1.5881 -0.1208
 5552SOL    HW228119   2.181   3.803  17.608 -2.4590 -0.2124  0.3554
 5553SOL     OW28120   2.248   4.309  14.313 -1.1171 -0.4283 -0.1466
 5553SOL    HW128121   2.330   4.349  14.285 -0.5230 -1.4690  0.1390
 5553SOL    HW228122   2.195   4.387  14.330  0.9444  0.9936 -0.2335
 5554SOL     OW28123   0.614   2.001   8.755  0.2245  0.1218 -0.2720
 5554SOL    HW128124   0.599   2.054   8.833  2.1246  0.1091  0.1008
 5554SOL    HW228125   0.702   2.026   8.729  0.0164  0.4575 -0.6554
 5555SOL     OW28126   1.876   2.576   5.827  0.6763  0.0382  0.3633
 5555SOL    HW128127   1.892   2.486   5.854  1.2286 -0.1278 -0.5545
 5555SOL    HW228128   1.926   2.577   5.746  1.2399 -2.4424  0.6807
 5556SOL     OW28129   0.650   3.970   2.381  0.5712  0.0652 -0.0104
 5556SOL    HW128130   0.624   3.903   2.317  1.2723 -0.9319  0.7369
 5556SOL    HW228131   0.601   4.041   2.340 -0.3101 -0.1123  0.7235
 5557SOL     OW28132   2.050   1.284   7.549  0.0742 -0.4744 -0.1157
 5557SOL    HW128133   2.089   1.323   7.627  0.4254 -4.1522  1.5516
 5557SOL    HW228134   1.960   1.316   7.563  0.6807  1.1400  0.1131
 5558SOL     OW28135   2.039   1.369  13.600  0.4736  0.0044  0.6701
 5558SOL    HW128136   1.992   1.376  13.517  4.6163  0.6963 -1.6035
 5558SOL    HW228137   1.963   1.347  13.654  1.8238 -1.4502  1.9602
 5559SOL     OW28138   1.669   1.644   3.405  0.0368 -0.1251 -0.0980
 5559SOL    HW128139   1.668   1.694   3.487 -0.8275 -1.1380  0.5138
 5559SOL    HW228140   1.743   1.687   3.362 -0.2683  1.2183  0.7347
 5560SOL     OW28141   0.993   4.634   5.450 -0.1582 -0.1511 -0.2090
 5560SOL    HW128142   0.948   4.614   5.532  1.6667  0.4494  0.9509
 5560SOL    HW228143   1.067   4.573   5.449 -0.8511 -1.0144  0.7125
 5561SOL     OW28144   3.274   1.853  11.115 -0.1643  0.0950 -0.4593
 5561SOL    HW128145   3.321   1.933  11.095 -0.7032  0.8218  1.1726
 5561SOL    HW228146   3.210   1.834  11.047 -0.6700 -1.9088  0.5716
 5562SOL     OW28147   3.228   2.439   5.840  0.0319 -0.0631 -0.2574
 5562SOL    HW128148   3.215   2.525   5.801  1.3884 -0.2673 -1.1463
 5562SOL    HW228149   3.293   2.457   5.908 -0.3861 -1.9908  0.6711
 5563SOL     OW28150   1.462   1.173   0.418 -0.6292 -0.0524 -0.1945
 5563SOL    HW128151   1.508   1.176   0.334 -1.4889 -3.8665 -0.7716
 5563SOL    HW228152   1.398   1.103   0.409 -2.0567  1.1531  0.6613
 5564SOL     OW28153   1.078   1.132   2.053 -0.2399 -0.2635  0.0254
 5564SOL    HW128154   1.044   1.168   1.972 -0.6332  0.0891  0.3487
 5564SOL    HW228155   1.101   1.048   2.012  2.6202  1.5675 -2.1535
 5565SOL     OW28156   1.168   4.004  14.695  0.5389 -0.1406  0.7222
 5565SOL    HW128157   1.192   4.085  14.740  0.4537 -0.3521  1.1398
 5565SOL    HW228158   1.073   4.013  14.686  0.7756  1.5608 -0.0320
 5566SOL     OW28159   0.699   2.436  15.868  0.6070 -0.1684  0.5678
 5566SOL    HW128160   0.656   2.394  15.793 -2.2493  0.3443  1.8909
 5566SOL    HW228161   0.694   2.530  15.852 -3.3858 -0.4996 -0.3107
 5567SOL     OW28162   4.282   1.301   2.747  0.0708 -0.0407  0.6071
 5567SOL    HW128163   4.376   1.313   2.737 -0.8203  4.8112 -2.1403
 5567SOL    HW228164   4.255   1.256   2.667  2.1840  1.8620 -1.1754
 5568SOL     OW28165   1.188   3.908  12.704 -0.0947 -0.3630  0.2862
 5568SOL    HW128166   1.122   3.947  12.647  1.8796  0.4636 -1.4070
 5568SOL    HW228167   1.161   3.966  12.775  0.9984  1.0812 -0.4813
 5569SOL     OW28168   0.264   2.230  13.553  0.2741  0.5337  0.0119
 5569SOL    HW128169   0.322   2.298  13.587  0.8553  0.2041 -0.3366
 5569SOL    HW228170   0.197   2.283  13.509  0.5255 -0.8752 -2.0253
 5570SOL     OW28171   4.297   1.393  13.928  0.4736  0.4587 -0.2675
 5570SOL    HW128172   4.311   1.386  14.023 -0.6117  0.4970 -0.1004
 5570SOL    HW228173   4.322   1.484  13.912  1.9148  0.0287 -0.3856
 5571SOL     OW28174   4.150   3.926  16.399  0.2313 -0.6225  0.1779
 5571SOL    HW128175   4.155   3.903  16.492  0.3142 -0.3492  0.2387
 5571SOL    HW228176   4.098   4.006  16.392  1.0428 -0.2273 -1.3016
 5572SOL     OW28177   0.837   3.547   9.501 -0.4672 -0.2341 -0.7476
 5572SOL    HW128178   0.765   3.603   9.470 -0.2572  1.4585  1.7761
 5572SOL    HW228179   0.909   3.609   9.488 -0.0344 -0.6141 -0.1315
 5573SOL     OW28180   0.435   0.019   1.152 -0.0294  0.4997 -0.1117
 5573SOL    HW128181   0.355   0.004   1.202  0.8614 -1.9887  0.5798
 5573SOL    HW228182   0.504   4.690   1.198 -0.7501  0.9938  1.5238
 5574SOL     OW28183   3.106   4.675  11.351 -0.2180  0.3129  0.1781
 5574SOL    HW128184   3.138   4.588  11.375  1.2745  1.1888  1.3533
 5574SOL    HW228185   3.037   4.649  11.290  0.4287 -1.2975  0.1200
 5575SOL     OW28186   3.101   1.982   3.186  0.0101  0.4520 -0.0321
 5575SOL    HW128187   3.107   2.035   3.106 -0.7250  0.6881  0.0701
 5575SOL    HW228188   3.137   1.899   3.153 -0.6629  1.0344 -2.2813
 5576SOL     OW28189   0.855   2.602  16.824  0.0918 -0.7538  1.0602
 5576SOL    HW128190   0.793   2.614  16.896 -0.0367  0.5881  0.7232
 5576SOL    HW228191   0.873   2.509  16.810 -0.5745 -0.5477 -1.0535
 5577SOL     OW28192   2.116   0.979   4.615  0.2110 -0.1086 -0.7857
 5577SOL    HW128193   2.196   1.005   4.660 -1.1240  0.3428  1.2814
 5577SOL    HW228194   2.066   0.946   4.689  0.5894  1.5086  0.1765
 5578SOL     OW28195   2.107   0.182   3.446  0.3269 -0.1038  0.5001
 5578SOL    HW128196   2.147   0.098   3.423  1.1718  0.9891 -2.0678
 5578SOL    HW228197   2.039   0.197   3.381 -0.6029  1.0619  1.7239
 5579SOL     OW28198   0.717   0.236   1.399 -0.4091  0.0837 -0.2424
 5579SOL    HW128199   0.651   0.300   1.370  0.5492  2.0684  1.9690
 5579SOL    HW228200   0.672   0.175   1.457 -1.0268  2.2033  1.5009
 5580SOL     OW28201   1.565   2.413  13.423 -0.0904  0.6406 -0.7469
 5580SOL    HW128202   1.607   2.462  13.494  1.7355  0.6768 -1.8477
 5580SOL    HW228203   1.632   2.355  13.387 -1.3696 -1.5575  0.4408
 5581SOL     OW28204   0.841   1.786   3.446  0.5088 -0.9247  0.1062
 5581SOL    HW128205   0.896   1.785   3.368  1.3841  1.3209  0.6902
 5581SOL    HW228206   0.756   1.780   3.404  0.2728 -0.5435  0.5341
 5582SOL     OW28207   0.198   0.757   2.102  0.0251 -0.1440  0.1109
 5582SOL    HW128208   0.220   0.725   2.015 -0.2426 -0.1489  0.0440
 5582SOL    HW228209   0.278   0.796   2.138 -0.2665  0.4824  0.0908
 5583SOL     OW28210   3.291   1.579   7.410 -0.1238 -0.4018  0.2574
 5583SOL    HW128211   3.290   1.504   7.351 -0.7073 -0.3984  0.2616
 5583SOL    HW228212   3.210   1.561   7.457 -0.0817 -2.9948 -0.6820
 5584SOL     OW28213   2.598   0.959   3.593 -0.2317  0.1324  0.2434
 5584SOL    HW128214   2.562   0.874   3.618  2.5671 -0.6724  1.5993
 5584SOL    HW228215   2.579   0.959   3.500 -1.3455  0.3073  0.4780
 5585SOL     OW28216   0.001   4.668   6.674  0.1444 -0.1859 -0.1567
 5585SOL    HW128217   0.038   0.005   6.741  2.2484 -0.7858 -0.8047
 5585SOL    HW228218   0.079   4.619   6.647  0.3330  0.8535 -1.4946
 5586SOL     OW28219   3.069   2.910   3.541 -0.7091  0.7217  0.3450
 5586SOL    HW128220   3.120   2.934   3.463 -1.1574 -0.6396 -0.3656
 5586SOL    HW228221   3.128   2.860   3.598 -1.2968  0.6408  0.8773
 5587SOL     OW28222   0.717   3.755  11.359 -0.0972  0.4716 -0.5927
 5587SOL    HW128223   0.649   3.789  11.416 -0.9432  0.1872 -1.4298
 5587SOL    HW228224   0.663   3.727  11.285  0.9844 -1.5506 -0.6181
 5588SOL     OW28225   3.777   1.039   4.745 -0.3937  0.1695  0.0807
 5588SOL    HW128226   3.728   1.009   4.821 -1.6641  0.8973 -0.4575
 5588SOL    HW228227   3.861   0.993   4.758  1.4635  2.9654 -2.0528
 5589SOL     OW28228   0.255   4.499  11.200  0.2977  0.1931  0.0340
 5589SOL    HW128229   0.189   4.497  11.268 -0.2688  1.5275 -0.4678
 5589SOL    HW228230   0.253   4.415  11.154  0.4586 -0.3745  1.0802
 5590SOL     OW28231   0.711   2.061  14.736 -0.3504 -0.6196  0.4368
 5590SOL    HW128232   0.727   1.967  14.745 -1.1382 -0.8666 -0.7358
 5590SOL    HW228233   0.710   2.068  14.641  0.5347  1.4057  0.5702
 5591SOL     OW28234   1.960   1.152   5.781 -0.0408 -0.0414  0.1838
 5591SOL    HW128235   1.903   1.200   5.721 -0.4612  0.7216  1.1961
 5591SOL    HW228236   2.034   1.212   5.776  0.1057  0.0000  2.6605
 5592SOL     OW28237   4.348   3.341   8.962 -0.1947  0.5477 -0.0933
 5592SOL    HW128238   4.324   3.387   9.042  0.9407 -0.1682  0.6743
 5592SOL    HW228239   4.340   3.252   8.997 -0.7092  0.4561 -0.4443
 5593SOL     OW28240   1.416   2.693  11.247 -0.4362  0.3137 -0.5620
 5593SOL    HW128241   1.384   2.673  11.159  0.1668 -0.4514 -0.6047
 5593SOL    HW228242   1.376   2.780  11.259  1.0644  0.7880  1.0399
 5594SOL     OW28243   1.707   0.002   6.372 -0.2136 -0.1033  0.3824
 5594SOL    HW128244   1.641   4.672   6.421 -1.7457  0.2889 -1.2789
 5594SOL    HW228245   1.682   0.092   6.390 -1.6598 -0.4297  0.0254
 5595SOL     OW28246   2.460   4.604   0.864 -0.2452 -0.4984  0.2363
 5595SOL    HW128247   2.523   4.583   0.933  0.4151  0.7802  0.0378
 5595SOL    HW228248   2.390   4.645   0.914 -0.3634  1.8101 -1.7769
 5596SOL     OW28249   1.053   0.776   3.716 -0.0131  0.2334 -0.0119
 5596SOL    HW128250   1.063   0.731   3.632  0.1072  0.1296  0.0584
 5596SOL    HW228251   1.142   0.804   3.738  0.1045  1.0269 -1.5390
 5597SOL     OW28252   2.463   2.611  13.399 -0.1883  0.0944  0.1357
 5597SOL    HW128253   2.392   2.644  13.343 -1.1791  0.4248  1.5904
 5597SOL    HW228254   2.533   2.664  13.362  2.3611 -2.6992  0.9028
 5598SOL     OW28255   1.660   2.547   7.517  0.3596  0.0328 -0.2137
 5598SOL    HW128256   1.674   2.514   7.605 -0.8404 -0.6901 -0.2947
 5598SOL    HW228257   1.641   2.468   7.466 -0.2978 -0.2771  0.5280
 5599SOL     OW28258   1.412   0.715  11.893  0.6262  0.4707  0.0991
 5599SOL    HW128259   1.420   0.798  11.940  0.3686 -0.5133  1.8840
 5599SOL    HW228260   1.364   0.659  11.954 -0.3197  1.4372  0.2444
 5600SOL     OW28261   2.167   0.336   6.418  0.2804  0.0019 -0.6308
 5600SOL    HW128262   2.198   0.342   6.327  0.6095 -0.8550 -0.5696
 5600SOL    HW228263   2.133   0.425   6.430  1.1254  0.1925  0.3918
 5601SOL     OW28264   0.534   4.089   8.935 -0.2528 -1.0235 -0.4924
 5601SOL    HW128265   0.500   4.157   8.992  0.8068 -0.6840 -0.2662
 5601SOL    HW228266   0.501   4.021   8.993 -2.2396  1.6505  1.5004
 5602SOL     OW28267   3.521   4.225   9.970  0.1879  0.3888 -0.1947
 5602SOL    HW128268   3.484   4.156   9.915 -1.1897 -0.5329  1.8750
 5602SOL    HW228269   3.472   4.303   9.946 -2.7034 -1.5501 -0.6327
 5603SOL     OW28270   3.018   0.158   1.072 -0.5404  0.5028 -0.2095
 5603SOL    HW128271   2.970   0.094   1.124  0.4295 -0.7647 -0.8690
 5603SOL    HW228272   3.109   0.129   1.073 -0.5323  0.6374  2.6925
 5604SOL     OW28273   0.402   1.881   5.633  0.9205 -0.4325  0.2536
 5604SOL    HW128274   0.315   1.841   5.640  1.3091 -1.3142  0.0939
 5604SOL    HW228275   0.416   1.869   5.539 -0.5129 -0.4496  0.0370
 5605SOL     OW28276   1.150   4.294   5.663  0.3431 -0.7345 -0.2951
 5605SOL    HW128277   1.106   4.253   5.737 -0.7272 -0.5878 -0.8592
 5605SOL    HW228278   1.077   4.307   5.603 -0.1188 -2.2002 -0.0665
 5606SOL     OW28279   3.980   0.903   5.134  0.1666 -0.1649  0.2247
 5606SOL    HW128280   4.047   0.835   5.146  0.0403 -0.6175 -1.6209
 5606SOL    HW228281   4.029   0.974   5.091  0.1311 -0.4635 -0.3034
 5607SOL     OW28282   2.782   0.756   9.483 -0.0648 -0.1116  0.2047
 5607SOL    HW128283   2.853   0.765   9.419  0.4358  2.1101  1.0796
 5607SOL    HW228284   2.729   0.689   9.441 -0.3429  1.1805 -1.5016
 5608SOL     OW28285   4.533   3.184   4.993 -0.2555 -0.1403  0.0012
 5608SOL    HW128286   4.547   3.128   5.069 -1.3398  2.6095  2.2453
 5608SOL    HW228287   4.548   3.121   4.922 -1.5629 -0.5956  0.1236
 5609SOL     OW28288   0.100   4.719  10.747  0.3413 -0.1292 -0.0858
 5609SOL    HW128289   0.154   0.031  10.819 -0.2953  0.1531  0.2647
 5609SOL    HW228290   0.070   4.639  10.790 -0.2131  0.1794  0.1003
 5610SOL     OW28291   4.545   2.808   9.377 -0.9969  0.0353  0.3512
 5610SOL    HW128292   4.598   2.732   9.397 -2.1289 -0.3032  2.0198
 5610SOL    HW228293   4.525   2.830   9.468 -1.5875  0.0974  0.2058
 5611SOL     OW28294   3.491   0.682  12.498 -0.1277 -0.4997  0.3029
 5611SOL    HW128295   3.570   0.658  12.449 -0.0427 -0.7985  0.5871
 5611SOL    HW228296   3.439   0.617  12.450 -1.8907  1.8757 -0.9828
 5612SOL     OW28297   3.231   3.948  14.829 -0.0152  0.4341  0.1760
 5612SOL    HW128298   3.295   3.917  14.893  0.7353 -0.0312 -0.8037
 5612SOL    HW228299   3.207   4.024  14.881  1.4939  0.4575  0.8398
 5613SOL     OW28300   1.751   0.388   4.434  0.0366 -1.0157  0.3180
 5613SOL    HW128301   1.734   0.357   4.345  0.8383  1.5974 -0.7425
 5613SOL    HW228302   1.777   0.479   4.418 -0.8849 -0.8213 -0.0927
 5614SOL     OW28303   3.771   3.907   8.145  0.5897  0.1416 -0.6983
 5614SOL    HW128304   3.704   3.848   8.179  0.5288  0.6997  0.1543
 5614SOL    HW228305   3.842   3.847   8.119  0.0049 -0.3770 -1.1050
 5615SOL     OW28306   3.833   3.710   2.309  0.5661 -0.1466 -0.2610
 5615SOL    HW128307   3.897   3.688   2.242 -0.4288 -1.7834 -0.6869
 5615SOL    HW228308   3.765   3.742   2.251  0.1004  1.4884  1.1815
 5616SOL     OW28309   0.696   0.059   7.728 -0.5242 -0.1832  0.0839
 5616SOL    HW128310   0.696   0.086   7.637 -1.3951 -0.5533 -0.0288
 5616SOL    HW228311   0.636   0.125   7.764  0.7070 -0.0958  1.9804
 5617SOL     OW28312   3.567   2.084   3.075 -0.0540 -0.3417  0.5001
 5617SOL    HW128313   3.600   2.051   3.158 -0.7472  3.7328  2.4111
 5617SOL    HW228314   3.641   2.142   3.057  0.6394 -0.2587  3.6485
 5618SOL     OW28315   1.435   4.290   0.517 -0.5341 -0.3125  0.6882
 5618SOL    HW128316   1.450   4.251   0.604 -0.0091 -0.6793  0.4348
 5618SOL    HW228317   1.429   4.383   0.535  0.7199 -0.3407  1.2715
 5619SOL     OW28318   4.323   2.445   7.403  0.1862 -0.2808 -0.0749
 5619SOL    HW128319   4.383   2.396   7.459 -0.7351 -1.2022  0.0999
 5619SOL    HW228320   4.267   2.373   7.376  0.4335 -1.0807  1.5982
 5620SOL     OW28321   0.177   1.714   4.969  0.0186  0.4331  0.5190
 5620SOL    HW128322   0.159   1.764   4.889 -1.6689 -0.8624  0.1032
 5620SOL    HW228323   0.128   1.764   5.034 -0.6879  0.0856  0.2535
 5621SOL     OW28324   1.575   3.314  13.073  0.0662  0.6974 -0.2560
 5621SOL    HW128325   1.636   3.269  13.014 -1.6991 -2.2217  0.1616
 5621SOL    HW228326   1.603   3.405  13.062 -0.1691  0.6107 -1.5285
 5622SOL     OW28327   0.598   0.015   0.381  0.0420  0.5102 -0.0346
 5622SOL    HW128328   0.629   0.104   0.363 -0.1872  0.1707 -2.0717
 5622SOL    HW228329   0.585   0.024   0.476  0.7457  0.2253  0.0856
 5623SOL     OW28330   0.228   1.989   8.739 -0.3826  0.2118  0.1833
 5623SOL    HW128331   0.196   1.940   8.815 -0.8813  1.4078  0.7455
 5623SOL    HW228332   0.191   1.935   8.669  1.6555 -0.0893 -0.6488
 5624SOL     OW28333   3.529   1.033  10.259 -0.3404  0.1549  0.5123
 5624SOL    HW128334   3.517   1.075  10.344  1.2917  3.9710 -1.1311
 5624SOL    HW228335   3.435   1.017  10.245 -0.9743  2.1259  2.4130
 5625SOL     OW28336   3.838   4.114   4.516 -0.5792  0.2753 -0.0138
 5625SOL    HW128337   3.821   4.058   4.592  0.9053  1.6740  1.3139
 5625SOL    HW228338   3.821   4.200   4.554 -0.0761  0.4695 -0.2364
 5626SOL     OW28339   0.580   2.007   3.242 -0.0170 -0.6080  0.0855
 5626SOL    HW128340   0.501   1.956   3.224 -0.6923  0.4799 -0.0628
 5626SOL    HW228341   0.638   1.981   3.171  0.8079  0.3866  0.3961
 5627SOL     OW28342   3.617   0.287   6.805 -0.2419 -0.1677 -0.2111
 5627SOL    HW128343   3.629   0.332   6.721  1.5853 -1.7817 -0.8144
 5627SOL    HW228344   3.681   0.216   6.810 -1.2695 -1.1616 -1.4890
 5628SOL     OW28345   1.633   0.868   4.869 -0.4013 -0.2912 -0.6243
 5628SOL    HW128346   1.721   0.851   4.903 -0.1624  0.8649 -0.6620
 5628SOL    HW228347   1.591   0.783   4.868  2.0589 -1.5122 -1.6266
 5629SOL     OW28348   0.343   0.937   4.237 -0.0348 -1.0865 -0.7357
 5629SOL    HW128349   0.409   1.002   4.211  1.3518 -1.7921  1.0502
 5629SOL    HW228350   0.317   0.916   4.147 -0.7279  0.1922 -0.8481
 5630SOL     OW28351   4.108   0.463   9.180 -0.0906  0.0660 -0.5745
 5630SOL    HW128352   4.192   0.506   9.165 -0.3104  0.5248 -0.4934
 5630SOL    HW228353   4.131   0.379   9.221 -1.9581 -0.1759 -0.0097
 5631SOL     OW28354   2.922   4.263  11.086 -0.0627 -0.3897  0.0395
 5631SOL    HW128355   2.895   4.305  11.004  0.0902 -1.7011 -0.6810
 5631SOL    HW228356   2.952   4.332  11.146 -0.4471  1.8904 -2.4059
 5632SOL     OW28357   4.594   2.479   5.080  0.6890 -0.2154  0.4495
 5632SOL    HW128358   4.624   2.465   4.990 -2.8368  1.1178 -0.9285
 5632SOL    HW228359   4.638   2.560   5.106  2.1630 -1.0053  0.4532
 5633SOL     OW28360   3.937   0.212   5.748  0.3259 -0.3265  0.0964
 5633SOL    HW128361   3.990   0.210   5.669  0.6193 -2.7550  0.3628
 5633SOL    HW228362   4.003   0.204   5.818  0.7298 -2.1040 -0.4926
 5634SOL     OW28363   0.785   1.007  16.383 -0.1859 -0.6588 -0.1394
 5634SOL    HW128364   0.780   0.963  16.468  0.8415  0.1719  0.3475
 5634SOL    HW228365   0.821   0.937  16.329  1.9696 -0.1654  0.6573
 5635SOL     OW28366   2.640   3.390  15.443  0.0383  0.0762  0.4002
 5635SOL    HW128367   2.648   3.475  15.486  3.2122  0.6161 -1.2025
 5635SOL    HW228368   2.610   3.338  15.517 -0.1044  0.7915  0.8502
 5636SOL     OW28369   0.026   2.841   4.892 -0.2895  0.0357  0.6354
 5636SOL    HW128370   0.108   2.882   4.921 -0.5445 -0.9024  2.6557
 5636SOL    HW228371   4.706   2.920   4.854  1.4256  0.4391 -0.3105
 5637SOL     OW28372   0.451   1.760   7.025  0.4994 -0.0590 -0.1763
 5637SOL    HW128373   0.383   1.822   7.052  1.2945  0.9021 -0.3617
 5637SOL    HW228374   0.441   1.694   7.094  0.3753  0.5530  0.3950
 5638SOL     OW28375   4.456   0.130   7.018  0.0308 -0.1621 -0.3233
 5638SOL    HW128376   4.364   0.106   7.013  0.3097 -1.0231 -1.2032
 5638SOL    HW228377   4.497   0.048   6.991 -1.7362 -1.3541  0.6329
 5639SOL     OW28378   2.324   2.398   8.495  0.5158 -0.2195  0.0965
 5639SOL    HW128379   2.317   2.359   8.582  0.0568  0.4514  0.3664
 5639SOL    HW228380   2.396   2.348   8.456 -0.7762 -1.5046 -0.6531
 5640SOL     OW28381   2.893   2.167   0.523  0.4561  0.4989 -0.4480
 5640SOL    HW128382   2.810   2.214   0.510 -0.0287 -0.0926  0.5734
 5640SOL    HW228383   2.889   2.115   0.443  0.8973 -0.8545  0.4144
 5641SOL     OW28384   1.451   3.838   2.570  0.3238  0.0392 -0.2667
 5641SOL    HW128385   1.375   3.889   2.598 -0.7451 -1.9955  0.4502
 5641SOL    HW228386   1.522   3.873   2.625  1.2141 -0.6795 -0.9740
 5642SOL     OW28387   1.186   2.747   8.064 -0.0630  0.2373  0.2342
 5642SOL    HW128388   1.226   2.825   8.026  1.3459 -0.0106  1.1739
 5642SOL    HW228389   1.249   2.718   8.131  0.6760  0.7328 -0.2473
 5643SOL     OW28390   0.215   0.203   8.535  0.4696  0.0424 -0.0508
 5643SOL    HW128391   0.273   0.137   8.499 -1.7505 -2.7068  1.4421
 5643SOL    HW228392   0.136   0.172   8.489  1.2502  0.0782 -1.4094
 5644SOL     OW28393   1.428   0.459   8.586 -0.5143 -0.3975 -0.5538
 5644SOL    HW128394   1.429   0.492   8.675  0.4338 -1.1791 -0.2738
 5644SOL    HW228395   1.334   0.472   8.572 -0.6995 -0.2142  0.9014
 5645SOL     OW28396   0.802   0.050  10.355  0.0152 -0.4735 -0.7286
 5645SOL    HW128397   0.739   0.020  10.289 -1.4656 -1.0432  0.9168
 5645SOL    HW228398   0.883   0.027  10.310  0.2934 -2.0712  0.5786
 5646SOL     OW28399   4.147   2.736   3.957 -0.1787 -0.1614 -0.3137
 5646SOL    HW128400   4.119   2.813   4.006  2.1042  2.1136 -2.6008
 5646SOL    HW228401   4.232   2.766   3.925 -1.0130  1.3411 -1.1199
 5647SOL     OW28402   0.924   2.467   8.921 -0.2502 -0.1641  0.0271
 5647SOL    HW128403   0.989   2.492   8.855  1.0267 -0.5550  1.1187
 5647SOL    HW228404   0.983   2.411   8.972 -1.1159 -0.1038  1.1012
 5648SOL     OW28405   1.148   2.122   0.556  0.2075 -0.3017  0.3597
 5648SOL    HW128406   1.219   2.066   0.588  0.9795  1.8886  2.4324
 5648SOL    HW228407   1.133   2.079   0.472  1.1492  3.4254 -1.7050
 5649SOL     OW28408   4.196   2.503   1.837 -0.4207 -0.2904 -0.3969
 5649SOL    HW128409   4.118   2.555   1.854  0.1946  0.0186  1.4200
 5649SOL    HW228410   4.187   2.446   1.913 -1.7683 -0.4498 -0.6761
 5650SOL     OW28411   1.117   0.460   6.742 -0.5183 -0.1738  0.5127
 5650SOL    HW128412   1.114   0.408   6.823 -0.2411  1.1764  1.3948
 5650SOL    HW228413   1.210   0.457   6.721 -0.1638  0.0504  2.0670
 5651SOL     OW28414   0.245   2.841   3.981  0.2823 -0.2268 -0.2812
 5651SOL    HW128415   0.268   2.754   3.948 -0.6181 -0.4473 -0.3339
 5651SOL    HW228416   0.165   2.822   4.030  1.6079 -1.2370  1.4725
 5652SOL     OW28417   1.437   4.119   1.639 -0.3067  0.4000  0.0479
 5652SOL    HW128418   1.353   4.076   1.623 -0.2941 -0.8153  3.3220
 5652SOL    HW228419   1.506   4.056   1.617  0.8516  1.1327  1.5691
 5653SOL     OW28420   0.169   0.767   6.681  0.2616  0.2120  0.4937
 5653SOL    HW128421   0.169   0.829   6.753 -3.7041 -0.6950  1.2787
 5653SOL    HW228422   0.095   0.800   6.630  1.5316  3.1528  0.5750
 5654SOL     OW28423   4.264   1.533   7.362  0.8329  0.2465 -0.4073
 5654SOL    HW128424   4.318   1.470   7.409 -0.3399  1.1154  2.1230
 5654SOL    HW228425   4.193   1.478   7.329  1.9530 -2.0324  0.9350
 5655SOL     OW28426   2.729   3.344   9.347 -0.0614  0.5893 -0.0211
 5655SOL    HW128427   2.708   3.253   9.368 -0.5239  1.1772  2.0495
 5655SOL    HW228428   2.654   3.394   9.380  0.4017 -0.6607  2.9112
 5656SOL     OW28429   4.094   2.689   2.786 -0.1179 -0.8687 -0.6566
 5656SOL    HW128430   4.166   2.696   2.724  0.1778  1.3592 -0.0714
 5656SOL    HW228431   4.050   2.613   2.749 -1.6912 -0.3390  0.1043
 5657SOL     OW28432   4.066   1.784   3.448  0.5276 -0.1678 -0.5996
 5657SOL    HW128433   4.049   1.840   3.372 -1.9933 -1.2078 -0.8275
 5657SOL    HW228434   4.015   1.840   3.507  0.2043 -0.8873 -0.2018
 5658SOL     OW28435   3.326   3.702   0.437  0.4237  0.3223  0.5665
 5658SOL    HW128436   3.321   3.607   0.427 -0.7345  0.4311  0.2037
 5658SOL    HW228437   3.415   3.711   0.472  1.0756  0.9920 -1.2786
 5659SOL     OW28438   1.952   3.949   1.763 -0.2831 -0.2129 -0.1848
 5659SOL    HW128439   2.011   4.018   1.794 -0.3793  0.4492 -1.4848
 5659SOL    HW228440   1.889   3.999   1.711 -1.8713 -1.1634  0.8377
 5660SOL     OW28441   4.537   2.460   3.158  0.5594  0.1386 -0.2225
 5660SOL    HW128442   4.514   2.547   3.124  0.4756  0.5591  0.9341
 5660SOL    HW228443   4.625   2.477   3.190  0.7360 -0.6143 -0.3217
 5661SOL     OW28444   2.816   0.651   4.893  0.8342  0.0865 -0.3420
 5661SOL    HW128445   2.797   0.627   4.802 -3.3906 -3.2117  1.4590
 5661SOL    HW228446   2.850   0.565   4.919 -0.4199  0.3648  2.2173
 5662SOL     OW28447   0.693   4.249  14.374 -0.3280 -0.7768 -0.2682
 5662SOL    HW128448   0.776   4.201  14.383  0.2475  0.0777 -1.0980
 5662SOL    HW228449   0.635   4.180  14.341 -1.2962 -1.7781  3.5224
 5663SOL     OW28450   4.566   3.576   7.872  0.1374 -0.0012  0.2984
 5663SOL    HW128451   4.477   3.544   7.861  0.1957 -0.3722  0.8886
 5663SOL    HW228452   4.565   3.640   7.801  0.8558  0.3160  0.5726
 5664SOL     OW28453   1.473   2.433   2.575 -0.1771  0.9921  0.1274
 5664SOL    HW128454   1.519   2.513   2.599  0.6831  0.9602 -1.4773
 5664SOL    HW228455   1.423   2.459   2.498  1.4643 -0.6605 -1.4796
 5665SOL     OW28456   2.184   0.515   8.577  0.3041 -0.2594  0.1457
 5665SOL    HW128457   2.151   0.460   8.648 -1.6462 -0.5730 -1.0057
 5665SOL    HW228458   2.114   0.498   8.514  4.0709 -0.5909 -3.9465
 5666SOL     OW28459   2.646   3.073   5.104 -0.6317  0.0767  0.1096
 5666SOL    HW128460   2.567   3.061   5.156  0.7641 -1.4447  1.8602
 5666SOL    HW228461   2.648   2.987   5.064 -0.1559  0.3144 -0.3830
 5667SOL     OW28462   3.632   4.561   7.848 -0.4038 -0.5167  0.5285
 5667SOL    HW128463   3.696   4.584   7.780 -0.0734 -2.0110  0.3375
 5667SOL    HW228464   3.686   4.530   7.920  0.4078 -0.5412 -0.0899
 5668SOL     OW28465   1.497   4.190   2.772 -0.5372 -0.1480 -0.3223
 5668SOL    HW128466   1.480   4.282   2.788 -0.0094  0.0619 -0.9696
 5668SOL    HW228467   1.408   4.153   2.768 -0.1150 -1.0966 -1.2443
 5669SOL     OW28468   0.561   1.047  12.553  0.4690 -0.1099  0.6226
 5669SOL    HW128469   0.596   1.136  12.553  3.5565 -1.3189 -0.9724
 5669SOL    HW228470   0.472   1.050  12.588 -0.9224 -1.0983 -2.7808
 5670SOL     OW28471   3.803   2.946   8.424 -0.0569  0.2987  0.4929
 5670SOL    HW128472   3.725   3.001   8.423 -1.2962 -1.4659 -0.9383
 5670SOL    HW228473   3.839   2.975   8.508  0.7433  1.9466 -0.4360
 5671SOL     OW28474   3.017   1.496   3.230 -0.1230 -0.3895  0.0380
 5671SOL    HW128475   3.083   1.560   3.256  0.0497 -1.3496  1.9628
 5671SOL    HW228476   2.941   1.544   3.262  0.6315 -1.4062  3.3677
 5672SOL     OW28477   4.635   4.134   7.800 -0.0816 -0.2554  0.1647
 5672SOL    HW128478   4.603   4.045   7.815 -1.1264 -0.1795 -1.5756
 5672SOL    HW228479   4.710   4.148   7.857 -0.4177  0.4012  0.4437
 5673SOL     OW28480   0.489   1.012   5.964 -0.0915  0.4716  0.2452
 5673SOL    HW128481   0.498   1.075   6.035  1.6702  0.6966 -0.1667
 5673SOL    HW228482   0.410   1.045   5.921  1.0155  2.4385 -0.2937
 5674SOL     OW28483   1.508   3.473  16.865  0.0090 -0.7880 -0.2897
 5674SOL    HW128484   1.584   3.481  16.923 -0.0333 -0.9871 -0.2097
 5674SOL    HW228485   1.537   3.398  16.814  0.6468  0.3075 -1.5353
 5675SOL     OW28486   1.285   1.373  12.007 -0.1325  0.6444 -0.0434
 5675SOL    HW128487   1.318   1.434  11.942 -1.7393  2.2094  0.5859
 5675SOL    HW228488   1.246   1.302  11.956 -0.1214  1.2208 -0.8597
 5676SOL     OW28489   0.723   2.038   3.507 -0.3751  0.6982 -0.4406
 5676SOL    HW128490   0.784   1.966   3.491  0.0104  1.0679 -0.6487
 5676SOL    HW228491   0.636   2.003   3.489  0.2827  0.6609 -3.5258
 5677SOL     OW28492   4.514   2.216   4.816 -0.7064 -0.0121  0.0866
 5677SOL    HW128493   4.509   2.221   4.721  2.8845 -0.7482 -0.1230
 5677SOL    HW228494   4.453   2.287   4.836  0.2924  1.0312 -0.5878
 5678SOL     OW28495   3.666   0.012  14.347 -0.1209 -0.0371 -0.3444
 5678SOL    HW128496   3.648   4.648  14.304  0.5590 -1.9532  3.0614
 5678SOL    HW228497   3.706   0.062  14.276  0.7005  0.8835  0.7480
 5679SOL     OW28498   2.649   2.055   3.533  0.1988  0.7018 -0.7017
 5679SOL    HW128499   2.719   2.117   3.552  0.7869 -0.8845  2.2138
 5679SOL    HW228500   2.671   2.038   3.442 -1.0470  3.8312 -1.6251
 5680SOL     OW28501   1.427   1.213  14.011 -0.2136  0.0380  0.3433
 5680SOL    HW128502   1.343   1.237  14.051 -0.5592  1.5366 -1.3121
 5680SOL    HW228503   1.490   1.276  14.047  1.1302 -1.0383 -0.1619
 5681SOL     OW28504   2.320   0.509   8.332  1.2141  0.2632  0.2249
 5681SOL    HW128505   2.282   0.527   8.418  2.1716 -0.3878  0.7780
 5681SOL    HW228506   2.321   0.414   8.330 -0.1302  0.2351  0.6689
 5682SOL     OW28507   4.083   0.183   9.180 -0.3637 -0.0739 -0.4812
 5682SOL    HW128508   4.087   0.215   9.090  0.3521 -1.1725 -0.8460
 5682SOL    HW228509   3.990   0.163   9.195 -0.4912 -0.5513 -1.9024
 5683SOL     OW28510   4.578   3.468   7.544  0.1711 -0.2976 -0.2990
 5683SOL    HW128511   4.527   3.485   7.465  1.6992 -1.0686 -1.4600
 5683SOL    HW228512   4.660   3.518   7.538 -0.2668  0.2998 -1.1617
 5684SOL     OW28513   3.465   2.870   5.598  0.0950 -0.6840  0.1615
 5684SOL    HW128514   3.462   2.822   5.681 -0.1421  1.1170  1.2008
 5684SOL    HW228515   3.376   2.858   5.564  0.9451 -2.1885 -1.5209
 5685SOL     OW28516   3.890   1.660  11.655  0.3924 -0.4011  0.1511
 5685SOL    HW128517   3.975   1.619  11.672  0.1125 -0.3322  1.7011
 5685SOL    HW228518   3.844   1.586  11.615  0.0373  0.4537 -1.0155
 5686SOL     OW28519   4.551   4.708  14.345 -0.4999 -0.3482  0.0303
 5686SOL    HW128520   4.596   4.648  14.285  1.8827 -0.0958  1.5607
 5686SOL    HW228521   4.539   0.064  14.289  0.6605  0.4290  0.8491
 5687SOL     OW28522   4.038   3.118   8.132 -0.1827 -0.0585 -0.2678
 5687SOL    HW128523   4.097   3.087   8.201  1.6212  2.5111 -0.6310
 5687SOL    HW228524   4.037   3.039   8.079  1.4535 -0.5913  0.5042
 5688SOL     OW28525   4.157   4.442   7.918  0.4558  0.3058 -0.2196
 5688SOL    HW128526   4.229   4.406   7.866  1.6409  2.0039  0.2752
 5688SOL    HW228527   4.204   4.489   7.987  1.3819 -0.7678 -0.1210
 5689SOL     OW28528   2.396   3.651   6.466  0.1463  0.5172  0.0496
 5689SOL    HW128529   2.446   3.572   6.448 -1.6409 -0.9288  1.4225
 5689SOL    HW228530   2.317   3.633   6.416 -0.5770 -0.5699  1.5855
 5690SOL     OW28531   4.275   4.117   8.381 -0.4783  0.2471 -0.2899
 5690SOL    HW128532   4.212   4.078   8.441 -0.2208  0.2005 -0.0463
 5690SOL    HW228533   4.355   4.076   8.415 -0.0649  2.0141  0.8509
 5691SOL     OW28534   2.584   3.532  10.947 -0.4788  0.5306 -0.2921
 5691SOL    HW128535   2.673   3.518  10.914 -0.7855 -2.0829  0.0366
 5691SOL    HW228536   2.536   3.505  10.868  0.7531 -0.1336 -0.8158
 5692SOL     OW28537   2.850   3.760   1.046  0.4589 -0.1316 -0.1273
 5692SOL    HW128538   2.855   3.710   0.965 -2.3402 -1.2426  0.3896
 5692SOL    HW228539   2.773   3.813   1.023  0.5398 -0.2623 -0.6924
 5693SOL     OW28540   1.874   1.506  16.627 -0.3180  0.2771 -0.0860
 5693SOL    HW128541   1.898   1.414  16.636  0.4628  0.6405  1.5140
 5693SOL    HW228542   1.958   1.550  16.618 -0.2429 -0.1724 -1.5959
 5694SOL     OW28543   1.334   1.980   0.681  0.0552 -0.1894  0.1761
 5694SOL    HW128544   1.390   2.047   0.641  1.9878 -1.5178  0.6438
 5694SOL    HW228545   1.386   1.955   0.758 -0.6906  0.7923  1.0113
 5695SOL     OW28546   0.542   1.106   4.070  0.0389  0.6879  0.0725
 5695SOL    HW128547   0.499   1.057   4.001  0.6687 -1.5963  1.2938
 5695SOL    HW228548   0.629   1.129   4.036 -0.7213  0.5797 -1.9069
 5696SOL     OW28549   3.159   4.658  14.059  0.6003  0.1574  0.2424
 5696SOL    HW128550   3.080   4.643  14.008 -0.1412  1.8172  0.8918
 5696SOL    HW228551   3.137   4.637  14.150  0.5529  1.7860  0.6055
 5697SOL     OW28552   0.452   1.561   7.245 -0.3108  0.0668  0.3727
 5697SOL    HW128553   0.469   1.491   7.182  1.3458  0.2257  0.6374
 5697SOL    HW228554   0.476   1.516   7.326 -1.0678 -1.4415 -0.2295
 5698SOL     OW28555   3.706   4.317   2.322 -1.1196 -0.5766 -0.1587
 5698SOL    HW128556   3.713   4.408   2.292 -1.7432  0.2509  2.1527
 5698SOL    HW228557   3.773   4.321   2.390  0.1104 -0.4407 -1.3824
 5699SOL     OW28558   2.440   2.459   8.107 -0.1359 -0.5944 -0.2770
 5699SOL    HW128559   2.372   2.520   8.078  0.3392  0.9800  1.9660
 5699SOL    HW228560   2.510   2.522   8.124  0.8108 -1.7341  0.0651
 5700SOL     OW28561   2.236   2.700   0.929  0.1943 -0.4784 -0.6127
 5700SOL    HW128562   2.285   2.782   0.933 -0.0113 -0.4615  1.3056
 5700SOL    HW228563   2.184   2.707   0.849  1.4608  2.5630 -1.1699
 5701SOL     OW28564   2.620   1.862   3.088  0.2175 -0.7682  0.3405
 5701SOL    HW128565   2.625   1.917   3.009  0.7182  0.5117  1.2683
 5701SOL    HW228566   2.676   1.903   3.153  0.6641 -1.0820  0.1574
 5702SOL     OW28567   0.062   4.674   5.177 -0.1613  0.4631  0.1075
 5702SOL    HW128568   0.118   4.683   5.100 -1.1516  0.8631 -0.5667
 5702SOL    HW228569   4.699   4.709   5.143 -0.8684 -2.3071 -1.0557
 5703SOL     OW28570   2.989   0.443   5.143 -0.2590 -0.2038  0.0358
 5703SOL    HW128571   2.907   0.474   5.181  0.3566  3.3675 -1.5058
 5703SOL    HW228572   2.996   0.358   5.186 -2.5097 -0.1555  0.4796
 5704SOL     OW28573   4.040   1.927   8.012  0.4785 -0.0782  0.4701
 5704SOL    HW128574   4.012   1.998   7.955  3.3901  1.8402  1.4588
 5704SOL    HW228575   3.953   1.910   8.048  0.2363 -0.3764 -0.2336
 5705SOL     OW28576   0.867   1.085   8.009  0.5744  0.5777 -0.3238
 5705SOL    HW128577   0.905   1.046   7.930 -0.5331 -1.1098 -0.0318
 5705SOL    HW228578   0.789   1.029   8.010 -0.4596  2.0714  1.6744
 5706SOL     OW28579   3.358   3.313   4.980 -0.3371 -0.1363  0.2057
 5706SOL    HW128580   3.416   3.241   5.002 -0.2408  0.4502  1.8348
 5706SOL    HW228581   3.316   3.321   5.065  0.8506 -0.4505  0.8174
 5707SOL     OW28582   4.493   3.503  14.055 -0.0232  0.0743 -0.1595
 5707SOL    HW128583   4.587   3.484  14.054  0.3854  1.9201  1.9306
 5707SOL    HW228584   4.477   3.534  14.144  0.9517  1.8955 -0.5994
 5708SOL     OW28585   2.995   0.820  16.881 -0.1744 -0.0303  0.0093
 5708SOL    HW128586   3.087   0.841  16.866 -0.2671 -1.5751 -2.7252
 5708SOL    HW228587   2.980   0.822  16.975 -1.7069  0.2849 -0.2261
 5709SOL     OW28588   0.878   4.001  13.034 -0.2554  0.1915 -0.2337
 5709SOL    HW128589   0.930   3.928  13.068 -1.6402 -1.0687 -0.8338
 5709SOL    HW228590   0.795   3.954  13.025  0.1965 -0.7009  0.2769
 5710SOL     OW28591   0.325   0.518   5.899  0.9943  0.0177 -0.2594
 5710SOL    HW128592   0.364   0.496   5.815 -0.2400 -0.7764 -0.6188
 5710SOL    HW228593   0.380   0.590   5.931  1.8649 -1.1772  0.9572
 5711SOL     OW28594   2.147   2.740   8.976 -0.1610  0.3556  0.1301
 5711SOL    HW128595   2.153   2.738   9.071  0.4636  0.8014  0.1070
 5711SOL    HW228596   2.181   2.656   8.947 -0.2583  0.5111 -0.4295
 5712SOL     OW28597   4.000   3.651  16.866  0.6678  0.1936 -0.4203
 5712SOL    HW128598   3.982   3.567  16.824 -2.6107  0.6577  0.0384
 5712SOL    HW228599   4.085   3.640  16.909 -0.5940  0.1178  2.0235
 5713SOL     OW28600   3.054   2.020   3.492 -0.0569  0.1059 -0.4691
 5713SOL    HW128601   3.067   2.011   3.398  0.2382  1.9035 -0.6140
 5713SOL    HW228602   3.003   2.101   3.499  0.4925  0.4875 -0.8285
 5714SOL     OW28603   1.318   0.118   0.532  0.0694 -0.0350  0.7685
 5714SOL    HW128604   1.371   0.042   0.509  3.0645  3.0482 -2.4445
 5714SOL    HW228605   1.304   0.152   0.444 -0.8459  1.0477  1.3430
 5715SOL     OW28606   2.614   2.464  12.594  0.1050 -0.2799  0.0182
 5715SOL    HW128607   2.523   2.448  12.566  0.3028 -0.2264 -0.6548
 5715SOL    HW228608   2.652   2.380  12.567  0.8124 -0.2143  0.8371
 5716SOL     OW28609   2.465   1.813   4.828  0.1888 -0.1888  0.4723
 5716SOL    HW128610   2.513   1.776   4.902  0.3205  1.5755  1.2716
 5716SOL    HW228611   2.377   1.818   4.866 -0.3367 -0.3743 -0.7307
 5717SOL     OW28612   2.449   2.010  15.260  1.3699  0.3357  0.6645
 5717SOL    HW128613   2.454   1.929  15.310 -0.4392 -1.6805 -2.4015
 5717SOL    HW228614   2.447   2.082  15.324  3.6385 -0.2307  1.3537
 5718SOL     OW28615   2.500   0.413   1.855  0.1457 -0.5666 -0.2933
 5718SOL    HW128616   2.418   0.462   1.861  0.7447  0.6524 -2.1024
 5718SOL    HW228617   2.537   0.428   1.942  1.2463 -0.8687 -0.7056
 5719SOL     OW28618   2.054   1.110   3.360 -1.0942 -0.0911  0.4717
 5719SOL    HW128619   2.113   1.044   3.394 -2.3306 -0.9170  1.0055
 5719SOL    HW228620   2.110   1.187   3.364  0.2110 -1.1767  2.5812
 5720SOL     OW28621   0.860   3.775  15.534  0.1532 -0.3998  0.1417
 5720SOL    HW128622   0.774   3.742  15.510 -0.6976  1.8988  0.0445
 5720SOL    HW228623   0.837   3.865  15.556  1.3509 -0.3697  1.2980
 5721SOL     OW28624   3.619   4.009  16.710  0.2004  0.3890  0.3411
 5721SOL    HW128625   3.703   4.049  16.732 -0.3992  2.0760 -0.4313
 5721SOL    HW228626   3.557   4.041  16.776  1.0394  2.7121 -0.0001
 5722SOL     OW28627   1.464   3.664  17.475 -0.0167  0.1937  1.0531
 5722SOL    HW128628   1.423   3.585  17.441 -0.5031  0.3101  1.3670
 5722SOL    HW228629   1.383   3.714  17.463  0.2948  0.0996 -1.5795
 5723SOL     OW28630   0.323   4.299   3.905 -0.3368 -0.6825 -0.5066
 5723SOL    HW128631   0.345   4.263   3.991  1.0104 -0.4540 -0.7601
 5723SOL    HW228632   0.377   4.377   3.899 -0.4913 -0.4434  1.3011
 5724SOL     OW28633   3.984   3.423   5.217  0.0166  0.2772  0.8489
 5724SOL    HW128634   3.944   3.367   5.149 -0.8843 -0.6017  2.1031
 5724SOL    HW228635   3.908   3.467   5.252  0.0404 -1.3997  2.9990
 5725SOL     OW28636   3.055   3.233   3.596  0.2880 -0.6910 -0.1142
 5725SOL    HW128637   3.100   3.185   3.526 -0.1836 -0.7796 -0.3566
 5725SOL    HW228638   3.109   3.311   3.580  2.0330 -1.9299 -0.2732
 5726SOL     OW28639   2.238   3.972   3.777 -0.8385  0.5343  0.3148
 5726SOL    HW128640   2.162   3.919   3.753 -0.3645 -0.6970  1.4934
 5726SOL    HW228641   2.311   3.912   3.793 -1.3911  0.0394  0.9770
 5727SOL     OW28642   1.512   0.119   4.456  0.6070  0.1185 -0.2246
 5727SOL    HW128643   1.545   0.065   4.384  1.4824 -0.3389  0.5362
 5727SOL    HW228644   1.439   0.162   4.411  0.7270  1.0677  0.5003
 5728SOL     OW28645   0.230   3.203   1.273 -0.5731 -0.0738 -0.2001
 5728SOL    HW128646   0.235   3.256   1.353 -0.0336  0.1176 -0.3620
 5728SOL    HW228647   0.284   3.129   1.302  0.3169  1.1134  1.1637
 5729SOL     OW28648   1.235   3.449   2.197 -0.1398  0.6654 -0.2126
 5729SOL    HW128649   1.207   3.418   2.112 -0.7335  2.1650 -0.5713
 5729SOL    HW228650   1.330   3.435   2.197 -0.0837  1.0550 -0.7106
 5730SOL     OW28651   0.980   1.227   7.548  0.8172  0.1420 -0.3966
 5730SOL    HW128652   1.038   1.190   7.615  2.1013  0.3261 -1.4057
 5730SOL    HW228653   0.961   1.314   7.584  1.4134 -0.1728  0.6731
 5731SOL     OW28654   2.409   1.387  12.674 -0.2946  0.2200 -0.6443
 5731SOL    HW128655   2.403   1.292  12.668 -1.9344  0.1752  1.8546
 5731SOL    HW228656   2.501   1.401  12.652  0.0846  0.0216  0.8006
 5732SOL     OW28657   2.113   2.905   8.058  0.0238 -0.4572  0.2409
 5732SOL    HW128658   2.121   2.957   8.138 -0.8772 -2.6348  1.7747
 5732SOL    HW228659   2.207   2.895   8.041 -0.0360  1.2800 -1.0555
 5733SOL     OW28660   1.972   4.611   4.442  0.3031 -0.2275 -0.1130
 5733SOL    HW128661   2.066   4.610   4.461  0.3035 -2.3835 -0.2077
 5733SOL    HW228662   1.959   4.705   4.433 -0.2045 -0.5698 -2.9402
 5734SOL     OW28663   1.753   4.400   0.371  0.2001  0.2729  0.2144
 5734SOL    HW128664   1.693   4.370   0.439 -2.4527 -0.4784 -2.4879
 5734SOL    HW228665   1.792   4.317   0.343 -1.1745  0.2336 -1.5458
 5735SOL     OW28666   2.965   3.041   4.111 -0.6418 -0.2014 -0.7600
 5735SOL    HW128667   2.967   2.966   4.170 -0.4252  0.3318 -0.0905
 5735SOL    HW228668   3.054   3.028   4.078 -0.5212  1.1941 -0.9879
 5736SOL     OW28669   2.503   1.968   4.136 -0.0376 -0.1300  0.7779
 5736SOL    HW128670   2.418   1.990   4.099  1.1635  0.7929 -1.4233
 5736SOL    HW228671   2.490   1.874   4.154 -0.6926 -0.2751 -0.4495
 5737SOL     OW28672   1.178   1.036  14.272  0.6095  0.4448 -0.5299
 5737SOL    HW128673   1.152   0.953  14.313  0.4528  0.7499 -0.0014
 5737SOL    HW228674   1.224   1.015  14.191  0.1822 -0.0425 -0.6519
 5738SOL     OW28675   1.322   0.009   6.347  0.2628 -0.1073  0.0807
 5738SOL    HW128676   1.364   0.042   6.268  1.2194 -0.1087  0.5959
 5738SOL    HW228677   1.347   4.637   6.346  1.6475  0.2700  0.6287
 5739SOL     OW28678   0.625   0.454   6.480 -0.0245 -0.0087  0.0126
 5739SOL    HW128679   0.568   0.440   6.404  0.2718 -0.2359 -0.1646
 5739SOL    HW228680   0.597   0.545   6.496 -1.1933 -0.3483 -0.0831
 5740SOL     OW28681   3.068   3.594   9.285  0.4763 -0.7252 -0.2929
 5740SOL    HW128682   3.108   3.514   9.250  2.2910 -0.8339  2.0107
 5740SOL    HW228683   3.144   3.651   9.274 -1.4764  2.4391  2.7251
 5741SOL     OW28684   1.173   4.402   8.776 -0.3953 -0.2035 -0.3234
 5741SOL    HW128685   1.230   4.390   8.700  1.4960 -0.2453  1.1243
 5741SOL    HW228686   1.209   4.479   8.819  0.8065 -0.3062 -1.1520
 5742SOL     OW28687   0.787   2.547   0.003  0.1390 -0.4964  0.4723
 5742SOL    HW128688   0.784   2.463  17.638 -1.6140 -1.3729  2.1764
 5742SOL    HW228689   0.697   2.559   0.034  0.1891  0.5433  0.2088
 5743SOL     OW28690   0.845   1.813   7.152 -0.3050  0.2719  0.0170
 5743SOL    HW128691   0.866   1.771   7.068  0.2380  0.8069 -0.1164
 5743SOL    HW228692   0.789   1.888   7.129  0.6913  1.2208  0.6944
 5744SOL     OW28693   4.067   4.066  13.438  0.5619 -0.2397 -0.4256
 5744SOL    HW128694   3.973   4.073  13.452  0.2310 -1.5905 -1.9735
 5744SOL    HW228695   4.073   4.120  13.358  1.6636 -2.4988 -1.8592
 5745SOL     OW28696   2.482   1.971   9.150 -0.0986  0.2841 -0.0923
 5745SOL    HW128697   2.443   1.950   9.235  0.0986  1.3422  0.2567
 5745SOL    HW228698   2.527   1.893   9.118 -2.1975 -0.7967 -0.4362
 5746SOL     OW28699   3.636   1.473   3.824  0.0708  0.0813 -0.2572
 5746SOL    HW128700   3.657   1.383   3.849 -1.0512  0.5338  2.3794
 5746SOL    HW228701   3.696   1.513   3.888  0.1658  0.2251 -0.4379
 5747SOL     OW28702   4.110   2.292   7.968  0.4661 -0.1424  0.6589
 5747SOL    HW128703   4.091   2.222   7.905  1.4166  0.2636 -0.0928
 5747SOL    HW228704   4.170   2.250   8.028 -1.4114 -0.7208  2.1247
 5748SOL     OW28705   2.347   1.928   9.370 -0.3912 -0.1145 -0.5150
 5748SOL    HW128706   2.333   2.021   9.386 -0.3888 -0.0367 -0.9890
 5748SOL    HW228707   2.255   1.900   9.370  0.1746 -2.0352  0.7746
 5749SOL     OW28708   0.518   1.631   2.123  0.3335 -0.2773 -0.3044
 5749SOL    HW128709   0.464   1.575   2.066 -1.3482  0.6447  0.4023
 5749SOL    HW228710   0.605   1.629   2.082  0.9365 -1.1942  1.0049
 5750SOL     OW28711   4.110   3.780   3.495 -0.8153  0.2348  0.2722
 5750SOL    HW128712   4.019   3.801   3.475 -1.0402 -2.5753 -1.5668
 5750SOL    HW228713   4.100   3.748   3.585 -1.0241  0.6097  0.3822
 5751SOL     OW28714   0.930   1.345   5.286 -0.5369 -0.3098  0.2579
 5751SOL    HW128715   0.976   1.412   5.236  0.6766 -0.5650  1.0255
 5751SOL    HW228716   1.004   1.317   5.341  0.6374 -1.0110 -1.6684
 5752SOL     OW28717   4.435   3.052   5.610  0.0987 -0.3963 -0.3578
 5752SOL    HW128718   4.470   2.968   5.579  1.6628 -0.2999  1.1416
 5752SOL    HW228719   4.463   3.116   5.544 -0.7138 -0.3666 -0.6772
 5753SOL     OW28720   2.405   1.344   8.978 -0.1774  0.0791  0.5558
 5753SOL    HW128721   2.385   1.277   9.043 -0.0395  0.6684  1.2058
 5753SOL    HW228722   2.363   1.330   8.893  1.4669 -0.6240 -0.1398
 5754SOL     OW28723   0.540   3.535   7.172 -0.1562 -0.0786 -0.3636
 5754SOL    HW128724   0.609   3.596   7.199  0.7025 -0.8222 -0.9107
 5754SOL    HW228725   0.551   3.462   7.233 -0.2155  0.8683  0.7945
 5755SOL     OW28726   3.415   3.894  15.060 -0.4574  0.2929 -0.0421
 5755SOL    HW128727   3.403   3.806  15.025 -2.8653  0.7473 -0.3558
 5755SOL    HW228728   3.429   3.881  15.154  0.0382 -0.1803 -0.1854
 5756SOL     OW28729   3.786   0.244   9.464  0.3385  0.1713  0.2063
 5756SOL    HW128730   3.782   0.193   9.383  0.2962 -1.7906  1.4551
 5756SOL    HW228731   3.832   0.175   9.511  1.0103  0.0094 -0.6859
 5757SOL     OW28732   1.144   1.419   1.912 -0.3387  0.4360 -0.7867
 5757SOL    HW128733   1.230   1.435   1.950 -0.7520  0.3923  0.1821
 5757SOL    HW228734   1.154   1.344   1.853  0.1024  0.5227 -0.8216
 5758SOL     OW28735   1.827   2.245  13.656 -0.4458 -0.3169  0.1048
 5758SOL    HW128736   1.910   2.199  13.669 -0.5774 -0.6213 -0.1318
 5758SOL    HW228737   1.831   2.247  13.560  2.1171  1.3893  0.2629
 5759SOL     OW28738   2.747   3.986   3.118 -0.1557 -0.1827 -0.5104
 5759SOL    HW128739   2.840   3.967   3.130 -1.0413 -0.2999  6.5499
 5759SOL    HW228740   2.749   4.080   3.100  1.3391 -0.0688  0.2723
 5760SOL     OW28741   2.162   3.146   0.699 -0.0249  0.5270 -0.4457
 5760SOL    HW128742   2.146   3.170   0.607 -0.1952  0.9504 -0.3062
 5760SOL    HW228743   2.111   3.219   0.734 -0.0079  0.8480 -1.0750
 5761SOL     OW28744   0.475   1.794   4.104  0.6789  0.3602 -0.2836
 5761SOL    HW128745   0.553   1.748   4.071  0.1106 -0.4961 -0.4291
 5761SOL    HW228746   0.487   1.878   4.059 -1.0268  1.3377  1.0884
 5762SOL     OW28747   1.892   0.195   6.991 -0.3218  0.5936 -0.1564
 5762SOL    HW128748   1.873   0.167   6.901  1.6001 -3.3612  0.6411
 5762SOL    HW228749   1.834   0.140   7.044 -2.2156  2.0877 -0.6910
 5763SOL     OW28750   1.231   3.923   6.382 -0.4987  0.6213  0.3087
 5763SOL    HW128751   1.217   3.882   6.467 -0.3570 -0.1455 -0.0430
 5763SOL    HW228752   1.191   4.009   6.393 -1.0125  0.3517  0.5297
 5764SOL     OW28753   2.477   3.890   6.950 -0.1434  0.0157  0.2288
 5764SOL    HW128754   2.498   3.887   6.857 -2.3631  1.6127 -0.3030
 5764SOL    HW228755   2.546   3.840   6.994 -0.6631 -1.0436 -0.1625
 5765SOL     OW28756   0.143   1.382   3.336 -0.4176  0.0883  0.1915
 5765SOL    HW128757   0.173   1.297   3.368 -0.2294 -0.4040 -1.2788
 5765SOL    HW228758   0.092   1.401   3.414 -0.4852 -1.4476  0.5137
 5766SOL     OW28759   3.605   3.545  16.422  0.5370  0.0619 -0.1746
 5766SOL    HW128760   3.618   3.603  16.496  0.0636 -0.5480  0.3928
 5766SOL    HW228761   3.516   3.560  16.390  1.8643  1.9635 -2.9569
 5767SOL     OW28762   1.837   4.182  14.307  0.5332  0.3307  0.2279
 5767SOL    HW128763   1.861   4.269  14.339  0.5317  1.0126 -1.6244
 5767SOL    HW228764   1.755   4.150  14.346  2.4648  0.5782  4.5241
 5768SOL     OW28765   2.697   3.032  10.032  0.2763  0.5421  0.4230
 5768SOL    HW128766   2.685   2.943  10.064 -0.4275 -0.3377 -2.2609
 5768SOL    HW228767   2.712   3.080  10.113 -1.0976  0.1119  0.9406
 5769SOL     OW28768   2.540   1.873   5.459 -0.3100 -0.7588  0.3563
 5769SOL    HW128769   2.589   1.817   5.519  0.3453 -0.6713 -0.1052
 5769SOL    HW228770   2.457   1.882   5.506  0.1551  0.2028  0.9964
 5770SOL     OW28771   3.815   1.235   5.012 -0.0137 -0.1197 -0.0328
 5770SOL    HW128772   3.721   1.221   4.998  0.3265  1.1642 -3.5012
 5770SOL    HW228773   3.824   1.193   5.098 -0.2758 -1.0807 -0.4662
 5771SOL     OW28774   2.614   3.758   4.973  0.2402  0.0790  0.2675
 5771SOL    HW128775   2.561   3.825   5.017 -0.8512 -0.8654  0.4108
 5771SOL    HW228776   2.670   3.815   4.920 -1.9197  3.0935  1.2355
 5772SOL     OW28777   1.658   4.259   1.952 -0.1902  0.1253 -0.6555
 5772SOL    HW128778   1.590   4.254   2.019 -0.6525 -1.4918 -1.2398
 5772SOL    HW228779   1.596   4.301   1.893  1.6025  2.6042 -0.7590
 5773SOL     OW28780   3.367   3.654   4.659  0.2280 -0.1135 -0.1561
 5773SOL    HW128781   3.312   3.687   4.730  0.2169 -0.7419  0.1308
 5773SOL    HW228782   3.303   3.634   4.590  0.6104  2.5243 -1.2736
 5774SOL     OW28783   4.052   4.532   9.183  0.3537  0.6891  0.1202
 5774SOL    HW128784   4.138   4.511   9.220  0.0714 -1.1715 -0.2624
 5774SOL    HW228785   4.020   4.596   9.246  0.1505 -0.8648  1.6000
 5775SOL     OW28786   2.102   2.449  13.828  0.2087  0.1563  0.1628
 5775SOL    HW128787   2.014   2.476  13.853  0.0806  0.6880 -0.8685
 5775SOL    HW228788   2.130   2.529  13.784 -0.2109 -0.0166 -0.4151
 5776SOL     OW28789   0.730   3.629   4.330  0.5822  0.0842 -0.4247
 5776SOL    HW128790   0.687   3.546   4.350 -2.5753  2.2182  1.7499
 5776SOL    HW228791   0.797   3.599   4.269  0.1986 -1.1978 -0.2153
 5777SOL     OW28792   0.171   1.155  12.903 -0.1092  0.5653 -0.5421
 5777SOL    HW128793   0.139   1.207  12.830 -0.8047  1.3008  0.2945
 5777SOL    HW228794   0.169   1.070  12.858 -0.9533  1.1187 -1.5294
 5778SOL     OW28795   2.430   0.716   9.123 -0.3896 -0.3095 -0.3804
 5778SOL    HW128796   2.523   0.703   9.145 -0.4403  0.5839  0.3816
 5778SOL    HW228797   2.428   0.650   9.054  0.2719 -1.2582  0.5071
 5779SOL     OW28798   0.751   4.195  11.510 -0.0855  0.4810  0.5752
 5779SOL    HW128799   0.831   4.242  11.530  0.2122  0.1478  0.1601
 5779SOL    HW228800   0.780   4.122  11.455 -2.1427  0.3515 -0.3749
 5780SOL     OW28801   3.550   3.291   5.411  0.3449 -0.1585  0.4120
 5780SOL    HW128802   3.523   3.223   5.350 -0.7801 -0.9037  1.7347
 5780SOL    HW228803   3.544   3.248   5.496 -0.2726  1.6703  1.2963
 5781SOL     OW28804   2.357   4.154   7.579  0.3934 -0.5132  0.3829
 5781SOL    HW128805   2.382   4.064   7.600  0.7420 -0.2219  1.1829
 5781SOL    HW228806   2.358   4.192   7.666  0.6555  1.1290 -0.3317
 5782SOL     OW28807   1.194   2.574   7.835 -0.0248  0.7356  0.4280
 5782SOL    HW128808   1.208   2.651   7.780  1.6807 -1.5439 -2.3274
 5782SOL    HW228809   1.206   2.611   7.922 -0.8053 -0.7953  1.1794
 5783SOL     OW28810   3.557   2.146   8.876 -0.1523 -0.6520 -0.5147
 5783SOL    HW128811   3.580   2.165   8.785  1.8201 -2.7073 -0.4428
 5783SOL    HW228812   3.506   2.068   8.856 -1.6132 -0.5890  2.9788
 5784SOL     OW28813   4.544   2.657   6.423  0.0808  0.3635 -0.2628
 5784SOL    HW128814   4.533   2.684   6.514 -0.1268 -2.0388  0.4150
 5784SOL    HW228815   4.615   2.594   6.429 -0.8423 -0.4808  1.7035
 5785SOL     OW28816   2.707   1.120  13.615  0.3768  0.2386  0.2379
 5785SOL    HW128817   2.661   1.044  13.578 -2.8139  2.0006  0.6291
 5785SOL    HW228818   2.649   1.191  13.588 -1.5914 -2.4634 -2.7001
 5786SOL     OW28819   4.293   2.596   7.903 -0.2147 -0.7192  0.4544
 5786SOL    HW128820   4.212   2.601   7.955 -0.7944 -1.2673 -0.4040
 5786SOL    HW228821   4.256   2.573   7.818 -1.2718  2.1530  0.1440
 5787SOL     OW28822   3.216   1.261  10.612  0.2468 -0.4764  0.3812
 5787SOL    HW128823   3.131   1.216  10.618  0.9741 -1.5096  3.0309
 5787SOL    HW228824   3.214   1.325  10.683 -2.4885  0.5940 -0.6403
 5788SOL     OW28825   4.415   1.756  12.659  0.1913  0.0930  0.2709
 5788SOL    HW128826   4.389   1.842  12.626  1.6772  0.3679 -0.1981
 5788SOL    HW228827   4.488   1.738  12.599 -0.6297  0.3515 -0.8165
 5789SOL     OW28828   2.454   4.355   9.161  0.7103  0.1622 -0.9383
 5789SOL    HW128829   2.512   4.319   9.228  0.1071 -0.4495 -0.7484
 5789SOL    HW228830   2.456   4.291   9.090  1.2898 -1.6245  0.6997
 5790SOL     OW28831   1.799   0.780   6.916  0.0009  0.1217 -0.3648
 5790SOL    HW128832   1.883   0.816   6.945  0.8880 -1.3767 -1.1024
 5790SOL    HW228833   1.824   0.688   6.909 -2.6325 -0.7052  1.1349
 5791SOL     OW28834   4.590   2.804  10.851  0.5154 -0.0819 -0.7601
 5791SOL    HW128835   4.503   2.843  10.839 -0.2365 -1.1758  1.1802
 5791SOL    HW228836   4.571   2.740  10.919 -0.8607 -0.3219 -1.3538
 5792SOL     OW28837   0.777   0.709  10.324  0.2270 -0.0982 -0.2439
 5792SOL    HW128838   0.773   0.803  10.306  2.6997  0.3442  1.4696
 5792SOL    HW228839   0.737   0.707  10.411 -0.1278 -0.6210 -0.4176
 5793SOL     OW28840   0.596   3.658   9.162  0.4121 -0.0465 -0.0750
 5793SOL    HW128841   0.669   3.645   9.102  0.0389 -0.2799 -0.4768
 5793SOL    HW228842   0.528   3.594   9.139  0.1028  0.2762 -0.0600
 5794SOL     OW28843   4.447   1.421   8.734  0.1880 -0.2624 -0.3721
 5794SOL    HW128844   4.407   1.508   8.728  1.9777  0.6728  1.3108
 5794SOL    HW228845   4.521   1.457   8.783  0.1808 -0.7130 -0.0350
 5795SOL     OW28846   3.244   2.880   2.357 -0.1369  0.1123 -0.6668
 5795SOL    HW128847   3.236   2.790   2.325 -0.3125  0.2555 -1.0295
 5795SOL    HW228848   3.201   2.937   2.293  0.4838  1.8553  0.4929
 5796SOL     OW28849   2.769   4.673  13.435 -0.3766 -0.2577 -0.1688
 5796SOL    HW128850   2.754   0.010  13.359 -1.4686 -2.1149 -1.3667
 5796SOL    HW228851   2.697   4.702  13.490 -1.8723 -1.9830 -1.2028
 5797SOL     OW28852   3.729   2.328   6.580  0.7027  0.1372  0.3139
 5797SOL    HW128853   3.682   2.388   6.637 -1.4201  0.0798 -1.3641
 5797SOL    HW228854   3.656   2.267   6.566  0.8288  0.5718 -2.2029
 5798SOL     OW28855   2.648   0.485   3.654  0.9462  0.3200  0.3882
 5798SOL    HW128856   2.637   0.469   3.747 -1.6406  1.9809  0.3621
 5798SOL    HW228857   2.615   0.575   3.653  1.8992  0.6669  0.5687
 5799SOL     OW28858   2.315   1.231   5.435  0.1194 -0.7648  0.1062
 5799SOL    HW128859   2.252   1.202   5.500  0.1730  0.7073  0.8109
 5799SOL    HW228860   2.331   1.323   5.455  1.6151 -1.0326  0.1296
 5800SOL     OW28861   2.751   2.524  13.082 -0.1012 -0.0753 -0.0248
 5800SOL    HW128862   2.797   2.462  13.025 -1.4040 -0.1694 -0.9998
 5800SOL    HW228863   2.740   2.472  13.162  0.3399  2.3221  1.6052
 5801SOL     OW28864   2.173   3.749   3.062 -0.3461  0.4166 -0.1838
 5801SOL    HW128865   2.129   3.809   3.002 -1.3551  0.0533  0.2076
 5801SOL    HW228866   2.254   3.736   3.013 -2.1958  2.4298 -3.7571
 5802SOL     OW28867   0.173   0.419   1.440 -0.0468 -0.0857  0.1672
 5802SOL    HW128868   0.215   0.333   1.429 -2.0293 -0.9797 -0.3481
 5802SOL    HW228869   0.083   0.392   1.425 -0.6269  2.2438 -0.5496
 5803SOL     OW28870   3.022   0.319  12.878  0.1980  0.0886  0.7334
 5803SOL    HW128871   3.002   0.250  12.941  0.3315  0.6439  1.3774
 5803SOL    HW228872   3.035   0.268  12.798  3.1183 -0.6325  1.6629
 5804SOL     OW28873   0.545   2.606  13.458 -1.2152  0.1325 -0.3715
 5804SOL    HW128874   0.528   2.690  13.501 -0.1766 -0.5019  1.2868
 5804SOL    HW228875   0.596   2.634  13.382 -2.8774 -0.3053 -1.6507
 5805SOL     OW28876   0.761   0.543   2.184 -0.0280 -0.1178  0.1628
 5805SOL    HW128877   0.838   0.520   2.131  0.0965  0.2746  0.1769
 5805SOL    HW228878   0.747   0.632   2.151 -0.1214 -0.2717 -0.2170
 5806SOL     OW28879   1.349   3.163   2.066 -0.0851 -0.1113 -0.1643
 5806SOL    HW128880   1.395   3.233   2.113 -4.4463  1.5108  1.6331
 5806SOL    HW228881   1.365   3.188   1.975 -2.5105  1.8919 -0.0361
 5807SOL     OW28882   0.007   2.951   7.355  0.0738 -0.0402 -0.5713
 5807SOL    HW128883   4.664   3.019   7.378  2.1421  1.0288  1.9337
 5807SOL    HW228884   0.006   2.901   7.437  0.2182 -0.0715 -0.5877
 5808SOL     OW28885   0.826   3.090  10.071 -0.0982  0.5587  0.4600
 5808SOL    HW128886   0.886   3.151  10.028  0.1453  0.8626  1.2370
 5808SOL    HW228887   0.743   3.123  10.037 -1.0973 -2.8825 -0.4478
 5809SOL     OW28888   4.131   2.728   6.200  0.2514 -0.0086  0.0696
 5809SOL    HW128889   4.039   2.721   6.176  0.1121 -1.6078  1.0415
 5809SOL    HW228890   4.178   2.715   6.118  1.2358 -1.0980  0.8078
 5810SOL     OW28891   4.147   1.037   9.880  0.1986  0.2025 -0.2070
 5810SOL    HW128892   4.214   1.041   9.812 -0.7448 -0.5551 -1.1785
 5810SOL    HW228893   4.090   1.110   9.856  1.2973  1.4676  1.0359
 5811SOL     OW28894   4.150   1.515   1.052 -0.1560 -0.3002 -0.0217
 5811SOL    HW128895   4.202   1.478   1.123 -1.1768 -0.6028  0.5720
 5811SOL    HW228896   4.063   1.483   1.078 -0.3623  1.2728  1.2612
 5812SOL     OW28897   1.825   3.521   4.853 -0.4810  0.2881  0.3155
 5812SOL    HW128898   1.793   3.431   4.846  1.5674 -0.4701  0.6338
 5812SOL    HW228899   1.919   3.507   4.845 -0.6824 -0.0276 -1.5110
 5813SOL     OW28900   4.259   0.926   1.913 -0.4138 -0.2482 -0.1163
 5813SOL    HW128901   4.325   0.991   1.890 -0.9182  0.2953 -0.0301
 5813SOL    HW228902   4.313   0.847   1.920  0.4046  0.4212  1.0658
 5814SOL     OW28903   0.293   4.124   7.220  0.3210 -0.0866  0.0114
 5814SOL    HW128904   0.255   4.180   7.288 -0.9084 -0.7406 -0.1307
 5814SOL    HW228905   0.244   4.139   7.138  0.3510  1.4865  0.2914
 5815SOL     OW28906   3.303   2.952   1.721  0.1299  0.3955 -0.0898
 5815SOL    HW128907   3.281   3.031   1.769 -0.8524  1.1019 -1.7126
 5815SOL    HW228908   3.398   2.942   1.726  0.0793 -0.2037 -0.3580
 5816SOL     OW28909   2.391   2.219   9.122  0.0384 -0.3690  0.4131
 5816SOL    HW128910   2.439   2.136   9.125  0.5032 -0.0632  1.6393
 5816SOL    HW228911   2.300   2.192   9.125 -0.4068  1.2068  1.0361
 5817SOL     OW28912   3.808   4.628   3.871  0.2853  0.2089 -0.4287
 5817SOL    HW128913   3.782   0.000   3.862  1.0152  0.3645 -0.9565
 5817SOL    HW228914   3.874   4.621   3.802 -0.5205 -0.2750 -1.1647
 5818SOL     OW28915   3.151   3.315   6.155  0.0335  0.0144  0.4526
 5818SOL    HW128916   3.191   3.399   6.179 -0.2552  0.3950 -0.4008
 5818SOL    HW228917   3.061   3.336   6.179 -0.7912 -1.7201 -1.1793
 5819SOL     OW28918   3.826   3.508   7.205  0.3407  0.8766  0.0568
 5819SOL    HW128919   3.857   3.591   7.240 -0.1210 -0.7554  4.2982
 5819SOL    HW228920   3.742   3.500   7.250  1.6553 -0.6409  2.2215
 5820SOL     OW28921   1.484   3.725  10.293  0.4683  0.5818 -0.4227
 5820SOL    HW128922   1.440   3.644  10.268  2.1867 -0.0675 -1.3146
 5820SOL    HW228923   1.574   3.694  10.289  0.9115  1.6325  1.3892
 5821SOL     OW28924   2.913   1.039  13.738  0.0529 -0.3001 -0.3626
 5821SOL    HW128925   2.975   1.085  13.680 -1.1578  0.5464 -0.9798
 5821SOL    HW228926   2.832   1.056  13.691 -0.3783 -2.6773 -0.4837
 5822SOL     OW28927   1.753   2.326  15.292  0.3890  0.3214 -0.2398
 5822SOL    HW128928   1.829   2.269  15.302  1.7658  1.8109 -2.1376
 5822SOL    HW228929   1.728   2.310  15.201 -1.5915 -0.7801  0.5039
 5823SOL     OW28930   0.331   2.292  15.502  0.1123 -0.3749 -0.0241
 5823SOL    HW128931   0.403   2.276  15.563 -0.5081 -1.3460  0.4582
 5823SOL    HW228932   0.379   2.345  15.439  1.6471 -0.3825  1.1496
 5824SOL     OW28933   1.168   3.909   5.437 -0.5567 -0.3009 -0.1399
 5824SOL    HW128934   1.116   3.917   5.357  0.8025  0.5928 -0.9182
 5824SOL    HW228935   1.248   3.869   5.404 -2.6935 -6.1735  1.7530
 5825SOL     OW28936   0.161   3.936  14.077  0.1813  0.0352 -0.0247
 5825SOL    HW128937   0.122   3.994  14.011 -1.3665 -1.4321 -0.4053
 5825SOL    HW228938   0.238   3.987  14.100 -0.5580  0.4094  1.6407
 5826SOL     OW28939   0.853   2.319   6.271 -0.2774 -0.0379  0.4004
 5826SOL    HW128940   0.796   2.307   6.347 -0.9868  1.1142  0.0571
 5826SOL    HW228941   0.819   2.398   6.228  0.8762 -0.2195 -0.8459
 5827SOL     OW28942   0.651   2.707   7.998  0.2837 -0.0573 -0.1055
 5827SOL    HW128943   0.745   2.694   8.010  0.4425  0.2253 -1.0865
 5827SOL    HW228944   0.617   2.701   8.087  1.3059  0.1068  0.2930
 5828SOL     OW28945   4.045   4.164   3.344 -0.5605 -0.2267 -0.3837
 5828SOL    HW128946   3.978   4.098   3.327 -0.4225 -0.6105  0.5591
 5828SOL    HW228947   4.042   4.223   3.269  0.5544  0.6110  0.2205
 5829SOL     OW28948   4.373   3.089   9.049 -0.6391 -0.7160 -0.1281
 5829SOL    HW128949   4.458   3.072   9.089 -0.4488 -0.7587 -0.5485
 5829SOL    HW228950   4.315   3.043   9.109  1.8939 -0.9708  2.0973
 5830SOL     OW28951   1.160   3.273   9.704 -0.6097 -0.5722  0.0947
 5830SOL    HW128952   1.190   3.183   9.689  0.8583 -0.3332  1.4908
 5830SOL    HW228953   1.201   3.319   9.631 -0.5762  0.1930  0.6017
 5831SOL     OW28954   2.692   3.477   4.364  0.0413 -0.6101 -0.1400
 5831SOL    HW128955   2.600   3.461   4.346 -0.8476  4.4639 -0.1381
 5831SOL    HW228956   2.700   3.492   4.458 -0.0223 -0.0598 -0.2213
 5832SOL     OW28957   0.359   3.305   3.277  0.2410 -0.2424  0.0680
 5832SOL    HW128958   0.450   3.336   3.282  0.9639 -1.9359 -2.6448
 5832SOL    HW228959   0.338   3.318   3.184 -1.3957  1.3294  0.6502
 5833SOL     OW28960   1.734   1.711  16.755 -0.4741  0.4816  0.1811
 5833SOL    HW128961   1.771   1.669  16.678  1.9050  2.0424  0.4767
 5833SOL    HW228962   1.652   1.666  16.775 -0.4640  0.1247 -0.5772
 5834SOL     OW28963   2.923   2.927   9.374 -0.0396 -0.0626  0.2302
 5834SOL    HW128964   2.846   2.944   9.429 -0.6303  0.6166 -0.8046
 5834SOL    HW228965   2.986   2.898   9.440  0.3921  1.4863  0.5058
 5835SOL     OW28966   4.111   2.851   8.041 -0.5620  0.7340 -0.2974
 5835SOL    HW128967   4.083   2.822   8.128  0.4192 -0.4004 -0.3645
 5835SOL    HW228968   4.076   2.784   7.983 -0.7080  0.5530  0.0056
 5836SOL     OW28969   4.605   2.540  13.604 -0.1190 -0.1670  0.2570
 5836SOL    HW128970   4.691   2.581  13.593  0.8420 -1.6341  2.3327
 5836SOL    HW228971   4.629   2.486  13.679  0.4588  0.6987  0.6959
 5837SOL     OW28972   4.008   3.914  11.605 -0.4076  0.1212  0.5435
 5837SOL    HW128973   3.988   3.855  11.678  0.2094 -0.8084 -0.0433
 5837SOL    HW228974   4.095   3.937  11.638  0.0907 -2.2104  0.8431
 5838SOL     OW28975   1.445   1.299   7.330 -0.1583  0.1347  0.1874
 5838SOL    HW128976   1.411   1.309   7.418 -0.3041 -1.6327  0.3444
 5838SOL    HW228977   1.529   1.345   7.339  0.7103 -1.1867 -0.9769
 5839SOL     OW28978   3.896   1.358  17.331 -0.7850  0.1986  0.2181
 5839SOL    HW128979   3.930   1.345  17.242 -0.4411 -0.7614  0.5002
 5839SOL    HW228980   3.976   1.378  17.380 -1.0337  0.5275  0.4865
 5840SOL     OW28981   1.727   3.908  13.348  0.4100  0.4136 -0.4776
 5840SOL    HW128982   1.734   3.982  13.408  0.7197  0.3581 -0.4443
 5840SOL    HW228983   1.817   3.873  13.348  0.8484  1.5450 -1.7181
 5841SOL     OW28984   0.968   1.785   4.637 -0.0048 -0.6246 -0.1919
 5841SOL    HW128985   0.886   1.824   4.608 -0.0754 -2.0217 -1.8258
 5841SOL    HW228986   1.022   1.802   4.560  0.9634  1.6240  0.9925
 5842SOL     OW28987   4.115   0.643   8.885 -0.5358  0.2388 -0.1794
 5842SOL    HW128988   4.164   0.636   8.967  1.0314  1.2860 -1.0218
 5842SOL    HW228989   4.128   0.738   8.877  2.5738 -0.1054  0.6940
 5843SOL     OW28990   0.211   3.534   1.676  0.3518  0.5515  0.4896
 5843SOL    HW128991   0.166   3.571   1.752  1.8890 -2.5074  2.8966
 5843SOL    HW228992   0.255   3.613   1.646 -2.4414  2.1360  0.5703
 5844SOL     OW28993   0.696   1.422   9.061 -0.0570 -0.3146  0.4556
 5844SOL    HW128994   0.687   1.515   9.042  0.3654 -0.1159  1.1784
 5844SOL    HW228995   0.623   1.384   9.013 -1.9701  2.5317  1.0976
 5845SOL     OW28996   4.580   2.326   3.771  0.1691 -0.2577  0.2272
 5845SOL    HW128997   4.599   2.267   3.698 -1.1927  0.2928 -0.5715
 5845SOL    HW228998   4.625   2.402   3.735 -1.0722  0.4045  0.0764
 5846SOL     OW28999   1.189   3.648   4.794  0.5719  0.1255  0.2908
 5846SOL    HW129000   1.221   3.706   4.863 -1.8831  1.4800  0.3073
 5846SOL    HW229001   1.135   3.714   4.750  0.9677 -1.4884 -2.6774
 5847SOL     OW29002   4.175   2.576  11.306  0.0692 -0.0456 -0.2663
 5847SOL    HW129003   4.262   2.595  11.273 -0.1373  0.8026 -0.3279
 5847SOL    HW229004   4.151   2.662  11.340  0.7722  0.3062 -0.6659
 5848SOL     OW29005   4.335   3.186  14.192 -0.2430 -0.2833  0.3929
 5848SOL    HW129006   4.315   3.265  14.142 -3.0456 -2.8093 -2.4621
 5848SOL    HW229007   4.316   3.218  14.280 -0.0408  1.5618 -0.2143
 5849SOL     OW29008   4.200   4.164   8.998  0.1460 -0.0972 -0.3457
 5849SOL    HW129009   4.244   4.230   8.946  0.4505  0.7510  0.9775
 5849SOL    HW229010   4.271   4.102   8.981 -1.4086 -1.8546 -0.4828
 5850SOL     OW29011   2.471   0.169  14.182 -1.0349  0.1635 -0.0808
 5850SOL    HW129012   2.536   0.196  14.116 -0.5055  1.3998  0.9468
 5850SOL    HW229013   2.401   0.234  14.180 -0.6601  0.6422  2.4984
 5851SOL     OW29014   3.518   0.430   7.021  0.0837 -0.1858 -0.2509
 5851SOL    HW129015   3.542   0.383   6.941 -0.2429  0.1387 -0.5393
 5851SOL    HW229016   3.473   0.501   6.976 -0.0658  1.1555  2.0237
 5852SOL     OW29017   3.114   3.692   8.059  0.5489 -0.3695  0.0836
 5852SOL    HW129018   3.134   3.632   8.131  1.9178 -0.0425 -0.0178
 5852SOL    HW229019   3.205   3.713   8.036  0.6398 -0.4487  0.3724
 5853SOL     OW29020   2.380   3.147   4.615 -0.2613 -0.0562  0.3401
 5853SOL    HW129021   2.305   3.134   4.557 -1.9808 -0.5975  2.7201
 5853SOL    HW229022   2.380   3.064   4.662  0.0741 -0.6221 -0.6448
 5854SOL     OW29023   2.593   3.610   8.649 -0.4602 -0.8488 -0.7685
 5854SOL    HW129024   2.508   3.613   8.693  0.9352  0.0110  1.8929
 5854SOL    HW229025   2.577   3.541   8.585  0.5043 -2.1185  0.3603
 5855SOL     OW29026   1.415   3.725  14.275  0.3598 -0.1757 -0.4079
 5855SOL    HW129027   1.436   3.668  14.348 -1.4359 -0.1947  0.0965
 5855SOL    HW229028   1.360   3.796  14.308  1.2230 -0.2431  1.2020
 5856SOL     OW29029   3.300   4.249  17.182  0.1277 -0.2053  0.5795
 5856SOL    HW129030   3.355   4.232  17.106  2.0402 -0.4178  2.0125
 5856SOL    HW229031   3.215   4.215  17.153  0.0907  0.6310 -0.2939
 5857SOL     OW29032   3.597   3.603   2.732 -0.0765  0.4440  0.1224
 5857SOL    HW129033   3.503   3.623   2.738 -0.1197  0.5572 -0.9154
 5857SOL    HW229034   3.611   3.614   2.638  1.0515  3.0086  0.5879
 5858SOL     OW29035   0.467   3.152  10.859  0.2228  0.3426 -0.0026
 5858SOL    HW129036   0.468   3.150  10.763 -1.6394  0.8386 -0.0472
 5858SOL    HW229037   0.384   3.197  10.876 -1.8494 -2.5548 -2.4356
 5859SOL     OW29038   3.487   0.909   5.751 -0.3385 -0.2982 -0.0955
 5859SOL    HW129039   3.564   0.875   5.797  0.6233  0.0165 -1.4746
 5859SOL    HW229040   3.414   0.848   5.767 -0.4459 -0.2177 -0.2814
 5860SOL     OW29041   2.187   3.752   9.494  0.3794 -0.0699 -0.8957
 5860SOL    HW129042   2.196   3.707   9.578 -2.4074 -0.6671 -0.9136
 5860SOL    HW229043   2.282   3.760   9.481  0.5236 -1.5292 -0.6606
 5861SOL     OW29044   0.833   4.477  11.021 -0.5655 -0.5959 -0.4505
 5861SOL    HW129045   0.903   4.535  11.050  0.5014 -1.7230 -0.7549
 5861SOL    HW229046   0.781   4.538  10.969 -0.1332  0.1929  0.0546
 5862SOL     OW29047   0.624   3.285   0.674 -1.2360  0.0526 -0.2394
 5862SOL    HW129048   0.653   3.303   0.584  0.4316 -0.0388  0.2708
 5862SOL    HW229049   0.554   3.224   0.652  0.2817 -1.6412 -0.4007
 5863SOL     OW29050   1.351   4.207   5.453 -0.2598 -0.2521  0.1112
 5863SOL    HW129051   1.291   4.182   5.524  0.0300 -0.2620  0.3540
 5863SOL    HW229052   1.320   4.164   5.373  0.7109  0.2213 -0.5104
 5864SOL     OW29053   0.966   3.670  13.896  0.6832  0.3633 -0.2721
 5864SOL    HW129054   1.044   3.725  13.903  1.1123 -0.6335  2.7634
 5864SOL    HW229055   0.896   3.731  13.919  0.5822  0.8498 -1.9023
 5865SOL     OW29056   1.835   4.525   8.378 -0.0608  0.2140 -0.0194
 5865SOL    HW129057   1.834   4.440   8.334  1.2706  0.7346 -1.0809
 5865SOL    HW229058   1.876   4.510   8.464 -1.4336 -1.0311  0.4090
 5866SOL     OW29059   1.894   2.197   7.064 -0.2676  0.3505  0.6350
 5866SOL    HW129060   1.807   2.162   7.085 -0.5732  0.6320 -0.1553
 5866SOL    HW229061   1.903   2.260   7.135 -1.8893  0.8545  0.3803
 5867SOL     OW29062   1.678   1.160   2.968 -0.0733 -0.3293  0.3294
 5867SOL    HW129063   1.736   1.146   3.042 -2.3305 -2.7508  1.6264
 5867SOL    HW229064   1.709   1.240   2.924 -1.2143 -0.6692 -1.1153
 5868SOL     OW29065   4.637   4.205   0.123  0.8505  0.2295  0.6976
 5868SOL    HW129066   0.012   4.205   0.132  1.0071  0.2223 -0.9483
 5868SOL    HW229067   4.618   4.298   0.140 -0.2935 -0.1511  1.5137
 5869SOL     OW29068   1.921   3.778   0.116  0.2081 -0.6052 -0.2557
 5869SOL    HW129069   1.914   3.821   0.031 -1.2937 -2.7004 -1.1898
 5869SOL    HW229070   1.883   3.840   0.178  1.9944  0.0484  0.1837
 5870SOL     OW29071   1.083   2.611   3.959  0.4447 -0.0181 -0.0095
 5870SOL    HW129072   1.149   2.677   3.981 -0.3822  0.6805  0.3831
 5870SOL    HW229073   1.124   2.584   3.877  1.1124 -0.9408  0.6292
 5871SOL     OW29074   0.654   0.212   4.590 -0.0893 -0.1899  0.3754
 5871SOL    HW129075   0.710   0.179   4.520  1.7758 -1.8767  2.7074
 5871SOL    HW229076   0.698   0.297   4.591  2.0169 -1.3193  1.8064
 5872SOL     OW29077   0.241   1.114   6.327  0.1219  0.4051 -0.3579
 5872SOL    HW129078   0.185   1.076   6.260  1.9149 -0.3393 -1.4563
 5872SOL    HW229079   0.295   1.037   6.341 -0.5499 -0.1843 -1.0665
 5873SOL     OW29080   1.616   1.244   7.594  0.3818  0.7972 -0.9124
 5873SOL    HW129081   1.547   1.268   7.656  2.9704  0.3502  2.1338
 5873SOL    HW229082   1.591   1.154   7.575 -0.8015  0.2292  3.3484
 5874SOL     OW29083   3.402   4.092   6.817 -0.3888 -0.6727  0.0763
 5874SOL    HW129084   3.312   4.066   6.799 -0.2785 -1.0428  0.0399
 5874SOL    HW229085   3.427   4.040   6.894  3.2978  0.5668 -0.2669
 5875SOL     OW29086   3.933   0.340   7.728  0.3203 -0.4062 -0.3098
 5875SOL    HW129087   3.961   0.415   7.676  0.9272 -1.1961 -1.1168
 5875SOL    HW229088   3.929   0.388   7.811 -1.4149 -0.6880 -0.2133
 5876SOL     OW29089   3.965   2.337   6.407 -0.1720 -0.4798 -0.1277
 5876SOL    HW129090   3.899   2.315   6.472  0.0892 -0.5344  0.1218
 5876SOL    HW229091   3.983   2.426   6.438  1.9421 -0.8074 -0.3608
 5877SOL     OW29092   2.140   0.272   7.057 -0.2220  0.1576  0.7366
 5877SOL    HW129093   2.113   0.340   7.120  0.4605  0.8404  0.2852
 5877SOL    HW229094   2.051   0.237   7.047  0.5377 -1.4462 -0.2753
 5878SOL     OW29095   3.741   1.342   5.330  0.4434  0.6373  0.0628
 5878SOL    HW129096   3.775   1.254   5.313  1.0463  1.0989 -1.0915
 5878SOL    HW229097   3.817   1.391   5.360  0.5153  0.9170 -0.5727
 5879SOL     OW29098   1.572   2.112   1.082  0.0010  0.3211 -0.3387
 5879SOL    HW129099   1.600   2.199   1.056 -1.3103  0.6686 -0.5985
 5879SOL    HW229100   1.618   2.039   1.042 -2.0344 -0.7682 -0.7149
 5880SOL     OW29101   2.942   2.405   5.373 -0.0776 -0.7000 -0.6879
 5880SOL    HW129102   2.954   2.437   5.284 -1.6309 -1.9222 -1.3379
 5880SOL    HW229103   3.027   2.367   5.393 -0.3436 -1.4256 -0.9178
 5881SOL     OW29104   4.242   1.563   1.691 -0.0699  0.1925 -0.0419
 5881SOL    HW129105   4.155   1.597   1.670 -0.4544 -1.7810 -1.6135
 5881SOL    HW229106   4.265   1.598   1.777 -0.8806 -0.8549  0.5935
 5882SOL     OW29107   1.946   1.095   1.760  0.1779  0.4738  0.7204
 5882SOL    HW129108   1.967   1.089   1.853  1.6167 -0.4436  0.3327
 5882SOL    HW229109   2.030   1.064   1.726  0.3000  2.0792 -0.4667
 5883SOL     OW29110   1.201   3.793   8.472  0.5820  0.3107 -0.1370
 5883SOL    HW129111   1.220   3.766   8.562 -1.0078  0.2592  0.1914
 5883SOL    HW229112   1.139   3.723   8.449 -2.2199  2.6127  0.3540
 5884SOL     OW29113   2.632   2.953   7.190 -0.0227  0.0662  0.1601
 5884SOL    HW129114   2.592   2.915   7.269  0.6320 -1.4530 -0.2383
 5884SOL    HW229115   2.575   2.919   7.121  0.9318 -1.8444  0.3041
 5885SOL     OW29116   2.896   1.288   0.125 -0.9493  0.5270 -0.2054
 5885SOL    HW129117   2.922   1.242   0.045  0.7547  2.8133 -0.9563
 5885SOL    HW229118   2.945   1.369   0.110  0.0398 -0.0827 -0.2814
 5886SOL     OW29119   2.286   3.206  13.277 -0.2494 -0.2950 -0.4390
 5886SOL    HW129120   2.206   3.194  13.226  0.9790 -0.3462 -2.3700
 5886SOL    HW229121   2.275   3.275  13.342 -0.8106 -0.4501 -0.3765
 5887SOL     OW29122   1.073   4.044   8.801 -0.3820 -0.1575  0.4549
 5887SOL    HW129123   1.000   3.984   8.817 -1.0327  0.9611  1.6325
 5887SOL    HW229124   1.027   4.127   8.811 -0.9981 -0.6336  1.4910
 5888SOL     OW29125   0.660   4.001   5.852 -0.3835 -0.8334  0.7443
 5888SOL    HW129126   0.595   4.071   5.846  0.9053  0.5661  3.0804
 5888SOL    HW229127   0.706   4.011   5.935 -0.0364 -0.3874  0.5013
 5889SOL     OW29128   0.347   2.793   9.059  0.0054  0.0679 -0.1858
 5889SOL    HW129129   0.324   2.800   9.151  1.1428 -0.4990  0.1327
 5889SOL    HW229130   0.385   2.878   9.039  0.0317  1.1108  4.4547
 5890SOL     OW29131   1.995   0.637   2.334 -0.3794 -0.1012 -0.2974
 5890SOL    HW129132   2.078   0.590   2.343 -0.7412 -0.7909 -0.5647
 5890SOL    HW229133   1.956   0.589   2.260  1.7620 -1.4591 -0.5547
 5891SOL     OW29134   3.409   3.423  12.929  0.7151 -0.5225  0.2694
 5891SOL    HW129135   3.395   3.350  12.869 -0.6832  0.3051 -0.4194
 5891SOL    HW229136   3.497   3.413  12.965  1.5118  3.6982 -0.5081
 5892SOL     OW29137   3.750   3.949   4.110  0.4534 -0.0389 -0.3989
 5892SOL    HW129138   3.744   4.034   4.154  0.5233  0.8669 -2.1312
 5892SOL    HW229139   3.840   3.947   4.077  0.0406  0.0239 -1.5481
 5893SOL     OW29140   0.087   3.156   7.020  0.0051 -0.3454 -0.2919
 5893SOL    HW129141   0.125   3.078   7.060 -0.1112 -0.6385 -0.7565
 5893SOL    HW229142   0.119   3.220   7.084  2.5764 -1.9971  0.1000
 5894SOL     OW29143   4.574   1.799   3.896 -0.5882  0.3664 -0.1891
 5894SOL    HW129144   4.559   1.806   3.801 -1.2642  0.1192 -0.1031
 5894SOL    HW229145   4.485   1.768   3.913 -0.9228  0.3693 -1.8726
 5895SOL     OW29146   0.710   3.155   8.077  0.5369 -0.1719 -0.4087
 5895SOL    HW129147   0.690   3.091   8.008  0.2016 -0.8875  0.3518
 5895SOL    HW229148   0.629   3.204   8.064  0.7042  0.3263  0.4151
 5896SOL     OW29149   3.633   4.607  11.870 -0.5050 -1.2869  0.3610
 5896SOL    HW129150   3.610   4.525  11.913 -1.2705 -1.1753  0.1604
 5896SOL    HW229151   3.557   4.627  11.816  0.0984  1.0028  0.3438
 5897SOL     OW29152   3.132   3.965   5.683  0.0519 -0.0692 -0.4009
 5897SOL    HW129153   3.177   3.996   5.761  3.7735 -0.1160 -2.5210
 5897SOL    HW229154   3.110   4.047   5.639 -1.1143  1.1512  2.4481
 5898SOL     OW29155   0.130   3.324   6.451 -0.4410  0.0034 -0.6707
 5898SOL    HW129156   0.107   3.348   6.362 -2.0418 -0.6207 -0.4184
 5898SOL    HW229157   0.186   3.246   6.441 -1.0348 -0.7103  1.5202
 5899SOL     OW29158   0.523   0.266   8.274 -0.3193 -0.3933 -0.0715
 5899SOL    HW129159   0.487   0.345   8.317 -0.4159  0.6440 -2.0698
 5899SOL    HW229160   0.444   0.233   8.232  0.5311 -0.6663 -1.4391
 5900SOL     OW29161   4.055   0.700   6.506 -0.3810  0.0190 -0.0951
 5900SOL    HW129162   4.096   0.787   6.505  1.3931 -0.8147 -0.6911
 5900SOL    HW229163   4.083   0.683   6.596  0.2429 -1.7589 -0.6230
 5901SOL     OW29164   3.535   1.789  11.357  0.3446  0.1622  0.5940
 5901SOL    HW129165   3.573   1.871  11.327  1.1190 -0.3413  0.2036
 5901SOL    HW229166   3.611   1.744  11.395  1.0266  1.0275  0.2367
 5902SOL     OW29167   0.551   1.321   5.822  0.2324 -0.0793  0.4743
 5902SOL    HW129168   0.628   1.356   5.778 -1.2911 -0.7620 -2.7512
 5902SOL    HW229169   0.547   1.229   5.795  0.2329 -0.4659  1.7677
 5903SOL     OW29170   3.916   1.047   6.238 -0.4634 -0.1768  0.4880
 5903SOL    HW129171   3.966   1.125   6.260 -1.6904  0.4405  1.1320
 5903SOL    HW229172   3.846   1.092   6.191  0.3646 -0.2987 -0.8654
 5904SOL     OW29173   2.084   4.463  15.892 -0.1630  0.1867  0.4984
 5904SOL    HW129174   2.094   4.443  15.799 -2.3019 -0.8463  0.5099
 5904SOL    HW229175   2.173   4.483  15.922 -0.3259 -2.2236  2.6274
 5905SOL     OW29176   1.089   0.151   7.696 -0.4408  0.1458  0.6313
 5905SOL    HW129177   1.138   0.070   7.684  0.0052  0.4190  0.6012
 5905SOL    HW229178   1.019   0.140   7.631 -0.0639 -0.0481  0.2542
 5906SOL     OW29179   4.047   4.328   4.490  0.2417 -0.1827  0.0493
 5906SOL    HW129180   4.112   4.311   4.421  0.3567 -0.4407  0.2199
 5906SOL    HW229181   3.971   4.353   4.438  0.6104 -0.5276 -0.6508
 5907SOL     OW29182   1.144   1.567   4.742  0.7849  0.0918 -0.4646
 5907SOL    HW129183   1.161   1.495   4.681 -0.4161  1.5475 -2.5110
 5907SOL    HW229184   1.118   1.640   4.685 -1.3239 -0.8928 -0.7389
 5908SOL     OW29185   3.707   1.486  11.500  0.3039 -0.5974  0.3590
 5908SOL    HW129186   3.649   1.411  11.516  0.7386 -1.3091 -1.4624
 5908SOL    HW229187   3.722   1.479  11.406  1.4064 -2.4673  0.6767
 5909SOL     OW29188   4.686   1.314   0.499 -0.4906  0.6067 -0.0144
 5909SOL    HW129189   4.611   1.350   0.547 -0.6486 -2.6156  2.1551
 5909SOL    HW229190   4.641   1.267   0.429  0.0682 -0.8808  0.6173
 5910SOL     OW29191   2.530   1.511  11.904  0.2497 -0.2208 -0.2217
 5910SOL    HW129192   2.606   1.532  11.958 -0.6699 -0.2080  1.0665
 5910SOL    HW229193   2.457   1.509  11.966  0.2431 -1.4027 -0.2553
 5911SOL     OW29194   1.101   1.393  13.868  0.1899  0.6132  0.1844
 5911SOL    HW129195   1.008   1.405  13.882 -0.0989 -1.3706  0.0292
 5911SOL    HW229196   1.138   1.396  13.956  1.7490  1.0258 -0.4721
 5912SOL     OW29197   2.956   4.240   4.534 -0.0325  0.0864  0.0722
 5912SOL    HW129198   2.947   4.212   4.443  3.1331  0.8245 -0.4956
 5912SOL    HW229199   2.886   4.188   4.574 -1.1761  0.4463 -1.4784
 5913SOL     OW29200   0.820   4.254   1.286 -0.4291 -0.9496 -0.0918
 5913SOL    HW129201   0.913   4.262   1.311 -0.2075 -0.4153 -1.0935
 5913SOL    HW229202   0.832   4.300   1.203 -4.3653 -0.9598 -0.6406
 5914SOL     OW29203   1.775   1.415   4.818 -0.3135 -0.1342 -0.5665
 5914SOL    HW129204   1.854   1.391   4.769 -2.4228 -4.2775 -1.8820
 5914SOL    HW229205   1.805   1.373   4.899 -1.3168 -0.4477 -0.3616
 5915SOL     OW29206   3.293   4.262  12.987  0.0839 -0.0701 -0.1240
 5915SOL    HW129207   3.265   4.187  13.040 -1.2100  1.4057  1.3098
 5915SOL    HW229208   3.310   4.334  13.048 -5.4673 -0.9582  2.5216
 5916SOL     OW29209   1.419   4.704   1.203  0.4305 -0.0141 -0.3467
 5916SOL    HW129210   1.386   4.703   1.293  0.5755  3.9960 -0.2463
 5916SOL    HW229211   1.373   0.066   1.181  1.5265  0.5102 -0.6891
 5917SOL     OW29212   1.835   2.317   0.651 -0.2058 -0.2095 -0.1976
 5917SOL    HW129213   1.750   2.275   0.637 -1.5047  2.1101  0.6677
 5917SOL    HW229214   1.860   2.279   0.735 -1.5657 -1.4456 -0.3368
 5918SOL     OW29215   3.007   1.845  13.139  0.3869  0.1701  0.2494
 5918SOL    HW129216   2.994   1.883  13.226 -0.7113  2.7096 -1.0010
 5918SOL    HW229217   2.942   1.776  13.146 -1.2335  1.9256  2.5183
 5919SOL     OW29218   0.892   0.428   5.615 -0.2206  0.1488  0.0445
 5919SOL    HW129219   0.835   0.374   5.669 -0.0149 -0.0314  0.0822
 5919SOL    HW229220   0.918   0.359   5.554 -0.2993 -0.6579  0.9407
 5920SOL     OW29221   2.721   3.877   7.912  0.0449 -0.1029  0.3012
 5920SOL    HW129222   2.651   3.821   7.878  2.0021 -2.0009 -0.6065
 5920SOL    HW229223   2.767   3.895   7.829 -0.8391  1.8981  0.2365
 5921SOL     OW29224   3.274   2.087  16.648  0.2711  0.6030 -0.4357
 5921SOL    HW129225   3.277   2.150  16.575 -0.1606  2.0903  0.8304
 5921SOL    HW229226   3.180   2.102  16.662  0.6369  2.4860 -0.0480
 5922SOL     OW29227   1.039   2.277   9.551  0.2224  0.0360  0.3438
 5922SOL    HW129228   1.052   2.354   9.496  0.4873  0.9992  1.7508
 5922SOL    HW229229   1.080   2.317   9.628  3.0984 -0.0238 -1.1599
 5923SOL     OW29230   1.065   0.393  12.138 -0.4111  0.5670 -0.3475
 5923SOL    HW129231   1.060   0.335  12.062 -0.3301 -0.0336  0.1067
 5923SOL    HW229232   1.141   0.441  12.106 -0.4219  0.4852 -0.4940
 5924SOL     OW29233   1.996   0.441   9.054  0.8995  0.4697 -0.1109
 5924SOL    HW129234   1.969   0.503   9.122 -0.9539  0.8207 -1.1603
 5924SOL    HW229235   1.940   0.365   9.073  2.9340 -0.7174  1.1416
 5925SOL     OW29236   3.517   3.131   6.359  0.4015  0.2877 -0.0986
 5925SOL    HW129237   3.551   3.218   6.337 -0.2337 -0.1003 -2.5270
 5925SOL    HW229238   3.461   3.154   6.434 -0.1181 -0.4364 -0.2693
 5926SOL     OW29239   2.493   3.770   2.213 -0.5607  0.3154 -0.0422
 5926SOL    HW129240   2.547   3.849   2.221  1.5328 -0.8680 -2.4736
 5926SOL    HW229241   2.561   3.703   2.209  1.1449  1.9381  1.6344
 5927SOL     OW29242   1.148   2.226   2.687 -0.0810 -0.3092 -0.0923
 5927SOL    HW129243   1.096   2.300   2.717 -1.7867 -1.4026 -0.3469
 5927SOL    HW229244   1.097   2.149   2.711  1.7690 -0.7365  2.4223
 5928SOL     OW29245   1.805   2.707   8.618 -0.3673 -0.2762  0.1070
 5928SOL    HW129246   1.841   2.784   8.573  0.1943 -0.6947 -0.1761
 5928SOL    HW229247   1.832   2.645   8.550  0.0979  1.0277 -0.8948
 5929SOL     OW29248   4.364   2.084  13.258  0.1991  0.0936  0.4388
 5929SOL    HW129249   4.456   2.061  13.245  0.3263  0.1617  1.2687
 5929SOL    HW229250   4.318   2.039  13.187 -0.1680 -2.0781  2.0769
 5930SOL     OW29251   3.217   3.657   1.203  0.0689  0.3023  0.8133
 5930SOL    HW129252   3.272   3.734   1.192  0.3363  0.0110  0.1026
 5930SOL    HW229253   3.202   3.648   1.109  1.1331 -3.5028  1.0085
 5931SOL     OW29254   1.048   3.000   0.349  0.5096  0.2991  0.1838
 5931SOL    HW129255   1.007   3.010   0.435  1.2148  0.6649  0.4726
 5931SOL    HW229256   1.049   3.091   0.319 -1.0252  0.3209  0.1739
 5932SOL     OW29257   2.989   3.222   7.340  0.2514 -0.0274 -0.4285
 5932SOL    HW129258   2.909   3.256   7.382 -0.8477 -1.1386 -1.6388
 5932SOL    HW229259   3.036   3.203   7.421 -3.2322 -3.4710  0.7966
 5933SOL     OW29260   4.563   1.854   8.838  0.2763 -0.0605  0.7028
 5933SOL    HW129261   4.584   1.932   8.889  1.6339 -0.1509  0.2923
 5933SOL    HW229262   4.471   1.831   8.851  0.7976 -1.7385  1.5010
 5934SOL     OW29263   1.872   3.268   2.680  0.0143  0.1680  0.3385
 5934SOL    HW129264   1.826   3.348   2.705 -1.8925 -0.6788 -0.4570
 5934SOL    HW229265   1.952   3.305   2.643  0.0599 -0.1168  0.1522
 5935SOL     OW29266   1.368   2.654   2.032 -0.0890  0.3145 -0.0589
 5935SOL    HW129267   1.325   2.598   2.097  2.9805 -0.8353  1.0202
 5935SOL    HW229268   1.335   2.636   1.944 -2.1644 -1.3066  1.0364
 5936SOL     OW29269   0.725   4.694   2.124  0.2284  0.3299  0.0359
 5936SOL    HW129270   0.637   4.707   2.160  1.0893  0.0700  2.2786
 5936SOL    HW229271   0.702   4.615   2.076  1.0147  0.4589 -0.5510
 5937SOL     OW29272   0.293   2.632   7.939 -0.1875  0.1951 -0.0808
 5937SOL    HW129273   0.275   2.631   8.033  1.5780 -0.2794  0.2709
 5937SOL    HW229274   0.337   2.716   7.931 -1.4013  0.9446  1.2648
 5938SOL     OW29275   1.500   2.917  15.523 -0.3779  0.2985 -0.4559
 5938SOL    HW129276   1.573   2.856  15.514 -0.9537 -0.3859 -0.5614
 5938SOL    HW229277   1.431   2.858  15.554 -0.3125  1.1357  1.3021
 5939SOL     OW29278   1.257   2.177   6.297 -0.4303 -0.0248  0.0519
 5939SOL    HW129279   1.349   2.180   6.268  0.2267 -1.1133  2.0197
 5939SOL    HW229280   1.237   2.095   6.252 -3.0752  2.0561 -2.4878
 5940SOL     OW29281   2.094   3.943   4.890  0.1666 -0.0450 -0.2760
 5940SOL    HW129282   2.015   3.908   4.850 -0.0034  1.9010 -1.6205
 5940SOL    HW229283   2.048   3.997   4.954 -0.9968 -0.2711 -0.9282
 5941SOL     OW29284   1.340   0.770   8.327  0.1257 -0.5215  0.5123
 5941SOL    HW129285   1.329   0.820   8.407  2.0943  2.2813 -0.9599
 5941SOL    HW229286   1.267   0.708   8.328  0.9063 -1.4983 -1.1699
 5942SOL     OW29287   1.567   4.396   6.036 -0.5782  0.5673 -0.1488
 5942SOL    HW129288   1.503   4.422   5.970 -3.2266 -2.5528  1.2078
 5942SOL    HW229289   1.630   4.467   6.026  0.9458 -1.0832 -2.1327
 5943SOL     OW29290   1.778   0.961   5.536  0.0158  0.5449  0.5510
 5943SOL    HW129291   1.832   0.882   5.529  3.4787  2.8970  0.2656
 5943SOL    HW229292   1.753   0.957   5.628 -0.6407  2.3577  0.4474
 5944SOL     OW29293   2.802   3.200   2.536 -0.5138 -0.5180  0.2286
 5944SOL    HW129294   2.898   3.205   2.537 -0.3067 -4.0122 -1.0664
 5944SOL    HW229295   2.785   3.216   2.443  0.3040 -0.4256  0.0926
 5945SOL     OW29296   0.215   2.576   3.780  0.1882 -0.3983 -0.0833
 5945SOL    HW129297   0.278   2.569   3.709 -1.6656 -1.0624 -1.6471
 5945SOL    HW229298   0.274   2.565   3.856 -2.6062 -1.7867  1.8722
 5946SOL     OW29299   0.251   4.534   3.015  0.0052  0.1241  0.2891
 5946SOL    HW129300   0.295   4.456   3.049  0.0406 -0.4187 -1.0026
 5946SOL    HW229301   0.192   4.546   3.090  1.1225 -0.5564  1.2857
 5947SOL     OW29302   2.529   0.338   7.790  0.0564 -0.2462  0.3175
 5947SOL    HW129303   2.551   0.251   7.823  0.4137 -0.4783 -0.5276
 5947SOL    HW229304   2.457   0.365   7.847  1.8586 -0.9764  2.9062
 5948SOL     OW29305   4.199   0.995   5.756 -0.1809 -0.0025 -0.6150
 5948SOL    HW129306   4.254   0.985   5.833 -0.1345  1.4270 -0.4615
 5948SOL    HW229307   4.270   0.974   5.696  0.1869 -3.2957  0.9627
 5949SOL     OW29308   0.638   2.486   4.236  0.7147  0.3550 -0.2377
 5949SOL    HW129309   0.640   2.580   4.250  0.8756  0.2275  0.6346
 5949SOL    HW229310   0.724   2.484   4.194  0.8185 -0.0241 -0.0149
 5950SOL     OW29311   0.335   0.721   7.025 -0.1385 -0.0243  0.2583
 5950SOL    HW129312   0.377   0.769   6.953  1.2541 -1.5025  0.0763
 5950SOL    HW229313   0.369   0.634   7.003 -1.2554 -0.9280  2.1117
 5951SOL     OW29314   3.753   2.225   7.284 -0.0311  0.4409 -0.2882
 5951SOL    HW129315   3.772   2.180   7.202  0.9770 -1.5994  1.0563
 5951SOL    HW229316   3.842   2.247   7.312  0.3463  0.8059 -1.8018
 5952SOL     OW29317   1.830   1.233   7.110  0.0169  0.3037  0.4988
 5952SOL    HW129318   1.791   1.279   7.184  2.7068  0.2903  1.9292
 5952SOL    HW229319   1.779   1.152   7.110  2.2045 -1.0951 -0.5405
 5953SOL     OW29320   1.612   1.295  12.786 -0.0261 -0.1203 -0.1260
 5953SOL    HW129321   1.544   1.227  12.793  0.5392 -0.4666  1.8644
 5953SOL    HW229322   1.665   1.262  12.713  0.4222 -1.5371  0.8486
 5954SOL     OW29323   2.533   0.242   7.531  0.0375  1.0819 -0.9859
 5954SOL    HW129324   2.555   0.275   7.618  0.5388  1.9186 -1.4316
 5954SOL    HW229325   2.616   0.248   7.485 -0.1607  3.3872 -1.0581
 5955SOL     OW29326   1.445   1.352   5.226 -0.0725  0.2700  0.0786
 5955SOL    HW129327   1.474   1.328   5.315  0.7602 -1.9038 -0.7788
 5955SOL    HW229328   1.521   1.323   5.175 -1.8867 -0.8512 -1.9749
 5956SOL     OW29329   2.857   0.952   3.938 -0.4079 -0.1486  0.0526
 5956SOL    HW129330   2.820   1.024   3.887 -2.2553 -0.6645  0.6650
 5956SOL    HW229331   2.808   0.875   3.911 -0.3853 -0.5928  1.3054
 5957SOL     OW29332   0.233   3.917   2.417 -0.1657  0.3151  0.1409
 5957SOL    HW129333   0.151   3.954   2.383  0.4228  0.8795 -0.6503
 5957SOL    HW229334   0.205   3.826   2.426  0.3986 -0.0827 -2.0908
 5958SOL     OW29335   2.837   3.621   0.821  0.1825  0.2215 -0.3289
 5958SOL    HW129336   2.765   3.651   0.766  0.1271 -1.5804 -1.2471
 5958SOL    HW229337   2.812   3.534   0.852  1.7843 -0.8014 -1.9018
 5959SOL     OW29338   2.451   3.620   3.502  0.4068  0.3263  0.0618
 5959SOL    HW129339   2.407   3.616   3.417  0.7085  0.5651 -0.1049
 5959SOL    HW229340   2.540   3.634   3.471  0.1956 -0.9574 -1.1224
 5960SOL     OW29341   1.314   1.909   8.678 -0.2344  0.5705 -0.2468
 5960SOL    HW129342   1.272   1.919   8.593  0.3159  0.1039 -0.5712
 5960SOL    HW229343   1.404   1.896   8.648  0.5598 -0.4081  2.5506
 5961SOL     OW29344   4.269   2.502   0.572  0.1376  0.0262 -0.4005
 5961SOL    HW129345   4.286   2.417   0.611 -2.6041 -0.5271 -0.3796
 5961SOL    HW229346   4.356   2.527   0.540  1.0112 -1.4585  0.8629
 5962SOL     OW29347   0.277   3.752   4.675  0.3156  0.1251 -0.0622
 5962SOL    HW129348   0.291   3.709   4.760  0.0392 -1.7983 -1.0025
 5962SOL    HW229349   0.368   3.761   4.647  0.1948  0.8322 -0.2110
 5963SOL     OW29350   1.611   0.143  10.943  0.4414 -0.3297 -0.2235
 5963SOL    HW129351   1.572   0.225  10.973 -0.0179 -0.9200  0.7827
 5963SOL    HW229352   1.699   0.154  10.979  0.0239 -1.4505  1.1275
 5964SOL     OW29353   0.041   0.594  16.233  0.5565  0.1429 -0.6794
 5964SOL    HW129354   0.011   0.578  16.143 -1.3307  2.0783 -0.3912
 5964SOL    HW229355   4.683   0.561  16.277  0.2655  0.8044 -0.6934
 5965SOL     OW29356   2.462   3.628   7.618 -0.2519 -0.3382 -0.1912
 5965SOL    HW129357   2.397   3.690   7.586 -0.0396  0.4740  0.9660
 5965SOL    HW229358   2.452   3.565   7.546  0.1912 -0.9645  0.2966
 5966SOL     OW29359   4.236   1.809  14.090  0.0592 -0.3458  0.3916
 5966SOL    HW129360   4.245   1.804  13.995 -0.9579 -0.3788  0.2946
 5966SOL    HW229361   4.219   1.720  14.121 -1.2740  0.7669  2.9088
 5967SOL     OW29362   2.866   4.449  10.617 -0.3082  0.0246  0.4439
 5967SOL    HW129363   2.904   4.424  10.533 -0.4197 -0.4868  0.5446
 5967SOL    HW229364   2.820   4.531  10.603 -0.0960  0.0537 -0.0726
 5968SOL     OW29365   3.691   2.890   3.521  0.1012  0.5858 -0.3229
 5968SOL    HW129366   3.686   2.802   3.485 -1.7192  1.1056 -1.3687
 5968SOL    HW229367   3.782   2.914   3.536  0.5705 -0.1773 -1.9280
 5969SOL     OW29368   2.326   2.540   3.359  0.6072 -0.3125 -0.4417
 5969SOL    HW129369   2.250   2.483   3.369  2.0422 -1.9987  0.6864
 5969SOL    HW229370   2.381   2.481   3.309 -0.0935 -0.5100 -0.9830
 5970SOL     OW29371   4.350   1.346   3.008  0.5359  0.0352  0.0021
 5970SOL    HW129372   4.328   1.309   2.923 -0.6117 -0.3087  0.4503
 5970SOL    HW229373   4.261   1.354   3.044  1.1566  0.5357  1.4262
 5971SOL     OW29374   0.190   0.141   6.925  0.1234  0.8945  0.2157
 5971SOL    HW129375   0.280   0.157   6.896 -0.1000  1.1499 -0.3420
 5971SOL    HW229376   0.194   0.047   6.941 -2.4208  0.6202 -0.8035
 5972SOL     OW29377   0.515   1.738  10.305 -0.5689 -0.6065  0.0565
 5972SOL    HW129378   0.451   1.727  10.234 -1.7064  2.0701  0.6625
 5972SOL    HW229379   0.559   1.821  10.286  2.7717 -2.9256 -2.3286
 5973SOL     OW29380   0.513   1.789   4.985  0.2259  0.5131 -0.1820
 5973SOL    HW129381   0.419   1.774   4.993  0.7274 -1.5394  2.0367
 5973SOL    HW229382   0.515   1.843   4.906 -0.3356 -1.9279 -1.8730
 5974SOL     OW29383   4.293   0.074   3.218  0.4250  0.2044  0.0565
 5974SOL    HW129384   4.233   0.140   3.184  1.1770  1.4458  1.1219
 5974SOL    HW229385   4.378   0.108   3.189  1.1287 -1.6613 -0.1279
 5975SOL     OW29386   3.459   0.727   3.449  0.0008  0.1063 -0.3099
 5975SOL    HW129387   3.412   0.652   3.412  0.8286 -0.6482  0.1682
 5975SOL    HW229388   3.411   0.808   3.433 -0.2010  0.4049  1.8810
 5976SOL     OW29389   0.841   4.000   8.167  0.2290 -0.2630 -0.3024
 5976SOL    HW129390   0.936   4.015   8.173  0.2493 -0.7799  0.6923
 5976SOL    HW229391   0.807   4.062   8.232  2.8828 -0.2597  1.0992
 5977SOL     OW29392   2.395   2.175   3.660  0.6164 -0.0190 -0.1073
 5977SOL    HW129393   2.353   2.209   3.581 -0.3466 -1.1299 -0.0718
 5977SOL    HW229394   2.469   2.141   3.610  1.1393 -0.3523  0.8875
 5978SOL     OW29395   0.199   2.980   2.581  0.1476  0.2575  0.1503
 5978SOL    HW129396   0.107   2.983   2.554  0.4423 -2.5586 -1.0789
 5978SOL    HW229397   0.189   2.967   2.675 -1.9918  2.3226  0.2248
 5979SOL     OW29398   2.715   3.173  10.303  0.2126  0.0069  0.3259
 5979SOL    HW129399   2.671   3.107  10.356 -2.0602  0.5180 -0.9400
 5979SOL    HW229400   2.675   3.245  10.351  1.8867  2.2436 -1.6438
 5980SOL     OW29401   3.293   1.312   3.590 -0.2663 -0.5639 -0.0825
 5980SOL    HW129402   3.349   1.387   3.611 -0.9833  0.2441 -1.0124
 5980SOL    HW229403   3.218   1.358   3.552 -0.6449  0.2716  1.6795
 5981SOL     OW29404   4.627   4.468  14.185  0.3534 -0.2136 -0.2084
 5981SOL    HW129405   4.717   4.435  14.192  0.5400  0.1235 -1.0549
 5981SOL    HW229406   4.586   4.391  14.224  1.9007  0.2246  2.3198
 5982SOL     OW29407   3.017   4.526   6.225  0.0590 -0.0817 -0.4796
 5982SOL    HW129408   2.925   4.546   6.205  0.2202  0.8464 -0.2857
 5982SOL    HW229409   3.047   4.477   6.149  0.1557  1.6774 -1.5821
 5983SOL     OW29410   0.400   0.224  11.289 -0.5703 -0.1489 -0.6113
 5983SOL    HW129411   0.323   0.277  11.309 -1.3125 -1.7611  0.7973
 5983SOL    HW229412   0.444   0.288  11.234  0.2835 -0.2130 -0.0109
 5984SOL     OW29413   1.045   0.892   7.281 -0.2351  0.1633 -0.5740
 5984SOL    HW129414   0.964   0.910   7.330 -1.8544 -1.3469 -2.6671
 5984SOL    HW229415   1.107   0.880   7.353  0.6435  2.2273 -0.9852
 5985SOL     OW29416   2.889   2.250   3.477  0.3215 -0.3357 -0.6460
 5985SOL    HW129417   2.855   2.330   3.437 -1.5969  0.0588  1.8515
 5985SOL    HW229418   2.953   2.288   3.538 -1.8144  1.3999  0.4738
 5986SOL     OW29419   1.386   3.156  14.139  0.1084 -0.0248 -0.0616
 5986SOL    HW129420   1.317   3.089  14.143  0.6111 -0.5503 -0.0804
 5986SOL    HW229421   1.359   3.208  14.215  0.3802  0.2696 -0.1706
 5987SOL     OW29422   0.956   1.827   3.184 -0.0752  0.2004 -0.0376
 5987SOL    HW129423   0.874   1.854   3.142 -0.1297  1.4188  0.8447
 5987SOL    HW229424   0.985   1.762   3.120  2.2532  0.8344  0.3916
 5988SOL     OW29425   4.140   1.445   6.293  0.2622  0.1527  0.6409
 5988SOL    HW129426   4.103   1.369   6.338  2.2410 -1.9632 -1.3085
 5988SOL    HW229427   4.223   1.410   6.260  0.2533  0.5320  0.2298
 5989SOL     OW29428   3.828   0.009   8.201 -0.3722  0.4965  0.1241
 5989SOL    HW129429   3.733   4.714   8.196 -0.3259  0.5579 -0.9450
 5989SOL    HW229430   3.836   0.038   8.292  1.1297  0.4222  0.0061
 5990SOL     OW29431   0.884   4.678   3.561 -0.1346 -0.2007 -0.3487
 5990SOL    HW129432   0.803   4.699   3.607  0.9945 -0.0705  1.5852
 5990SOL    HW229433   0.871   4.655   3.469 -1.2753 -0.2322 -0.1726
 5991SOL     OW29434   4.659   2.666   8.002 -0.3757 -0.1352  0.0420
 5991SOL    HW129435   4.699   2.588   8.040  1.6545  1.0446  0.3123
 5991SOL    HW229436   4.635   2.635   7.915 -1.1565 -0.0468  0.2232
 5992SOL     OW29437   3.225   2.854   6.477 -0.4197 -0.0496 -0.0385
 5992SOL    HW129438   3.200   2.931   6.427 -2.3990 -0.0301  0.9733
 5992SOL    HW229439   3.183   2.791   6.418 -0.9786  2.1444 -1.9798
 5993SOL     OW29440   3.468   1.388   4.106 -0.0261  0.2957 -0.0727
 5993SOL    HW129441   3.533   1.323   4.080 -1.0445 -1.7868  2.4597
 5993SOL    HW229442   3.430   1.417   4.023  0.4393  1.7395  0.2163
 5994SOL     OW29443   3.123   3.292   8.859  0.1463 -0.0739 -0.2555
 5994SOL    HW129444   3.033   3.319   8.841  0.2563  1.6056  1.7215
 5994SOL    HW229445   3.155   3.281   8.769  0.1040  1.4019 -0.4368
 5995SOL     OW29446   2.217   3.732   7.516  0.1636  0.3711 -0.2745
 5995SOL    HW129447   2.221   3.823   7.488 -1.3482  1.3028  2.5525
 5995SOL    HW229448   2.189   3.693   7.433  0.5621 -0.5152  0.0120
 5996SOL     OW29449   1.804   1.282  13.675  0.2955  0.0052  0.1714
 5996SOL    HW129450   1.765   1.205  13.633 -2.8123  2.2890 -1.0931
 5996SOL    HW229451   1.741   1.305  13.743  1.5710 -1.2578  1.7842
 5997SOL     OW29452   3.296   0.931   3.337  0.2175  0.4870  0.2272
 5997SOL    HW129453   3.203   0.920   3.358  0.3578 -0.1399  0.5032
 5997SOL    HW229454   3.329   0.991   3.404 -2.1275 -0.2385  2.0341
 5998SOL     OW29455   0.743   2.751   5.843 -0.5265  0.1491 -0.0428
 5998SOL    HW129456   0.776   2.732   5.931  2.5876 -0.8674 -1.4390
 5998SOL    HW229457   0.819   2.769   5.789 -0.4958 -0.7570 -0.2963
 5999SOL     OW29458   3.379   3.166   7.487  0.3541 -0.2701  0.2042
 5999SOL    HW129459   3.393   3.071   7.493  0.3480 -0.1789  1.7346
 5999SOL    HW229460   3.293   3.168   7.530  0.4905 -1.8275  0.5470
 6000SOL     OW29461   0.431   2.716   4.720 -0.1874  0.0653 -0.0573
 6000SOL    HW129462   0.492   2.643   4.708  0.6586  1.1868 -2.5487
 6000SOL    HW229463   0.433   2.731   4.815 -2.7201 -1.3929  0.2335
 6001SOL     OW29464   0.721   2.669   3.654 -0.4228 -0.3828  0.3761
 6001SOL    HW129465   0.784   2.599   3.670 -1.6372 -1.2171  1.4444
 6001SOL    HW229466   0.767   2.751   3.672 -2.4382  0.9887 -0.7356
 6002SOL     OW29467   1.412   1.966   3.936 -0.2505  0.1539  0.9884
 6002SOL    HW129468   1.404   1.872   3.949  3.0574 -0.4064 -0.9681
 6002SOL    HW229469   1.330   1.986   3.889  0.2301  1.1201  0.5507
 6003SOL     OW29470   1.761   2.132   2.863 -1.3526 -0.3253  0.3309
 6003SOL    HW129471   1.677   2.179   2.867 -1.3911 -0.3564 -0.2015
 6003SOL    HW229472   1.738   2.072   2.792  0.8386 -1.2011  0.3757
 6004SOL     OW29473   2.890   2.574   7.902  0.2515 -0.4282  0.0299
 6004SOL    HW129474   2.894   2.562   7.997 -0.6623  1.2591  0.2763
 6004SOL    HW229475   2.804   2.542   7.874 -0.1856 -0.5368  1.5103
 6005SOL     OW29476   3.066   4.367   8.454 -0.2996  0.0333  0.4120
 6005SOL    HW129477   3.039   4.452   8.419 -1.2077 -0.3545  0.1870
 6005SOL    HW229478   3.003   4.356   8.525 -2.0614 -2.0418 -1.4730
 6006SOL     OW29479   0.863   3.576   3.311 -0.1977  0.0422 -0.3417
 6006SOL    HW129480   0.940   3.569   3.367 -1.4729 -3.5668  0.9907
 6006SOL    HW229481   0.849   3.667   3.339  2.8268  0.1434  0.8841
 6007SOL     OW29482   2.584   1.864   7.510  0.3623 -0.3093 -0.2237
 6007SOL    HW129483   2.551   1.953   7.500 -1.4383 -1.0687 -1.1227
 6007SOL    HW229484   2.500   1.818   7.519  0.0344  0.3542  0.0915
 6008SOL     OW29485   0.082   2.672   6.718  0.2008  0.0156 -0.4531
 6008SOL    HW129486   0.048   2.669   6.807  1.4636 -0.1984  0.0234
 6008SOL    HW229487   0.047   2.589   6.685 -2.5024  1.1565 -0.4941
 6009SOL     OW29488   2.433   2.698   0.659  0.1613  0.2406 -0.6037
 6009SOL    HW129489   2.359   2.657   0.615 -2.0644  2.3752  1.2102
 6009SOL    HW229490   2.397   2.786   0.666  1.8983  1.1722 -3.2926
 6010SOL     OW29491   2.021   2.524   3.908 -0.1904 -0.8747  0.1889
 6010SOL    HW129492   2.006   2.445   3.958 -0.0453  0.5457  2.4832
 6010SOL    HW229493   2.054   2.487   3.826 -0.3113 -1.0456  0.2171
 6011SOL     OW29494   1.505   0.068   4.145  0.3218 -0.6566  0.4562
 6011SOL    HW129495   1.597   0.076   4.121  0.1252 -0.1124 -0.1050
 6011SOL    HW229496   1.459   0.116   4.077  0.7294  0.1292  0.7350
 6012SOL     OW29497   1.998   2.949  15.606 -0.9150 -0.3284  0.4088
 6012SOL    HW129498   1.946   3.009  15.552 -0.4282  0.3049  0.6437
 6012SOL    HW229499   1.988   2.986  15.694 -0.5356  1.7092 -0.4003
 6013SOL     OW29500   2.174   1.649   2.338 -1.0385 -0.6122  0.0524
 6013SOL    HW129501   2.082   1.672   2.329 -0.4302  0.9788 -2.0948
 6013SOL    HW229502   2.202   1.640   2.247  1.4488 -0.1579  0.7757
 6014SOL     OW29503   4.449   4.317   6.443 -0.4858 -0.3116 -0.4741
 6014SOL    HW129504   4.531   4.271   6.462 -0.9760 -0.8142  0.4059
 6014SOL    HW229505   4.404   4.249   6.392  1.2433 -0.0875 -2.3036
 6015SOL     OW29506   1.923   2.370   3.160  0.8863  0.0222 -0.3284
 6015SOL    HW129507   1.855   2.380   3.094  2.2645  0.1197 -1.7286
 6015SOL    HW229508   1.992   2.386   3.096  0.2037 -0.9145 -1.3086
 6016SOL     OW29509   2.722   1.433   4.633  0.3390  0.5360  0.1985
 6016SOL    HW129510   2.690   1.427   4.724  0.1166  0.9744  0.1463
 6016SOL    HW229511   2.739   1.527   4.631 -0.1874  0.5957 -1.3131
 6017SOL     OW29512   4.122   0.128   5.519  0.2621  0.1706  0.5242
 6017SOL    HW129513   4.174   0.143   5.440 -1.1471  0.7145 -0.3002
 6017SOL    HW229514   4.089   0.038   5.510  0.2660  0.3588 -1.2381
 6018SOL     OW29515   0.659   3.617  17.673  0.9889  0.2051 -0.5080
 6018SOL    HW129516   0.712   3.567  17.611 -1.1113 -0.6100 -1.6301
 6018SOL    HW229517   0.727   3.666   0.039 -0.4072  2.4622 -0.8148
 6019SOL     OW29518   3.839   2.332   4.388 -0.4478 -0.1463  0.1307
 6019SOL    HW129519   3.817   2.402   4.450 -3.5458  1.6060 -2.9553
 6019SOL    HW229520   3.932   2.337   4.370 -0.4192  1.7504  0.8117
 6020SOL     OW29521   2.761   2.481   8.900  0.2079  0.2085  0.2846
 6020SOL    HW129522   2.700   2.547   8.933 -1.1115 -0.1255 -1.5540
 6020SOL    HW229523   2.734   2.472   8.809  1.1562 -2.7936  0.2984
 6021SOL     OW29524   2.631   1.679   6.877 -0.0421 -0.0732  0.0879
 6021SOL    HW129525   2.723   1.665   6.897  0.5026  0.4615 -1.9671
 6021SOL    HW229526   2.586   1.640   6.952 -0.4008 -0.5326 -0.3661
 6022SOL     OW29527   3.223   2.321   8.133  0.6286 -0.3428 -0.4199
 6022SOL    HW129528   3.148   2.381   8.133  0.1066 -0.9974 -0.0119
 6022SOL    HW229529   3.199   2.257   8.200  1.0934 -0.8398 -0.7287
 6023SOL     OW29530   0.250   3.255   5.094  0.1137  0.2692 -0.5003
 6023SOL    HW129531   0.212   3.333   5.135  0.2803 -1.1199  2.3191
 6023SOL    HW229532   0.343   3.276   5.101  0.4870 -1.5070 -0.2266
 6024SOL     OW29533   2.471   2.668   2.044 -0.0044 -0.4515  0.5837
 6024SOL    HW129534   2.469   2.722   1.965  0.4478 -0.9527  0.2307
 6024SOL    HW229535   2.393   2.702   2.088  0.5439  0.4158  0.8888
 6025SOL     OW29536   3.365   4.539   3.737 -0.1484 -0.6010 -0.7660
 6025SOL    HW129537   3.321   4.475   3.793  1.0390 -1.6660 -1.0614
 6025SOL    HW229538   3.417   4.577   3.808 -0.7192  0.1634 -0.7557
 6026SOL     OW29539   4.070   4.680   6.759  0.9896  0.5330 -0.1059
 6026SOL    HW129540   4.051   4.710   6.670  1.4490 -1.0709 -0.7461
 6026SOL    HW229541   4.166   4.678   6.756  1.0660  0.9255  2.0470
 6027SOL     OW29542   3.028   1.240   3.810 -0.0731 -0.3916 -0.1643
 6027SOL    HW129543   2.982   1.225   3.727  2.1313 -1.4175 -1.1951
 6027SOL    HW229544   3.068   1.326   3.798  0.1672 -0.5094 -0.2181
 6028SOL     OW29545   2.600   1.445   4.016  0.3610  0.0415 -0.2227
 6028SOL    HW129546   2.616   1.424   4.108 -1.9055  1.0945  0.4139
 6028SOL    HW229547   2.547   1.372   3.985  2.4679 -2.2256  1.5540
 6029SOL     OW29548   3.441   3.065   2.424  0.5053  0.5885  0.1998
 6029SOL    HW129549   3.361   3.019   2.398  0.5996  0.4415  0.1721
 6029SOL    HW229550   3.414   3.156   2.411 -0.5833  0.3623  0.9561
 6030SOL     OW29551   0.491   3.220   7.758 -0.3681 -0.2309  0.6236
 6030SOL    HW129552   0.445   3.201   7.676 -0.1195  3.5865 -0.4115
 6030SOL    HW229553   0.510   3.134   7.795 -0.8063  0.2617  1.9919
 6031SOL     OW29554   2.033   0.585  13.712  0.2228  0.3126  0.3497
 6031SOL    HW129555   2.121   0.604  13.680  0.0693  4.4969  2.3890
 6031SOL    HW229556   2.031   0.490  13.720  1.1338  0.3932  1.6816
 6032SOL     OW29557   1.010   0.286  12.901 -0.8021 -0.3031 -0.4552
 6032SOL    HW129558   0.992   0.270  12.994 -0.8543 -3.8669 -1.1008
 6032SOL    HW229559   1.033   0.379  12.908  0.2574 -0.5156 -1.0904
 6033SOL     OW29560   1.124   2.492   8.446 -0.0205 -0.0418 -0.1543
 6033SOL    HW129561   1.037   2.482   8.409  0.2508 -0.8548 -0.5715
 6033SOL    HW229562   1.161   2.404   8.444  0.9701  0.3794 -0.3806
 6034SOL     OW29563   3.158   0.643   6.099  0.2918  0.0855 -0.1030
 6034SOL    HW129564   3.166   0.566   6.043  0.8511 -0.8441  1.2701
 6034SOL    HW229565   3.152   0.607   6.187 -0.4390  0.3730 -0.0283
 6035SOL     OW29566   1.676   3.709   3.174 -0.4245 -0.3870  0.3146
 6035SOL    HW129567   1.646   3.725   3.084 -3.0803 -5.1057  0.3582
 6035SOL    HW229568   1.733   3.632   3.177 -0.2253 -0.3118 -1.5645
 6036SOL     OW29569   3.508   0.361   7.294  1.0319  0.1315  0.4070
 6036SOL    HW129570   3.516   0.392   7.204  3.0673 -0.0549  0.5324
 6036SOL    HW229571   3.510   0.442   7.345 -0.3294  1.1189 -1.1029
 6037SOL     OW29572   0.823   2.289   0.198 -0.6080 -0.0168 -0.1560
 6037SOL    HW129573   0.847   2.367   0.249  0.6549 -0.8370  0.5141
 6037SOL    HW229574   0.762   2.314   0.129 -1.9506 -0.3165  0.9400
 6038SOL     OW29575   2.581   0.417   3.912 -0.2400 -0.0697  0.2978
 6038SOL    HW129576   2.560   0.496   3.962 -1.2784  0.9398 -1.7309
 6038SOL    HW229577   2.565   0.345   3.973  1.7170  1.2402  2.3748
 6039SOL     OW29578   3.800   0.401   5.941  0.0812 -0.0968 -0.1718
 6039SOL    HW129579   3.861   0.373   6.009  0.3426  0.4562 -0.1759
 6039SOL    HW229580   3.831   0.352   5.865 -2.2798 -2.0689  0.1349
 6040SOL     OW29581   1.625   3.337  16.444 -0.0501 -0.0718  0.0372
 6040SOL    HW129582   1.530   3.349  16.450  0.2379  1.7577  0.8561
 6040SOL    HW229583   1.647   3.305  16.532 -0.3194  0.4224  0.2851
 6041SOL     OW29584   3.957   2.414   7.662 -0.4681  0.3417 -0.0230
 6041SOL    HW129585   4.020   2.367   7.607  0.8668  2.5705 -0.3688
 6041SOL    HW229586   4.006   2.493   7.686 -0.9464  0.1340  1.6634
 6042SOL     OW29587   1.029   3.163   2.055  1.0915 -0.3871  0.2858
 6042SOL    HW129588   1.074   3.243   2.025 -0.1291 -0.6619 -2.2459
 6042SOL    HW229589   1.101   3.105   2.080 -0.9841 -2.1107  2.2466
 6043SOL     OW29590   4.592   0.860  16.266 -0.7895  0.9497  0.0591
 6043SOL    HW129591   4.542   0.929  16.223  1.6559  2.9748  0.4959
 6043SOL    HW229592   4.547   0.783  16.230 -0.7369  0.8513  0.2005
 6044SOL     OW29593   0.827   0.262   6.413  0.1515  0.8765 -0.0329
 6044SOL    HW129594   0.770   0.327   6.453 -0.8972  0.1516 -0.3575
 6044SOL    HW229595   0.763   0.244   6.344  1.2853 -3.5661  0.0666
 6045SOL     OW29596   3.351   4.413  15.163 -0.1164 -0.1222 -0.4285
 6045SOL    HW129597   3.299   4.492  15.173  2.6749  1.1699  4.0374
 6045SOL    HW229598   3.281   4.348  15.176  0.0620 -0.1209  0.5740
 6046SOL     OW29599   0.195   2.333   3.962  0.3957 -0.2386  0.3581
 6046SOL    HW129600   0.269   2.392   3.977  0.8487 -0.4951 -0.9183
 6046SOL    HW229601   0.184   2.284   4.043  2.4937  0.2869  0.9641
 6047SOL     OW29602   2.930   2.829   6.288  0.0311 -0.0327  0.0099
 6047SOL    HW129603   2.918   2.855   6.196  1.9436  1.7775  0.2642
 6047SOL    HW229604   3.002   2.887   6.315 -0.2927 -0.0039  0.8012
 6048SOL     OW29605   0.715   3.844   5.347  0.1463 -0.6515 -0.2049
 6048SOL    HW129606   0.666   3.800   5.417  1.5541 -1.0772  0.5078
 6048SOL    HW229607   0.708   3.765   5.293 -0.7511 -3.0680  3.4246
 6049SOL     OW29608   3.488   1.848   4.617 -0.1896 -0.1135  0.3576
 6049SOL    HW129609   3.396   1.834   4.642  0.0015 -1.5179  0.2676
 6049SOL    HW229610   3.504   1.933   4.659  0.1335 -0.6844  1.4080
 6050SOL     OW29611   0.440   2.327  14.621 -0.2961  0.0469 -1.0034
 6050SOL    HW129612   0.440   2.259  14.689 -0.9232  2.1507  1.1107
 6050SOL    HW229613   0.350   2.355  14.632 -0.4322 -1.5687  2.1242
 6051SOL     OW29614   2.596   3.102  17.219  0.2170 -0.4827 -0.5224
 6051SOL    HW129615   2.541   3.116  17.142 -1.6981  1.2086  1.1673
 6051SOL    HW229616   2.538   3.050  17.274 -1.4194  0.3713 -1.4267
 6052SOL     OW29617   1.885   3.296   8.337  0.5263  0.4621 -0.1906
 6052SOL    HW129618   1.855   3.254   8.256  0.6742  2.2540 -1.1582
 6052SOL    HW229619   1.845   3.248   8.410  0.8135  0.9891  0.3074
 6053SOL     OW29620   4.524   2.984  14.530  0.1487  0.0138  0.3178
 6053SOL    HW129621   4.535   2.889  14.539 -2.6127 -0.3959 -0.5434
 6053SOL    HW229622   4.430   2.988  14.510 -0.0035  0.5899  1.1374
 6054SOL     OW29623   4.090   4.709   4.983  1.0977  0.4184  0.4149
 6054SOL    HW129624   4.043   4.704   5.066  1.3097  0.1275  0.5202
 6054SOL    HW229625   4.148   0.062   5.004 -0.1793  0.8197  2.4633
 6055SOL     OW29626   3.292   3.757   5.270  0.4022  0.1454  0.2475
 6055SOL    HW129627   3.321   3.678   5.314 -0.8706  0.3537  1.4655
 6055SOL    HW229628   3.247   3.717   5.195 -1.8815  1.1798  1.0471
 6056SOL     OW29629   0.765   0.350   4.174 -0.1035  0.2257 -0.0903
 6056SOL    HW129630   0.734   0.406   4.102 -1.0096 -1.0591 -0.6861
 6056SOL    HW229631   0.688   0.307   4.210 -0.0937 -0.2159 -0.5971
 6057SOL     OW29632   3.893   4.037  14.257 -0.3335  0.7925 -0.6578
 6057SOL    HW129633   3.975   4.061  14.300 -0.2401 -0.9934  0.1556
 6057SOL    HW229634   3.880   4.090  14.178  1.7715  2.2159 -0.0416
 6058SOL     OW29635   4.558   1.338   2.681 -0.2051 -0.2738 -0.1680
 6058SOL    HW129636   4.591   1.413   2.730 -1.4666  0.5066 -0.5136
 6058SOL    HW229637   4.616   1.342   2.604 -0.0765 -1.3789 -0.1148
 6059SOL     OW29638   1.121   3.640   9.906  0.0854  0.0988  0.0089
 6059SOL    HW129639   1.036   3.673   9.876  0.4786 -0.1107 -1.3365
 6059SOL    HW229640   1.161   3.629   9.820  0.5031 -0.2522  0.2526
 6060SOL     OW29641   2.300   2.969   0.441  0.5815  0.2985 -0.0929
 6060SOL    HW129642   2.358   2.996   0.512  0.0018  1.5252 -0.0913
 6060SOL    HW229643   2.258   3.053   0.422 -0.3757 -0.1728 -0.0592
 6061SOL     OW29644   3.690   2.132   2.441  0.3525 -0.0078  0.2691
 6061SOL    HW129645   3.759   2.073   2.471  1.4434  0.2984 -1.6737
 6061SOL    HW229646   3.607   2.088   2.460  0.6145  0.3144  2.2292
 6062SOL     OW29647   3.053   3.069   6.320 -0.3146  0.2302 -0.7097
 6062SOL    HW129648   3.037   3.096   6.411  1.8429  0.2923 -0.3556
 6062SOL    HW229649   2.992   3.135   6.286 -0.2149  1.1058  0.8135
 6063SOL     OW29650   2.747   1.177  12.194 -0.4469  0.4289  0.4956
 6063SOL    HW129651   2.736   1.154  12.286 -2.2151  0.4169  0.2988
 6063SOL    HW229652   2.759   1.089  12.157 -0.2927  0.3432  0.7536
 6064SOL     OW29653   2.494   1.530   5.335  0.2240 -0.5058  0.4142
 6064SOL    HW129654   2.565   1.569   5.284  0.7257 -0.9502  0.7773
 6064SOL    HW229655   2.548   1.514   5.412 -0.8483  0.7622  1.4400
 6065SOL     OW29656   4.288   1.209  13.496 -0.2464 -0.2134  0.1800
 6065SOL    HW129657   4.354   1.266  13.457  0.0504 -1.6173 -1.3595
 6065SOL    HW229658   4.221   1.268  13.462  1.4672  2.0001  0.6090
 6066SOL     OW29659   2.002   0.607   2.051  0.0776 -0.0423 -0.0286
 6066SOL    HW129660   1.933   0.608   1.985 -1.8918  0.0013  2.0079
 6066SOL    HW229661   2.021   0.513   2.051 -1.8782 -0.4444  1.7589
 6067SOL     OW29662   3.500   3.064   5.075 -0.3940 -0.4589  0.2982
 6067SOL    HW129663   3.595   3.060   5.090 -0.0079 -0.3869 -2.1134
 6067SOL    HW229664   3.461   3.073   5.162  1.3835  0.6061  0.9851
 6068SOL     OW29665   0.670   4.429   3.409 -0.0040 -0.3794 -0.1655
 6068SOL    HW129666   0.744   4.470   3.364  0.9420 -1.1857  0.6647
 6068SOL    HW229667   0.685   4.335   3.400  1.2311 -0.2277  0.3095
 6069SOL     OW29668   0.357   0.012   8.412  0.1789 -0.5446 -0.5534
 6069SOL    HW129669   0.402   4.667   8.359 -0.3312 -1.5471  0.2433
 6069SOL    HW229670   0.310   0.059   8.342 -1.3876  1.9852  2.1804
 6070SOL     OW29671   1.195   4.396   6.846 -0.0430  0.1942  0.3404
 6070SOL    HW129672   1.223   4.484   6.821 -1.4522  0.4246 -0.4206
 6070SOL    HW229673   1.120   4.426   6.897  0.2700  0.3142  0.7231
 6071SOL     OW29674   1.004   4.540   1.331 -0.2262 -0.2838  0.2511
 6071SOL    HW129675   1.012   4.612   1.394  0.0764  0.4088 -0.5899
 6071SOL    HW229676   1.093   4.521   1.301  0.3580 -0.0529  1.8238
 6072SOL     OW29677   2.399   0.820  12.633  0.1990 -0.1481 -0.0023
 6072SOL    HW129678   2.325   0.776  12.674  0.0825  0.6466  0.6382
 6072SOL    HW229679   2.478   0.791  12.678 -0.2728 -0.2822  0.7495
 6073SOL     OW29680   0.141   3.544   8.334 -0.0422 -0.2642  0.6053
 6073SOL    HW129681   0.076   3.568   8.268 -0.1217  1.7412  1.4092
 6073SOL    HW229682   0.204   3.523   8.265 -0.8366 -0.2441 -0.1303
 6074SOL     OW29683   3.867   2.974   7.547  0.0466  0.6700 -0.5354
 6074SOL    HW129684   3.900   2.905   7.488 -1.7025 -0.7904  0.1909
 6074SOL    HW229685   3.871   2.943   7.637 -1.6735 -0.9793 -1.0266
 6075SOL     OW29686   0.117   3.777   8.539 -0.0239 -0.1307  0.4743
 6075SOL    HW129687   0.200   3.769   8.587 -1.2526 -1.3311  2.4196
 6075SOL    HW229688   0.131   3.693   8.496 -0.9747 -1.1082  2.0631
 6076SOL     OW29689   3.499   0.599  11.506  0.1894 -0.1724  0.5016
 6076SOL    HW129690   3.505   0.622  11.598 -0.2304 -2.1577  1.0199
 6076SOL    HW229691   3.413   0.559  11.496 -0.0802  0.3176  0.9008
 6077SOL     OW29692   2.493   2.646   5.326  0.8448 -0.4524  0.1612
 6077SOL    HW129693   2.550   2.599   5.266  1.2838  1.2278 -0.7514
 6077SOL    HW229694   2.423   2.680   5.270  0.6092 -1.5185 -0.1768
 6078SOL     OW29695   1.906   2.558   8.058 -0.2580  0.4744 -0.5305
 6078SOL    HW129696   1.820   2.599   8.048 -0.3264  0.8270  1.4758
 6078SOL    HW229697   1.888   2.467   8.035  1.0867  0.4416 -1.4064
 6079SOL     OW29698   0.317   4.397  16.763 -0.0966 -0.3153  0.3340
 6079SOL    HW129699   0.358   4.408  16.849  1.1048  0.6924 -0.3702
 6079SOL    HW229700   0.253   4.466  16.752 -0.2823 -0.2227  1.9809
 6080SOL     OW29701   4.707   4.057   4.621 -0.0941  0.8805  0.0441
 6080SOL    HW129702   4.716   4.146   4.586  1.1618  0.4932 -0.5940
 6080SOL    HW229703   4.706   4.076   4.715  0.6499  1.0403  0.0141
 6081SOL     OW29704   3.917   3.410  16.763  0.7569  0.4787  0.4052
 6081SOL    HW129705   3.859   3.339  16.790  0.0706  1.3569  1.1946
 6081SOL    HW229706   3.935   3.390  16.671  0.7312 -1.3621  0.7871
 6082SOL     OW29707   3.399   3.066  13.810 -0.2366 -0.0962  0.5457
 6082SOL    HW129708   3.303   3.070  13.812 -0.2879 -1.1021 -0.0256
 6082SOL    HW229709   3.424   3.125  13.881  1.7301 -0.5304  0.2129
 6083SOL     OW29710   0.356   1.404   2.298 -0.0743  0.8642  0.1720
 6083SOL    HW129711   0.406   1.485   2.314  1.4448  0.0925 -0.6488
 6083SOL    HW229712   0.362   1.397   2.203 -0.7135 -0.7895  0.2666
 6084SOL     OW29713   2.461   1.020   5.286 -0.4085  0.4513  0.3714
 6084SOL    HW129714   2.407   1.060   5.355  0.1590  0.7165  0.6573
 6084SOL    HW229715   2.388   0.984   5.235 -0.0768 -0.7545  0.7738
 6085SOL     OW29716   1.212   2.209   1.991 -0.6732 -0.1843 -0.9544
 6085SOL    HW129717   1.173   2.251   1.914 -1.4382  0.6401 -0.1172
 6085SOL    HW229718   1.175   2.121   1.985 -1.1968 -0.1101  1.2859
 6086SOL     OW29719   0.601   1.277   4.275 -0.1730  0.3982 -0.0244
 6086SOL    HW129720   0.680   1.223   4.268 -1.2761 -1.2266 -0.0628
 6086SOL    HW229721   0.558   1.236   4.200 -0.0220  0.5863 -0.2124
 6087SOL     OW29722   1.460   0.578   0.557  0.0290 -0.3040  0.0188
 6087SOL    HW129723   1.530   0.642   0.559 -0.7662  0.6411 -1.7044
 6087SOL    HW229724   1.403   0.617   0.623 -1.5895  1.0328 -2.1365
 6088SOL     OW29725   1.285   3.240   4.966  0.0738  0.3123  0.3774
 6088SOL    HW129726   1.332   3.225   5.047  1.5039  2.2203 -0.1204
 6088SOL    HW229727   1.310   3.162   4.916  1.8197  0.2230  1.4307
 6089SOL     OW29728   2.113   0.499   3.162  0.2049 -0.4081  0.1238
 6089SOL    HW129729   2.063   0.486   3.243  0.7253  0.9385  0.6501
 6089SOL    HW229730   2.045   0.464   3.104 -0.8795 -0.9891  1.7149
 6090SOL     OW29731   3.773   3.370   6.969  0.3564 -0.2103 -0.4655
 6090SOL    HW129732   3.846   3.402   6.916  0.1032  0.8771 -0.1621
 6090SOL    HW229733   3.799   3.404   7.055  0.4306 -0.2136 -0.4864
 6091SOL     OW29734   0.816   1.564   4.738  0.4204  0.6850 -0.3238
 6091SOL    HW129735   0.886   1.629   4.728 -0.6504  1.5548 -2.2902
 6091SOL    HW229736   0.769   1.562   4.655  1.3472 -1.8595 -0.7747
 6092SOL     OW29737   1.322   4.696   5.532  0.5428 -0.1703  0.3258
 6092SOL    HW129738   1.263   0.040   5.572  1.4575  0.4901  0.6200
 6092SOL    HW229739   1.404   0.018   5.557  2.0901 -1.9223 -1.7875
 6093SOL     OW29740   1.896   1.294   5.060  0.6387 -0.4758  0.0119
 6093SOL    HW129741   1.949   1.216   5.040  2.0442  0.5780 -0.3773
 6093SOL    HW229742   1.923   1.340   5.140 -0.2245  0.4328 -0.2236
 6094SOL     OW29743   4.208   1.553  16.999  0.0428 -0.1426  0.1664
 6094SOL    HW129744   4.144   1.600  17.052  0.1480 -0.4047  0.5284
 6094SOL    HW229745   4.290   1.599  17.017  2.7028 -4.1838 -1.3757
 6095SOL     OW29746   3.379   3.092   5.327  0.0993  0.1909 -0.6253
 6095SOL    HW129747   3.367   2.997   5.334 -1.2013  0.2054 -2.5413
 6095SOL    HW229748   3.336   3.118   5.409 -2.6836 -2.5638 -1.1827
 6096SOL     OW29749   4.346   2.520   1.613 -0.0125 -0.2563  0.0805
 6096SOL    HW129750   4.286   2.538   1.685 -1.8402  2.9745 -2.2950
 6096SOL    HW229751   4.372   2.609   1.592  1.6288 -0.1908  2.4065
 6097SOL     OW29752   4.011   4.455   2.872 -0.0987 -0.4309 -0.0705
 6097SOL    HW129753   4.060   4.384   2.830  0.5480  1.3667 -2.3478
 6097SOL    HW229754   3.952   4.403   2.926  0.8395 -0.2216  1.1446
 6098SOL     OW29755   4.524   4.118  10.209 -0.3142  0.4282 -0.5395
 6098SOL    HW129756   4.557   4.173  10.279  0.2120 -0.9454  0.2873
 6098SOL    HW229757   4.529   4.175  10.132 -1.2776  3.2381  1.4977
 6099SOL     OW29758   4.489   1.764  13.165  0.0087  0.1967 -0.5603
 6099SOL    HW129759   4.505   1.712  13.087  0.4602 -0.9403  0.2973
 6099SOL    HW229760   4.399   1.747  13.193 -0.7399  1.0948 -2.3964
 6100SOL     OW29761   0.774   3.909   0.971 -0.6181  0.5882  0.2391
 6100SOL    HW129762   0.797   3.936   1.060  0.4600  1.7665 -0.4056
 6100SOL    HW229763   0.867   3.891   0.960 -0.3484  0.5540  2.7178
 6101SOL     OW29764   1.738   2.507   0.009  0.1885 -0.5076  0.6207
 6101SOL    HW129765   1.772   2.468   0.090  1.3831 -0.2922  0.2222
 6101SOL    HW229766   1.762   2.599   0.017 -1.2800 -0.3430  3.0609
 6102SOL     OW29767   0.187   0.299  14.435 -0.6196  0.1420  0.6064
 6102SOL    HW129768   0.252   0.237  14.468  1.9720  3.0784  1.0082
 6102SOL    HW229769   0.245   0.373  14.418  0.3422 -0.6428  0.4907
 6103SOL     OW29770   2.927   4.003   7.069 -0.1584 -0.0560 -0.4987
 6103SOL    HW129771   2.865   4.076   7.077  0.2988  0.0286  2.3606
 6103SOL    HW229772   2.885   3.933   7.019  0.8237 -1.5818  0.8189
 6104SOL     OW29773   1.429   0.279   5.909  0.0847  0.0605 -0.7842
 6104SOL    HW129774   1.422   0.244   5.821 -0.6177 -1.0426 -0.2933
 6104SOL    HW229775   1.418   0.370   5.883 -2.5776  0.2581  0.9708
 6105SOL     OW29776   3.467   3.996   3.630  0.0709  0.3080  0.9611
 6105SOL    HW129777   3.485   4.062   3.563 -0.3288 -0.0282  0.5279
 6105SOL    HW229778   3.545   3.988   3.686  0.7556 -3.5292 -0.5296
 6106SOL     OW29779   3.153   4.042   6.504  0.1043  0.0444 -0.4412
 6106SOL    HW129780   3.076   4.083   6.464 -0.2636  1.8878  2.1974
 6106SOL    HW229781   3.164   3.964   6.449 -2.0097  1.2846 -2.5989
 6107SOL     OW29782   0.605   0.080   9.058  0.4649  0.6553 -0.3896
 6107SOL    HW129783   0.617   0.161   9.107  3.6046 -0.4694  0.7041
 6107SOL    HW229784   0.668   0.097   8.988  0.5506 -1.9244 -0.9336
 6108SOL     OW29785   1.232   0.107  12.085  0.2031 -0.6056 -0.6202
 6108SOL    HW129786   1.270   0.066  12.163 -0.8647  2.1069  1.3321
 6108SOL    HW229787   1.289   0.183  12.070 -2.4650  1.7617  1.3987
 6109SOL     OW29788   4.272   0.329  15.772 -0.2833 -0.0398  0.1660
 6109SOL    HW129789   4.183   0.356  15.792 -0.3874  2.0483 -3.0419
 6109SOL    HW229790   4.309   0.416  15.758  0.8069 -0.2949  1.4215
 6110SOL     OW29791   4.019   1.642   6.937  0.6316  0.1058  0.0118
 6110SOL    HW129792   4.007   1.713   6.874  1.3017  0.0388 -0.1888
 6110SOL    HW229793   4.102   1.675   6.972  0.7836  2.4632 -2.5906
 6111SOL     OW29794   4.019   0.343   8.666 -0.4287  0.4448 -0.1813
 6111SOL    HW129795   4.003   0.436   8.652  1.3950  0.7184 -0.4781
 6111SOL    HW229796   3.935   0.306   8.638 -0.6358  0.7177  0.0850
 6112SOL     OW29797   2.586   1.816   1.213 -0.0520  0.1194 -0.0386
 6112SOL    HW129798   2.661   1.793   1.268  0.0019 -0.3663 -0.3197
 6112SOL    HW229799   2.539   1.890   1.253  0.6326  0.8826 -0.6317
 6113SOL     OW29800   1.521   3.272  16.694  0.1084  0.5194 -0.1014
 6113SOL    HW129801   1.573   3.203  16.734 -1.3049 -0.1398  0.5966
 6113SOL    HW229802   1.432   3.244  16.717  0.5340  0.3604  1.3680
 6114SOL     OW29803   0.046   3.547   6.560 -0.2349 -0.0790  0.8606
 6114SOL    HW129804   0.126   3.551   6.612  0.1170 -0.6903  0.3693
 6114SOL    HW229805   0.040   3.457   6.529  0.0108  0.6751 -1.4111
 6115SOL     OW29806   3.727   2.831   2.088 -0.2297  0.4344 -0.6692
 6115SOL    HW129807   3.811   2.854   2.051  0.4577  1.2322  1.3960
 6115SOL    HW229808   3.743   2.858   2.178  1.7372  0.2464 -0.9729
 6116SOL     OW29809   0.335   1.915   7.444 -0.1225 -0.3845 -0.9542
 6116SOL    HW129810   0.382   1.968   7.380  1.8385  1.7114  2.2639
 6116SOL    HW229811   0.398   1.845   7.465 -1.6984 -1.1838  1.0603
 6117SOL     OW29812   3.055   2.798   5.269 -0.2673  0.4994  0.1543
 6117SOL    HW129813   2.964   2.771   5.262 -0.2129  0.3091  0.1760
 6117SOL    HW229814   3.106   2.732   5.221 -1.8169 -0.6040  0.0332
 6118SOL     OW29815   0.540   4.636   3.298 -0.5139 -0.4140 -0.1228
 6118SOL    HW129816   0.539   4.545   3.326  1.2951 -0.1677  0.7184
 6118SOL    HW229817   0.567   4.629   3.207 -0.1201  0.3922 -0.0671
 6119SOL     OW29818   0.303   0.842   8.143 -0.6767  0.2594  0.3492
 6119SOL    HW129819   0.257   0.913   8.187 -0.0751  0.8762  0.0035
 6119SOL    HW229820   0.343   0.900   8.077  0.3745  0.3957  1.1056
 6120SOL     OW29821   2.880   2.490   4.229  0.3399 -0.0623 -0.2204
 6120SOL    HW129822   2.851   2.458   4.144  4.4264 -0.9358 -1.2986
 6120SOL    HW229823   2.813   2.557   4.236  0.0273 -0.5688  1.5230
 6121SOL     OW29824   1.413   0.011   8.770  0.2004 -0.2604  0.8649
 6121SOL    HW129825   1.397   0.101   8.800  0.9524 -0.4078  1.7214
 6121SOL    HW229826   1.354   4.680   8.826 -0.4028 -1.1591 -0.6105
 6122SOL     OW29827   4.522   0.265  10.967  0.4521 -0.0428 -0.1440
 6122SOL    HW129828   4.429   0.286  10.965  0.5398  0.4141  0.6597
 6122SOL    HW229829   4.514   0.173  10.992 -4.6338  0.1970 -0.9874
 6123SOL     OW29830   1.104   4.650   3.730  0.3795 -0.3195 -0.0772
 6123SOL    HW129831   1.032   4.599   3.769 -2.1642  1.5535 -2.3160
 6123SOL    HW229832   1.057   4.680   3.653 -1.9105  0.5819  1.6586
 6124SOL     OW29833   0.538   0.598  16.225 -0.1756 -0.1345 -0.3916
 6124SOL    HW129834   0.453   0.579  16.186 -0.3016 -1.0238  0.3128
 6124SOL    HW229835   0.580   0.527  16.176 -1.7381 -0.0006 -1.9173
 6125SOL     OW29836   0.111   2.043  12.132 -0.3259  0.3391 -0.2116
 6125SOL    HW129837   0.131   2.122  12.082 -0.5839  0.9262  0.6077
 6125SOL    HW229838   0.052   1.997  12.073  0.0642 -0.2643 -0.1331
 6126SOL     OW29839   3.544   2.745   7.198  0.6499 -0.0493 -0.0619
 6126SOL    HW129840   3.558   2.787   7.283 -1.2716 -1.2038  0.8338
 6126SOL    HW229841   3.496   2.665   7.221 -0.6619  0.8317  0.2226
 6127SOL     OW29842   1.759   0.929   6.419 -0.4290 -0.3229 -0.2065
 6127SOL    HW129843   1.747   0.875   6.341 -2.8520  0.5790 -0.4545
 6127SOL    HW229844   1.853   0.919   6.434 -0.3881  2.3152  1.2368
 6128SOL     OW29845   2.802   0.343  12.427  0.1433  0.5149 -0.4240
 6128SOL    HW129846   2.818   0.308  12.340  3.0881 -1.5555  0.9467
 6128SOL    HW229847   2.826   0.267  12.480 -0.7271  0.4737 -0.0756
 6129SOL     OW29848   2.600   0.369   6.154 -0.4282 -0.2981  0.0431
 6129SOL    HW129849   2.628   0.365   6.245 -0.2576 -4.0941 -0.1899
 6129SOL    HW229850   2.683   0.397   6.117  0.0657 -0.7822  0.7907
 6130SOL     OW29851   4.445   4.045   2.683 -0.2702 -0.0617  0.1454
 6130SOL    HW129852   4.506   4.110   2.721  1.0685 -1.3476  0.1769
 6130SOL    HW229853   4.397   4.098   2.619 -0.2805 -0.7303 -0.3881
 6131SOL     OW29854   4.222   0.312   0.293  0.4029 -0.5728 -0.0265
 6131SOL    HW129855   4.216   0.228   0.337 -1.8932 -0.6228 -0.4538
 6131SOL    HW229856   4.302   0.348   0.332  0.1723 -0.7524  0.6094
 6132SOL     OW29857   0.602   2.532   7.007  0.0530 -0.3969 -0.5824
 6132SOL    HW129858   0.642   2.619   7.004 -1.3277  0.2562  0.0875
 6132SOL    HW229859   0.651   2.490   7.077 -1.1103  0.9302  1.0387
 6133SOL     OW29860   0.592   1.389   7.086 -0.1989  0.1846  0.0236
 6133SOL    HW129861   0.633   1.304   7.104  1.4955  1.1419  0.6681
 6133SOL    HW229862   0.555   1.384   6.998  0.7665 -0.4064 -0.3568
 6134SOL     OW29863   1.642   1.601   3.770  0.7392  0.1127 -0.1712
 6134SOL    HW129864   1.612   1.521   3.727 -0.1023  0.0622  0.5254
 6134SOL    HW229865   1.563   1.655   3.774  0.1991 -0.8005  1.7596
 6135SOL     OW29866   3.363   0.502   9.711 -0.1654 -0.1846  0.3332
 6135SOL    HW129867   3.308   0.428   9.687  1.7132 -0.9969 -1.4433
 6135SOL    HW229868   3.312   0.549   9.777  0.2009 -0.1258  0.5770
 6136SOL     OW29869   2.370   4.618  15.592  0.7173  0.3682  0.2581
 6136SOL    HW129870   2.407   4.706  15.588  1.1248  0.2272  1.0046
 6136SOL    HW229871   2.404   4.594  15.506  1.2868 -0.5328  0.7344
 6137SOL     OW29872   2.612   3.307   6.741  0.0779 -0.4446 -0.2201
 6137SOL    HW129873   2.540   3.267   6.791  0.0894 -1.8955 -1.3518
 6137SOL    HW229874   2.689   3.287   6.794  0.8552  0.6727 -0.9331
 6138SOL     OW29875   0.963   2.554   4.375  0.1509 -0.1315 -0.2870
 6138SOL    HW129876   0.927   2.469   4.350  1.1819 -0.7483  0.3043
 6138SOL    HW229877   0.952   2.552   4.470  2.0329 -1.1478 -0.0944
 6139SOL     OW29878   2.764   4.674  12.267 -0.0171  0.4180 -0.4754
 6139SOL    HW129879   2.674   4.657  12.241 -0.2973  0.9461  0.1606
 6139SOL    HW229880   2.776   0.036  12.218 -0.9080  0.8509  0.0167
 6140SOL     OW29881   4.480   0.485  11.879  0.4733  0.4999 -0.0237
 6140SOL    HW129882   4.454   0.395  11.862 -0.2360  0.9411 -1.3116
 6140SOL    HW229883   4.460   0.526  11.794 -1.3763  1.1147  0.7060
 6141SOL     OW29884   4.635   0.136   6.240 -0.1844 -0.0280  0.4911
 6141SOL    HW129885   4.552   0.167   6.275  0.9004  1.1039  2.0824
 6141SOL    HW229886   4.609   0.044   6.241  0.5921 -0.2264  1.8348
 6142SOL     OW29887   0.381   3.001   9.786 -0.2135 -0.1221 -0.3253
 6142SOL    HW129888   0.306   2.942   9.783 -0.0674 -0.3585  0.7839
 6142SOL    HW229889   0.347   3.068   9.846 -0.3863 -0.8591  0.4043
 6143SOL     OW29890   3.651   2.284   4.202 -0.6839  0.2022 -0.2972
 6143SOL    HW129891   3.674   2.216   4.139  1.3881  0.1007  0.5855
 6143SOL    HW229892   3.721   2.277   4.266 -1.3338 -0.0099  0.3986
 6144SOL     OW29893   0.470   2.412   4.406  0.0860  0.2129 -0.6332
 6144SOL    HW129894   0.540   2.439   4.346 -0.3985  1.7349 -0.5217
 6144SOL    HW229895   0.522   2.417   4.486 -2.7023 -2.5694  1.3657
 6145SOL     OW29896   3.005   1.382   7.759 -0.3023 -0.7186  0.4227
 6145SOL    HW129897   2.968   1.299   7.791 -1.1853 -0.5893 -0.2709
 6145SOL    HW229898   2.988   1.374   7.665  0.8495 -0.4250  0.1880
 6146SOL     OW29899   0.713   2.045   7.137 -0.0225 -0.0152  0.1664
 6146SOL    HW129900   0.740   2.060   7.047  1.1199 -2.7113  0.0354
 6146SOL    HW229901   0.741   2.127   7.177  2.2636 -0.7341  0.0528
 6147SOL     OW29902   0.082   4.301   4.525 -0.4116  0.7207 -0.0636
 6147SOL    HW129903   0.026   4.344   4.461 -0.2362 -0.3152 -0.9226
 6147SOL    HW229904   0.162   4.346   4.498  1.3172 -2.9482 -1.0081
 6148SOL     OW29905   0.071   3.762   5.089 -0.0792  0.2120  0.1151
 6148SOL    HW129906   0.055   3.668   5.092 -1.7841  0.4431 -2.3092
 6148SOL    HW229907   0.118   3.772   5.007 -1.4502 -1.1247 -0.8206
 6149SOL     OW29908   3.135   0.621   5.457 -0.0366 -0.0916 -0.1669
 6149SOL    HW129909   3.105   0.660   5.539  0.2518 -0.2476  0.0141
 6149SOL    HW229910   3.067   0.559   5.429 -0.9543 -0.2763  2.4247
 6150SOL     OW29911   2.111   4.219   0.206 -0.4437  0.4375 -0.1623
 6150SOL    HW129912   2.045   4.287   0.215  0.8036  1.6134  0.0214
 6150SOL    HW229913   2.126   4.232   0.112  0.8348  3.5406  0.4811
 6151SOL     OW29914   4.059   2.548  11.648  0.1982 -0.1050  0.3476
 6151SOL    HW129915   4.020   2.480  11.704  0.9279  0.5149  1.6189
 6151SOL    HW229916   4.100   2.600  11.717 -1.6125 -0.7576  1.9482
 6152SOL     OW29917   0.005   4.246   4.145 -0.0807  0.0571 -0.0522
 6152SOL    HW129918   4.703   4.197   4.065 -2.4146  0.0056  0.6044
 6152SOL    HW229919   4.717   4.181   4.216  1.1719 -0.8979 -0.7926
 6153SOL     OW29920   3.165   0.001   6.494 -0.2160  0.7219  0.2642
 6153SOL    HW129921   3.127   4.639   6.461 -1.4971  1.9709 -1.3778
 6153SOL    HW229922   3.171   4.698   6.587  0.4993 -2.5454 -0.6090
 6154SOL     OW29923   2.483   0.363   2.826 -0.1979  0.3582 -0.2658
 6154SOL    HW129924   2.425   0.317   2.765  2.6819 -0.3101 -2.4950
 6154SOL    HW229925   2.553   0.384   2.764  1.0812  0.6412  1.2860
 6155SOL     OW29926   2.415   3.181  11.449 -0.2029 -0.4424  0.2284
 6155SOL    HW129927   2.430   3.266  11.492  0.8413 -0.6873  0.3529
 6155SOL    HW229928   2.487   3.136  11.493  0.0429  0.7310  1.0321
 6156SOL     OW29929   4.644   4.186  15.046  0.0664  1.1610 -0.2553
 6156SOL    HW129930   4.613   4.253  14.985  0.4968 -1.6644 -3.5346
 6156SOL    HW229931   0.018   4.200  15.035  0.2845  0.7534  1.0735
 6157SOL     OW29932   2.931   1.692   4.314 -0.5714  0.2100  0.3725
 6157SOL    HW129933   2.937   1.642   4.233  1.5998  1.2318 -0.0822
 6157SOL    HW229934   2.970   1.630   4.376 -0.8688 -1.3104 -0.9639
 6158SOL     OW29935   1.526   4.524   2.476 -0.2184 -0.2724  0.3422
 6158SOL    HW129936   1.470   4.573   2.415 -1.0544  0.5906  1.7917
 6158SOL    HW229937   1.515   4.559   2.564  2.4709  0.4852  0.3539
 6159SOL     OW29938   4.190   3.028   5.716  0.1270  0.5277  0.2542
 6159SOL    HW129939   4.274   3.011   5.672 -0.3404  0.6283 -0.6784
 6159SOL    HW229940   4.205   3.116   5.751 -0.6383  0.6204  0.3501
 6160SOL     OW29941   4.115   4.657   4.300 -0.2822 -0.1893 -0.3600
 6160SOL    HW129942   4.206   4.628   4.289 -0.7153 -1.7697  0.2456
 6160SOL    HW229943   4.076   4.593   4.240 -1.1543 -2.1488  2.2673
 6161SOL     OW29944   3.111   3.739   4.784  0.0896 -0.5260  0.3921
 6161SOL    HW129945   3.115   3.805   4.715 -1.2935  0.1893  0.9916
 6161SOL    HW229946   3.088   3.658   4.739 -0.2410  0.9771 -2.1601
 6162SOL     OW29947   1.817   1.898  14.556  0.0400  0.2035 -0.4024
 6162SOL    HW129948   1.833   1.992  14.560 -0.4973  0.1972  1.7464
 6162SOL    HW229949   1.870   1.867  14.483 -0.2864  2.4916 -1.6132
 6163SOL     OW29950   3.142   3.528   2.465  0.4445  0.8700 -0.1832
 6163SOL    HW129951   3.078   3.596   2.486  2.5959  2.8166  0.0632
 6163SOL    HW229952   3.206   3.583   2.420  1.8242 -0.7914 -0.2726
 6164SOL     OW29953   2.389   3.685   1.249 -0.5663  0.0156  0.0706
 6164SOL    HW129954   2.354   3.600   1.221  1.5465 -0.6268 -0.6526
 6164SOL    HW229955   2.463   3.692   1.188  1.6352  1.1436  2.8753
 6165SOL     OW29956   2.268   4.557   1.938  0.9662  0.1395 -0.4344
 6165SOL    HW129957   2.297   4.626   1.877  0.7336  1.8758  1.4094
 6165SOL    HW229958   2.200   4.605   1.986  0.3912 -2.2965  1.1212
 6166SOL     OW29959   1.447   0.428   2.730 -0.3215 -0.3613 -0.1298
 6166SOL    HW129960   1.506   0.472   2.791 -0.4578  0.0718 -0.3097
 6166SOL    HW229961   1.377   0.491   2.715 -0.3692 -0.7731 -1.6425
 6167SOL     OW29962   3.224   3.058   3.789  0.3715  0.1080 -0.5104
 6167SOL    HW129963   3.164   3.111   3.736 -0.0656 -0.4824 -0.6187
 6167SOL    HW229964   3.296   3.038   3.730  0.2427  1.1604 -1.0233
 6168SOL     OW29965   1.611   1.403   1.944  0.2351 -0.6390  0.3325
 6168SOL    HW129966   1.612   1.392   2.039 -5.0490 -1.0274  0.3654
 6168SOL    HW229967   1.671   1.339   1.906  1.4925  0.2435  0.8116
 6169SOL     OW29968   2.286   2.747   5.497 -0.1969 -0.1425 -0.3798
 6169SOL    HW129969   2.358   2.729   5.438 -0.1559  1.2869 -0.7691
 6169SOL    HW229970   2.334   2.776   5.574 -0.2876 -1.8584  0.3204
 6170SOL     OW29971   4.662   0.253  14.784  0.3307 -0.5827  0.2438
 6170SOL    HW129972   4.666   0.288  14.695 -2.4204 -1.3214 -0.1479
 6170SOL    HW229973   4.664   0.336  14.833  0.0362  0.0730 -0.8468
 6171SOL     OW29974   1.006   4.145   2.238 -0.2417  0.2795 -0.0724
 6171SOL    HW129975   1.031   4.198   2.162  0.4188 -0.1004 -0.1210
 6171SOL    HW229976   0.970   4.065   2.200  0.2321 -0.0288  0.1203
 6172SOL     OW29977   3.538   0.925   3.835 -0.3553  0.3624  0.2137
 6172SOL    HW129978   3.520   0.833   3.816 -0.3608  0.1920  1.0441
 6172SOL    HW229979   3.598   0.937   3.762 -0.1789 -2.4675 -0.1071
 6173SOL     OW29980   4.047   4.063   8.791 -0.5981  0.1450  0.4712
 6173SOL    HW129981   4.080   4.077   8.880 -1.2132 -0.9152  0.8564
 6173SOL    HW229982   3.986   4.137   8.786  1.2384  1.6757  0.4050
 6174SOL     OW29983   0.469   4.208   6.625  0.0621 -0.4342 -0.0868
 6174SOL    HW129984   0.439   4.195   6.715 -1.1715  0.2619 -0.4139
 6174SOL    HW229985   0.563   4.220   6.643  0.1480 -1.5047  0.2002
 6175SOL     OW29986   3.348   0.365  13.717  0.2601 -0.9830 -0.1779
 6175SOL    HW129987   3.337   0.288  13.773  1.2811 -0.0536  1.3244
 6175SOL    HW229988   3.441   0.389  13.725  0.0049  0.2603 -0.7918
 6176SOL     OW29989   2.075   1.521   8.295 -0.4451 -0.0883 -0.4894
 6176SOL    HW129990   2.038   1.512   8.208  0.3277 -3.0429 -0.5039
 6176SOL    HW229991   2.156   1.479   8.268  0.7299  0.0837  2.7162
 6177SOL     OW29992   4.588   1.167   1.690 -0.3722  0.3531 -0.4065
 6177SOL    HW129993   4.600   1.261   1.677  1.0813  0.0934 -1.0149
 6177SOL    HW229994   4.545   1.158   1.775  1.3146  1.6582  0.5990
 6178SOL     OW29995   2.758   3.042   5.693  0.1316  0.4092  0.2036
 6178SOL    HW129996   2.674   2.997   5.677 -0.3009  0.9889  0.8552
 6178SOL    HW229997   2.727   3.129   5.667 -0.6740  0.0618 -0.0249
 6179SOL     OW29998   1.282   1.056  17.359  0.1298 -0.4888  0.5248
 6179SOL    HW129999   1.240   0.976  17.324 -0.1928 -0.6976  1.3939
 6179SOL    HW230000   1.212   1.115  17.329  1.4615  0.8993  0.2023
 6180SOL     OW30001   3.082   0.419   2.977  0.0168  0.1152  0.0337
 6180SOL    HW130002   3.175   0.439   2.982  0.4317 -2.8967  3.7903
 6180SOL    HW230003   3.076   0.334   2.934 -0.3881 -0.7655  1.8444
 6181SOL     OW30004   3.474   2.135   5.464  0.1839  0.3370  0.2503
 6181SOL    HW130005   3.546   2.116   5.525  0.2938 -0.7127 -0.1966
 6181SOL    HW230006   3.418   2.057   5.465 -1.3843  1.4819  1.7497
 6182SOL     OW30007   0.866   3.250   8.627  0.2360  0.2179  0.5545
 6182SOL    HW130008   0.789   3.302   8.651 -1.7783 -2.3254 -0.4134
 6182SOL    HW230009   0.934   3.313   8.651  0.4898 -0.4946  1.7157
 6183SOL     OW30010   4.198   3.822   5.185  0.2301 -0.1689 -0.2627
 6183SOL    HW130011   4.109   3.791   5.201  0.5380 -0.4682  0.8951
 6183SOL    HW230012   4.207   3.813   5.090 -1.5827 -1.2339 -0.3407
 6184SOL     OW30013   3.598   1.632   3.290  0.5743  0.1889  0.5250
 6184SOL    HW130014   3.585   1.620   3.196  2.0273 -1.7372  0.5831
 6184SOL    HW230015   3.679   1.683   3.289 -0.5584  1.9780 -0.2017
 6185SOL     OW30016   3.780   0.606  17.301  0.0054  0.3169 -0.3746
 6185SOL    HW130017   3.804   0.514  17.287  0.1657  0.4805 -1.1661
 6185SOL    HW230018   3.684   0.602  17.298 -0.0265  1.2636 -0.6917
 6186SOL     OW30019   0.844   3.097   5.047 -0.2687  0.4074 -0.2589
 6186SOL    HW130020   0.809   3.067   5.131  2.4367 -1.3907  0.2281
 6186SOL    HW230021   0.796   3.039   4.988 -0.1885 -0.8251  0.8854
 6187SOL     OW30022   1.015   2.280  13.156 -1.2622  0.5191 -0.0417
 6187SOL    HW130023   0.953   2.352  13.173 -0.6912  0.7683  1.0065
 6187SOL    HW230024   1.093   2.316  13.199 -0.3163  0.1601 -1.4920
 6188SOL     OW30025   3.459   0.025  12.238  0.2979  0.6620 -0.5157
 6188SOL    HW130026   3.511   4.666  12.253 -0.2500  0.7443  1.8558
 6188SOL    HW230027   3.524   0.086  12.203  1.0255 -1.5114 -2.9818
 6189SOL     OW30028   4.609   2.696   7.529  0.2207  0.9000 -0.6435
 6189SOL    HW130029   4.702   2.674   7.537 -0.4446 -0.5997  2.8354
 6189SOL    HW230030   4.588   2.690   7.622  0.0041  1.7521 -0.6334
 6190SOL     OW30031   1.684   4.196   6.182 -0.2227 -0.6844 -0.3837
 6190SOL    HW130032   1.640   4.261   6.127  2.4687 -1.2821 -3.2773
 6190SOL    HW230033   1.731   4.149   6.113  1.5804 -0.4739  0.7093
 6191SOL     OW30034   3.594   3.630   0.985  0.4034  0.2101 -0.2522
 6191SOL    HW130035   3.663   3.689   1.015 -1.1163  1.5165  0.6697
 6191SOL    HW230036   3.584   3.562   1.051  0.1349  0.7343  0.2404
 6192SOL     OW30037   1.163   0.860  17.223 -0.1542 -0.0792  0.1903
 6192SOL    HW130038   1.069   0.864  17.202 -0.5109 -0.1030  1.8129
 6192SOL    HW230039   1.196   0.795  17.160  0.9813  0.6234  0.0685
 6193SOL     OW30040   0.950   4.294   7.945 -0.2184 -0.8053 -1.0182
 6193SOL    HW130041   0.954   4.247   8.028  2.1210  1.0277 -0.1157
 6193SOL    HW230042   0.984   4.378   7.976 -1.8656  0.0759 -1.5613
 6194SOL     OW30043   3.036   0.634  14.312 -0.5391  0.2797  0.9560
 6194SOL    HW130044   3.044   0.653  14.219  1.3191  0.0100  1.0695
 6194SOL    HW230045   3.123   0.611  14.343 -1.3056 -3.7520  0.0831
 6195SOL     OW30046   0.602   1.015  17.216 -0.4225 -0.0736  0.4791
 6195SOL    HW130047   0.519   1.004  17.264 -0.8458 -0.8785 -0.4578
 6195SOL    HW230048   0.585   0.972  17.133  0.6081 -0.5562  0.5200
 6196SOL     OW30049   4.512   0.139   8.431 -0.1545  0.0916 -0.5803
 6196SOL    HW130050   4.473   0.176   8.509 -0.3860 -0.3033 -0.5118
 6196SOL    HW230051   4.439   0.124   8.371 -1.8962  0.3174  1.5180
 6197SOL     OW30052   3.260   3.076   6.108 -0.2296  0.6102 -0.4042
 6197SOL    HW130053   3.195   3.063   6.177  2.2754 -1.1498  1.6309
 6197SOL    HW230054   3.255   3.171   6.104 -1.2137  0.5425 -0.8381
 6198SOL     OW30055   0.603   2.877   2.360  0.0279  0.4868  0.1868
 6198SOL    HW130056   0.510   2.858   2.343 -0.9534  4.4101  1.3433
 6198SOL    HW230057   0.595   2.914   2.448 -2.6343 -1.5770  0.8314
 6199SOL     OW30058   1.356   2.272   5.725  0.3711  0.2079 -0.6165
 6199SOL    HW130059   1.283   2.244   5.780  1.1346  0.7764  0.6835
 6199SOL    HW230060   1.416   2.321   5.781 -0.4678 -0.9728  1.3244
 6200SOL     OW30061   0.452   0.097   6.501  0.9039 -1.2125 -0.0952
 6200SOL    HW130062   0.389   0.132   6.563  1.3281  1.3704 -1.1303
 6200SOL    HW230063   0.420   0.140   6.421  1.2323  1.8466  1.4467
 6201SOL     OW30064   0.551   2.492  15.446 -1.3892 -0.2087 -0.2174
 6201SOL    HW130065   0.586   2.544  15.373 -0.9587  1.1045  0.9378
 6201SOL    HW230066   0.634   2.463  15.481 -2.0772  0.3619  1.8811
 6202SOL     OW30067   3.585   4.212  13.088  0.2075  0.2485  0.2514
 6202SOL    HW130068   3.650   4.277  13.063 -0.8374 -0.3266 -3.8449
 6202SOL    HW230069   3.537   4.207  13.006  2.0643 -1.8012 -0.7194
 6203SOL     OW30070   4.620   0.569   8.126  0.4585 -0.3335  0.0253
 6203SOL    HW130071   4.593   0.540   8.213 -1.1621  1.3585  0.0725
 6203SOL    HW230072   4.534   0.584   8.086  0.2550  1.9420  1.3246
 6204SOL     OW30073   2.569   2.352  16.172  0.3807  0.4921 -0.0557
 6204SOL    HW130074   2.629   2.427  16.177  1.0383 -0.0245 -0.0611
 6204SOL    HW230075   2.612   2.302  16.102 -1.4950 -0.3084 -0.6320
 6205SOL     OW30076   3.006   0.145   8.976 -0.1592 -0.0679 -0.5040
 6205SOL    HW130077   2.918   0.124   8.942 -0.6502 -0.5721  1.0747
 6205SOL    HW230078   3.047   0.113   8.896 -0.5020 -0.5805 -0.4793
 6206SOL     OW30079   2.723   4.708   3.348  0.2083  0.2471 -0.2483
 6206SOL    HW130080   2.640   0.025   3.378 -0.0761  0.0371 -0.7847
 6206SOL    HW230081   2.779   0.056   3.387 -1.5186  0.6871  1.4606
 6207SOL     OW30082   2.027   3.825  10.412 -0.5349  0.6757  0.3534
 6207SOL    HW130083   2.042   3.916  10.384 -1.3731  0.6359 -0.2312
 6207SOL    HW230084   1.945   3.802  10.367 -0.5598  2.3902 -0.4856
 6208SOL     OW30085   3.630   1.809  15.258  0.1683  0.1833  0.0587
 6208SOL    HW130086   3.615   1.725  15.301  0.7189  0.7878  1.4331
 6208SOL    HW230087   3.599   1.867  15.327 -0.5692  0.5273 -0.5517
 6209SOL     OW30088   3.383   2.176   1.897  0.0065  0.6456  0.4164
 6209SOL    HW130089   3.432   2.213   1.970 -0.5697  2.8175 -0.3135
 6209SOL    HW230090   3.367   2.089   1.935  2.2220  0.4451  0.8891
 6210SOL     OW30091   0.134   0.323   4.468  0.2065 -0.1939  0.0803
 6210SOL    HW130092   0.092   0.251   4.516  2.1879 -1.0499  0.5235
 6210SOL    HW230093   0.223   0.329   4.501  0.1522 -0.5636  0.2949
 6211SOL     OW30094   1.858   0.541  15.882 -0.4410  0.8485 -0.2632
 6211SOL    HW130095   1.789   0.545  15.949 -0.4504  0.1646 -0.2331
 6211SOL    HW230096   1.902   0.626  15.883  0.8095  0.1945  0.1785
 6212SOL     OW30097   0.151   2.622   7.523 -0.0669  0.6232  0.4855
 6212SOL    HW130098   0.211   2.547   7.524  0.1035  0.7632  0.7131
 6212SOL    HW230099   0.211   2.694   7.542  0.7079 -0.1420  0.9334
 6213SOL     OW30100   4.409   2.256   6.352  0.1219 -0.3369 -0.0501
 6213SOL    HW130101   4.453   2.279   6.270 -0.8445 -1.0487 -0.7633
 6213SOL    HW230102   4.468   2.189   6.385 -0.6921 -1.3971 -0.7564
 6214SOL     OW30103   0.248   1.304  14.521  0.7965  0.1209 -0.5971
 6214SOL    HW130104   0.301   1.280  14.597  2.3653 -0.1829 -1.7699
 6214SOL    HW230105   0.230   1.216  14.487 -0.6870  0.8412 -1.6589
 6215SOL     OW30106   0.829   1.050   3.383 -0.7341  0.4556  0.3461
 6215SOL    HW130107   0.858   1.115   3.319 -1.5030 -0.3139 -0.7795
 6215SOL    HW230108   0.886   1.058   3.460 -1.5878 -0.2658  1.0519
 6216SOL     OW30109   2.430   1.191   7.662  0.1401 -0.1814 -0.1598
 6216SOL    HW130110   2.335   1.202   7.669  0.0944 -0.5326 -0.2399
 6216SOL    HW230111   2.452   1.123   7.725  1.1988  1.4301  1.1986
 6217SOL     OW30112   4.676   4.498   8.847  0.1614  0.0220  0.3707
 6217SOL    HW130113   4.617   4.508   8.772 -2.7492 -0.6087  2.5655
 6217SOL    HW230114   0.010   4.576   8.831  0.2621  0.0229  0.7233
 6218SOL     OW30115   4.253   1.066   7.211  0.4061 -0.0245  0.1072
 6218SOL    HW130116   4.230   1.082   7.119  0.7133 -0.8812 -0.1173
 6218SOL    HW230117   4.338   1.023   7.199  0.8503  0.3230  1.9829
 6219SOL     OW30118   3.018   3.232  14.385 -0.3094 -0.0413 -0.3227
 6219SOL    HW130119   2.930   3.207  14.357  0.6112 -1.4210 -1.9848
 6219SOL    HW230120   3.063   3.148  14.383 -2.3895 -1.1902  0.7550
 6220SOL     OW30121   1.370   2.939   9.846  0.6706 -0.1854  0.2002
 6220SOL    HW130122   1.383   2.939   9.941  4.7857 -1.0942 -0.3525
 6220SOL    HW230123   1.381   2.848   9.817 -0.1029 -0.1826 -0.0842
 6221SOL     OW30124   0.371   1.798   1.761 -0.2189  0.2589  0.3901
 6221SOL    HW130125   0.435   1.864   1.734  0.9383 -0.8258  0.4814
 6221SOL    HW230126   0.357   1.828   1.850 -2.1424 -2.9504  1.1850
 6222SOL     OW30127   0.904   3.424  10.759 -0.0702  0.1423  0.1706
 6222SOL    HW130128   0.961   3.370  10.814  1.2318  2.6914  1.3462
 6222SOL    HW230129   0.826   3.370  10.747 -0.4591  0.6869  0.2391
 6223SOL     OW30130   0.616   2.145  14.201  0.1505  0.4674 -0.6327
 6223SOL    HW130131   0.534   2.116  14.161  0.9913 -0.6653 -1.5516
 6223SOL    HW230132   0.594   2.227  14.244 -3.1853 -1.5356  1.5133
 6224SOL     OW30133   0.275   3.365  11.608  0.3175  0.8820 -0.0044
 6224SOL    HW130134   0.211   3.330  11.671  0.7061  0.5267  0.1938
 6224SOL    HW230135   0.245   3.326  11.526  0.2236 -1.7983  1.2920
 6225SOL     OW30136   4.392   4.118   4.535  0.1226 -0.3018  0.4553
 6225SOL    HW130137   4.415   4.086   4.622  1.1408 -0.1267  0.2477
 6225SOL    HW230138   4.407   4.211   4.552 -1.8941  0.9496 -4.5786
 6226SOL     OW30139   1.315   0.984   2.789  0.1551  0.1565  0.6921
 6226SOL    HW130140   1.390   0.940   2.830 -1.5708 -0.3197  3.3386
 6226SOL    HW230141   1.309   0.945   2.702  0.5872  0.3648  0.5691
 6227SOL     OW30142   0.660   4.485   7.156 -0.4293  0.4276  0.4026
 6227SOL    HW130143   0.740   4.502   7.106  0.9715 -1.4970  1.9930
 6227SOL    HW230144   0.602   4.556   7.127 -2.0175 -0.6971  0.8403
 6228SOL     OW30145   0.031   0.021  11.430 -0.0890 -0.5084  0.0152
 6228SOL    HW130146   0.066   4.657  11.400 -1.0673 -0.7842 -0.3708
 6228SOL    HW230147   0.080   0.038  11.511  0.9268 -0.0555 -0.6998
 6229SOL     OW30148   3.227   2.639   8.560 -0.2130 -0.1448  0.0411
 6229SOL    HW130149   3.260   2.550   8.570 -1.8059 -0.8531 -1.0735
 6229SOL    HW230150   3.133   2.625   8.570 -0.3717  0.8685 -0.0675
 6230SOL     OW30151   4.388   3.801   5.539 -0.0339 -0.1412  0.1669
 6230SOL    HW130152   4.420   3.833   5.455  0.2901 -0.9868 -0.0288
 6230SOL    HW230153   4.465   3.804   5.596  0.4551 -0.7405 -0.4710
 6231SOL     OW30154   4.509   2.952   5.158 -0.6055  0.0896 -0.1368
 6231SOL    HW130155   4.438   2.966   5.220 -1.7286 -2.2702 -0.9074
 6231SOL    HW230156   4.478   2.885   5.096 -2.3023  0.7809 -0.0228
 6232SOL     OW30157   1.913   2.274  11.680  0.0960  0.0369  0.0553
 6232SOL    HW130158   1.834   2.328  11.677  0.8867  1.1905  0.1890
 6232SOL    HW230159   1.921   2.267  11.775  1.3705 -0.7908 -0.1180
 6233SOL     OW30160   2.236   0.550   9.644  0.4440 -0.2415 -0.2789
 6233SOL    HW130161   2.238   0.482   9.577  1.9501  0.2101 -0.6882
 6233SOL    HW230162   2.300   0.612   9.609 -0.3558  0.9912  0.4345
 6234SOL     OW30163   3.292   0.798   6.745  0.0489 -0.1004  0.6628
 6234SOL    HW130164   3.267   0.889   6.762 -0.2814  0.1231 -1.0875
 6234SOL    HW230165   3.223   0.759   6.692  0.8401  0.0208 -0.4396
 6235SOL     OW30166   0.223   1.010  12.170  0.1876 -0.0406 -0.3226
 6235SOL    HW130167   0.270   1.036  12.091  3.1304 -2.0356  0.7826
 6235SOL    HW230168   0.240   0.917  12.162  0.9316  0.1541 -0.9285
 6236SOL     OW30169   2.024   2.684   7.583  0.8993 -0.3950  0.1654
 6236SOL    HW130170   2.034   2.589   7.593 -0.2722 -0.2618  2.6497
 6236SOL    HW230171   2.024   2.709   7.675 -0.7193  1.2246 -0.2694
 6237SOL     OW30172   4.625   4.153   2.898  0.1596 -0.1798 -0.0762
 6237SOL    HW130173   4.675   4.198   2.965 -1.6022  3.2729 -1.1075
 6237SOL    HW230174   4.558   4.114   2.954 -0.1627  0.5472  0.0344
 6238SOL     OW30175   1.954   3.274   3.368  0.2174 -0.0223 -0.1165
 6238SOL    HW130176   1.949   3.301   3.460  0.2884 -0.5041  0.0320
 6238SOL    HW230177   2.047   3.284   3.349 -0.1360  0.5604 -1.4820
 6239SOL     OW30178   0.903   0.870  10.693  0.1562  0.0717 -0.1852
 6239SOL    HW130179   0.837   0.808  10.722  0.9427 -0.3015  0.7967
 6239SOL    HW230180   0.970   0.873  10.761  0.6905  2.6309 -0.7898
 6240SOL     OW30181   3.142   0.420  12.613 -0.0983  0.6584 -0.0181
 6240SOL    HW130182   3.123   0.327  12.601 -2.5158  1.1558  0.1086
 6240SOL    HW230183   3.218   0.414  12.671  0.7345 -2.2925 -1.4379
 6241SOL     OW30184   2.963   4.476   0.010 -0.4129 -0.0874 -0.4120
 6241SOL    HW130185   2.992   4.549  17.637 -0.7829  1.5528  1.5684
 6241SOL    HW230186   2.869   4.486  17.676 -0.8893 -3.9467  0.0352
 6242SOL     OW30187   3.465   2.035  11.032  0.3227  0.2495 -0.8265
 6242SOL    HW130188   3.450   2.121  10.993 -3.6019  0.1458  0.3987
 6242SOL    HW230189   3.480   2.060  11.123  0.2503  0.4085 -0.8587
 6243SOL     OW30190   2.142   4.612   3.901  0.0870 -0.1622 -0.0688
 6243SOL    HW130191   2.065   4.556   3.897  1.2337 -1.5141 -2.8742
 6243SOL    HW230192   2.128   4.650   3.988 -1.9428 -1.5736  0.2227
 6244SOL     OW30193   2.523   0.018   4.033 -0.6559 -0.1143  0.2836
 6244SOL    HW130194   2.511   4.662   4.091  0.2233  0.7384  1.5949
 6244SOL    HW230195   2.473   0.088   4.075 -0.9098 -1.3438  2.0508
 6245SOL     OW30196   3.709   0.690   6.905 -0.0607  0.3697  0.1668
 6245SOL    HW130197   3.732   0.622   6.969 -1.6360  0.0644  0.4101
 6245SOL    HW230198   3.613   0.686   6.909 -0.0272 -0.1959  0.5754
 6246SOL     OW30199   3.563   3.419   6.325  0.2546  0.4020 -0.4502
 6246SOL    HW130200   3.609   3.480   6.383 -1.4177  2.2006 -1.0322
 6246SOL    HW230201   3.610   3.438   6.244 -0.0821 -1.8719 -1.1697
 6247SOL     OW30202   0.466   1.902   9.111 -0.2914  0.1105 -0.5525
 6247SOL    HW130203   0.394   1.843   9.132  0.3612 -0.0980  1.1116
 6247SOL    HW230204   0.427   1.973   9.161  1.0471  0.3458  0.1543
 6248SOL     OW30205   1.845   1.065  11.329  0.2510 -0.1967 -0.3514
 6248SOL    HW130206   1.905   1.139  11.322 -1.5056  1.2195 -0.4208
 6248SOL    HW230207   1.769   1.118  11.352  0.5174 -0.0015  0.0990
 6249SOL     OW30208   0.715   4.564   6.016  0.3317 -0.1229 -0.1503
 6249SOL    HW130209   0.690   4.617   5.940  0.8869 -0.1932 -0.3807
 6249SOL    HW230210   0.652   4.492   6.007  0.9542 -0.9269  1.9563
 6250SOL     OW30211   2.441   0.724   9.580 -0.5175  0.0491 -0.4656
 6250SOL    HW130212   2.509   0.735   9.647  1.3503 -2.6401 -1.9390
 6250SOL    HW230213   2.487   0.656   9.531 -0.5683  0.4308 -1.0383
 6251SOL     OW30214   4.436   4.625  14.011 -0.1058 -0.0282  0.0893
 6251SOL    HW130215   4.504   4.600  14.073  0.1130  1.5444  0.4966
 6251SOL    HW230216   4.394   4.540  14.004  1.6272 -0.8363 -0.4592
 6252SOL     OW30217   1.497   2.332   8.321  0.1406 -0.1601  0.3605
 6252SOL    HW130218   1.486   2.294   8.233  0.8263  0.2599  0.0985
 6252SOL    HW230219   1.408   2.315   8.353 -0.7829 -1.2941 -2.7459
 6253SOL     OW30220   1.565   3.002   2.568  0.0988  0.4040 -0.0734
 6253SOL    HW130221   1.613   3.041   2.494 -1.0802  1.2991 -0.3707
 6253SOL    HW230222   1.507   3.077   2.581  0.4791  0.4913  1.1004
 6254SOL     OW30223   0.017   2.096   3.238 -0.1350  0.8227  0.1107
 6254SOL    HW130224   0.015   2.001   3.250 -1.4670  0.4920 -2.8204
 6254SOL    HW230225   4.659   2.107   3.183 -0.2869  0.4774  0.2563
 6255SOL     OW30226   1.127   4.611   4.385 -0.1047  0.0112 -0.0946
 6255SOL    HW130227   1.129   4.703   4.413 -2.2247  0.2163 -0.6152
 6255SOL    HW230228   1.201   4.612   4.324 -0.1836  2.3748 -0.1539
 6256SOL     OW30229   2.789   2.338  10.715  0.0662  0.2088 -0.8369
 6256SOL    HW130230   2.774   2.407  10.779 -1.3799 -0.0168 -0.9430
 6256SOL    HW230231   2.729   2.270  10.746 -0.8375  0.0592 -2.8968
 6257SOL     OW30232   0.204   3.536  15.163  0.5068 -0.2170  0.3751
 6257SOL    HW130233   0.143   3.464  15.144  0.2304 -0.4781  2.2940
 6257SOL    HW230234   0.171   3.561  15.249 -0.6117  0.6945 -0.3183
 6258SOL     OW30235   1.466   1.369   2.799 -0.4297 -0.1907  0.0177
 6258SOL    HW130236   1.548   1.376   2.847  0.6565  0.3923 -1.9026
 6258SOL    HW230237   1.476   1.451   2.749  3.6740  1.1617  3.0919
 6259SOL     OW30238   3.105   0.619   6.386  0.2739 -0.0310 -0.1634
 6259SOL    HW130239   3.165   0.575   6.446  0.7551  2.0063  0.8598
 6259SOL    HW230240   3.152   0.701   6.371 -0.4899  0.5742  0.7342
 6260SOL     OW30241   0.903   0.670  14.945  0.0175  0.2779 -0.3874
 6260SOL    HW130242   0.831   0.733  14.947 -0.2403 -0.0558  1.0813
 6260SOL    HW230243   0.895   0.619  15.026  2.2350  0.5048 -0.0215
 6261SOL     OW30244   4.504   3.635   6.359  0.2646  0.6531 -0.0311
 6261SOL    HW130245   4.512   3.646   6.454  0.0361  0.4230  0.0162
 6261SOL    HW230246   4.556   3.558   6.340 -0.6164  0.2648 -0.8697
 6262SOL     OW30247   3.791   3.220   0.408  0.2367 -0.1214  0.5787
 6262SOL    HW130248   3.856   3.219   0.479 -1.3521  0.2140  2.0389
 6262SOL    HW230249   3.729   3.158   0.445  0.0347  0.4163  1.1504
 6263SOL     OW30250   0.920   1.822   9.612  0.5854 -0.5190 -0.5738
 6263SOL    HW130251   0.895   1.732   9.591 -1.7475  0.0814 -0.3038
 6263SOL    HW230252   0.836   1.847   9.651  2.0487 -0.1104  2.3767
 6264SOL     OW30253   0.235   1.701   9.186  0.1167  0.6538  0.3293
 6264SOL    HW130254   0.217   1.609   9.203 -0.5695  0.9943  1.4743
 6264SOL    HW230255   0.209   1.726   9.275  0.1269  2.3675 -0.1423
 6265SOL     OW30256   4.291   4.073   6.368  0.2151  0.6335 -0.5742
 6265SOL    HW130257   4.321   3.993   6.412 -1.7074 -0.0005 -0.4081
 6265SOL    HW230258   4.197   4.058   6.379  0.4808  1.1961  2.4393
 6266SOL     OW30259   0.608   2.825  10.151 -0.2519  0.2653 -0.3405
 6266SOL    HW130260   0.520   2.803  10.181  0.1313  1.4785  1.7155
 6266SOL    HW230261   0.600   2.810  10.057  1.2226 -1.3256 -0.2131
 6267SOL     OW30262   3.340   4.226   6.110 -0.4515  0.4837 -0.0254
 6267SOL    HW130263   3.383   4.143   6.126 -0.0691  0.5148 -0.8572
 6267SOL    HW230264   3.303   4.207   6.024 -1.4500  1.8612  0.0949
 6268SOL     OW30265   3.444   2.194   1.306 -0.1840  0.3090  0.1437
 6268SOL    HW130266   3.487   2.203   1.222 -1.2473 -1.2137 -0.5797
 6268SOL    HW230267   3.358   2.232   1.287 -0.8016 -2.1682 -1.9654
 6269SOL     OW30268   3.853   3.079   4.160  0.0276  0.0924 -0.0313
 6269SOL    HW130269   3.890   3.160   4.124  2.4074 -0.7023  0.6124
 6269SOL    HW230270   3.762   3.085   4.129  0.3840  1.1024 -0.8747
 6270SOL     OW30271   0.863   0.903   1.900  0.3051 -0.6016 -0.0990
 6270SOL    HW130272   0.947   0.868   1.929  1.1246  2.2957  1.0314
 6270SOL    HW230273   0.856   0.856   1.817  1.5545 -1.2063  0.1305
 6271SOL     OW30274   2.049   0.845   5.689  0.5223 -0.0689  0.4449
 6271SOL    HW130275   2.078   0.757   5.714 -0.6427 -0.1070  1.7093
 6271SOL    HW230276   1.979   0.845   5.754 -0.9434 -3.3119 -1.0938
 6272SOL     OW30277   3.445   1.786   7.323 -0.1725 -0.3881  0.4735
 6272SOL    HW130278   3.387   1.819   7.254 -0.5607  0.2343  1.0905
 6272SOL    HW230279   3.388   1.717   7.356 -2.7142  0.7465 -1.5350
 6273SOL     OW30280   2.651   2.590   8.191 -0.5526  0.0578  0.2366
 6273SOL    HW130281   2.744   2.605   8.174 -0.7562 -1.5406 -2.3853
 6273SOL    HW230282   2.630   2.666   8.244 -1.3390 -0.8906  1.3011
 6274SOL     OW30283   2.933   4.506   3.246  0.6623 -0.1594 -0.3197
 6274SOL    HW130284   2.963   4.446   3.314  0.6330  1.7689  1.3847
 6274SOL    HW230285   2.877   4.558   3.304  1.5897  0.5545 -0.0570
 6275SOL     OW30286   3.731   1.126  16.078  0.1301  0.0594  0.3004
 6275SOL    HW130287   3.727   1.050  16.021  1.0671 -0.0219  0.3508
 6275SOL    HW230288   3.814   1.170  16.062  0.2241 -0.6058 -1.0017
 6276SOL     OW30289   4.324   4.521   5.436 -0.0345  0.0548 -0.4277
 6276SOL    HW130290   4.353   4.514   5.527  0.7153  2.4480 -0.4792
 6276SOL    HW230291   4.369   4.604   5.416 -0.1331 -0.0882 -1.2576
 6277SOL     OW30292   3.051   0.789   7.797  0.2656 -0.0965  0.1318
 6277SOL    HW130293   3.140   0.811   7.826 -0.1265  0.5351  0.8327
 6277SOL    HW230294   3.062   0.740   7.715 -2.3189  1.6208 -1.2125
 6278SOL     OW30295   0.689   3.047   9.235  0.2011  0.2538 -0.2637
 6278SOL    HW130296   0.692   3.128   9.286  1.1591 -0.0765  0.1897
 6278SOL    HW230297   0.779   3.054   9.205  0.0188  0.4739 -0.7786
 6279SOL     OW30298   3.352   3.686   2.401  0.2974 -0.2909 -0.2615
 6279SOL    HW130299   3.367   3.772   2.438  0.4839 -0.2497 -0.4329
 6279SOL    HW230300   3.429   3.638   2.433  1.4754  1.2831 -0.7309
 6280SOL     OW30301   1.584   3.776  13.661  0.6622 -0.5136 -0.2405
 6280SOL    HW130302   1.543   3.849  13.614 -0.4576 -0.8937  0.1573
 6280SOL    HW230303   1.670   3.817  13.664 -0.0223  0.9065 -0.0421
 6281SOL     OW30304   4.182   4.455   4.905 -0.5596 -0.6112 -0.1394
 6281SOL    HW130305   4.166   4.547   4.881 -0.5563  0.3107  3.3823
 6281SOL    HW230306   4.207   4.466   4.997  1.0119 -0.1458 -0.6250
 6282SOL     OW30307   0.056   3.754  11.389 -0.0457  0.3338 -0.2388
 6282SOL    HW130308   0.024   3.827  11.336  0.6723 -0.5829 -1.9347
 6282SOL    HW230309   4.692   3.743  11.434  0.6097  0.9852  1.1619
 6283SOL     OW30310   0.258   0.655   2.762 -0.3166 -0.3404  0.5420
 6283SOL    HW130311   0.180   0.698   2.730 -0.2508 -0.5403  0.1177
 6283SOL    HW230312   0.320   0.727   2.750 -0.2518 -0.0153  2.7636
 6284SOL     OW30313   4.542   0.558   3.755 -0.3102  0.0300  0.1468
 6284SOL    HW130314   4.468   0.545   3.696 -2.8206  3.7064  2.4881
 6284SOL    HW230315   4.511   0.519   3.837 -0.0795  0.3130  0.3698
 6285SOL     OW30316   2.224   0.227  16.895 -0.1882  0.3878 -0.0788
 6285SOL    HW130317   2.203   0.191  16.982  1.7876  0.4042  0.4200
 6285SOL    HW230318   2.218   0.320  16.914 -0.9825  0.2980  0.1084
 6286SOL     OW30319   1.709   2.579   5.283  0.7814 -0.2329  0.3740
 6286SOL    HW130320   1.767   2.647   5.318 -1.2008  0.9979  1.2036
 6286SOL    HW230321   1.743   2.500   5.324 -2.5051 -1.5308  0.5276
 6287SOL     OW30322   2.288   2.037   2.559  0.0572 -0.0299 -0.1863
 6287SOL    HW130323   2.377   2.013   2.533 -0.3300 -0.9336 -0.6654
 6287SOL    HW230324   2.252   2.083   2.484 -0.4070 -0.5319 -0.2665
 6288SOL     OW30325   4.312   1.820   6.678 -0.1125 -0.3660 -0.7533
 6288SOL    HW130326   4.239   1.813   6.739 -0.2662  1.4210 -0.7184
 6288SOL    HW230327   4.276   1.788   6.595  1.6493  0.8899 -2.0247
 6289SOL     OW30328   1.684   1.981  14.268 -0.5461 -0.1081 -0.4625
 6289SOL    HW130329   1.602   2.029  14.252  0.7115  1.6550 -1.5455
 6289SOL    HW230330   1.686   1.968  14.363  1.3804  0.2069 -0.4715
 6290SOL     OW30331   1.233   3.548   3.893  0.2278  0.6364 -0.6085
 6290SOL    HW130332   1.271   3.465   3.867 -0.3101  0.2592 -0.2069
 6290SOL    HW230333   1.138   3.535   3.884  0.2041  1.6156 -1.7704
 6291SOL     OW30334   0.207   2.466   7.767 -0.0650 -0.2262  0.3521
 6291SOL    HW130335   0.260   2.534   7.808 -1.8441  0.9639  0.6782
 6291SOL    HW230336   0.269   2.394   7.780 -0.7606 -1.1542 -1.4579
 6292SOL     OW30337   2.900   1.230   3.082 -0.3189 -0.1915  0.2682
 6292SOL    HW130338   2.921   1.310   3.034 -1.0016 -1.3574 -1.9540
 6292SOL    HW230339   2.917   1.170   3.010 -0.3772  0.2193 -0.0861
 6293SOL     OW30340   0.662   2.068  14.466 -0.8858  0.3874 -1.0276
 6293SOL    HW130341   0.643   2.134  14.399 -1.0464 -0.0683 -1.4337
 6293SOL    HW230342   0.611   2.000  14.421 -1.2137 -0.4587  0.6417
 6294SOL     OW30343   4.142   0.425   5.935 -0.0131 -0.5293 -0.1043
 6294SOL    HW130344   4.163   0.484   6.007  0.4971 -0.8769  0.0262
 6294SOL    HW230345   4.105   0.470   5.858  2.3988  1.6065 -0.0234
 6295SOL     OW30346   2.946   3.080   4.949 -0.4001 -0.1945 -0.5697
 6295SOL    HW130347   2.872   3.060   5.006  1.2416  0.2773  1.7349
 6295SOL    HW230348   3.021   3.048   5.000 -0.3727 -0.9655 -1.1052
 6296SOL     OW30349   0.135   2.311   5.629  0.0040 -0.4189  0.0223
 6296SOL    HW130350   0.093   2.394   5.608 -1.5878 -0.7649  1.7918
 6296SOL    HW230351   0.099   2.253   5.562 -0.1411 -1.2994  0.8651
 6297SOL     OW30352   2.317   3.195   4.164 -0.4987 -0.4465  0.2269
 6297SOL    HW130353   2.399   3.187   4.115 -0.2040 -0.2065  0.6799
 6297SOL    HW230354   2.326   3.275   4.215 -2.9021 -0.8558  1.3140
 6298SOL     OW30355   3.748   2.944  12.566 -0.4757  0.1920 -0.1943
 6298SOL    HW130356   3.756   2.924  12.473  3.8823  1.9865 -0.2229
 6298SOL    HW230357   3.741   2.860  12.611  0.2594 -0.2638 -0.9367
 6299SOL     OW30358   1.016   3.829   3.848  0.1860  0.1721 -0.0394
 6299SOL    HW130359   1.018   3.733   3.849  0.6301  0.1908  0.5998
 6299SOL    HW230360   1.005   3.851   3.755  0.9879 -0.6650 -0.3373
 6300SOL     OW30361   1.206   1.504   7.803  0.5945 -0.3026  0.3404
 6300SOL    HW130362   1.237   1.492   7.713 -2.2407  2.3479 -0.9779
 6300SOL    HW230363   1.267   1.571   7.834  0.6970 -0.4266  0.4087
 6301SOL     OW30364   4.149   3.399  12.909  0.0599 -0.3922 -0.4184
 6301SOL    HW130365   4.130   3.447  12.990 -0.7915 -0.4752 -0.5675
 6301SOL    HW230366   4.077   3.337  12.896 -1.0004  0.4858  1.1586
 6302SOL     OW30367   1.740   2.790  11.427  0.2102  0.0515  0.2977
 6302SOL    HW130368   1.830   2.766  11.451  0.2149 -0.7398 -0.5170
 6302SOL    HW230369   1.737   2.883  11.450 -2.1340  0.1500 -0.4531
 6303SOL     OW30370   0.376   4.066   5.899 -0.1947  0.0340 -0.4095
 6303SOL    HW130371   0.366   3.971   5.891 -0.9735  0.3564 -3.0369
 6303SOL    HW230372   0.338   4.075   5.987  0.6556  1.4895 -0.1971
 6304SOL     OW30373   1.081   2.839   8.429 -0.0168  0.0972 -0.3635
 6304SOL    HW130374   1.038   2.754   8.419  1.6439 -0.5065 -2.4426
 6304SOL    HW230375   1.092   2.847   8.524  0.0220 -0.1181 -0.3498
 6305SOL     OW30376   3.436   1.468   6.626 -0.9728 -0.4396 -0.0113
 6305SOL    HW130377   3.394   1.542   6.669 -1.5409 -2.0972  2.2603
 6305SOL    HW230378   3.436   1.476   6.530  0.4188  2.6238  0.2146
 6306SOL     OW30379   2.957   0.479   9.369 -0.0110  0.3586 -0.1742
 6306SOL    HW130380   2.923   0.456   9.282 -1.2646  1.4626  0.0348
 6306SOL    HW230381   3.031   0.538   9.353  1.1226 -0.7010  1.1376
 6307SOL     OW30382   3.457   2.375  14.363  0.4421 -0.4955 -0.1267
 6307SOL    HW130383   3.551   2.363  14.348  0.6351 -0.2770  0.8959
 6307SOL    HW230384   3.453   2.470  14.351 -0.5238 -0.5818 -0.5074
 6308SOL     OW30385   2.849   2.407   9.935 -0.7587  0.5254  0.0229
 6308SOL    HW130386   2.818   2.341   9.997  0.2295 -1.0281 -1.1346
 6308SOL    HW230387   2.805   2.383   9.853  1.3679 -0.0805 -0.9421
 6309SOL     OW30388   3.679   3.776   2.110  0.5155  0.3632  0.7054
 6309SOL    HW130389   3.599   3.796   2.063  2.0202 -0.3321 -2.1293
 6309SOL    HW230390   3.727   3.737   2.037 -1.2032  1.8066 -1.1791
 6310SOL     OW30391   2.364   4.524  16.247 -0.4463 -0.2728  0.8166
 6310SOL    HW130392   2.327   4.449  16.201  2.6073 -2.0439  1.1906
 6310SOL    HW230393   2.387   4.583  16.175  0.5314 -0.3123  1.0862
 6311SOL     OW30394   1.533   2.820   0.438  0.4832  0.1712 -0.3175
 6311SOL    HW130395   1.548   2.730   0.464 -1.6534  0.2720  1.2997
 6311SOL    HW230396   1.445   2.837   0.472  0.1212 -0.3050 -1.0117
 6312SOL     OW30397   3.736   0.385  13.122 -0.0906 -0.1878 -0.2521
 6312SOL    HW130398   3.801   0.324  13.087  0.3697  0.1862 -0.0522
 6312SOL    HW230399   3.788   0.460  13.151  0.6930 -0.9416  0.2988
 6313SOL     OW30400   2.392   1.173   9.181 -0.0542 -0.1476 -0.0452
 6313SOL    HW130401   2.330   1.102   9.199 -0.7484  0.4890  0.0305
 6313SOL    HW230402   2.426   1.203   9.266 -0.5672  0.9744 -0.2384
 6314SOL     OW30403   2.735   1.723   8.869 -0.3821  0.2348  0.2556
 6314SOL    HW130404   2.729   1.751   8.778 -0.8981 -0.2375  0.1398
 6314SOL    HW230405   2.782   1.799   8.903 -2.5768  1.8201 -0.2333
 6315SOL     OW30406   2.628   1.904   3.783 -0.1721 -0.2279 -0.4137
 6315SOL    HW130407   2.712   1.863   3.764  0.8314  1.6108  0.1288
 6315SOL    HW230408   2.611   1.957   3.705 -0.6848  1.4948  0.8631
 6316SOL     OW30409   0.218   1.912  10.343 -0.9296 -0.2059  0.2175
 6316SOL    HW130410   0.237   1.900  10.436 -0.7164 -0.5392  0.1291
 6316SOL    HW230411   0.196   2.005  10.338  1.6889  0.5744  2.9740
 6317SOL     OW30412   2.014   3.174   4.101  0.1906  0.1551  0.4004
 6317SOL    HW130413   1.985   3.084   4.114 -0.7289  0.5916  1.2802
 6317SOL    HW230414   2.110   3.165   4.104  0.4592  2.4779 -1.0145
 6318SOL     OW30415   2.784   4.380   8.329  0.5191  0.0409  0.0426
 6318SOL    HW130416   2.814   4.341   8.411 -2.0747  0.2340  1.0853
 6318SOL    HW230417   2.697   4.341   8.328 -0.2358  1.6628  1.4056
 6319SOL     OW30418   2.056   2.048   1.664  0.3118 -0.0978 -0.1670
 6319SOL    HW130419   2.138   2.012   1.631  0.2489 -1.0914  0.7671
 6319SOL    HW230420   2.030   2.104   1.591  0.0859 -3.0188 -2.3375
 6320SOL     OW30421   0.408   1.847  10.058 -0.0065  0.1092  0.1974
 6320SOL    HW130422   0.380   1.853   9.967  0.7077  1.7524  0.0766
 6320SOL    HW230423   0.460   1.928  10.062 -0.2394  0.3882 -2.5709
 6321SOL     OW30424   0.881   3.413   7.118 -0.3941  0.2958  0.0467
 6321SOL    HW130425   0.907   3.393   7.208 -1.1615  2.1833  0.7040
 6321SOL    HW230426   0.926   3.338   7.079  0.6171  0.8865  0.0543
 6322SOL     OW30427   4.506   2.012   8.616 -0.1742 -0.3070  0.4261
 6322SOL    HW130428   4.556   2.090   8.639  0.7368 -0.2511 -1.7716
 6322SOL    HW230429   4.531   1.951   8.685  1.6477  0.7876  0.7143
 6323SOL     OW30430   1.386   0.875   8.575 -0.2118  0.0466  0.4771
 6323SOL    HW130431   1.468   0.841   8.610 -0.3290 -1.2991 -0.5676
 6323SOL    HW230432   1.388   0.967   8.603 -0.4776 -0.2307  1.4222
 6324SOL     OW30433   0.005   3.279  10.335  0.3086 -0.2636  0.4887
 6324SOL    HW130434   4.649   3.315  10.381 -0.6833 -0.5635 -0.9091
 6324SOL    HW230435   0.021   3.339  10.262  0.9121  1.7324  2.2722
 6325SOL     OW30436   1.651   4.295   2.403  0.0747  0.0887  0.1739
 6325SOL    HW130437   1.610   4.293   2.317 -0.3862 -1.4109  0.4416
 6325SOL    HW230438   1.610   4.374   2.439 -3.0161 -1.9686  1.0900
 6326SOL     OW30439   2.647   3.658   6.314 -0.2374  0.5135  0.3743
 6326SOL    HW130440   2.621   3.576   6.272  0.5540 -0.6558  2.1968
 6326SOL    HW230441   2.708   3.630   6.382 -2.2012 -1.3424  1.3937
 6327SOL     OW30442   0.127   0.122   3.193  0.3130  0.1360  0.1275
 6327SOL    HW130443   0.220   0.131   3.171  0.5603 -0.3619  0.9818
 6327SOL    HW230444   0.088   0.177   3.124  1.2416 -0.2425 -0.6991
 6328SOL     OW30445   0.931   2.624   4.658 -0.4511 -0.4490  0.4165
 6328SOL    HW130446   0.929   2.720   4.663  1.3753 -0.4806  1.5162
 6328SOL    HW230447   0.901   2.609   4.747 -1.2521  0.0057  0.2240
 6329SOL     OW30448   1.468   3.261   2.693 -0.3617 -0.5138  0.1559
 6329SOL    HW130449   1.410   3.278   2.767 -0.9215  0.5885 -0.5286
 6329SOL    HW230450   1.429   3.290   2.611 -0.1458 -0.7931 -0.0467
 6330SOL     OW30451   2.713   1.314   8.457 -0.1940  0.3123  0.1565
 6330SOL    HW130452   2.713   1.408   8.436  2.0338  0.1905 -0.4390
 6330SOL    HW230453   2.662   1.323   8.538  1.4381 -0.2500  1.2461
 6331SOL     OW30454   2.262   3.333   2.128 -0.0496 -0.1713  0.0173
 6331SOL    HW130455   2.329   3.368   2.070  0.6353 -2.0142 -0.3302
 6331SOL    HW230456   2.296   3.246   2.152  2.4991  1.0391  0.8062
 6332SOL     OW30457   2.640   0.979  11.726  0.2731 -0.2848  0.6560
 6332SOL    HW130458   2.626   1.064  11.768 -0.0192  0.1715 -0.3464
 6332SOL    HW230459   2.735   0.980  11.735  0.3178  3.1458 -0.0298
 6333SOL     OW30460   1.015   0.964  17.436  0.0242  0.5320  0.6978
 6333SOL    HW130461   1.041   0.933  17.523 -1.9052  0.4452  1.2297
 6333SOL    HW230462   1.080   0.914  17.386  0.7409  1.1351  1.0339
 6334SOL     OW30463   4.051   0.067   8.037  0.0632  0.0266 -0.0325
 6334SOL    HW130464   4.128   0.067   8.095 -0.0673 -2.4784  0.1336
 6334SOL    HW230465   3.982   0.024   8.087  0.7699 -1.9928 -0.7875
 6335SOL     OW30466   2.908   0.269   6.633  0.2238  0.0472  0.3082
 6335SOL    HW130467   2.930   0.356   6.603 -0.3502 -1.2242 -3.7436
 6335SOL    HW230468   2.916   0.221   6.551  0.5887 -1.8576  1.4470
 6336SOL     OW30469   2.910   0.577   8.771  0.1849 -0.2705  0.1075
 6336SOL    HW130470   2.962   0.503   8.740 -1.7646 -2.4549  2.0265
 6336SOL    HW230471   2.975   0.647   8.779 -4.8883  4.2421  1.5736
 6337SOL     OW30472   4.136   0.304  11.641 -0.9197  0.3363 -0.1152
 6337SOL    HW130473   4.071   0.374  11.632  0.2502  1.3446 -0.8473
 6337SOL    HW230474   4.077   0.234  11.669 -0.9279 -0.1304 -1.3240
 6338SOL     OW30475   4.000   3.047  12.680  0.2160 -0.3102 -0.0528
 6338SOL    HW130476   4.051   3.048  12.599 -1.3714 -0.8801 -1.0761
 6338SOL    HW230477   3.912   3.026  12.649  0.1190  0.1697 -0.1010
 6339SOL     OW30478   1.364   4.395   5.096 -0.4162  0.0437 -0.6572
 6339SOL    HW130479   1.410   4.366   5.017 -1.1189 -1.1739 -0.6296
 6339SOL    HW230480   1.336   4.311   5.133  0.6642  0.2198  0.5740
 6340SOL     OW30481   4.476   1.073   4.805  0.1496  0.3828  0.0750
 6340SOL    HW130482   4.505   1.009   4.739 -0.3317 -0.2176  0.4443
 6340SOL    HW230483   4.397   1.108   4.764 -1.5942 -2.1295  1.2672
 6341SOL     OW30484   1.968   1.809   3.649 -0.0727  0.3806 -0.0498
 6341SOL    HW130485   1.951   1.903   3.651 -0.3193  0.3316  0.1621
 6341SOL    HW230486   2.048   1.796   3.598 -0.2438  0.7767 -0.4169
 6342SOL     OW30487   0.236   2.141  14.692 -0.1423  0.3328 -0.3017
 6342SOL    HW130488   0.224   2.188  14.774 -1.6416  1.4173 -1.1360
 6342SOL    HW230489   0.165   2.173  14.635  0.7926 -0.5517 -1.9588
 6343SOL     OW30490   0.281   3.905   9.032  0.9345 -0.3306  0.1253
 6343SOL    HW130491   0.186   3.897   9.021  0.9103 -0.8190  0.7159
 6343SOL    HW230492   0.307   3.813   9.027 -1.0449 -0.7645 -1.9571
 6344SOL     OW30493   0.351   0.192   1.429  0.2841  0.8458 -0.3183
 6344SOL    HW130494   0.387   0.243   1.356  1.4088 -1.7565 -1.5908
 6344SOL    HW230495   0.431   0.173   1.477 -0.5554 -0.2837  0.6007
 6345SOL     OW30496   1.513   3.507  11.196 -0.3172  0.1226 -0.6505
 6345SOL    HW130497   1.482   3.474  11.112  1.3141  1.1921 -1.6524
 6345SOL    HW230498   1.476   3.594  11.208 -1.3553 -0.7649  2.8617
 6346SOL     OW30499   3.994   1.560   8.672  0.5808 -0.3793 -0.3012
 6346SOL    HW130500   3.942   1.597   8.744 -0.7978 -4.1017  0.6463
 6346SOL    HW230501   3.956   1.472   8.672  1.6801 -0.8427  1.4425
 6347SOL     OW30502   2.244   1.614   8.010 -0.0578 -0.3347 -0.3579
 6347SOL    HW130503   2.169   1.554   7.998 -0.6257  0.1817  0.6329
 6347SOL    HW230504   2.302   1.554   8.058 -0.4904 -0.5469 -0.0974
 6348SOL     OW30505   0.655   4.026   2.892  0.3759 -0.2395  0.2238
 6348SOL    HW130506   0.733   4.080   2.876  1.3664 -1.9158 -0.6568
 6348SOL    HW230507   0.609   4.023   2.808  1.6163 -0.0229 -0.4743
 6349SOL     OW30508   1.810   0.143   7.742  0.4189 -0.3420 -0.3574
 6349SOL    HW130509   1.764   0.226   7.731  1.2635  0.1732  0.0397
 6349SOL    HW230510   1.869   0.139   7.666 -1.1016  0.2801 -1.5830
 6350SOL     OW30511   3.306   1.702   6.111 -0.3337  0.2748 -0.3745
 6350SOL    HW130512   3.377   1.706   6.047 -0.7468  0.5561 -0.8169
 6350SOL    HW230513   3.351   1.755   6.177 -1.3531 -0.9870  1.3419
 6351SOL     OW30514   4.182   1.870   4.584  0.3626  0.6158 -0.2451
 6351SOL    HW130515   4.131   1.805   4.634  1.2470 -0.4815 -0.7892
 6351SOL    HW230516   4.271   1.855   4.616  0.5562  1.8340 -0.2296
 6352SOL     OW30517   0.240   3.254   3.815 -0.4824  0.2614 -0.6483
 6352SOL    HW130518   0.246   3.285   3.724 -2.0486  2.5296  0.0330
 6352SOL    HW230519   0.204   3.166   3.803 -2.7607  1.0904  0.0439
 6353SOL     OW30520   2.713   1.234   3.276 -0.2745  0.1337  0.4124
 6353SOL    HW130521   2.665   1.311   3.244  1.4629  1.2364  0.4720
 6353SOL    HW230522   2.783   1.234   3.212 -2.9576  3.6548 -2.5398
 6354SOL     OW30523   0.667   2.857  14.395  0.2535  0.2500 -0.0060
 6354SOL    HW130524   0.689   2.875  14.486  0.6723 -0.2951  0.0074
 6354SOL    HW230525   0.584   2.811  14.406 -1.3361  3.1672  0.0953
 6355SOL     OW30526   2.736   2.493   0.629 -0.1492  0.5597  0.4310
 6355SOL    HW130527   2.703   2.552   0.562 -1.5811  1.6784  2.1566
 6355SOL    HW230528   2.741   2.409   0.582 -0.9034  0.3401  0.7410
 6356SOL     OW30529   0.923   0.766  12.212 -0.0112 -0.4162 -0.0485
 6356SOL    HW130530   0.893   0.691  12.264  1.9733 -1.4262 -0.3584
 6356SOL    HW230531   0.840   0.811  12.199 -0.2442 -1.1263 -1.0691
 6357SOL     OW30532   1.595   2.836  10.372 -0.2484  0.3745 -0.1919
 6357SOL    HW130533   1.521   2.841  10.432 -1.5076  1.5316 -1.8691
 6357SOL    HW230534   1.629   2.748  10.388 -0.2608  0.2595 -0.7922
 6358SOL     OW30535   3.325   2.641   8.089  0.0329 -0.1394 -0.0647
 6358SOL    HW130536   3.416   2.660   8.066 -0.3671  0.8522 -0.8308
 6358SOL    HW230537   3.326   2.553   8.126  0.8078 -0.0969  0.0300
 6359SOL     OW30538   1.160   0.838   6.662  0.2173  0.9902 -0.2368
 6359SOL    HW130539   1.157   0.909   6.726  0.2523 -0.1187  0.9957
 6359SOL    HW230540   1.245   0.801   6.685 -0.4262 -0.7130 -0.6274
 6360SOL     OW30541   0.171   2.039  10.064 -0.0293  0.0347  0.1524
 6360SOL    HW130542   0.237   1.972  10.079 -0.9354 -1.0781 -0.8660
 6360SOL    HW230543   0.187   2.100  10.136 -0.8176 -2.0240  2.0429
 6361SOL     OW30544   1.249   2.485   2.228 -0.0786  0.7428  0.2265
 6361SOL    HW130545   1.202   2.437   2.160 -0.5442  0.8524  0.4726
 6361SOL    HW230546   1.230   2.420   2.296  1.7431  0.6420  0.6389
 6362SOL     OW30547   0.137   3.801   7.912 -0.2304 -0.2656  0.4712
 6362SOL    HW130548   0.197   3.819   7.839 -1.2169  1.5221  0.1036
 6362SOL    HW230549   0.157   3.853   7.990 -0.7171  0.1280  0.3335
 6363SOL     OW30550   0.340   3.589   5.677  1.1282 -0.1184 -0.3148
 6363SOL    HW130551   0.368   3.544   5.597 -0.7301 -2.6563  0.4259
 6363SOL    HW230552   0.279   3.653   5.641  1.1565 -0.3298 -0.7501
 6364SOL     OW30553   1.500   4.178  15.850  0.2379  0.1312  0.1167
 6364SOL    HW130554   1.522   4.113  15.784  0.8191 -0.4626  0.8990
 6364SOL    HW230555   1.550   4.253  15.819  0.7808 -0.0308  0.5968
 6365SOL     OW30556   2.820   0.886  12.131  0.4131  0.0041 -0.1340
 6365SOL    HW130557   2.792   0.799  12.101 -0.4353  0.6076 -1.0840
 6365SOL    HW230558   2.826   0.861  12.223  0.9865 -0.4605 -0.3015
 6366SOL     OW30559   4.171   3.301   5.753 -0.0059  0.2819 -0.0366
 6366SOL    HW130560   4.185   3.332   5.843 -0.5487 -0.0737  0.1760
 6366SOL    HW230561   4.233   3.354   5.704  1.3000 -2.0779 -0.9325
 6367SOL     OW30562   2.222   3.271   1.587  0.6013 -0.4698 -0.0519
 6367SOL    HW130563   2.193   3.304   1.672 -4.2865 -1.0085 -1.5094
 6367SOL    HW230564   2.185   3.340   1.531  0.0646 -0.2098  0.6190
 6368SOL     OW30565   4.651   3.388   2.506 -0.0575  0.0669  0.2909
 6368SOL    HW130566   4.710   3.353   2.439 -1.4582  0.1459 -0.9903
 6368SOL    HW230567   4.568   3.389   2.459 -0.0788  3.0029  0.3875
 6369SOL     OW30568   2.199   2.045   5.386 -0.4982 -0.3342  0.1590
 6369SOL    HW130569   2.260   1.978   5.416  0.6997  0.2579 -0.9617
 6369SOL    HW230570   2.256   2.100   5.333  0.1060 -0.0155  1.1532
 6370SOL     OW30571   0.850   2.836   5.379 -0.3832 -0.5112  0.2412
 6370SOL    HW130572   0.775   2.789   5.416 -0.6027  1.5508  2.4305
 6370SOL    HW230573   0.853   2.787   5.297 -1.6746  0.8853 -0.6419
 6371SOL     OW30574   2.519   1.879   8.680  0.3320  0.2896 -0.4139
 6371SOL    HW130575   2.497   1.793   8.716 -0.9366 -0.3628 -2.6919
 6371SOL    HW230576   2.465   1.922   8.746 -0.3886  1.8913 -2.0469
 6372SOL     OW30577   1.470   1.135  17.173  0.0107 -0.0104 -0.0220
 6372SOL    HW130578   1.413   1.094  17.239  0.0247 -0.0743 -0.0488
 6372SOL    HW230579   1.404   1.188  17.129  0.1673  0.8815  0.8314
 6373SOL     OW30580   3.320   1.569   4.561 -0.2514  0.2973  0.6717
 6373SOL    HW130581   3.322   1.664   4.558 -0.0045  0.2699 -0.0513
 6373SOL    HW230582   3.262   1.555   4.486 -1.0416 -3.0096  1.8947
 6374SOL     OW30583   2.401   2.991   3.897  0.1060 -0.1040 -0.8827
 6374SOL    HW130584   2.471   3.009   3.834  0.2076 -0.0094 -0.7434
 6374SOL    HW230585   2.429   2.913   3.946 -0.6459 -0.3054 -0.7846
 6375SOL     OW30586   1.285   2.244   4.235  0.7988 -0.1906  0.8457
 6375SOL    HW130587   1.240   2.327   4.221  1.9392 -0.1191 -2.2582
 6375SOL    HW230588   1.307   2.223   4.144  0.6753 -2.0327  1.2290
 6376SOL     OW30589   1.762   2.923   3.886 -0.2520 -0.1322  0.2577
 6376SOL    HW130590   1.845   2.884   3.915  0.2605  1.1308  0.5135
 6376SOL    HW230591   1.723   2.843   3.850  1.2182 -0.8207  0.1678
 6377SOL     OW30592   3.187   2.607   4.870 -0.1280  0.3162  0.3174
 6377SOL    HW130593   3.253   2.656   4.823 -1.1877  0.1745 -1.2948
 6377SOL    HW230594   3.247   2.542   4.908 -0.2911 -0.2900 -0.4633
 6378SOL     OW30595   1.534   2.102   3.500 -0.2919  0.4228  0.0334
 6378SOL    HW130596   1.526   2.181   3.553  1.4680  0.1853  0.6754
 6378SOL    HW230597   1.559   2.137   3.415 -1.0325 -0.1831 -0.4317
 6379SOL     OW30598   3.849   2.703  10.054  0.0260 -0.6881 -0.3140
 6379SOL    HW130599   3.924   2.653  10.086 -0.7001 -1.6882 -0.1875
 6379SOL    HW230600   3.868   2.699   9.961 -2.0597 -0.8982 -0.7220
 6380SOL     OW30601   0.705   3.234  10.928 -0.6700 -0.1157 -0.4997
 6380SOL    HW130602   0.625   3.181  10.928 -1.2660  0.7949  0.5008
 6380SOL    HW230603   0.663   3.317  10.905 -1.2672 -0.7585 -1.6956
 6381SOL     OW30604   3.918   3.497   4.582 -0.1999 -0.0641 -0.7121
 6381SOL    HW130605   3.927   3.516   4.676  1.5841 -0.9301 -0.6996
 6381SOL    HW230606   4.011   3.494   4.557 -0.6777 -0.1318 -2.5021
 6382SOL     OW30607   2.073   0.318  15.275  0.0717  0.2689  0.0896
 6382SOL    HW130608   2.139   0.336  15.342  0.8839 -0.6937 -0.4665
 6382SOL    HW230609   2.052   0.404  15.237  1.4480  2.0252  3.2581
 6383SOL     OW30610   1.560   2.684  11.606  0.3662  0.5397  0.1707
 6383SOL    HW130611   1.610   2.712  11.529  1.0673 -0.9886  0.0701
 6383SOL    HW230612   1.507   2.763  11.621  1.8116  1.3350  1.1533
 6384SOL     OW30613   0.644   0.987   2.601  0.0663  0.0019 -0.3503
 6384SOL    HW130614   0.694   0.944   2.532  2.6007 -2.4027  2.9573
 6384SOL    HW230615   0.606   0.914   2.651  0.0533 -0.1738 -0.6155
 6385SOL     OW30616   4.380   1.884  10.702 -0.3510  0.3066  0.2619
 6385SOL    HW130617   4.338   1.962  10.737 -0.0088  1.2670 -1.4274
 6385SOL    HW230618   4.302   1.833  10.680  0.1574 -0.3342 -0.0755
 6386SOL     OW30619   0.365   2.692   5.348  0.1807 -0.4473  0.7486
 6386SOL    HW130620   0.302   2.644   5.401 -0.7563 -0.4984 -0.3990
 6386SOL    HW230621   0.447   2.690   5.397  1.2850  3.3430 -0.8728
 6387SOL     OW30622   0.258   3.325   0.954  0.5023  0.4757 -0.0542
 6387SOL    HW130623   0.240   3.306   0.862  0.8484 -0.9209  0.1615
 6387SOL    HW230624   0.180   3.285   0.995 -1.1159  1.4806 -2.1585
 6388SOL     OW30625   0.612   3.691   5.568 -0.6457 -0.1550  0.2069
 6388SOL    HW130626   0.614   3.703   5.663 -0.3940  1.5940 -0.0191
 6388SOL    HW230627   0.592   3.598   5.563  1.0031 -0.6422  2.5802
 6389SOL     OW30628   1.441   3.807  15.494 -0.0962 -0.0018  0.4558
 6389SOL    HW130629   1.429   3.822  15.400  0.2957  1.2049  0.6059
 6389SOL    HW230630   1.526   3.847  15.510 -1.5862  3.8295 -1.2095
 6390SOL     OW30631   4.552   2.310   8.833 -0.2379 -0.0834  0.0197
 6390SOL    HW130632   4.460   2.286   8.842 -0.3676 -0.5275 -2.5653
 6390SOL    HW230633   4.595   2.257   8.900  0.7782  0.1650 -0.4284
 6391SOL     OW30634   0.721   2.395   8.757 -0.4024 -0.0455  0.1448
 6391SOL    HW130635   0.654   2.372   8.821 -0.5320  1.7326  0.6402
 6391SOL    HW230636   0.792   2.412   8.818 -0.9367 -0.2103  0.8113
 6392SOL     OW30637   0.340   4.475  17.021 -0.4054 -0.5109 -0.1409
 6392SOL    HW130638   0.395   4.488  17.099 -0.1989 -1.5859 -0.1131
 6392SOL    HW230639   0.252   4.501  17.048  0.1593  1.0979  0.1529
 6393SOL     OW30640   1.596   1.851   3.592 -0.8860  0.0847  0.0951
 6393SOL    HW130641   1.540   1.924   3.566  1.1915  2.3424  2.0077
 6393SOL    HW230642   1.656   1.895   3.653 -0.4253 -0.4923  0.0607
 6394SOL     OW30643   2.015   1.306   2.130  0.4169 -0.2793  0.3433
 6394SOL    HW130644   2.001   1.387   2.081  0.4895  1.3120  2.9722
 6394SOL    HW230645   1.982   1.327   2.217  2.3270 -1.4554  1.3665
 6395SOL     OW30646   0.906   1.003   5.429 -0.1910  0.1043 -0.6594
 6395SOL    HW130647   0.928   0.983   5.520 -0.6786 -0.4797 -0.6717
 6395SOL    HW230648   0.828   1.060   5.432 -0.4223 -0.2845  0.7593
 6396SOL     OW30649   0.345   1.981   7.713  0.4685  0.5555 -0.4853
 6396SOL    HW130650   0.330   1.975   7.619  0.1078 -1.7555 -0.2822
 6396SOL    HW230651   0.302   2.066   7.723 -0.2931  0.0709  0.3343
 6397SOL     OW30652   1.010   3.073   3.912 -0.0901  0.1914  0.3635
 6397SOL    HW130653   0.991   3.097   3.822 -0.3474  1.2958  0.7049
 6397SOL    HW230654   0.928   3.094   3.957  0.4634  2.0643  0.4811
 6398SOL     OW30655   0.816   0.629  15.901 -0.2249  0.3129  0.1725
 6398SOL    HW130656   0.758   0.701  15.928 -0.9180 -0.6624  1.3059
 6398SOL    HW230657   0.815   0.641  15.806  1.2108  2.6105  0.4444
 6399SOL     OW30658   2.266   0.451   7.489  0.1846  0.5303 -0.1779
 6399SOL    HW130659   2.361   0.444   7.478  0.1207  0.3611 -0.6195
 6399SOL    HW230660   2.245   0.359   7.496 -1.5809  1.2406  3.6217
 6400SOL     OW30661   0.468   3.482  12.170 -0.0236 -0.1662 -0.4543
 6400SOL    HW130662   0.532   3.455  12.235  0.4078  1.5214 -0.1619
 6400SOL    HW230663   0.518   3.546  12.118  0.3977  0.6392  0.9242
 6401SOL     OW30664   3.010   4.207   1.448 -0.0339  0.1954 -0.4175
 6401SOL    HW130665   2.965   4.151   1.384  0.6966 -0.1563 -0.6269
 6401SOL    HW230666   3.100   4.179   1.438  1.3197  4.4958 -0.3657
 6402SOL     OW30667   0.799   3.655   4.673 -0.1051  0.5207  0.3059
 6402SOL    HW130668   0.806   3.611   4.758 -3.2116  1.9453  1.3198
 6402SOL    HW230669   0.753   3.583   4.631  1.2310  0.2336 -0.6461
 6403SOL     OW30670   1.194   1.746  11.928 -0.1315  0.1739  0.5671
 6403SOL    HW130671   1.280   1.764  11.966  1.3707 -0.0128 -2.8271
 6403SOL    HW230672   1.180   1.821  11.871  2.9913  0.5483  0.2961
 6404SOL     OW30673   0.179   1.230  13.210  0.0871  0.5222  0.3584
 6404SOL    HW130674   0.253   1.291  13.207 -1.1605  1.9727 -0.9889
 6404SOL    HW230675   0.170   1.222  13.115  0.4803 -4.0762  0.6762
 6405SOL     OW30676   1.708   2.413   8.658 -0.0578 -0.3373 -0.2798
 6405SOL    HW130677   1.706   2.450   8.569  1.9197 -2.2761 -1.1188
 6405SOL    HW230678   1.706   2.494   8.710  1.6367  0.0814 -0.8479
 6406SOL     OW30679   2.897   4.103   2.765  0.0193  0.0494 -0.0003
 6406SOL    HW130680   2.963   4.102   2.834 -0.3200  1.3912  0.3495
 6406SOL    HW230681   2.883   4.008   2.758  0.1484 -0.0774  1.4183
 6407SOL     OW30682   3.505   3.379   3.744 -0.3135 -0.2733 -0.0408
 6407SOL    HW130683   3.460   3.327   3.677  0.6257 -0.9694 -0.1434
 6407SOL    HW230684   3.438   3.385   3.812  1.4598  0.0572  1.6862
 6408SOL     OW30685   4.287   4.435   2.590  0.3823  0.6519 -0.0251
 6408SOL    HW130686   4.235   4.514   2.574  0.4602  0.5191 -0.9296
 6408SOL    HW230687   4.378   4.463   2.601  0.3730 -0.3764  2.5915
 6409SOL     OW30688   3.464   0.323   5.676  1.0074 -0.2062 -0.2662
 6409SOL    HW130689   3.470   0.253   5.740  0.2188  0.8222  0.9141
 6409SOL    HW230690   3.515   0.284   5.605  3.7123  0.2796  1.4296
 6410SOL     OW30691   0.540   1.822   8.074  0.0816  0.1247  0.2978
 6410SOL    HW130692   0.540   1.733   8.038 -1.1258 -0.0221  0.6797
 6410SOL    HW230693   0.448   1.847   8.074 -0.1894 -0.8820  0.4027
 6411SOL     OW30694   2.194   3.402  11.054 -0.2715  0.1398 -0.0021
 6411SOL    HW130695   2.217   3.439  10.968 -1.8921  1.3486  0.0976
 6411SOL    HW230696   2.127   3.338  11.031 -1.4544  1.1459  0.6794
 6412SOL     OW30697   2.542   0.173   3.063 -0.5643 -0.2821 -0.0981
 6412SOL    HW130698   2.622   0.217   3.091 -0.8428  1.1582 -1.6220
 6412SOL    HW230699   2.499   0.250   3.026 -2.2797 -1.9980 -1.6685
 6413SOL     OW30700   2.045   1.139   0.585  0.7071  0.1560  0.1873
 6413SOL    HW130701   2.074   1.082   0.656 -0.8878 -1.3963 -0.4203
 6413SOL    HW230702   2.063   1.085   0.507 -2.5310 -1.0572  0.2796
 6414SOL     OW30703   3.595   3.536   7.337  0.3312 -0.0926 -0.0358
 6414SOL    HW130704   3.617   3.566   7.425  1.3141  0.7160 -0.5525
 6414SOL    HW230705   3.570   3.620   7.298  2.5509  0.2429 -0.7570
 6415SOL     OW30706   0.878   2.350   2.000  0.2648  0.2551  0.4430
 6415SOL    HW130707   0.922   2.380   2.080  0.1524  1.4344  0.0684
 6415SOL    HW230708   0.935   2.392   1.935 -1.2080  1.4078 -0.1038
 6416SOL     OW30709   2.614   2.794  10.094 -0.3486 -0.7845 -0.8013
 6416SOL    HW130710   2.664   2.764  10.170 -1.3244 -1.5153 -0.4462
 6416SOL    HW230711   2.671   2.762  10.024 -0.7675  1.1100 -1.9974
 6417SOL     OW30712   2.514   3.024   3.099  0.2134 -0.5213  0.4106
 6417SOL    HW130713   2.609   3.029   3.090  0.1692  1.6924  1.1090
 6417SOL    HW230714   2.511   2.985   3.186  1.4755 -2.9443 -0.6443
 6418SOL     OW30715   2.931   4.165   4.280 -0.0782 -0.0091 -0.0572
 6418SOL    HW130716   2.882   4.184   4.200 -1.2246 -0.5481  0.5188
 6418SOL    HW230717   2.959   4.075   4.264 -1.1339 -0.4275  0.4545
 6419SOL     OW30718   0.576   2.486   6.292  0.5568 -0.0794 -0.1556
 6419SOL    HW130719   0.586   2.521   6.380  2.2560 -0.5047 -0.1787
 6419SOL    HW230720   0.568   2.394   6.318 -0.4382 -0.1839 -0.8546
 6420SOL     OW30721   3.309   3.523   8.191  0.0741  0.2408 -1.1443
 6420SOL    HW130722   3.401   3.501   8.201 -0.5638 -1.1106  1.8573
 6420SOL    HW230723   3.290   3.556   8.279 -1.4410 -1.2910 -0.8808
 6421SOL     OW30724   2.823   0.254   4.540  0.3595 -0.6781 -0.0991
 6421SOL    HW130725   2.828   0.202   4.459  1.5447 -2.3393  1.0344
 6421SOL    HW230726   2.843   0.183   4.601  0.0381 -0.1797  0.5833
 6422SOL     OW30727   0.829   3.092   7.608  0.4589 -0.0406  0.4383
 6422SOL    HW130728   0.874   3.175   7.623  1.3864 -0.6372  0.9014
 6422SOL    HW230729   0.803   3.101   7.516  1.0371 -0.5634  0.2310
 6423SOL     OW30730   0.932   3.414   6.131 -0.0455 -0.1721  0.0470
 6423SOL    HW130731   0.857   3.463   6.099 -0.4657 -1.7011 -1.2669
 6423SOL    HW230732   0.984   3.379   6.059  1.9862  2.7932  0.0417
 6424SOL     OW30733   4.045   4.054   4.946  0.4303 -0.5957  0.4190
 6424SOL    HW130734   4.060   4.105   4.866 -3.8040 -0.2219 -0.1032
 6424SOL    HW230735   3.953   4.067   4.968  0.5828 -0.8453  1.2309
 6425SOL     OW30736   3.971   0.993  13.873 -0.2245 -0.2335  0.2075
 6425SOL    HW130737   4.014   1.071  13.838  0.1307 -0.2743  0.5572
 6425SOL    HW230738   3.935   0.956  13.792 -5.5583  2.1988  1.5019
 6426SOL     OW30739   2.984   0.942  11.913  0.3375  0.8442 -0.0706
 6426SOL    HW130740   2.914   0.927  11.977  0.7131  0.0066  0.1571
 6426SOL    HW230741   2.971   1.032  11.884  1.1606  1.3218  1.0515
 6427SOL     OW30742   0.013   1.567   4.054 -0.1714 -0.2674  0.1568
 6427SOL    HW130743   4.648   1.611   4.065  0.3617  1.2173 -1.7757
 6427SOL    HW230744   0.064   1.625   4.111 -0.1257  0.3772 -0.5503
 6428SOL     OW30745   1.909   0.362  16.296 -0.6568 -0.2684 -0.0397
 6428SOL    HW130746   1.957   0.344  16.215 -0.8182  1.2206 -0.4558
 6428SOL    HW230747   1.969   0.339  16.367 -0.1707  0.8599 -0.0870
 6429SOL     OW30748   1.628   2.706   1.956 -0.1622 -0.3894 -0.1850
 6429SOL    HW130749   1.680   2.633   1.988  1.8928  1.5875  0.9744
 6429SOL    HW230750   1.548   2.680   2.001 -0.7877 -0.5824 -1.3939
 6430SOL     OW30751   4.077   3.347   0.347  0.0513 -0.2004 -0.0139
 6430SOL    HW130752   4.076   3.301   0.263  0.9778  0.6329 -0.4833
 6430SOL    HW230753   4.050   3.285   0.415  0.4970  1.4471  1.6461
 6431SOL     OW30754   1.995   3.566   9.411  0.6796 -0.0553  0.2105
 6431SOL    HW130755   1.963   3.596   9.496 -0.8654 -0.8756 -0.0665
 6431SOL    HW230756   2.070   3.624   9.418 -0.4006  1.6048 -1.7527
 6432SOL     OW30757   1.185   3.780   8.747  0.2504 -0.3589  0.1205
 6432SOL    HW130758   1.177   3.873   8.768  0.7353 -0.4393  0.6454
 6432SOL    HW230759   1.105   3.746   8.788  0.1374  0.3033  0.4405
 6433SOL     OW30760   0.917   0.092   0.329 -0.0144  0.0600 -0.0677
 6433SOL    HW130761   0.845   0.145   0.363  1.0355 -0.3686  2.8230
 6433SOL    HW230762   0.990   0.155   0.329 -0.2264  0.3165 -1.6239
 6434SOL     OW30763   2.813   1.405   3.514 -0.2953 -0.2668  0.6739
 6434SOL    HW130764   2.822   1.393   3.608  0.3812 -1.3214  0.4717
 6434SOL    HW230765   2.753   1.342   3.475 -0.6500  0.7674 -0.4597
 6435SOL     OW30766   1.223   3.272   0.546 -0.6302 -0.4273 -0.2732
 6435SOL    HW130767   1.130   3.294   0.549 -0.2019  1.0691  3.3688
 6435SOL    HW230768   1.248   3.282   0.455 -1.1950 -0.7580 -0.4600
 6436SOL     OW30769   4.012   2.116   4.198  0.1482  0.2141 -0.5436
 6436SOL    HW130770   4.073   2.162   4.256  2.2673 -3.6799  0.2745
 6436SOL    HW230771   4.009   2.031   4.240 -1.0911  2.0331  3.0189
 6437SOL     OW30772   2.845   0.089   3.704 -0.2147 -0.2730 -0.2816
 6437SOL    HW130773   2.939   0.079   3.715 -0.3604 -1.5405 -0.1409
 6437SOL    HW230774   2.824   0.168   3.755 -0.8605 -0.5737 -0.0760
 6438SOL     OW30775   0.865   0.326   9.077 -0.0545  0.8176  0.1454
 6438SOL    HW130776   0.902   0.269   9.009  2.1640  0.6893  1.4570
 6438SOL    HW230777   0.946   0.376   9.090  0.9879 -0.8290 -0.0842
 6439SOL     OW30778   0.794   2.347   9.309 -0.5136  0.5285  0.2036
 6439SOL    HW130779   0.859   2.410   9.277 -0.0926 -0.9308 -1.7880
 6439SOL    HW230780   0.793   2.382   9.399 -2.0529  0.5542  0.1896
 6440SOL     OW30781   2.163   2.980   7.535 -0.3784 -0.2570 -0.4171
 6440SOL    HW130782   2.185   2.987   7.628  0.9326 -1.3378 -0.6399
 6440SOL    HW230783   2.239   3.024   7.497 -0.6068  1.7229  1.4208
 6441SOL     OW30784   3.026   1.681   7.737 -0.3856 -0.5647  0.1449
 6441SOL    HW130785   2.987   1.752   7.687 -2.8717 -1.6022  0.6183
 6441SOL    HW230786   3.023   1.612   7.670 -0.4189 -1.3585  0.9705
 6442SOL     OW30787   4.188   0.803  10.840 -0.4406 -0.3582 -0.5760
 6442SOL    HW130788   4.274   0.761  10.836 -0.6594 -0.7828 -0.7651
 6442SOL    HW230789   4.221   0.892  10.854 -0.3632 -0.3457 -0.8292
 6443SOL     OW30790   0.808   4.438   5.627 -0.1789 -0.0396 -0.3986
 6443SOL    HW130791   0.832   4.392   5.547  0.1602 -1.9436  0.7781
 6443SOL    HW230792   0.716   4.413   5.626 -0.8384  2.2614  3.3151
 6444SOL     OW30793   3.676   2.728   9.371 -0.1266 -0.3262  0.6891
 6444SOL    HW130794   3.643   2.659   9.314  2.0889  0.2145 -1.2456
 6444SOL    HW230795   3.723   2.784   9.310 -1.2726  0.1884  0.2819
 6445SOL     OW30796   2.750   4.221   6.210 -0.5638 -0.7569 -0.2603
 6445SOL    HW130797   2.774   4.280   6.139  2.3937 -0.0261  1.3253
 6445SOL    HW230798   2.662   4.251   6.230 -0.1627 -0.5059  1.1504
 6446SOL     OW30799   1.206   1.285   9.566 -0.8145 -0.0160  0.4350
 6446SOL    HW130800   1.298   1.267   9.581 -1.6221 -2.4164  2.4761
 6446SOL    HW230801   1.183   1.345   9.637  1.0089  2.8384 -1.4049
 6447SOL     OW30802   3.580   0.007   7.136  0.4621 -0.1488 -0.4308
 6447SOL    HW130803   3.504   4.670   7.129  0.6605 -0.2667 -1.5807
 6447SOL    HW230804   3.588   0.035   7.227  0.7754  0.2456 -0.5764
 6448SOL     OW30805   1.536   4.411  10.262  0.2146 -0.2127  0.1708
 6448SOL    HW130806   1.571   4.397  10.350 -1.1501 -2.4123  0.3605
 6448SOL    HW230807   1.575   4.335  10.219  0.5075 -0.6845  1.2664
 6449SOL     OW30808   0.369   0.626   3.813  0.3984  0.0310 -0.1937
 6449SOL    HW130809   0.340   0.541   3.847  0.2540  1.0022  2.0823
 6449SOL    HW230810   0.364   0.614   3.718 -0.8910  0.9356 -0.2422
 6450SOL     OW30811   3.609   4.463   2.698 -0.6097  0.4419  0.2259
 6450SOL    HW130812   3.608   4.377   2.741 -0.8459  0.0401 -0.5591
 6450SOL    HW230813   3.702   4.480   2.687 -1.0754  2.6395 -0.1781
 6451SOL     OW30814   4.312   3.763   4.664  0.2385 -0.3304  0.3569
 6451SOL    HW130815   4.288   3.672   4.647  0.0767  0.0828 -1.6016
 6451SOL    HW230816   4.225   3.800   4.650 -0.9046 -3.1411 -0.0980
 6452SOL     OW30817   3.108   3.574  11.391 -0.6516 -0.1514 -0.1371
 6452SOL    HW130818   3.189   3.619  11.416 -1.0054  0.7320 -0.5961
 6452SOL    HW230819   3.115   3.504  11.456  1.0617  0.0492 -0.1171
 6453SOL     OW30820   3.078   3.629   5.544  0.4405  0.4119 -0.6128
 6453SOL    HW130821   3.040   3.556   5.495 -0.5167  1.0050 -0.7444
 6453SOL    HW230822   3.001   3.668   5.583 -0.1327  1.0182 -2.3532
 6454SOL     OW30823   3.110   0.668   0.482 -0.0949 -0.1667 -0.0890
 6454SOL    HW130824   3.019   0.692   0.469  0.3614  0.5385 -1.9403
 6454SOL    HW230825   3.139   0.749   0.525 -0.2651 -0.7386  1.0915
 6455SOL     OW30826   3.431   2.962  10.598  0.1328 -0.0359  0.2279
 6455SOL    HW130827   3.448   2.954  10.504  1.1792  1.0844  0.3169
 6455SOL    HW230828   3.484   2.890  10.633  0.6786  0.3916  0.2840
 6456SOL     OW30829   1.197   1.429   3.573  1.2344 -0.1081  0.1774
 6456SOL    HW130830   1.134   1.383   3.517  0.2518  0.8447  0.4989
 6456SOL    HW230831   1.262   1.360   3.585  0.5853 -0.4156  1.8929
 6457SOL     OW30832   4.292   3.534   5.379 -0.3441 -0.4766 -0.0264
 6457SOL    HW130833   4.271   3.626   5.361  2.1555  0.7679  3.3022
 6457SOL    HW230834   4.291   3.528   5.475  0.9349  1.8231  0.1489
 6458SOL     OW30835   4.419   0.262   6.354  0.1325  0.0186  0.3434
 6458SOL    HW130836   4.419   0.224   6.442  1.3080  0.4284  0.5178
 6458SOL    HW230837   4.334   0.227   6.328 -0.1363  0.9465 -0.0290
 6459SOL     OW30838   1.719   3.349   0.410  0.5650  0.4268  1.5665
 6459SOL    HW130839   1.636   3.316   0.446 -0.3329  1.1327  0.1433
 6459SOL    HW230840   1.742   3.280   0.348  0.5639 -0.8142  2.9453
 6460SOL     OW30841   2.382   4.676   3.786  0.0416 -0.4210 -0.0794
 6460SOL    HW130842   2.427   4.714   3.861 -1.5896  0.7247  0.3118
 6460SOL    HW230843   2.291   4.674   3.817  0.6214 -0.6602  1.6105
 6461SOL     OW30844   0.510   0.857  17.017 -0.2902 -0.3752 -0.3452
 6461SOL    HW130845   0.470   0.782  17.062 -0.8814 -0.7602 -1.5135
 6461SOL    HW230846   0.570   0.819  16.952 -0.9655 -0.7002 -0.7763
 6462SOL     OW30847   0.498   2.668   8.856 -0.8270 -0.0206  0.0749
 6462SOL    HW130848   0.452   2.725   8.917 -1.1083  0.2456 -0.3873
 6462SOL    HW230849   0.577   2.658   8.908 -0.8180 -0.8817 -0.1001
 6463SOL     OW30850   0.871   1.377   6.330  0.5653 -0.2694 -0.2827
 6463SOL    HW130851   0.880   1.381   6.235  0.2040 -2.4179 -0.3957
 6463SOL    HW230852   0.879   1.471   6.347  1.2193 -0.0752 -1.6615
 6464SOL     OW30853   2.636   2.265  12.225 -0.1942 -0.3123  0.4990
 6464SOL    HW130854   2.552   2.250  12.182  0.8980 -2.1375 -0.9991
 6464SOL    HW230855   2.681   2.181  12.211  2.3198  1.0650  0.3964
 6465SOL     OW30856   4.324   2.696   6.649  0.0306  0.3248  0.3322
 6465SOL    HW130857   4.343   2.607   6.620  1.3314  0.9052 -0.6225
 6465SOL    HW230858   4.282   2.687   6.734  0.2750 -0.6695  0.3485
 6466SOL     OW30859   1.795   0.653   4.409  0.2499 -0.5191 -0.1245
 6466SOL    HW130860   1.734   0.710   4.456 -1.2167 -1.7005 -0.5720
 6466SOL    HW230861   1.851   0.715   4.363  1.7538 -1.1490  0.8567
 6467SOL     OW30862   2.382   0.760   0.500  0.3187  0.0952  0.2153
 6467SOL    HW130863   2.332   0.684   0.530 -0.9948  1.1916  0.7825
 6467SOL    HW230864   2.414   0.724   0.417 -1.3598  0.2144 -0.4943
 6468SOL     OW30865   4.228   3.124   4.685 -0.1189 -0.3915  0.0464
 6468SOL    HW130866   4.300   3.179   4.654 -1.4122  0.9642 -0.5442
 6468SOL    HW230867   4.184   3.181   4.749  0.1405  0.9595 -0.9732
 6469SOL     OW30868   1.940   0.148   6.296  0.1867  0.5155 -0.2913
 6469SOL    HW130869   1.858   0.108   6.327  0.2350  1.1711  0.6560
 6469SOL    HW230870   1.918   0.241   6.291  1.1538  0.7658  0.2684
 6470SOL     OW30871   2.133   3.193   6.312  0.4553 -0.3886  0.1462
 6470SOL    HW130872   2.176   3.107   6.314  0.9202 -0.1946 -1.4346
 6470SOL    HW230873   2.201   3.259   6.299  1.6261 -2.0249 -2.1947
 6471SOL     OW30874   0.745   0.440   6.990 -0.0850 -0.1771 -0.0269
 6471SOL    HW130875   0.817   0.489   6.951 -1.9867  3.3825  0.8909
 6471SOL    HW230876   0.691   0.510   7.027  1.2311  0.0613  1.4423
 6472SOL     OW30877   2.448   4.713   8.303  0.0581 -0.0302  0.4379
 6472SOL    HW130878   2.394   0.072   8.311 -1.2434 -1.0797  2.2431
 6472SOL    HW230879   2.406   4.668   8.377 -1.5736 -0.1325 -0.5330
 6473SOL     OW30880   1.124   0.132   5.688 -0.4924  0.3739 -0.1136
 6473SOL    HW130881   1.126   0.170   5.775  1.2706  0.0259 -0.0038
 6473SOL    HW230882   1.050   0.071   5.691 -0.1139 -0.0493  0.3943
 6474SOL     OW30883   2.753   4.645  11.077 -1.1650 -0.5811  0.1263
 6474SOL    HW130884   2.778   4.598  10.997 -0.2946  0.6560 -0.3261
 6474SOL    HW230885   2.667   4.606  11.093 -0.8826 -2.5421 -3.0157
 6475SOL     OW30886   4.636   2.824  16.996  0.5120 -0.2232  0.5628
 6475SOL    HW130887   4.547   2.841  16.963  0.1851 -2.5780  0.2008
 6475SOL    HW230888   4.674   2.748  16.951 -2.0735 -0.3616 -1.4166
 6476SOL     OW30889   1.374   0.821  11.498 -0.3289  0.1427 -0.2060
 6476SOL    HW130890   1.357   0.767  11.420  0.4579  0.0323 -0.3106
 6476SOL    HW230891   1.469   0.826  11.510 -0.5855  1.1296  1.4105
 6477SOL     OW30892   1.164   0.044  10.528  0.5145  0.2505  0.0503
 6477SOL    HW130893   1.202   4.692  10.477  0.9914 -0.2134  1.0383
 6477SOL    HW230894   1.243   0.090  10.558 -0.9046  1.8670  1.3308
 6478SOL     OW30895   3.936   3.021   4.794 -0.4135 -0.5990 -0.5725
 6478SOL    HW130896   3.975   3.091   4.846  0.5096 -0.6488 -1.1839
 6478SOL    HW230897   3.924   3.070   4.712 -0.9392 -0.5763 -0.4834
 6479SOL     OW30898   0.443   3.410  12.954  0.2701  0.2106 -0.1283
 6479SOL    HW130899   0.409   3.331  12.997  1.0130 -0.6036 -1.0513
 6479SOL    HW230900   0.397   3.409  12.871 -1.0864 -0.7609  0.6377
 6480SOL     OW30901   0.639   0.258   9.481  0.0264  0.0771 -0.1849
 6480SOL    HW130902   0.624   0.263   9.387  1.2583 -0.3050 -0.3914
 6480SOL    HW230903   0.729   0.291   9.484 -0.1709  0.5627  0.3353
 6481SOL     OW30904   3.667   4.096  15.463 -0.0121 -0.6297  0.2181
 6481SOL    HW130905   3.586   4.059  15.429 -0.0201 -0.4196  0.0076
 6481SOL    HW230906   3.666   4.066  15.554 -3.8436  0.8180  0.6660
 6482SOL     OW30907   3.884   2.470  13.612  0.1527  0.4580 -0.0482
 6482SOL    HW130908   3.969   2.451  13.650 -0.3947 -1.8437  0.0221
 6482SOL    HW230909   3.887   2.565  13.595  0.9234  0.5226  0.4960
 6483SOL     OW30910   0.417   0.471   2.351  0.0020  0.4758 -0.6127
 6483SOL    HW130911   0.427   0.565   2.339  0.9015  0.3696 -0.6765
 6483SOL    HW230912   0.396   0.463   2.444 -0.8062 -2.7380 -1.0753
 6484SOL     OW30913   1.007   4.434   7.297 -0.1762 -0.2707  0.2539
 6484SOL    HW130914   1.098   4.455   7.318  0.0538 -2.5065  1.4149
 6484SOL    HW230915   0.996   4.345   7.330  1.6692 -0.1988  1.0462
 6485SOL     OW30916   3.755   0.843  15.956  0.3077 -0.2928 -0.3244
 6485SOL    HW130917   3.662   0.834  15.934  0.3792 -0.4442 -0.5646
 6485SOL    HW230918   3.781   0.762  15.999  0.5953 -0.0984 -0.1298
 6486SOL     OW30919   3.081   4.160   8.683 -0.0058 -0.2854  0.3589
 6486SOL    HW130920   3.003   4.216   8.682 -1.4938 -2.3160  1.8064
 6486SOL    HW230921   3.045   4.071   8.675  2.0034 -0.8387 -2.5758
 6487SOL     OW30922   1.503   2.834   3.526  0.3052 -0.3795  0.0583
 6487SOL    HW130923   1.555   2.893   3.472 -1.7834  1.2368 -0.1427
 6487SOL    HW230924   1.414   2.868   3.528  0.1557 -0.7480 -0.2192
 6488SOL     OW30925   0.175   3.447  12.175  0.6245  0.1163  0.1630
 6488SOL    HW130926   0.199   3.403  12.256 -0.8200 -0.0589  0.5090
 6488SOL    HW230927   0.250   3.506  12.172  0.9200 -0.2494  0.3792
 6489SOL     OW30928   2.615   3.528   2.057 -0.6511 -0.3057  0.2871
 6489SOL    HW130929   2.597   3.446   2.104 -3.1190 -0.8624 -1.5912
 6489SOL    HW230930   2.691   3.492   2.011 -1.6454 -2.0923  0.0303
 6490SOL     OW30931   1.390   4.676  10.379 -0.0419 -0.0022  0.5770
 6490SOL    HW130932   1.450   4.608  10.347  1.7818  1.0182  1.8343
 6490SOL    HW230933   1.442   0.036  10.372 -0.5601  0.2100 -0.7044
 6491SOL     OW30934   4.469   2.339   1.999 -0.4917 -0.4402 -0.3657
 6491SOL    HW130935   4.413   2.270   2.033  2.0893 -0.5113  3.8066
 6491SOL    HW230936   4.407   2.409   2.016 -0.4708 -0.9658  1.8870
 6492SOL     OW30937   3.185   2.312   5.493 -0.2879  0.5456  0.3310
 6492SOL    HW130938   3.142   2.308   5.579  0.9695  1.9670  1.0327
 6492SOL    HW230939   3.263   2.260   5.511  0.8105  2.0719  0.0120
 6493SOL     OW30940   1.179   1.694   9.788 -0.1193 -0.3505 -0.2932
 6493SOL    HW130941   1.206   1.769   9.735 -2.2389 -1.1272 -2.5043
 6493SOL    HW230942   1.118   1.649   9.729 -1.7878  1.2229  0.2122
 6494SOL     OW30943   0.517   4.551   5.284 -0.7864 -0.2182  0.2191
 6494SOL    HW130944   0.535   4.606   5.360 -1.2562 -0.2796  0.3721
 6494SOL    HW230945   0.608   4.554   5.255 -1.0431  1.5515 -0.4050
 6495SOL     OW30946   2.863   0.774   5.631 -0.2898 -0.2186  0.3943
 6495SOL    HW130947   2.932   0.821   5.678  0.1439 -2.1103  1.6096
 6495SOL    HW230948   2.809   0.840   5.588 -3.0668 -1.3751  2.1465
 6496SOL     OW30949   0.761   0.834   9.326  0.0665 -0.5025 -0.5557
 6496SOL    HW130950   0.722   0.747   9.326  0.1543 -0.5383 -2.6540
 6496SOL    HW230951   0.854   0.812   9.313  0.5860  1.6140 -0.4459
 6497SOL     OW30952   0.231   1.437  11.280  0.1296 -0.0340  0.1968
 6497SOL    HW130953   0.326   1.443  11.271  0.1171  1.0644  0.8670
 6497SOL    HW230954   0.216   1.342  11.273  0.1340 -0.0437  0.3233
 6498SOL     OW30955   1.188   3.038   2.833 -0.2233 -0.2262  0.1336
 6498SOL    HW130956   1.134   2.971   2.876  0.4829 -0.7187  0.2501
 6498SOL    HW230957   1.254   3.060   2.899 -0.7406 -2.2024  1.3188
 6499SOL     OW30958   4.621   0.692  15.253  0.0419 -0.2786  0.5356
 6499SOL    HW130959   4.571   0.766  15.218  0.8398 -0.0265 -0.0690
 6499SOL    HW230960   4.706   0.726  15.226 -0.5517 -0.2295 -1.2578
 6500SOL     OW30961   0.090   3.508  12.866  0.5757  0.4410  0.3759
 6500SOL    HW130962   0.129   3.448  12.802  0.8200  1.2435 -0.2171
 6500SOL    HW230963   0.057   3.439  12.924  1.0825  0.5125  0.7461
 6501SOL     OW30964   2.951   4.360  12.482  0.3310  0.4370  0.4664
 6501SOL    HW130965   3.021   4.296  12.491  0.3621  0.6522  1.8059
 6501SOL    HW230966   2.955   4.407  12.566 -0.8383  0.0906  0.7232
 6502SOL     OW30967   0.661   4.027   4.961 -0.1790  0.1032 -0.0856
 6502SOL    HW130968   0.587   3.997   5.014 -1.1866  0.8069 -1.0815
 6502SOL    HW230969   0.674   4.111   5.007  1.3785 -0.0546 -0.2290
 6503SOL     OW30970   1.287   0.635   2.982  0.4801  0.0573 -0.0142
 6503SOL    HW130971   1.307   0.723   3.013 -2.8251  0.8415 -0.0823
 6503SOL    HW230972   1.290   0.651   2.888  0.7818  2.6428  0.4314
 6504SOL     OW30973   1.407   4.545   7.930  0.6234  0.4101  0.1234
 6504SOL    HW130974   1.317   4.513   7.927  1.1726 -1.0541 -0.8197
 6504SOL    HW230975   1.406   4.640   7.918 -1.2811  0.3506 -0.2852
 6505SOL     OW30976   0.345   2.181   6.747  0.3616  0.3658 -0.2466
 6505SOL    HW130977   0.280   2.133   6.798 -0.8348  0.4653 -1.6869
 6505SOL    HW230978   0.402   2.111   6.715  1.1636  1.1363 -0.5252
 6506SOL     OW30979   4.715   0.568   2.454 -0.2069 -1.2613 -0.0585
 6506SOL    HW130980   4.718   0.486   2.505 -0.8727 -0.4790  1.2354
 6506SOL    HW230981   0.023   0.625   2.526  0.5222 -1.4310 -0.2016
 6507SOL     OW30982   3.081   4.052   6.088 -0.9527  0.0655 -0.4327
 6507SOL    HW130983   3.156   4.003   6.054 -0.7040  1.2251 -1.5407
 6507SOL    HW230984   3.105   4.145   6.089 -0.1855 -0.1439  1.3800
 6508SOL     OW30985   1.643   2.096   7.074  0.1133  0.7326 -0.1726
 6508SOL    HW130986   1.562   2.107   7.024 -1.3978 -0.8684  1.9809
 6508SOL    HW230987   1.664   2.003   7.065 -2.5931  0.1595 -0.4246
 6509SOL     OW30988   2.454   1.932   2.025  0.2049 -0.1537  0.7999
 6509SOL    HW130989   2.404   1.853   2.004  0.4607 -0.3922  1.0855
 6509SOL    HW230990   2.547   1.916   2.009  0.2182  0.4508  0.3097
 6510SOL     OW30991   1.890   0.232   1.828  0.3406 -0.2695  0.0198
 6510SOL    HW130992   1.814   0.290   1.836  1.8431  1.2690  3.1632
 6510SOL    HW230993   1.941   0.260   1.904 -0.9768  0.2516  0.7059
 6511SOL     OW30994   2.273   3.281   8.874 -0.2908 -0.3445  0.5219
 6511SOL    HW130995   2.355   3.269   8.921  0.8351 -0.0133 -1.3735
 6511SOL    HW230996   2.301   3.357   8.823  0.0601 -0.9387 -0.1714
 6512SOL     OW30997   3.008   3.105   5.630  0.3895  0.2528  0.1639
 6512SOL    HW130998   3.050   3.135   5.711  0.7121  1.3570 -0.4130
 6512SOL    HW230999   2.924   3.075   5.665  0.1362 -1.0637 -1.6009
 6513SOL     OW31000   2.852   2.440   2.284 -0.3121  0.1106  0.7192
 6513SOL    HW131001   2.903   2.359   2.279 -0.9341 -0.2973  0.9335
 6513SOL    HW231002   2.766   2.398   2.290  0.4397 -1.3104  1.6186
 6514SOL     OW31003   0.902   2.986  14.851  0.1455  0.3357 -0.2247
 6514SOL    HW131004   0.994   3.010  14.865  0.9449 -2.6435 -0.3911
 6514SOL    HW231005   0.866   3.031  14.928 -0.9007  0.3879 -0.7535
 6515SOL     OW31006   0.556   2.944   7.863  0.2715  0.3423  0.6713
 6515SOL    HW131007   0.627   2.881   7.848  0.3800  0.9173 -1.2714
 6515SOL    HW231008   0.547   2.924   7.956  1.9479 -1.6853  0.3946
 6516SOL     OW31009   3.008   4.268  15.368  0.3170  0.2863  0.3485
 6516SOL    HW131010   3.051   4.337  15.419 -1.9266  1.7541  0.2698
 6516SOL    HW231011   3.067   4.252  15.295 -1.9932  0.3250 -1.5055
 6517SOL     OW31012   1.733   3.784  15.159  0.0274 -0.3325 -0.3193
 6517SOL    HW131013   1.689   3.710  15.200 -1.8465  0.8995 -0.1065
 6517SOL    HW231014   1.666   3.816  15.098  0.3448  0.9858  0.0259
 6518SOL     OW31015   2.108   4.603   6.739  0.1476  0.6920 -0.0301
 6518SOL    HW131016   2.135   4.680   6.689  1.7764  0.2202  0.1263
 6518SOL    HW231017   2.015   4.623   6.733 -0.2322 -1.0151  0.2386
 6519SOL     OW31018   0.323   0.821   4.721 -0.2269  0.0403  0.1306
 6519SOL    HW131019   0.284   0.764   4.655  0.1994  1.3705 -1.2628
 6519SOL    HW231020   0.255   0.887   4.720  0.4204  0.7012 -0.3322
 6520SOL     OW31021   0.681   4.711  14.302 -0.3108 -0.0497 -0.8658
 6520SOL    HW131022   0.726   0.071  14.274  0.1743 -0.1632 -0.4247
 6520SOL    HW231023   0.639   0.027  14.380  2.2704 -0.5849  0.8023
 6521SOL     OW31024   0.115   4.451   5.586  0.2767 -0.4247  0.3055
 6521SOL    HW131025   0.114   4.415   5.497  0.9304  4.1376 -1.5451
 6521SOL    HW231026   0.023   4.454   5.612 -0.7136  0.6228 -3.2325
 6522SOL     OW31027   0.010   3.818   9.033 -0.2873 -0.2236  0.5186
 6522SOL    HW131028   4.657   3.779   8.985 -0.7580  0.8362  0.3633
 6522SOL    HW231029   0.019   3.769   9.115 -0.2290  1.4606  1.5170
 6523SOL     OW31030   0.826   1.403  13.884 -0.3519 -0.5270  0.5233
 6523SOL    HW131031   0.784   1.457  13.951  0.7153  1.9947 -0.8503
 6523SOL    HW231032   0.807   1.314  13.913  0.1078  0.1858  3.0086
 6524SOL     OW31033   3.563   1.387   6.982 -0.0887  0.4343 -0.4447
 6524SOL    HW131034   3.629   1.442   7.025 -1.2530  2.1568 -0.8800
 6524SOL    HW231035   3.484   1.440   6.985  0.6912  1.6030 -0.5446
 6525SOL     OW31036   0.077   2.936  10.724 -0.3717 -0.3058  0.0516
 6525SOL    HW131037   4.712   2.949  10.681 -0.1584  2.1133  0.3521
 6525SOL    HW231038   0.048   2.873  10.790  0.4965 -0.6305  0.1254
 6526SOL     OW31039   1.675   2.820   2.289  0.1836  0.1918 -0.0660
 6526SOL    HW131040   1.674   2.725   2.299 -1.0884  0.5492  2.9430
 6526SOL    HW231041   1.590   2.832   2.247  0.1222  1.2862  0.3899
 6527SOL     OW31042   1.885   3.148   6.232 -0.1894  0.3091 -0.3044
 6527SOL    HW131043   1.976   3.172   6.250  0.3989 -1.6365 -0.6559
 6527SOL    HW231044   1.895   3.089   6.157 -0.7440  1.5198 -1.3131
 6528SOL     OW31045   2.191   2.910   6.221  0.4026  0.3670 -0.0446
 6528SOL    HW131046   2.164   2.819   6.218  2.0946 -0.1421 -0.0095
 6528SOL    HW231047   2.270   2.899   6.168  0.4893  0.8726 -0.0206
 6529SOL     OW31048   2.700   2.411   8.386 -0.0684  0.2598  0.2885
 6529SOL    HW131049   2.678   2.465   8.310  0.7743  0.7690  0.4082
 6529SOL    HW231050   2.686   2.326   8.345 -1.8512  0.5969  0.1760
 6530SOL     OW31051   3.339   3.932  13.972 -0.4567  0.3279 -0.1562
 6530SOL    HW131052   3.271   3.947  14.038  0.7223  1.7891  0.7135
 6530SOL    HW231053   3.389   4.013  13.983 -0.2784  0.1340  0.4800
 6531SOL     OW31054   2.067   4.207   7.914 -0.5397  0.3091 -0.2048
 6531SOL    HW131055   2.030   4.191   8.001 -0.0707 -1.0650 -0.2551
 6531SOL    HW231056   2.134   4.139   7.918  0.3742  1.2296  0.1346
 6532SOL     OW31057   2.764   3.515   7.360  0.3608 -0.0205  0.2977
 6532SOL    HW131058   2.803   3.479   7.280 -0.5367  2.2780 -1.1957
 6532SOL    HW231059   2.775   3.440   7.418 -1.1937 -0.3749  0.1288
 6533SOL     OW31060   1.795   0.692   3.925 -0.1471  0.5736  0.1911
 6533SOL    HW131061   1.711   0.701   3.879  0.8332  1.5082 -1.4167
 6533SOL    HW231062   1.784   0.750   4.000 -1.5200 -0.6413  0.9379
 6534SOL     OW31063   1.829   4.121   7.059  0.8378 -0.0122  0.1935
 6534SOL    HW131064   1.778   4.135   6.979  1.2323 -0.3612 -0.1133
 6534SOL    HW231065   1.817   4.028   7.076  1.2403  0.1156  1.1768
 6535SOL     OW31066   0.896   1.276   9.217 -0.1091 -0.3681 -0.1531
 6535SOL    HW131067   0.829   1.334   9.179 -0.5648 -0.3474  0.6972
 6535SOL    HW231068   0.929   1.330   9.289 -0.8567  1.5976 -1.2754
 6536SOL     OW31069   2.334   1.532   4.715  0.0244  0.1975  0.1641
 6536SOL    HW131070   2.340   1.460   4.778 -2.4488 -0.1324  0.0447
 6536SOL    HW231071   2.394   1.597   4.751  1.2316 -0.8809  0.0736
 6537SOL     OW31072   2.055   4.144   4.411 -0.3483  0.0200 -0.3847
 6537SOL    HW131073   2.085   4.125   4.322  0.5722  1.3807 -0.3568
 6537SOL    HW231074   2.128   4.096   4.451  0.6793  0.0373 -2.2154
 6538SOL     OW31075   2.270   3.418   5.680  0.4484  0.1493 -0.4804
 6538SOL    HW131076   2.341   3.473   5.647  0.6889  0.8991  1.2715
 6538SOL    HW231077   2.238   3.371   5.603  0.3726 -0.7704  0.1108
 6539SOL     OW31078   2.406   2.945   0.746  0.8949 -0.4053  0.2188
 6539SOL    HW131079   2.455   2.985   0.817 -1.5229 -1.1351  2.2784
 6539SOL    HW231080   2.338   3.013   0.742  0.3012 -1.0343 -0.3482
 6540SOL     OW31081   0.135   4.185   7.935 -0.1647 -0.0277 -0.1750
 6540SOL    HW131082   0.137   4.118   8.004 -0.5687 -1.0485 -1.1621
 6540SOL    HW231083   0.214   4.158   7.889 -0.4114 -0.7105 -0.2018
 6541SOL     OW31084   3.980   2.044   2.052 -0.3413  0.2940 -0.0796
 6541SOL    HW131085   4.048   2.008   1.995  0.3540  1.9309 -0.2667
 6541SOL    HW231086   3.926   2.086   1.986 -1.0556 -0.5036 -0.0068
 6542SOL     OW31087   0.020   2.505  14.418  0.0321  0.7557 -0.3748
 6542SOL    HW131088   4.710   2.436  14.359  1.8895 -0.4390  0.0744
 6542SOL    HW231089   0.061   2.452  14.486  0.1129 -0.2461 -1.2121
 6543SOL     OW31090   3.033   2.111   2.943  0.2110 -0.4632  0.2141
 6543SOL    HW131091   3.083   2.162   2.879 -0.1282 -1.0075 -0.4824
 6543SOL    HW231092   2.989   2.046   2.888  1.2584 -0.0519 -1.1196
 6544SOL     OW31093   3.602   2.669   5.344 -0.5771  0.3614 -0.3283
 6544SOL    HW131094   3.673   2.664   5.280  0.3221 -1.5660  0.7988
 6544SOL    HW231095   3.626   2.603   5.409  1.1992  0.5496 -0.7744
 6545SOL     OW31096   2.352   2.163   1.854 -0.3359  0.0554 -0.3551
 6545SOL    HW131097   2.310   2.202   1.930  2.0624  1.1680  0.3989
 6545SOL    HW231098   2.374   2.079   1.893  0.6110  0.5349  0.1524
 6546SOL     OW31099   2.148   1.497   7.354  0.9096  0.4206  0.0874
 6546SOL    HW131100   2.211   1.439   7.313 -1.0127 -1.0872 -0.7469
 6546SOL    HW231101   2.120   1.440   7.426 -1.1044 -0.5099 -1.4515
 6547SOL     OW31102   2.308   1.536  15.533  0.0089  0.1111 -0.0308
 6547SOL    HW131103   2.328   1.457  15.483  0.6747 -0.6466  1.4614
 6547SOL    HW231104   2.394   1.561  15.567 -0.2724  0.1546  0.6385
 6548SOL     OW31105   1.857   0.291   6.029 -0.2132  0.6582  0.1360
 6548SOL    HW131106   1.912   0.368   6.011 -1.0361  1.2494  0.1387
 6548SOL    HW231107   1.787   0.339   6.072 -0.5709  0.2462  0.0081
 6549SOL     OW31108   0.663   1.351  15.879  0.1445  0.2663 -0.5078
 6549SOL    HW131109   0.571   1.375  15.878 -0.0057 -0.1845  2.8903
 6549SOL    HW231110   0.665   1.312  15.792 -0.9592  0.9257 -0.8235
 6550SOL     OW31111   2.671   0.927   8.881 -0.2025  0.0776 -0.3126
 6550SOL    HW131112   2.675   0.875   8.961 -0.6821 -0.4219 -0.6106
 6550SOL    HW231113   2.579   0.950   8.891  0.1214  1.5327 -0.6780
 6551SOL     OW31114   0.654   0.609   3.671  0.3906  0.3571  0.0021
 6551SOL    HW131115   0.574   0.613   3.619  0.7747 -0.3440 -0.6453
 6551SOL    HW231116   0.635   0.546   3.740 -2.5463 -0.1345 -1.2669
 6552SOL     OW31117   4.045   4.099  13.995  0.3832 -0.2552 -0.3795
 6552SOL    HW131118   4.013   4.137  13.913  2.5634  1.1496 -0.5879
 6552SOL    HW231119   4.045   4.007  13.971 -4.1003 -0.5456  0.7255
 6553SOL     OW31120   3.224   2.272  10.399 -0.0527  0.6244 -0.2444
 6553SOL    HW131121   3.296   2.226  10.357  0.4825 -1.3237  2.8385
 6553SOL    HW231122   3.148   2.228  10.361  0.3412  0.2330 -0.5745
 6554SOL     OW31123   3.222   2.525   2.820  0.6703 -0.8038  0.4459
 6554SOL    HW131124   3.236   2.587   2.749 -0.3553 -2.2518 -1.0226
 6554SOL    HW231125   3.192   2.445   2.776  2.7796 -0.4801 -1.5654
 6555SOL     OW31126   2.789   1.642   3.022 -0.3569  0.0170  0.2125
 6555SOL    HW131127   2.794   1.625   3.116  2.1551  1.5481  0.3751
 6555SOL    HW231128   2.746   1.728   3.019 -0.8054 -0.2592 -0.9931
 6556SOL     OW31129   0.453   1.995   7.201  0.0768  0.2876  0.0622
 6556SOL    HW131130   0.544   2.004   7.175 -0.0552  1.5284  0.0120
 6556SOL    HW231131   0.427   2.085   7.181  0.3122 -1.0219 -6.0823
 6557SOL     OW31132   2.467   2.357   3.262  0.1819  0.0488 -0.7434
 6557SOL    HW131133   2.508   2.317   3.185  0.7697  1.4682 -1.1622
 6557SOL    HW231134   2.434   2.280   3.309 -0.1048  0.1678 -0.7459
 6558SOL     OW31135   0.606   2.187  13.681 -0.4852 -0.0221  0.6979
 6558SOL    HW131136   0.686   2.145  13.649 -1.4605 -0.3553 -1.3261
 6558SOL    HW231137   0.621   2.168  13.773 -1.7599 -0.5279  0.8120
 6559SOL     OW31138   4.536   1.824  16.031  0.2023 -0.5557  0.5236
 6559SOL    HW131139   4.480   1.899  16.050  0.3935 -0.0487 -0.9795
 6559SOL    HW231140   4.517   1.817  15.938 -1.1156 -0.6394  0.7911
 6560SOL     OW31141   3.058   1.831   9.092  0.7211  0.0363  0.3984
 6560SOL    HW131142   3.061   1.781   9.011 -0.7692 -0.8046  0.8332
 6560SOL    HW231143   3.127   1.895   9.079  0.7245  0.1866  1.1427
 6561SOL     OW31144   1.139   4.504   8.019  0.0131  0.2640 -0.6062
 6561SOL    HW131145   1.138   4.549   8.104  0.7105 -0.7189 -0.0790
 6561SOL    HW231146   1.114   4.580   7.967 -3.5689 -1.4953 -1.4417
 6562SOL     OW31147   2.905   2.173   1.089 -0.3741  0.6800  0.7179
 6562SOL    HW131148   2.925   2.238   1.156 -1.2632  0.2938  1.3558
 6562SOL    HW231149   2.966   2.204   1.023  2.1272 -1.9918  1.7167
 6563SOL     OW31150   2.024   4.574   5.227 -0.1839 -0.6729  0.2393
 6563SOL    HW131151   2.005   4.551   5.318  0.8948 -0.8561  0.4209
 6563SOL    HW231152   2.044   4.489   5.189  1.9039  0.5300 -1.3930
 6564SOL     OW31153   2.131   1.816   0.372  0.2162 -0.3155  0.1632
 6564SOL    HW131154   2.195   1.745   0.364 -0.5838 -1.1498  1.3030
 6564SOL    HW231155   2.084   1.786   0.449  0.7893  1.6637  1.2776
 6565SOL     OW31156   1.019   3.651  16.516 -0.7100 -0.3066  0.0986
 6565SOL    HW131157   0.986   3.639  16.427 -0.0398  0.0690 -0.2024
 6565SOL    HW231158   1.097   3.705  16.497 -1.1577  0.5862  0.7924
 6566SOL     OW31159   3.741   2.609   7.416 -0.1544 -0.0004 -0.2874
 6566SOL    HW131160   3.718   2.518   7.395  0.7682 -0.8856  2.5135
 6566SOL    HW231161   3.662   2.662   7.412 -1.9063 -2.4116  2.6267
 6567SOL     OW31162   4.451   0.557  10.555  0.4898 -0.0457 -0.2879
 6567SOL    HW131163   4.407   0.642  10.549  1.2059  0.1998 -1.9915
 6567SOL    HW231164   4.394   0.511  10.494 -0.3187  0.0922  0.3479
 6568SOL     OW31165   0.996   2.748   3.217 -1.1341  0.1967 -0.2386
 6568SOL    HW131166   0.912   2.718   3.252 -1.8590  1.3321 -1.0101
 6568SOL    HW231167   0.978   2.841   3.229  0.4885  0.3956  0.5924
 6569SOL     OW31168   0.102   3.654   1.891 -0.4142  0.0616 -0.2503
 6569SOL    HW131169   0.119   3.701   1.973 -1.6654  0.2532 -0.0952
 6569SOL    HW231170   0.013   3.622   1.907 -0.1041  0.1572  1.6783
 6570SOL     OW31171   4.023   1.688   2.093 -0.6466 -0.5171 -0.1319
 6570SOL    HW131172   4.088   1.646   2.037  0.7874  1.8352 -0.2364
 6570SOL    HW231173   3.937   1.688   2.052  0.3550  0.1906 -2.2773
 6571SOL     OW31174   3.456   4.024   8.192  0.1403  0.2175 -0.3532
 6571SOL    HW131175   3.417   4.031   8.279  3.6799 -0.4865  1.3068
 6571SOL    HW231176   3.542   3.988   8.213 -0.8342 -1.2547  1.0630
 6572SOL     OW31177   0.348   0.014   5.101 -0.7045 -0.0862 -0.1694
 6572SOL    HW131178   0.350   0.079   5.171 -1.6981  1.3125 -1.4179
 6572SOL    HW231179   0.394   4.659   5.139 -0.4444  0.4736  0.6091
 6573SOL     OW31180   2.062   0.885   7.512  0.2741 -0.7148 -0.2602
 6573SOL    HW131181   1.974   0.863   7.543  0.1126  2.1605  1.2947
 6573SOL    HW231182   2.036   0.955   7.452  1.6498  0.4483  0.4973
 6574SOL     OW31183   0.000   3.521   4.750  0.7102  0.3659 -0.8654
 6574SOL    HW131184   4.658   3.594   4.751  3.1516  2.4205  0.3705
 6574SOL    HW231185   0.025   3.516   4.657 -0.4151  0.6557 -1.1793
 6575SOL     OW31186   3.416   0.243   8.564  0.3927  0.0936 -0.1772
 6575SOL    HW131187   3.464   0.172   8.521 -1.4149 -0.7785 -0.7531
 6575SOL    HW231188   3.369   0.285   8.492 -2.1204 -1.3973  0.6203
 6576SOL     OW31189   0.091   4.011  15.875  0.2798 -0.9666 -0.4125
 6576SOL    HW131190   0.127   3.926  15.900  1.2634  0.3347  2.6100
 6576SOL    HW231191   0.099   4.046  15.964  0.2091  0.8565 -1.1240
 6577SOL     OW31192   2.682   2.743   5.478 -0.4056 -0.4064 -0.3900
 6577SOL    HW131193   2.610   2.713   5.422 -0.3327 -0.6283 -0.3646
 6577SOL    HW231194   2.751   2.757   5.412 -0.7725  0.8428 -0.5082
 6578SOL     OW31195   2.691   2.167  14.495 -0.1827  0.2492  0.3775
 6578SOL    HW131196   2.753   2.095  14.477 -1.2138 -0.8010  1.0498
 6578SOL    HW231197   2.689   2.160  14.590 -0.4253 -2.8812  0.1463
 6579SOL     OW31198   3.839   3.867   0.123 -0.2179 -0.1123  0.0176
 6579SOL    HW131199   3.781   3.803   0.166 -0.1512  1.3253  2.2570
 6579SOL    HW231200   3.861   3.925   0.196 -0.7187 -0.2923  0.3118
 6580SOL     OW31201   3.230   2.988   4.301 -0.1687  0.3279  0.2613
 6580SOL    HW131202   3.315   2.943   4.301 -0.0184  0.6592 -3.0930
 6580SOL    HW231203   3.213   2.993   4.207  4.3612 -1.4798 -0.6349
 6581SOL     OW31204   2.506   3.494   1.524  0.0205 -0.0644  0.2335
 6581SOL    HW131205   2.596   3.519   1.508 -0.2286 -0.1072 -1.2317
 6581SOL    HW231206   2.473   3.495   1.434  0.1292 -1.6730  0.1684
 6582SOL     OW31207   3.386   3.943   8.485 -0.7185  0.5949  0.1931
 6582SOL    HW131208   3.435   3.863   8.506  0.3781  1.4391  0.8501
 6582SOL    HW231209   3.306   3.905   8.449  0.3502 -3.5208  2.1288
 6583SOL     OW31210   3.793   1.540   2.030 -0.3840 -0.1337  0.7925
 6583SOL    HW131211   3.768   1.564   1.941  1.1279 -2.7852 -0.3488
 6583SOL    HW231212   3.708   1.550   2.073 -1.0593 -0.9739 -0.3569
 6584SOL     OW31213   2.859   3.905   4.858  0.2429 -0.1973  0.0759
 6584SOL    HW131214   2.852   3.812   4.836 -0.2236 -0.5218  1.5519
 6584SOL    HW231215   2.952   3.924   4.845 -0.2357  2.3488  0.3916
 6585SOL     OW31216   1.667   3.464   2.648 -0.5741 -0.7115  0.0497
 6585SOL    HW131217   1.598   3.529   2.635  1.3313  1.6406  1.5610
 6585SOL    HW231218   1.616   3.403   2.700  1.0547 -2.2820 -0.1818
 6586SOL     OW31219   3.807   0.455   1.414  0.1668  0.1125 -0.0349
 6586SOL    HW131220   3.795   0.544   1.448 -1.0054  0.8210 -2.3308
 6586SOL    HW231221   3.727   0.442   1.363 -0.6426  0.3273  1.1527
 6587SOL     OW31222   2.741   3.203  15.104 -0.4991 -0.0026 -0.2662
 6587SOL    HW131223   2.706   3.183  15.017  0.1310 -0.0922 -0.5029
 6587SOL    HW231224   2.742   3.298  15.117 -2.2271 -0.3215  2.1424
 6588SOL     OW31225   3.806   0.092  14.126  0.3060  0.3834  0.0482
 6588SOL    HW131226   3.864   0.061  14.195 -0.0904 -2.9022 -1.1092
 6588SOL    HW231227   3.854   0.172  14.103  0.8913 -0.7646 -2.8653
 6589SOL     OW31228   1.784   3.275  13.307 -0.3929  0.3301  0.6330
 6589SOL    HW131229   1.818   3.332  13.375 -1.7937  0.8789  0.8455
 6589SOL    HW231230   1.778   3.192  13.354  0.3883 -0.1358 -0.0853
 6590SOL     OW31231   1.414   1.808   2.500  0.1357 -0.3301  0.0507
 6590SOL    HW131232   1.504   1.775   2.505 -0.2771 -1.3574  0.6238
 6590SOL    HW231233   1.391   1.808   2.593  1.2253  0.9394  0.3227
 6591SOL     OW31234   3.314   3.520   6.241  0.7470  0.2408  0.1674
 6591SOL    HW131235   3.331   3.612   6.221  0.0022  0.7670  1.9558
 6591SOL    HW231236   3.403   3.487   6.251  1.2251  1.4923  0.0864
 6592SOL     OW31237   2.329   3.359   6.184  0.2559  0.0898  0.1336
 6592SOL    HW131238   2.308   3.451   6.203 -1.4985 -0.3717  0.4608
 6592SOL    HW231239   2.289   3.353   6.098 -0.0444  0.1412  0.2674
 6593SOL     OW31240   0.386   4.298   5.777  0.4690  0.2005  0.2455
 6593SOL    HW131241   0.384   4.220   5.831 -1.8460 -1.6279 -2.4922
 6593SOL    HW231242   0.292   4.311   5.768  0.1146 -2.8599 -0.3744
 6594SOL     OW31243   0.868   3.130  13.362 -0.7766 -0.0218 -0.6004
 6594SOL    HW131244   0.895   3.195  13.428  0.3890 -1.5437  0.4339
 6594SOL    HW231245   0.779   3.161  13.351 -0.1256  2.2488  0.5125
 6595SOL     OW31246   2.115   2.887   8.757 -0.3744  0.1501 -0.6771
 6595SOL    HW131247   2.049   2.936   8.806 -0.1986 -0.4534  0.1625
 6595SOL    HW231248   2.140   2.831   8.830 -0.9511 -0.2568 -0.7917
 6596SOL     OW31249   1.205   2.954   1.932  0.2511 -0.0327  0.7167
 6596SOL    HW131250   1.220   2.860   1.924 -2.0650 -0.3697  0.0744
 6596SOL    HW231251   1.278   2.992   1.884  1.6359 -2.0192  1.2669
 6597SOL     OW31252   4.593   1.194   3.533  0.8926 -0.0649 -0.0830
 6597SOL    HW131253   4.640   1.271   3.565  0.6411 -0.8221  2.0725
 6597SOL    HW231254   4.672   1.150   3.500  0.3935 -0.4453 -0.7722
 6598SOL     OW31255   4.401   4.138  16.957 -0.0969 -0.1101  0.1138
 6598SOL    HW131256   4.417   4.130  16.863 -1.7574  2.3945 -0.3571
 6598SOL    HW231257   4.481   4.170  16.999 -1.0539  1.1098  0.9919
 6599SOL     OW31258   0.305   3.874   8.759  0.1377  0.0025 -0.3972
 6599SOL    HW131259   0.339   3.931   8.828 -0.0744  0.3132 -0.5464
 6599SOL    HW231260   0.281   3.795   8.807  1.3003 -0.1472 -0.0780
 6600SOL     OW31261   2.220   2.264   2.810 -0.5760  0.2708 -0.0173
 6600SOL    HW131262   2.165   2.215   2.748  1.1767 -1.5835 -0.1011
 6600SOL    HW231263   2.271   2.326   2.758 -0.7030  0.8820  0.5870
 6601SOL     OW31264   3.950   3.733   2.565 -0.2872  0.1581  0.2386
 6601SOL    HW131265   3.947   3.639   2.585  0.1539  0.2432  0.7254
 6601SOL    HW231266   3.897   3.749   2.487  0.3085  1.4167  0.0968
 6602SOL     OW31267   1.470   0.883   7.220  0.2708  0.1979  0.4180
 6602SOL    HW131268   1.461   0.798   7.176 -1.8933  0.3112  0.6894
 6602SOL    HW231269   1.384   0.923   7.207  0.0028 -0.0451  1.4394
 6603SOL     OW31270   4.509   1.437   4.531 -0.2204  0.3092  0.7221
 6603SOL    HW131271   4.516   1.349   4.493 -2.8814  0.7401 -0.7271
 6603SOL    HW231272   4.599   1.472   4.532 -0.0701 -0.0519 -0.2398
 6604SOL     OW31273   3.841   3.842  11.997  0.5901 -0.2420  0.1408
 6604SOL    HW131274   3.854   3.798  11.913 -1.4029 -2.3198  0.9175
 6604SOL    HW231275   3.882   3.785  12.062 -1.5578 -0.6819  1.1081
 6605SOL     OW31276   4.672   3.209   3.208 -0.2491 -0.7356 -0.4831
 6605SOL    HW131277   4.702   3.175   3.292  1.8654  1.5517 -0.3203
 6605SOL    HW231278   4.679   3.138   3.144  1.4268  0.7318 -1.9213
 6606SOL     OW31279   2.133   3.109  14.473 -0.7393  0.5914 -0.3041
 6606SOL    HW131280   2.118   3.016  14.486 -1.9042  0.9360  0.8243
 6606SOL    HW231281   2.066   3.121  14.406  1.7301  2.6449 -2.4254
 6607SOL     OW31282   3.622   0.351  13.683 -0.1264 -0.0429 -0.3642
 6607SOL    HW131283   3.640   0.412  13.612 -0.2427  2.1441  1.4990
 6607SOL    HW231284   3.689   0.386  13.742 -1.2639  0.1307  0.8158
 6608SOL     OW31285   2.000   1.089   7.342  0.5064  0.1658  0.0984
 6608SOL    HW131286   1.979   1.158   7.406 -1.5904  1.8924 -2.4609
 6608SOL    HW231287   1.938   1.127   7.279 -0.8895  0.9118  1.8879
 6609SOL     OW31288   4.303   1.232   6.528  0.2040  0.2180  0.4012
 6609SOL    HW131289   4.393   1.206   6.512 -0.8684 -2.5952 -0.9814
 6609SOL    HW231290   4.309   1.307   6.588 -0.4585 -0.4726  1.3407
 6610SOL     OW31291   4.093   2.676   5.566  0.1554  0.2372  0.4863
 6610SOL    HW131292   4.011   2.718   5.591  0.4453  1.6162 -0.8458
 6610SOL    HW231293   4.079   2.582   5.576  0.0951  0.2784  0.7953
 6611SOL     OW31294   2.055   4.527  14.326 -0.1038 -0.0140  0.1076
 6611SOL    HW131295   2.013   4.610  14.303 -0.0595  0.0701  0.3319
 6611SOL    HW231296   1.993   4.490  14.388  1.5995 -0.6520  1.4498
 6612SOL     OW31297   1.896   2.837  14.345  0.3043 -0.0055  0.6523
 6612SOL    HW131298   1.985   2.812  14.321  0.0248  1.1179 -1.5525
 6612SOL    HW231299   1.847   2.755  14.332  3.3312 -1.4517 -1.6583
 6613SOL     OW31300   0.680   0.694   5.566  0.0577 -0.6443 -0.0679
 6613SOL    HW131301   0.700   0.768   5.624 -0.3338 -0.6986  0.1322
 6613SOL    HW231302   0.769   0.659   5.557  0.4401 -0.2533  2.1519
 6614SOL     OW31303   3.399   2.375   7.941  0.3289 -0.8330  0.1686
 6614SOL    HW131304   3.330   2.357   8.005  1.2889  0.0548  1.4505
 6614SOL    HW231305   3.466   2.408   8.000 -0.6109 -1.4241  1.5766
 6615SOL     OW31306   0.148   2.460   9.674 -0.0929  0.0658  0.0741
 6615SOL    HW131307   0.154   2.405   9.596  3.8458  0.4379  0.1227
 6615SOL    HW231308   0.208   2.415   9.734  0.2155  1.0749  0.5229
 6616SOL     OW31309   1.389   4.450   5.679  0.1066 -0.5977  0.4183
 6616SOL    HW131310   1.309   4.398   5.689  0.0123 -0.7973 -1.4536
 6616SOL    HW231311   1.364   4.509   5.608 -0.1755 -1.3843 -0.1420
 6617SOL     OW31312   4.149   1.504  17.619 -0.1823  0.3768  0.4633
 6617SOL    HW131313   4.243   1.518  17.633  0.1503 -0.2283 -1.1512
 6617SOL    HW231314   4.151   1.409  17.609 -2.3655  0.5132 -1.4076
 6618SOL     OW31315   1.262   1.926   8.218  0.0371 -1.2889  0.5259
 6618SOL    HW131316   1.315   1.854   8.253  1.7718 -0.3538 -0.1903
 6618SOL    HW231317   1.323   1.987   8.176 -0.2058 -0.2441  1.7002
 6619SOL     OW31318   3.424   3.296   0.997 -0.0827  0.5692 -0.3851
 6619SOL    HW131319   3.454   3.368   1.054 -0.0852  0.4049 -0.1765
 6619SOL    HW231320   3.426   3.224   1.060 -2.2023  2.1249  1.4275
 6620SOL     OW31321   2.564   4.710   5.447 -0.0992 -0.2004 -0.4539
 6620SOL    HW131322   2.474   4.700   5.417 -0.0926  1.1373 -0.9350
 6620SOL    HW231323   2.552   0.065   5.506 -3.8907  0.6165 -2.2804
 6621SOL     OW31324   0.384   2.023  12.217  0.1603  0.1808 -0.1122
 6621SOL    HW131325   0.443   2.083  12.172  0.4759 -0.0737 -0.0474
 6621SOL    HW231326   0.321   2.016  12.145  0.6961  1.0159 -0.6511
 6622SOL     OW31327   1.292   1.087   7.252  0.2950  0.0028  0.1748
 6622SOL    HW131328   1.268   1.064   7.342 -0.1143 -0.5715 -0.0841
 6622SOL    HW231329   1.351   1.161   7.268 -1.9878  1.7521  0.4426
 6623SOL     OW31330   1.492   2.613   3.678  0.6648  0.5678 -0.3019
 6623SOL    HW131331   1.488   2.693   3.625 -2.0311  0.6581  0.0496
 6623SOL    HW231332   1.574   2.642   3.719 -0.3291 -1.6507  3.1857
 6624SOL     OW31333   4.180   0.061   3.705 -0.1573 -0.1106  0.1699
 6624SOL    HW131334   4.104   0.010   3.676 -0.9221  1.1649 -0.1198
 6624SOL    HW231335   4.241   0.044   3.634 -1.0154 -2.8227  0.0799
 6625SOL     OW31336   0.585   2.376   0.434  0.5433  0.3988  0.2275
 6625SOL    HW131337   0.494   2.404   0.448 -0.4972 -2.9042  0.1644
 6625SOL    HW231338   0.583   2.301   0.375  2.2337  0.5576 -0.0273
 6626SOL     OW31339   3.653   4.044   5.426  0.2659  0.1554 -0.2027
 6626SOL    HW131340   3.636   3.964   5.475 -3.2126  0.6281 -0.6178
 6626SOL    HW231341   3.636   4.007   5.340  1.0914  0.0524 -0.3174
 6627SOL     OW31342   1.359   4.020   8.583  0.6194  0.0713  0.0288
 6627SOL    HW131343   1.296   3.952   8.559  2.1365 -1.7327  1.2524
 6627SOL    HW231344   1.436   3.964   8.575  0.3387 -0.5001  1.3983
 6628SOL     OW31345   4.692   3.725   2.973  0.2149 -0.3827  0.0618
 6628SOL    HW131346   4.613   3.672   2.981  1.2273 -1.8396  0.3132
 6628SOL    HW231347   0.033   3.663   2.933  0.2635 -1.3294  1.6251
 6629SOL     OW31348   4.202   0.971   2.990 -0.1694 -1.0454 -0.6003
 6629SOL    HW131349   4.200   0.915   3.068  3.7498 -2.7347 -1.7367
 6629SOL    HW231350   4.211   1.055   3.034 -2.0028  0.7179 -3.6190
 6630SOL     OW31351   3.852   1.674   4.401 -0.0129 -0.5466  0.3430
 6630SOL    HW131352   3.805   1.628   4.332 -0.2368 -1.2952  0.9917
 6630SOL    HW231353   3.785   1.676   4.469  0.5469  0.8270  0.8607
 6631SOL     OW31354   1.362   2.547  17.381 -0.0060  0.2778  0.1730
 6631SOL    HW131355   1.445   2.590  17.402 -0.3760  1.2417 -0.3327
 6631SOL    HW231356   1.314   2.547  17.464  0.0296 -1.1431  0.1864
 6632SOL     OW31357   3.608   2.618  13.772 -0.2966  0.3092 -0.7976
 6632SOL    HW131358   3.659   2.694  13.801 -0.9706  0.0329  1.0641
 6632SOL    HW231359   3.524   2.662  13.762 -1.0042 -0.5607  1.3160
 6633SOL     OW31360   0.993   1.482   9.410  0.9041  0.4419  0.2936
 6633SOL    HW131361   0.967   1.535   9.485 -3.0323 -0.8888 -0.1509
 6633SOL    HW231362   1.041   1.545   9.356 -0.2980 -1.1498 -2.6782
 6634SOL     OW31363   1.059   3.472   2.464 -0.2243 -0.2036 -0.1139
 6634SOL    HW131364   1.122   3.510   2.404 -1.2967  1.4065 -0.1966
 6634SOL    HW231365   1.097   3.384   2.468  2.3160  0.8286 -1.4335
 6635SOL     OW31366   2.354   4.254   6.559 -0.0093  0.2555  0.1012
 6635SOL    HW131367   2.310   4.336   6.534 -0.5936  0.2098  0.9676
 6635SOL    HW231368   2.444   4.285   6.561 -1.1139  3.4287  0.6763
 6636SOL     OW31369   3.595   3.449   1.187  0.2442  0.0826  0.0777
 6636SOL    HW131370   3.639   3.495   1.259 -0.0574 -0.0350  0.3399
 6636SOL    HW231371   3.634   3.362   1.194  2.4359  1.1448  0.9977
 6637SOL     OW31372   1.197   2.850   3.761 -0.4870 -0.1628  0.0237
 6637SOL    HW131373   1.129   2.859   3.828 -0.1356 -2.3879  0.7020
 6637SOL    HW231374   1.264   2.812   3.818 -1.3541 -1.3618  0.2416
 6638SOL     OW31375   3.009   2.280   6.489 -0.3437  0.1320 -0.1293
 6638SOL    HW131376   3.022   2.365   6.448 -2.1198 -0.2457 -1.4682
 6638SOL    HW231377   2.995   2.307   6.580  0.8185 -0.5068  0.2436
 6639SOL     OW31378   1.955   3.813   5.798  0.1997  0.1841 -0.0673
 6639SOL    HW131379   2.037   3.781   5.760  0.1520  0.5890 -0.5157
 6639SOL    HW231380   1.969   3.905   5.820 -1.2092  0.1736  0.8110
 6640SOL     OW31381   0.916   1.864   6.625  0.2784  0.4666 -0.1449
 6640SOL    HW131382   0.964   1.864   6.542  0.5358 -2.5664 -0.0012
 6640SOL    HW231383   0.951   1.940   6.672  0.7810  0.9739 -1.3446
 6641SOL     OW31384   2.296   0.885   7.144 -0.4292 -0.2106  0.3345
 6641SOL    HW131385   2.215   0.836   7.130 -1.2550  1.5799 -1.1971
 6641SOL    HW231386   2.338   0.877   7.059 -1.8265  0.2870 -0.4025
 6642SOL     OW31387   3.194   1.866   8.209 -0.4921  0.9851  0.4090
 6642SOL    HW131388   3.238   1.886   8.292 -1.3952  2.6995  0.4803
 6642SOL    HW231389   3.270   1.878   8.152 -0.3116  0.3284  0.5104
 6643SOL     OW31390   3.870   1.568  17.669  0.1499 -0.6074 -0.4453
 6643SOL    HW131391   3.963   1.553  17.651  0.0490 -1.1373 -0.5124
 6643SOL    HW231392   3.848   1.483   0.025  1.1060 -0.6984 -0.0927
 6644SOL     OW31393   2.345   1.262   4.278  0.2005  0.6040 -0.5470
 6644SOL    HW131394   2.419   1.303   4.232 -0.2038  1.7822 -0.1313
 6644SOL    HW231395   2.362   1.283   4.370 -1.6963  0.6733 -0.2215
 6645SOL     OW31396   3.067   1.445   3.562 -0.3562 -0.2071 -0.2230
 6645SOL    HW131397   3.114   1.528   3.557 -1.6707  0.5714  0.1549
 6645SOL    HW231398   2.973   1.466   3.555 -0.5186 -0.7195  0.4200
 6646SOL     OW31399   2.747   3.639  11.944  0.1578 -0.4905  0.1606
 6646SOL    HW131400   2.812   3.601  12.003  1.7604  1.0590 -0.6214
 6646SOL    HW231401   2.718   3.703  12.009  0.9573 -1.5078  1.5131
 6647SOL     OW31402   0.541   3.454  11.604  0.3047  0.8045  0.0151
 6647SOL    HW131403   0.446   3.443  11.603  0.2259  1.3247  1.0723
 6647SOL    HW231404   0.565   3.364  11.625 -1.8574 -0.1646 -1.6905
 6648SOL     OW31405   4.677   4.092   9.108 -0.2839 -0.3557  0.0583
 6648SOL    HW131406   4.661   4.118   9.018  1.1915 -0.2709 -0.1790
 6648SOL    HW231407   4.707   4.002   9.092  0.4714  0.2314 -1.7722
 6649SOL     OW31408   0.984   0.050   6.585  0.4269  0.0938  0.1421
 6649SOL    HW131409   0.999   4.690   6.535 -2.6166 -0.9803  0.9524
 6649SOL    HW231410   0.917   0.099   6.536 -0.0762 -1.7001 -0.9560
 6650SOL     OW31411   3.481   3.363  15.116  0.1003 -0.2685 -0.2987
 6650SOL    HW131412   3.452   3.324  15.198  0.6926  0.4281  0.2554
 6650SOL    HW231413   3.504   3.282  15.070 -0.4808 -0.6783  0.1448
 6651SOL     OW31414   1.924   2.897   8.488  0.0993  0.0840 -0.2538
 6651SOL    HW131415   2.002   2.900   8.543  0.7143 -2.2026 -0.9763
 6651SOL    HW231416   1.957   2.845   8.414  0.7396  0.5358 -0.2868
 6652SOL     OW31417   3.495   1.955   6.761  0.2964  0.6828  0.1151
 6652SOL    HW131418   3.490   2.034   6.815  0.5349  1.1988 -0.6071
 6652SOL    HW231419   3.568   1.911   6.804  0.2138  0.3828 -0.0511
 6653SOL     OW31420   3.460   0.427   4.678 -0.0069 -0.5604 -0.3895
 6653SOL    HW131421   3.424   0.382   4.755 -0.2880  0.4903  0.0898
 6653SOL    HW231422   3.471   0.347   4.627  2.1659  0.0717 -0.9167
 6654SOL     OW31423   2.027   0.348   7.928 -0.2853 -0.3346 -0.5099
 6654SOL    HW131424   1.966   0.317   7.861  0.2762 -3.1997  0.2914
 6654SOL    HW231425   1.970   0.364   8.004 -1.6555 -0.0921 -1.5922
 6655SOL     OW31426   4.055   3.440  16.157 -1.1112  0.2402 -0.7623
 6655SOL    HW131427   3.967   3.477  16.147 -1.1188  0.6586  0.8188
 6655SOL    HW231428   4.082   3.471  16.244 -1.6407  1.6362 -1.0962
 6656SOL     OW31429   2.839   3.629  14.581 -0.5975 -0.1991  0.4037
 6656SOL    HW131430   2.909   3.686  14.612 -0.5001 -0.0590 -0.0776
 6656SOL    HW231431   2.769   3.641  14.645 -1.1289 -1.6919  0.1093
 6657SOL     OW31432   4.400   4.431   4.479  0.3982  0.5576 -0.7491
 6657SOL    HW131433   4.328   4.434   4.416  0.6040 -0.2849 -1.0108
 6657SOL    HW231434   4.474   4.455   4.423  1.9254  2.3022  2.0045
 6658SOL     OW31435   2.439   1.771  15.363 -0.5930 -0.1905 -0.0382
 6658SOL    HW131436   2.349   1.750  15.389 -0.8118  0.7316 -0.0503
 6658SOL    HW231437   2.479   1.727  15.437  2.1898  3.4544  0.5889
 6659SOL     OW31438   0.179   4.048   5.699  0.2247 -0.2052  0.0494
 6659SOL    HW131439   0.260   4.036   5.749 -1.7348 -2.2826  2.7098
 6659SOL    HW231440   0.129   4.110   5.752  0.8563  0.7038 -0.4215
 6660SOL     OW31441   0.214   1.716   4.137 -0.2691 -0.5016  0.3883
 6660SOL    HW131442   0.307   1.706   4.157 -0.3163 -1.8234 -0.0380
 6660SOL    HW231443   0.221   1.796   4.086 -0.7913 -0.8912 -0.3097
 6661SOL     OW31444   0.180   1.306   7.243 -0.0961 -0.2962  0.1647
 6661SOL    HW131445   0.157   1.397   7.263  0.6536  0.0760 -0.6489
 6661SOL    HW231446   0.138   1.300   7.157 -0.5388 -0.3553  0.3808
 6662SOL     OW31447   3.172   0.841   8.575  0.6700 -0.1281 -0.1061
 6662SOL    HW131448   3.177   0.895   8.496 -1.7745  2.0710  1.2250
 6662SOL    HW231449   3.122   0.770   8.536 -0.8433 -0.0208  1.6341
 6663SOL     OW31450   3.058   3.528  11.078  0.3233  0.0720  0.0254
 6663SOL    HW131451   3.095   3.470  11.144 -1.2564 -1.6758 -0.6282
 6663SOL    HW231452   3.131   3.511  11.018 -0.0578  0.4292 -0.5423
 6664SOL     OW31453   0.657   2.554  14.572 -0.3930  0.3136  0.1406
 6664SOL    HW131454   0.611   2.521  14.650  0.8636  0.5936  1.0038
 6664SOL    HW231455   0.583   2.596  14.528 -0.0559  0.1800 -0.5520
 6665SOL     OW31456   3.941   3.469   6.401  0.4350 -0.0482  0.0059
 6665SOL    HW131457   3.958   3.409   6.473 -0.3139 -1.3014 -0.8855
 6665SOL    HW231458   3.999   3.437   6.332  1.1649 -0.6319  0.9085
 6666SOL     OW31459   0.156   3.542   3.279 -0.4041 -0.0835  0.0084
 6666SOL    HW131460   0.220   3.543   3.208  1.8689  0.1663  2.0551
 6666SOL    HW231461   0.091   3.479   3.247  0.3916 -0.7133 -0.3747
 6667SOL     OW31462   2.128   4.687   4.153  0.0513  0.4476  0.1185
 6667SOL    HW131463   2.182   4.675   4.231  1.4190  1.1794 -0.7192
 6667SOL    HW231464   2.038   4.684   4.185 -0.3499 -1.9399 -1.1682
 6668SOL     OW31465   4.385   2.272  16.644 -0.3762 -0.4666 -0.1646
 6668SOL    HW131466   4.327   2.332  16.692 -0.5653 -0.4205 -0.4477
 6668SOL    HW231467   4.333   2.258  16.565 -0.9176  0.8340 -0.0397
 6669SOL     OW31468   1.798   3.676   4.185  0.5544 -0.1611 -0.2006
 6669SOL    HW131469   1.800   3.586   4.151 -1.4624 -0.2763  0.0003
 6669SOL    HW231470   1.888   3.702   4.167  1.9404 -4.0879  1.0802
 6670SOL     OW31471   0.842   1.059   4.278  0.4685  0.2650  0.2991
 6670SOL    HW131472   0.836   0.993   4.209  0.7359 -0.1440  0.6725
 6670SOL    HW231473   0.801   1.009   4.348  0.7236 -0.7090 -0.2449
 6671SOL     OW31474   1.438   1.439   8.120  0.2933  0.0437  0.2210
 6671SOL    HW131475   1.505   1.504   8.142  0.0991  0.0768  0.7101
 6671SOL    HW231476   1.368   1.446   8.186  1.0361  0.0571  1.0076
 6672SOL     OW31477   0.738   1.886   3.054  0.2042  0.0292  0.2522
 6672SOL    HW131478   0.706   1.798   3.033  0.5842  0.2531 -1.3185
 6672SOL    HW231479   0.677   1.932   2.996 -1.4003 -1.2658  0.8923
 6673SOL     OW31480   2.171   1.772  13.544  0.5828  0.2848  0.0686
 6673SOL    HW131481   2.080   1.789  13.570  0.3779 -1.3776  0.4073
 6673SOL    HW231482   2.180   1.826  13.466  1.1620 -1.2974 -0.9394
 6674SOL     OW31483   4.336   3.612  14.894  0.1377  0.4953  0.1935
 6674SOL    HW131484   4.362   3.672  14.965 -0.0655  1.2611 -0.3837
 6674SOL    HW231485   4.330   3.524  14.930 -0.2804  0.1279 -0.7784
 6675SOL     OW31486   3.287   0.857   7.937 -0.1610  0.0885 -0.2711
 6675SOL    HW131487   3.245   0.819   8.015 -1.0967 -1.9610 -1.7600
 6675SOL    HW231488   3.299   0.950   7.956 -0.0753 -0.0133  0.1807
 6676SOL     OW31489   1.994   0.870   2.641 -0.1305  0.0014 -0.0779
 6676SOL    HW131490   1.989   0.888   2.734  0.3119 -0.4769  0.0379
 6676SOL    HW231491   2.072   0.815   2.634  0.3707  0.5075  1.7328
 6677SOL     OW31492   1.572   2.405   1.122 -0.3828 -0.5757 -0.0675
 6677SOL    HW131493   1.487   2.386   1.162 -1.1699  0.3711 -1.2664
 6677SOL    HW231494   1.563   2.495   1.089  1.3046 -0.8428 -1.2197
 6678SOL     OW31495   2.152   2.098   2.319 -0.1673  0.5756  0.5824
 6678SOL    HW131496   2.136   2.192   2.319 -2.1478  0.2429  0.6416
 6678SOL    HW231497   2.228   2.097   2.261  0.3870 -0.7730  1.3217
 6679SOL     OW31498   0.359   3.544   3.087 -0.3124  0.4779  0.6060
 6679SOL    HW131499   0.437   3.539   3.142  0.1891  1.6247  0.0053
 6679SOL    HW231500   0.389   3.498   3.008  0.0100 -0.8808  1.5161
 6680SOL     OW31501   2.942   2.146  12.707  0.6608  0.2727 -0.4804
 6680SOL    HW131502   2.896   2.145  12.623  0.6786 -3.2892 -0.4617
 6680SOL    HW231503   3.025   2.100  12.694  0.6267 -0.0039  0.2925
 6681SOL     OW31504   1.510   4.166   7.905 -0.3796 -0.6159 -0.4376
 6681SOL    HW131505   1.573   4.095   7.917 -1.4881 -1.2075  1.9469
 6681SOL    HW231506   1.577   4.233   7.919 -0.3212 -0.5745 -0.9033
 6682SOL     OW31507   4.191   3.689  11.298  0.0163 -0.4999  0.2703
 6682SOL    HW131508   4.209   3.632  11.223  0.2417  1.2472 -0.9975
 6682SOL    HW231509   4.097   3.701  11.284  0.0404 -0.9640 -0.3321
 6683SOL     OW31510   2.450   3.305   5.840  0.4805 -0.3405 -0.1863
 6683SOL    HW131511   2.385   3.333   5.776 -0.5300  2.0670  1.9184
 6683SOL    HW231512   2.503   3.385   5.847  0.6791 -0.3961 -1.0264
 6684SOL     OW31513   1.154   4.047   1.608 -0.0789 -0.5558 -0.2556
 6684SOL    HW131514   1.090   3.989   1.567 -0.9528 -0.5279  1.0847
 6684SOL    HW231515   1.149   4.006   1.694 -1.1054 -1.3572 -0.7035
 6685SOL     OW31516   3.234   2.710  14.545 -0.2166  0.0729  0.5693
 6685SOL    HW131517   3.140   2.725  14.536 -0.3418 -0.3692  1.1839
 6685SOL    HW231518   3.255   2.791  14.591 -3.6650  0.0522  2.2182
 6686SOL     OW31519   4.195   4.028   0.301  0.1624 -0.4127 -0.2279
 6686SOL    HW131520   4.285   4.061   0.305 -0.1120  0.1658  1.1238
 6686SOL    HW231521   4.212   3.952   0.244  0.5338 -1.6815  1.5584
 6687SOL     OW31522   1.794   2.660  16.708 -0.1673  0.3234 -0.2269
 6687SOL    HW131523   1.785   2.692  16.618 -0.5693 -1.0687 -0.6905
 6687SOL    HW231524   1.733   2.586  16.700  1.0201 -0.6369 -0.3527
 6688SOL     OW31525   2.162   1.657   4.422  0.6908  0.0139 -0.2844
 6688SOL    HW131526   2.171   1.625   4.512  0.9877 -0.7332 -0.5791
 6688SOL    HW231527   2.066   1.655   4.418  0.6771  3.1297 -1.1494
 6689SOL     OW31528   3.031   3.587   7.808  0.6349 -0.1262 -0.3394
 6689SOL    HW131529   3.040   3.639   7.888  0.2201 -2.5851  1.3053
 6689SOL    HW231530   2.958   3.532   7.837  1.5214 -1.0680  0.0983
 6690SOL     OW31531   2.174   0.669   7.300 -0.4730  0.7957  0.6470
 6690SOL    HW131532   2.235   0.619   7.355  1.4037  1.3700 -0.9032
 6690SOL    HW231533   2.200   0.754   7.335 -0.5892  1.0694  0.0653
 6691SOL     OW31534   2.811   0.577  13.209 -0.2956  0.0003 -0.0444
 6691SOL    HW131535   2.880   0.563  13.274  0.6293  2.3719 -0.5149
 6691SOL    HW231536   2.765   0.493  13.202 -0.4746  0.1054 -0.1415
 6692SOL     OW31537   2.502   3.200  15.223  0.1615  0.4792 -0.6337
 6692SOL    HW131538   2.583   3.166  15.185 -0.4094 -0.7040 -0.8007
 6692SOL    HW231539   2.438   3.141  15.183 -1.1384  0.6395  1.2301
 6693SOL     OW31540   4.029   3.107   2.073  0.4262  0.7165  1.0756
 6693SOL    HW131541   4.010   3.013   2.072  0.9220  0.6307 -1.4595
 6693SOL    HW231542   4.094   3.109   2.002 -0.7166 -2.2510 -0.0671
 6694SOL     OW31543   4.210   1.423  17.269 -0.1655 -0.5717 -0.2764
 6694SOL    HW131544   4.243   1.338  17.298 -0.9362 -1.2167 -1.2875
 6694SOL    HW231545   4.210   1.422  17.174 -0.0533 -0.7524 -0.2748
 6695SOL     OW31546   1.197   3.027   9.635 -0.2444 -0.3836  0.0313
 6695SOL    HW131547   1.232   2.995   9.552  0.4074  0.1757  0.0882
 6695SOL    HW231548   1.260   2.980   9.690  0.0190 -0.7208 -0.5592
 6696SOL     OW31549   1.260   1.186   7.506  0.0597  0.5996 -0.1411
 6696SOL    HW131550   1.236   1.278   7.516  1.6485  1.0338 -0.3449
 6696SOL    HW231551   1.222   1.148   7.585  0.9348  2.5582  1.2140
 6697SOL     OW31552   1.816   2.261   3.982 -0.4298  0.7711  0.3293
 6697SOL    HW131553   1.908   2.265   4.009 -0.4110  1.4783  0.1757
 6697SOL    HW231554   1.790   2.185   4.033 -0.4597  0.3860 -0.2535
 6698SOL     OW31555   1.619   4.136  17.425  0.3362 -0.1906 -0.2412
 6698SOL    HW131556   1.712   4.148  17.447  0.4533 -0.3895 -0.6243
 6698SOL    HW231557   1.599   4.043  17.433  2.6485 -0.7586 -0.9211
 6699SOL     OW31558   0.751   2.074   1.908 -0.0531 -0.0766 -0.2394
 6699SOL    HW131559   0.812   2.145   1.886 -0.5896  0.3917 -0.2134
 6699SOL    HW231560   0.698   2.108   1.979 -0.5901 -1.0651 -0.1800
 6700SOL     OW31561   3.688   1.638   9.013 -0.6797  0.2673  0.2334
 6700SOL    HW131562   3.766   1.629   8.958 -0.6700  2.5017 -0.0838
 6700SOL    HW231563   3.698   1.555   9.061  2.3242  0.3717 -0.1749
 6701SOL     OW31564   0.300   2.271   6.502  0.3089 -0.6697 -0.1138
 6701SOL    HW131565   0.307   2.241   6.593 -0.2560 -2.6277 -0.7168
 6701SOL    HW231566   0.211   2.240   6.481 -0.1540  1.4595 -1.2926
 6702SOL     OW31567   2.827   0.062  12.520  0.3174 -0.4516 -0.6423
 6702SOL    HW131568   2.810   0.018  12.437 -1.5372  0.0971 -0.5602
 6702SOL    HW231569   2.796   4.715  12.581 -2.6819  1.5370  0.0365
 6703SOL     OW31570   3.716   0.737   3.407 -0.6591 -0.5683  0.0872
 6703SOL    HW131571   3.625   0.734   3.436 -0.3485  0.8225  1.2036
 6703SOL    HW231572   3.710   0.784   3.324 -0.4450 -1.9543 -0.7110
 6704SOL     OW31573   0.029   1.182   8.793  0.6747  0.1000 -0.0898
 6704SOL    HW131574   4.675   1.193   8.732  0.2654  3.0279  0.9246
 6704SOL    HW231575   4.701   1.203   8.873 -0.9465 -2.1873 -0.4570
 6705SOL     OW31576   2.909   2.428  15.787 -0.1417 -0.0897 -0.5446
 6705SOL    HW131577   2.895   2.454  15.878  0.2663 -1.3397 -0.1239
 6705SOL    HW231578   2.822   2.435  15.749 -0.7689 -0.8403  0.7779
 6706SOL     OW31579   0.128   1.493   4.759  0.1622  0.3331  0.8472
 6706SOL    HW131580   0.208   1.442   4.744  0.9554  1.3245  1.7143
 6706SOL    HW231581   0.078   1.416   4.786 -0.9774  0.1524 -1.8090
 6707SOL     OW31582   0.950   4.196   3.578 -0.3222 -0.2114  0.0844
 6707SOL    HW131583   1.017   4.184   3.645 -1.0011  1.5930  1.0847
 6707SOL    HW231584   0.870   4.198   3.631  0.2507 -2.4887  1.0112
 6708SOL     OW31585   2.297   0.410   9.418  0.2727  0.3154 -0.1369
 6708SOL    HW131586   2.281   0.498   9.385  1.2153  0.6910  0.3842
 6708SOL    HW231587   2.278   0.366   9.336 -0.3580 -1.3385  0.8997
 6709SOL     OW31588   0.821   3.531  17.455 -0.4741 -0.0727  0.2379
 6709SOL    HW131589   0.869   3.586  17.393 -0.4358 -0.8308 -0.4155
 6709SOL    HW231590   0.770   3.487  17.387  4.0609 -3.6781 -0.8247
 6710SOL     OW31591   2.619   2.725   3.257  0.3221 -0.0496  0.3179
 6710SOL    HW131592   2.629   2.679   3.174  2.1611 -0.4299  0.7509
 6710SOL    HW231593   2.529   2.705   3.283  0.8855 -1.4531  1.1183
 6711SOL     OW31594   2.603   2.817   2.824  0.4338 -0.3270  0.2642
 6711SOL    HW131595   2.648   2.794   2.906 -0.8375 -1.6398  0.6084
 6711SOL    HW231596   2.659   2.875   2.773 -0.3178  1.8494  1.9125
 6712SOL     OW31597   2.022   2.052   6.213  0.2840  0.8487 -0.0476
 6712SOL    HW131598   2.106   2.024   6.177 -0.3644  1.5658 -2.1880
 6712SOL    HW231599   2.013   1.982   6.277 -3.0341  0.9362 -0.4018
 6713SOL     OW31600   1.433   1.614   9.899 -0.2487 -0.2920 -0.2563
 6713SOL    HW131601   1.483   1.614   9.817 -2.8598  3.1851 -1.8812
 6713SOL    HW231602   1.363   1.674   9.871 -0.3207  0.7529  2.2353
 6714SOL     OW31603   3.775   0.740   5.096 -0.2710 -0.3864 -0.8824
 6714SOL    HW131604   3.836   0.682   5.142 -1.8190 -1.7131 -0.5095
 6714SOL    HW231605   3.825   0.820   5.109 -0.2906 -0.5002 -0.1261
 6715SOL     OW31606   0.987   1.756   1.467  0.1599 -0.2718  0.4741
 6715SOL    HW131607   0.923   1.694   1.502 -2.3840  2.2079  0.2500
 6715SOL    HW231608   0.958   1.756   1.376  0.6633  0.1031  0.3165
 6716SOL     OW31609   0.152   4.276   5.904 -0.0079  0.3609  0.3635
 6716SOL    HW131610   0.056   4.285   5.907  0.0683  1.4577 -0.6183
 6716SOL    HW231611   0.172   4.252   5.995 -1.5148 -2.0437  0.0467
 6717SOL     OW31612   0.954   1.361   8.036 -0.2738  0.5551 -0.5722
 6717SOL    HW131613   1.047   1.347   8.055 -0.6212 -2.0590 -0.8600
 6717SOL    HW231614   0.921   1.272   8.045  1.3583 -0.0742 -0.8178
 6718SOL     OW31615   0.484   2.264  10.285  0.2208 -0.1514  0.2985
 6718SOL    HW131616   0.575   2.268  10.255  0.5255 -4.4197  0.7568
 6718SOL    HW231617   0.478   2.335  10.349 -0.1548 -0.0839  0.1930
 6719SOL     OW31618   3.567   0.440  16.931 -0.0060  0.2861 -0.5553
 6719SOL    HW131619   3.556   0.408  17.021 -0.0712  3.6240  0.6038
 6719SOL    HW231620   3.662   0.438  16.925 -0.1288  0.3000 -2.4146
 6720SOL     OW31621   1.001   1.346   6.011 -0.4205  0.1153  0.1101
 6720SOL    HW131622   0.972   1.336   5.920 -1.7916  1.4187  0.4040
 6720SOL    HW231623   0.949   1.277   6.053 -2.1588  1.3363 -0.0522
 6721SOL     OW31624   0.924   1.661  16.057  0.7807  0.4620  0.3335
 6721SOL    HW131625   0.879   1.634  15.977  2.5410 -1.2573 -0.1066
 6721SOL    HW231626   0.934   1.577  16.102 -2.0626 -0.1223 -0.1603
 6722SOL     OW31627   1.265   3.492   5.975 -0.2992  0.1192  0.0894
 6722SOL    HW131628   1.334   3.492   5.908  0.1392  0.4263  0.5386
 6722SOL    HW231629   1.311   3.460   6.053 -2.6984 -2.0488  0.6063
 6723SOL     OW31630   4.709   2.992   7.917 -0.1990 -0.3687 -0.2658
 6723SOL    HW131631   0.031   2.922   7.867 -0.5026 -1.2264  0.6781
 6723SOL    HW231632   4.619   2.962   7.911 -0.6106  1.1136 -1.2827
 6724SOL     OW31633   1.921   4.037   7.751  0.8087  0.2591  0.4692
 6724SOL    HW131634   1.970   3.956   7.738  1.3583  1.0219 -2.2432
 6724SOL    HW231635   1.944   4.065   7.840  1.4747  0.8406  0.1125
 6725SOL     OW31636   1.535   0.755  14.717 -0.4071  0.2517  0.1040
 6725SOL    HW131637   1.619   0.788  14.687  0.5208 -2.1866 -0.0205
 6725SOL    HW231638   1.545   0.665  14.749 -1.8267 -0.0272 -0.2225
 6726SOL     OW31639   3.299   1.297   4.280 -0.3887  0.1912  0.0545
 6726SOL    HW131640   3.357   1.335   4.214  0.2562 -2.3535 -0.8268
 6726SOL    HW231641   3.360   1.267   4.347  0.0562  1.2553  0.1337
 6727SOL     OW31642   3.085   0.230   5.302  0.1230 -0.1687 -0.6773
 6727SOL    HW131643   3.045   0.148   5.332  1.4808 -1.5864 -2.7057
 6727SOL    HW231644   3.088   0.284   5.381 -0.1352  0.5284 -1.1476
 6728SOL     OW31645   3.203   2.922   2.845 -0.5156  0.5338 -0.1929
 6728SOL    HW131646   3.225   2.852   2.906  1.1556 -0.3395 -1.8034
 6728SOL    HW231647   3.209   2.878   2.760 -1.0542  0.3333 -0.1284
 6729SOL     OW31648   0.234   2.292  14.918  0.2143 -0.5184 -0.1620
 6729SOL    HW131649   0.323   2.265  14.940 -0.3668 -0.9786  1.6527
 6729SOL    HW231650   0.261   2.381  14.898 -0.7038 -0.2565 -0.2356
 6730SOL     OW31651   0.606   2.915  15.641 -0.0318  0.7313  0.0000
 6730SOL    HW131652   0.625   2.930  15.548 -2.2396  0.2921 -0.5323
 6730SOL    HW231653   0.680   2.955  15.687  0.9576 -0.8873 -0.1653
 6731SOL     OW31654   2.465   3.358   2.461 -0.1041 -0.0916 -0.2816
 6731SOL    HW131655   2.426   3.274   2.438  1.1278 -0.4982 -0.9061
 6731SOL    HW231656   2.545   3.353   2.408  0.1358  0.1416  0.0563
 6732SOL     OW31657   2.248   2.329   3.829 -0.1012  0.0936  0.2890
 6732SOL    HW131658   2.216   2.380   3.755 -2.3120 -1.1649  0.3817
 6732SOL    HW231659   2.299   2.274   3.769 -2.6946  1.3218 -3.0382
 6733SOL     OW31660   0.104   3.355   3.022 -0.1372  0.0354 -0.1235
 6733SOL    HW131661   0.056   3.301   2.959  0.8225 -2.2510  1.1107
 6733SOL    HW231662   0.062   3.330   3.105 -2.9334 -1.0279 -1.8577
 6734SOL     OW31663   2.098   4.059  11.899 -0.4013  0.4568 -0.4274
 6734SOL    HW131664   2.048   4.009  11.963  2.0432 -0.5158  0.7607
 6734SOL    HW231665   2.098   3.995  11.828 -2.1949 -1.1202  0.9866
 6735SOL     OW31666   1.506   4.287   0.839 -0.2392 -0.0318 -0.1605
 6735SOL    HW131667   1.499   4.372   0.883 -1.3587  1.2570 -2.7829
 6735SOL    HW231668   1.426   4.238   0.857 -0.0962 -0.0932  0.3114
 6736SOL     OW31669   1.693   1.946  16.965  0.0105  0.5785  0.0926
 6736SOL    HW131670   1.728   2.036  16.968  0.6710  0.3036  0.6141
 6736SOL    HW231671   1.637   1.947  17.042 -0.6669  1.0601 -0.4063
 6737SOL     OW31672   3.672   2.143   1.528  0.2964 -0.1540  0.3372
 6737SOL    HW131673   3.663   2.193   1.609 -0.8272 -1.3002  0.9122
 6737SOL    HW231674   3.612   2.196   1.475  0.5783 -2.2736 -2.0723
 6738SOL     OW31675   0.577   1.029   3.518 -0.3281  0.0675 -0.5685
 6738SOL    HW131676   0.584   1.063   3.607 -0.8205  1.5294 -1.0887
 6738SOL    HW231677   0.664   1.053   3.486 -0.3719  0.2344 -0.5629
 6739SOL     OW31678   4.608   1.571   3.301  0.0538 -0.7198  0.0868
 6739SOL    HW131679   4.572   1.486   3.276  2.3695 -0.8177 -2.9504
 6739SOL    HW231680   4.570   1.581   3.388  1.4052 -2.6561  0.9242
 6740SOL     OW31681   3.236   3.681   3.242 -0.2319 -0.1223  0.5745
 6740SOL    HW131682   3.316   3.693   3.191 -1.4729  2.7447 -0.7208
 6740SOL    HW231683   3.205   3.771   3.257  1.0722 -0.0026  2.5328
 6741SOL     OW31684   2.873   3.610   8.729  0.2846  0.1061  0.1083
 6741SOL    HW131685   2.864   3.524   8.770 -0.6910  0.4189  0.5673
 6741SOL    HW231686   2.790   3.650   8.758 -0.2121 -0.6303 -0.3038
 6742SOL     OW31687   1.129   2.540   0.158 -0.0935  0.1108  0.1639
 6742SOL    HW131688   1.165   2.486   0.229  0.9129  0.9290  0.2758
 6742SOL    HW231689   1.097   2.617   0.205 -2.0350  0.4324 -1.6992
 6743SOL     OW31690   4.224   0.495  15.235 -0.1457 -0.0945  0.1419
 6743SOL    HW131691   4.299   0.455  15.279  0.0450 -2.4621 -2.2954
 6743SOL    HW231692   4.264   0.493  15.148  1.9088 -1.4055  1.1110
 6744SOL     OW31693   0.203   4.380   2.073  0.4230 -0.1774 -0.0202
 6744SOL    HW131694   0.224   4.427   1.993  1.1462 -0.6613 -0.1092
 6744SOL    HW231695   0.113   4.355   2.051  0.2311 -0.9090  1.5573
 6745SOL     OW31696   3.445   1.141  10.511  0.3531  0.2826 -0.3759
 6745SOL    HW131697   3.350   1.146  10.519  0.1555 -0.1725 -2.5182
 6745SOL    HW231698   3.475   1.131  10.601 -1.1429 -1.3042 -0.0542
 6746SOL     OW31699   1.688   2.624  11.206  0.3785 -0.3758  0.0097
 6746SOL    HW131700   1.596   2.629  11.234  0.2753 -0.4885 -0.3016
 6746SOL    HW231701   1.727   2.656  11.287  4.1406  0.6771 -2.2660
 6747SOL     OW31702   0.495   3.868   7.459  0.4133 -0.7817 -0.4014
 6747SOL    HW131703   0.536   3.793   7.502  0.1357  0.5555  2.2000
 6747SOL    HW231704   0.566   3.932   7.459 -0.0487 -0.2479  1.4723
 6748SOL     OW31705   2.825   0.157   9.493  0.2117 -0.9923  0.2727
 6748SOL    HW131706   2.758   0.090   9.478  0.0969 -0.9059  0.3984
 6748SOL    HW231707   2.906   0.106   9.500  0.8578 -0.1241 -0.9298
 6749SOL     OW31708   3.077   4.523   9.324 -0.2455 -0.0504  0.4727
 6749SOL    HW131709   3.144   4.473   9.277 -1.5813 -0.3495 -1.1189
 6749SOL    HW231710   3.107   4.606   9.288 -0.7961 -0.9657 -2.1159
 6750SOL     OW31711   2.940   0.101   7.685  0.2010  0.3815 -0.4084
 6750SOL    HW131712   3.019   0.062   7.722 -0.1699  1.3851  1.4609
 6750SOL    HW231713   2.875   0.045   7.726  2.1409 -0.9923  0.7988
 6751SOL     OW31714   1.294   3.529  12.389  0.5704  0.1540 -0.5781
 6751SOL    HW131715   1.234   3.603  12.400  1.6363  0.8604  0.4337
 6751SOL    HW231716   1.344   3.530  12.470  0.6782  3.4662 -0.6594
 6752SOL     OW31717   2.453   3.238   0.600  0.2024 -0.0173  0.1763
 6752SOL    HW131718   2.389   3.259   0.668  0.7718  1.1646  0.3495
 6752SOL    HW231719   2.512   3.182   0.650  0.5402  1.8132  1.8121
 6753SOL     OW31720   0.365   4.096   7.861 -0.3802  0.1912  0.1272
 6753SOL    HW131721   0.399   4.111   7.773 -0.7854  0.7494  0.0664
 6753SOL    HW231722   0.441   4.075   7.916  0.8097 -1.7780 -2.2627
 6754SOL     OW31723   2.911   1.669   4.954  0.3224  0.2162 -0.0064
 6754SOL    HW131724   2.859   1.716   5.019  0.8862  1.3316 -0.3631
 6754SOL    HW231725   2.997   1.687   4.990 -0.2107 -0.4607  1.6070
 6755SOL     OW31726   2.006   4.443   4.806 -0.0203 -0.0976 -0.3359
 6755SOL    HW131727   1.988   4.524   4.854  0.8114  0.8279 -1.6117
 6755SOL    HW231728   1.930   4.453   4.748 -1.2061 -0.7930  1.0693
 6756SOL     OW31729   3.284   0.613   2.956 -0.3138 -0.4516  0.2119
 6756SOL    HW131730   3.330   0.696   2.970  1.5792 -1.5082  0.3546
 6756SOL    HW231731   3.359   0.554   2.955 -1.3993 -1.8488  0.8945
 6757SOL     OW31732   4.523   3.717  14.736 -0.0915  0.1518  0.2290
 6757SOL    HW131733   4.497   3.625  14.732 -3.0724  0.9673  0.7553
 6757SOL    HW231734   4.574   3.729  14.815  0.8787 -1.3424 -0.1735
 6758SOL     OW31735   0.284   3.230  10.375 -0.2737  0.0021 -0.2608
 6758SOL    HW131736   0.278   3.161  10.308  0.2644  0.4713 -0.8040
 6758SOL    HW231737   0.196   3.265  10.372  0.4127  1.6646 -0.9924
 6759SOL     OW31738   0.285   4.048   3.747  0.0319 -0.8304  0.3803
 6759SOL    HW131739   0.300   4.074   3.656 -2.7836  0.6364  0.3349
 6759SOL    HW231740   0.289   4.127   3.799  2.7664 -0.2462 -0.7223
 6760SOL     OW31741   2.703   0.598   7.881 -0.5106 -0.1201 -0.3704
 6760SOL    HW131742   2.632   0.573   7.940 -1.1666 -1.2327 -1.6364
 6760SOL    HW231743   2.753   0.659   7.935  1.5333 -0.4270 -1.9130
 6761SOL     OW31744   0.522   2.821  17.309  0.0512 -0.4217 -0.4274
 6761SOL    HW131745   0.476   2.758  17.253  0.4017  0.0001 -1.1996
 6761SOL    HW231746   0.614   2.800  17.290  0.8138  1.9638  0.7148
 6762SOL     OW31747   0.477   3.918   0.957 -0.4337  0.0671 -0.3760
 6762SOL    HW131748   0.472   3.824   0.939 -2.1298  0.3994 -1.6594
 6762SOL    HW231749   0.573   3.926   0.958 -0.4942  0.8225 -0.3369
 6763SOL     OW31750   2.348   3.904   3.464  0.3116 -0.2454 -0.2603
 6763SOL    HW131751   2.414   3.903   3.394  2.2216  1.5255  1.4837
 6763SOL    HW231752   2.266   3.878   3.423 -0.5935  2.2711 -0.0772
 6764SOL     OW31753   2.198   3.803   5.358  0.1542 -0.0645  0.6045
 6764SOL    HW131754   2.190   3.898   5.362  0.6691 -0.0349  0.9353
 6764SOL    HW231755   2.151   3.791   5.275  1.2802 -2.6276  0.3190
 6765SOL     OW31756   2.840   0.005   5.985  0.0856 -0.0058 -0.2045
 6765SOL    HW131757   2.803   0.019   5.898  0.5775  2.0788 -0.0703
 6765SOL    HW231758   2.770   0.024   6.048  0.0337  0.6186 -0.4476
 6766SOL     OW31759   0.406   0.585   8.606 -0.1852  0.3899  0.5105
 6766SOL    HW131760   0.482   0.579   8.665  0.0928  0.9409  0.2097
 6766SOL    HW231761   0.334   0.547   8.656 -1.0765  0.3890 -0.7919
 6767SOL     OW31762   1.813   2.150  14.834  0.2455  0.6027  0.5458
 6767SOL    HW131763   1.819   2.144  14.739 -1.4523  1.2127  0.3991
 6767SOL    HW231764   1.874   2.088  14.875  0.5920  0.2119 -0.5689
 6768SOL     OW31765   3.855   2.537   4.197  0.3104  0.4813  0.3947
 6768SOL    HW131766   3.795   2.564   4.265  2.3617 -1.3562  2.9202
 6768SOL    HW231767   3.839   2.443   4.192  0.4348  0.4639  0.3195
 6769SOL     OW31768   2.031   3.502   5.035  0.2305 -0.6407 -0.4111
 6769SOL    HW131769   2.054   3.478   5.125  2.5282 -0.0411 -0.8407
 6769SOL    HW231770   2.111   3.482   4.987 -0.7845 -1.7095 -1.6552
 6770SOL     OW31771   0.097   0.165  11.824  0.2442  0.0361  0.4984
 6770SOL    HW131772   0.100   0.238  11.885 -2.1265 -0.7182  1.5044
 6770SOL    HW231773   0.020   0.176  11.769  0.4835  1.6832  0.4857
 6771SOL     OW31774   0.348   0.938   7.228  0.6781  0.5877 -0.0627
 6771SOL    HW131775   0.348   0.855   7.181 -0.8425  0.7212 -0.2875
 6771SOL    HW231776   0.314   0.923   7.317  1.9873 -2.6727 -0.1075
 6772SOL     OW31777   0.167   0.632   0.721  0.2015  0.2771  0.3779
 6772SOL    HW131778   0.193   0.611   0.811 -0.9811 -1.2334  0.3713
 6772SOL    HW231779   0.247   0.671   0.686  0.0294 -1.5467 -2.0456
 6773SOL     OW31780   1.299   0.868   2.529  0.6972  0.0969 -0.0564
 6773SOL    HW131781   1.367   0.898   2.469  0.7839  3.3902  1.6629
 6773SOL    HW231782   1.215   0.868   2.483  0.9892 -0.4011 -0.5793
 6774SOL     OW31783   2.680   3.898  15.836  0.2361  0.2998  0.5721
 6774SOL    HW131784   2.758   3.843  15.836  0.1363  0.1537  0.0502
 6774SOL    HW231785   2.724   3.981  15.817  0.7617  0.1310  1.0393
 6775SOL     OW31786   1.594   3.808  13.983  0.2810 -0.2376  0.1585
 6775SOL    HW131787   1.558   3.879  13.930 -1.5726 -1.4184 -0.1793
 6775SOL    HW231788   1.661   3.853  14.035  1.9664  0.2412 -2.4503
 6776SOL     OW31789   2.213   1.193  16.063  0.6700  0.1141  0.0835
 6776SOL    HW131790   2.238   1.219  15.974 -0.7093 -1.8034 -0.8649
 6776SOL    HW231791   2.207   1.279  16.105  0.4526 -0.0065  0.3009
 6777SOL     OW31792   2.589   1.001   0.899 -0.6188 -0.0080  0.0753
 6777SOL    HW131793   2.533   0.994   0.822 -0.6374 -2.6963  0.3297
 6777SOL    HW231794   2.588   1.095   0.919 -1.5363 -0.1727  0.8052
 6778SOL     OW31795   1.470   2.019  15.028  0.0717 -0.3108  0.6828
 6778SOL    HW131796   1.474   2.022  14.932 -2.1718  0.5476  0.6028
 6778SOL    HW231797   1.405   1.949  15.041 -1.0502  0.6970  0.5055
 6779SOL     OW31798   1.138   0.034  12.787  0.2185 -0.0997  0.1190
 6779SOL    HW131799   1.124   0.128  12.783  1.0136  0.0772  1.4145
 6779SOL    HW231800   1.125   0.018  12.880 -1.1188 -1.0673 -0.2413
 6780SOL     OW31801   2.919   0.231   8.554 -0.7866 -0.0354 -0.4151
 6780SOL    HW131802   2.974   0.290   8.605 -0.1629 -2.4494  1.7430
 6780SOL    HW231803   2.963   0.233   8.469  0.3793 -1.3682  0.1547
 6781SOL     OW31804   0.312   0.824   3.993  0.1202 -0.2041  1.3860
 6781SOL    HW131805   0.224   0.834   3.958  0.7911 -0.7263 -0.4106
 6781SOL    HW231806   0.343   0.755   3.934  0.7502  0.2210  1.2173
 6782SOL     OW31807   0.287   2.345   2.724  0.4595 -0.3270  0.0601
 6782SOL    HW131808   0.316   2.263   2.683 -0.3286 -0.8032  0.4625
 6782SOL    HW231809   0.361   2.404   2.707 -1.0848  1.2749 -1.1171
 6783SOL     OW31810   4.088   1.075  14.348  0.0512  0.3901  0.1050
 6783SOL    HW131811   4.120   0.990  14.377 -1.3882  0.4181  1.8256
 6783SOL    HW231812   4.156   1.130  14.388  1.2146 -0.5363 -0.6064
 6784SOL     OW31813   3.952   2.983   3.874  0.3658  0.8388  0.3672
 6784SOL    HW131814   3.901   2.907   3.904  1.0916  0.4918  0.7137
 6784SOL    HW231815   3.878   3.034   3.841 -0.2702  0.3025  0.9686
 6785SOL     OW31816   1.015   0.480  10.853  0.1160 -0.2175  0.5522
 6785SOL    HW131817   1.091   0.427  10.828  1.0745  1.4142 -0.0335
 6785SOL    HW231818   1.045   0.537  10.923 -1.6702 -0.3316  1.3964
 6786SOL     OW31819   0.930   4.647  10.569 -0.1790  0.5144 -0.2264
 6786SOL    HW131820   0.884   4.690  10.497 -2.0147 -0.6055  0.3069
 6786SOL    HW231821   1.012   4.697  10.573  0.7081 -0.9097 -0.9025
 6787SOL     OW31822   2.564   3.196   0.915 -0.4276  0.1070  0.1906
 6787SOL    HW131823   2.612   3.135   0.971  0.0298  0.7173  0.4617
 6787SOL    HW231824   2.491   3.219   0.973  0.0672  0.3707  0.7063
 6788SOL     OW31825   2.855   1.865   7.592 -0.3225 -0.4376 -0.4004
 6788SOL    HW131826   2.844   1.929   7.662  2.4372 -1.6295  1.1172
 6788SOL    HW231827   2.770   1.826   7.572 -1.0756  0.2571  1.4679
 6789SOL     OW31828   1.547   3.284  13.494 -0.7583  0.1661  0.1354
 6789SOL    HW131829   1.478   3.264  13.556  0.3273 -2.6232  0.4232
 6789SOL    HW231830   1.572   3.193  13.481 -3.4330  0.0254 -4.0518
 6790SOL     OW31831   4.015   2.425   4.741 -0.7527  0.0288  0.5285
 6790SOL    HW131832   3.945   2.487   4.762 -0.1030  0.5927  1.0113
 6790SOL    HW231833   4.008   2.372   4.820  0.7517  0.1595  0.7541
 6791SOL     OW31834   3.933   0.731   2.156  0.5473  0.4223  0.0409
 6791SOL    HW131835   3.886   0.673   2.216 -0.7908 -0.5717 -1.9397
 6791SOL    HW231836   3.941   0.674   2.079  1.3917 -0.6174  0.8951
 6792SOL     OW31837   2.066   4.206   1.806 -0.0403  0.7041  0.4281
 6792SOL    HW131838   2.062   4.215   1.901  0.7688  2.7181  0.2667
 6792SOL    HW231839   2.013   4.281   1.778  1.4378  1.2063 -1.0196
 6793SOL     OW31840   2.872   3.801   8.132 -0.1512  0.1831  0.0534
 6793SOL    HW131841   2.949   3.752   8.103 -1.2941 -0.4884 -1.8476
 6793SOL    HW231842   2.819   3.817   8.053 -0.0212 -0.3020 -0.1329
 6794SOL     OW31843   0.398   0.798   0.663 -0.0811  0.2536 -0.5569
 6794SOL    HW131844   0.366   0.855   0.733 -0.1847  2.4683 -2.4350
 6794SOL    HW231845   0.491   0.802   0.686 -0.0519 -0.9025 -0.4541
 6795SOL     OW31846   0.237   0.929  10.070 -0.5426 -0.7814  0.3794
 6795SOL    HW131847   0.237   0.975  10.154  1.7522 -1.5391  0.8058
 6795SOL    HW231848   0.326   0.893  10.075 -0.1330 -0.2924 -3.2508
 6796SOL     OW31849   0.221   3.880  11.805 -0.2745  0.2302 -0.4036
 6796SOL    HW131850   0.143   3.883  11.748 -1.2712 -2.6633  0.8395
 6796SOL    HW231851   0.244   3.973  11.808  2.0747 -0.4676  3.0856
 6797SOL     OW31852   1.067   2.566   5.562 -0.3915  0.7479  0.0120
 6797SOL    HW131853   0.984   2.524   5.584 -0.0185 -0.6244 -1.1964
 6797SOL    HW231854   1.094   2.596   5.649 -0.5720 -1.1898  0.7521
 6798SOL     OW31855   0.785   2.169   5.471 -0.4283 -0.0891  0.6385
 6798SOL    HW131856   0.745   2.202   5.390  2.4902  1.2165 -0.2502
 6798SOL    HW231857   0.752   2.081   5.486  0.6863 -0.3088  1.8164
 6799SOL     OW31858   1.685   3.493   5.114  0.3739  0.1342 -0.1364
 6799SOL    HW131859   1.726   3.549   5.049 -0.1281  0.2599 -0.3424
 6799SOL    HW231860   1.727   3.410   5.092  0.7153  0.5163 -0.8950
 6800SOL     OW31861   2.398   1.359   6.878  0.0400  0.1670 -0.6570
 6800SOL    HW131862   2.370   1.355   6.969  0.5643  0.7223 -0.4661
 6800SOL    HW231863   2.481   1.403   6.896 -0.3714  1.0893 -1.0075
 6801SOL     OW31864   2.043   1.102   4.905  0.4355  0.3664  0.2220
 6801SOL    HW131865   2.138   1.105   4.902  0.2936  1.8389 -2.2392
 6801SOL    HW231866   2.020   1.174   4.847 -1.4656 -0.3247  0.1072
 6802SOL     OW31867   3.910   0.482  11.602  0.5839  0.9878 -0.0108
 6802SOL    HW131868   3.858   0.510  11.527  1.3365 -2.1799 -1.7384
 6802SOL    HW231869   3.974   0.554  11.602  0.3778  1.1673  0.8731
 6803SOL     OW31870   3.353   3.753   3.590 -0.2150 -0.0986  0.0895
 6803SOL    HW131871   3.389   3.841   3.601 -0.1430 -0.0183 -0.7561
 6803SOL    HW231872   3.321   3.733   3.678 -2.3404 -0.1208 -0.6733
 6804SOL     OW31873   3.690   1.424   8.660 -0.1851 -0.5619  0.4415
 6804SOL    HW131874   3.695   1.487   8.588  1.0756 -1.3967 -0.2040
 6804SOL    HW231875   3.760   1.363   8.636 -0.6309 -0.9300  0.0686
 6805SOL     OW31876   0.211   0.763  12.085  0.2476 -0.2763 -0.5301
 6805SOL    HW131877   0.250   0.715  12.012 -0.5758 -0.2135 -1.0131
 6805SOL    HW231878   0.117   0.741  12.083  0.3541 -0.8101  0.5075
 6806SOL     OW31879   3.209   0.010   1.284 -0.5378  0.5437 -0.7488
 6806SOL    HW131880   3.257   4.717   1.366 -2.5422 -3.2743 -0.1318
 6806SOL    HW231881   3.137   0.061   1.320 -1.3035 -1.0590  0.0038
 6807SOL     OW31882   4.552   3.995   5.411  0.6263  0.1343 -1.0401
 6807SOL    HW131883   4.578   4.059   5.478  1.7374 -0.2683 -1.0840
 6807SOL    HW231884   4.458   4.015   5.409 -0.1700 -3.6685 -1.1994
 6808SOL     OW31885   0.382   1.820   9.768 -0.3583  0.3114  0.1460
 6808SOL    HW131886   0.330   1.890   9.729  0.7268  0.3171 -1.2646
 6808SOL    HW231887   0.348   1.738   9.733 -0.3288 -0.2225  1.3403
 6809SOL     OW31888   2.500   1.451  16.298  0.6691 -0.2338  0.0576
 6809SOL    HW131889   2.536   1.370  16.262 -3.0174 -1.6673 -0.4230
 6809SOL    HW231890   2.581   1.500  16.314 -0.8507  2.5825 -0.9549
 6810SOL     OW31891   0.959   0.343  10.580 -0.2060  0.7423  0.4089
 6810SOL    HW131892   0.881   0.343  10.524 -0.6702 -1.4217  1.0510
 6810SOL    HW231893   1.026   0.352  10.513  0.3297  1.0919  0.9906
 6811SOL     OW31894   2.373   0.844   6.312  0.0472  0.8087 -0.2293
 6811SOL    HW131895   2.336   0.771   6.363  2.0762  0.6656  1.0334
 6811SOL    HW231896   2.466   0.830   6.328 -0.2572 -0.9168  0.0575
 6812SOL     OW31897   3.936   1.642   2.348 -0.2099  0.2824 -0.6680
 6812SOL    HW131898   3.979   1.636   2.263  0.6010 -0.6357 -0.1922
 6812SOL    HW231899   3.858   1.687   2.317  0.8936  0.9933 -2.3689
 6813SOL     OW31900   1.126   4.146   3.793 -0.0243 -0.7118  0.1952
 6813SOL    HW131901   1.216   4.116   3.804 -0.3928 -1.8381  0.0784
 6813SOL    HW231902   1.098   4.143   3.884  0.4084  1.5777  0.4063
 6814SOL     OW31903   2.363   2.810  14.429 -0.1809 -0.6835  0.0628
 6814SOL    HW131904   2.333   2.833  14.517 -2.7052 -0.4776 -0.8621
 6814SOL    HW231905   2.447   2.855  14.421 -1.1620  1.0232 -0.6498
 6815SOL     OW31906   2.113   4.232   8.420 -0.0430 -0.9204 -0.0588
 6815SOL    HW131907   2.039   4.269   8.468 -0.4605 -4.5050  2.0416
 6815SOL    HW231908   2.149   4.307   8.373 -3.1832  1.5245  1.4670
 6816SOL     OW31909   0.521   4.079  11.628 -0.3226 -0.3340 -0.3727
 6816SOL    HW131910   0.609   4.117  11.625 -0.1279 -0.6592  1.3189
 6816SOL    HW231911   0.527   3.986  11.602  2.0637 -0.0464 -0.8875
 6817SOL     OW31912   1.991   1.892   5.251 -0.2289  0.6568 -0.3595
 6817SOL    HW131913   1.967   1.973   5.207  0.9458  0.7110 -0.8950
 6817SOL    HW231914   2.056   1.932   5.309  0.5066  0.9081 -1.3573
 6818SOL     OW31915   4.538   0.954   0.445 -0.1518  0.0235 -0.2674
 6818SOL    HW131916   4.598   0.910   0.506  0.0048  1.1822  0.4103
 6818SOL    HW231917   4.466   0.967   0.507  1.4287  3.0079  0.9163
 6819SOL     OW31918   0.448   3.029   5.440 -0.1788  0.5201 -0.5304
 6819SOL    HW131919   0.419   2.983   5.518  0.9026  0.0921 -0.3766
 6819SOL    HW231920   0.431   3.117   5.474 -4.2596 -1.8210  3.3937
 6820SOL     OW31921   4.407   2.230   9.331  0.0018  0.0641  0.6987
 6820SOL    HW131922   4.434   2.179   9.408  0.1039 -0.6813  0.1752
 6820SOL    HW231923   4.491   2.270   9.307 -0.2438  1.2049  1.7163
 6821SOL     OW31924   1.701   0.530   8.848  0.2243  0.3345 -0.3704
 6821SOL    HW131925   1.758   0.458   8.822  0.2844 -0.1067  0.9879
 6821SOL    HW231926   1.654   0.478   8.914 -1.9651  0.9423 -1.4594
 6822SOL     OW31927   2.772   1.437  13.563  0.0647  0.2872  0.0285
 6822SOL    HW131928   2.696   1.386  13.592 -2.3967  4.3627  0.8439
 6822SOL    HW231929   2.721   1.502  13.514  1.1497  1.6941  0.7776
 6823SOL     OW31930   2.339   3.446   4.741 -0.0433 -0.3667  0.6271
 6823SOL    HW131931   2.341   3.518   4.678 -3.5577 -1.0894 -0.2797
 6823SOL    HW231932   2.283   3.379   4.702  0.6064 -0.3578 -0.3400
 6824SOL     OW31933   2.726   4.378   2.849 -0.2122  0.1633  0.0636
 6824SOL    HW131934   2.654   4.421   2.803  0.9428  0.5278 -1.4263
 6824SOL    HW231935   2.773   4.455   2.878  0.9025 -0.6787  0.5010
 6825SOL     OW31936   4.045   0.638   8.588 -0.4434 -0.4862 -0.5709
 6825SOL    HW131937   3.969   0.684   8.553 -0.2970  1.0321  1.0796
 6825SOL    HW231938   4.026   0.639   8.682  1.0407 -1.6959 -0.2672
 6826SOL     OW31939   2.153   0.785   6.095  0.0193  0.2170 -0.1198
 6826SOL    HW131940   2.112   0.864   6.060  2.1180  2.2959  2.0808
 6826SOL    HW231941   2.208   0.827   6.162  1.3862  1.5789 -2.0787
 6827SOL     OW31942   0.516   2.191   4.853 -0.0191  0.1443 -0.0446
 6827SOL    HW131943   0.465   2.155   4.926  0.2590  1.9344  1.0405
 6827SOL    HW231944   0.511   2.123   4.785  1.8771 -0.3477  0.2932
 6828SOL     OW31945   1.799   2.311   1.265 -0.4430  0.5264 -0.2635
 6828SOL    HW131946   1.863   2.375   1.296 -0.2735  0.0386  0.3878
 6828SOL    HW231947   1.733   2.360   1.216 -1.9910 -0.7449  0.5504
 6829SOL     OW31948   1.457   1.184   3.153 -0.3760 -0.4184 -0.3960
 6829SOL    HW131949   1.525   1.180   3.086  0.1449  0.0344  0.1077
 6829SOL    HW231950   1.413   1.267   3.137  0.6315  0.1915  0.0503
 6830SOL     OW31951   2.022   1.534   5.789 -0.1396 -0.4198 -0.1638
 6830SOL    HW131952   2.054   1.572   5.871 -0.7793  0.4725 -0.3334
 6830SOL    HW231953   1.932   1.531   5.820  0.5272 -0.0147  1.8111
 6831SOL     OW31954   3.528   3.071   8.202 -0.0955  0.0231  0.0909
 6831SOL    HW131955   3.518   3.035   8.290  0.2728 -0.4116 -0.0475
 6831SOL    HW231956   3.594   3.139   8.218 -1.7630  1.7408 -0.3146
 6832SOL     OW31957   4.065   3.581   7.870  0.2653 -0.1011 -0.2784
 6832SOL    HW131958   4.145   3.562   7.821  0.1921  0.7356 -0.7277
 6832SOL    HW231959   4.065   3.535   7.954  2.0705 -1.3518 -0.9709
 6833SOL     OW31960   0.397   1.977  13.576  0.5716 -0.0207  0.1618
 6833SOL    HW131961   0.316   1.937  13.545  0.3422  2.6126 -2.6858
 6833SOL    HW231962   0.364   2.067  13.567  0.3887  0.1633  2.8039
 6834SOL     OW31963   0.351   3.230   2.979 -0.4293  0.2320  0.5099
 6834SOL    HW131964   0.376   3.308   2.929  0.2995  0.0554  0.5973
 6834SOL    HW231965   0.259   3.250   2.994 -0.3679  0.6853  0.3049
 6835SOL     OW31966   0.596   0.663   7.111 -0.5637  0.4827  0.0220
 6835SOL    HW131967   0.507   0.684   7.141 -0.1470 -0.9347  2.2435
 6835SOL    HW231968   0.657   0.720   7.158  2.6282 -0.5061 -2.8821
 6836SOL     OW31969   3.883   4.071   7.224  0.4470  0.4684 -0.3230
 6836SOL    HW131970   3.848   4.146   7.175 -2.0289 -0.1537  0.4950
 6836SOL    HW231971   3.822   4.061   7.297  1.0502 -0.4666  0.0406
 6837SOL     OW31972   3.104   1.977   7.844  0.1821 -0.3322  0.9456
 6837SOL    HW131973   3.019   2.011   7.870 -0.3128  0.8550 -2.3242
 6837SOL    HW231974   3.165   2.031   7.895  1.2261  1.1872 -1.9191
 6838SOL     OW31975   2.394   3.682   1.922 -0.1698 -0.0799  0.6190
 6838SOL    HW131976   2.432   3.658   2.006  1.3162 -0.1278 -0.0640
 6838SOL    HW231977   2.459   3.739   1.880 -1.7232  0.2073 -1.4176
 6839SOL     OW31978   0.239   0.244   6.616  0.1603  0.4235  0.1682
 6839SOL    HW131979   0.178   0.253   6.689  0.6287  2.1080  0.3667
 6839SOL    HW231980   0.277   0.332   6.615  1.2375 -0.0479 -0.7451
 6840SOL     OW31981   0.568   0.818  16.622 -0.1317 -0.5406  0.3770
 6840SOL    HW131982   0.601   0.791  16.708  3.1392  0.2783 -0.6482
 6840SOL    HW231983   0.545   0.908  16.644 -0.1047 -0.0096 -1.7643
 6841SOL     OW31984   3.864   2.081   1.788 -0.1224  0.0733  0.1912
 6841SOL    HW131985   3.839   1.999   1.746  1.8892 -1.3613  1.7834
 6841SOL    HW231986   3.786   2.135   1.781 -1.9824 -2.5212  1.1335
 6842SOL     OW31987   3.238   2.219  12.734  0.0264  0.4782 -0.9989
 6842SOL    HW131988   3.246   2.269  12.815 -0.9860  0.1487 -0.7046
 6842SOL    HW231989   3.161   2.251  12.689 -0.8755  1.1722  1.0462
 6843SOL     OW31990   1.860   2.041   2.498 -0.1130  0.2547  0.2501
 6843SOL    HW131991   1.820   2.113   2.449 -0.8917 -0.1838  0.2364
 6843SOL    HW231992   1.927   2.081   2.553 -0.4821 -0.7616  1.4373
 6844SOL     OW31993   0.475   2.255   3.413 -0.0411  0.4469  0.4427
 6844SOL    HW131994   0.410   2.192   3.445  1.0293 -0.1928  1.3533
 6844SOL    HW231995   0.515   2.197   3.348  0.7920 -0.6787  1.9545
 6845SOL     OW31996   0.020   1.002   6.176  0.3479  0.6557  0.2790
 6845SOL    HW131997   0.036   1.057   6.099 -0.9436  0.2122 -0.3055
 6845SOL    HW231998   0.074   0.926   6.151 -1.2739  0.4493 -2.6127
 6846SOL     OW31999   4.070   2.292   7.441 -0.1962  0.2712  0.2124
 6846SOL    HW132000   4.061   2.338   7.357 -0.4982  2.5191  1.4770
 6846SOL    HW232001   4.136   2.224   7.427  1.2919  1.7298  0.3015
 6847SOL     OW32002   3.140   0.869   5.306  0.4089 -0.0368  0.3529
 6847SOL    HW132003   3.132   0.782   5.346 -1.9837  0.0048 -0.0128
 6847SOL    HW232004   3.213   0.857   5.246 -0.3896 -0.4753 -0.5351
 6848SOL     OW32005   1.474   2.060  12.643  0.2480  0.7356  0.4233
 6848SOL    HW132006   1.449   1.991  12.581  1.2096 -0.0082  0.8619
 6848SOL    HW232007   1.397   2.068  12.699  0.9480 -0.9467  1.6380
 6849SOL     OW32008   3.883   2.683   8.572  0.3341 -0.9381 -0.3945
 6849SOL    HW132009   3.964   2.636   8.591  1.4085  1.2197  0.4263
 6849SOL    HW232010   3.875   2.737   8.651  0.4637 -2.2294  0.5007
 6850SOL     OW32011   4.593   1.024   5.661  0.0535  0.2399 -0.5729
 6850SOL    HW132012   4.504   0.997   5.638  0.7087 -0.7997 -1.8853
 6850SOL    HW232013   4.645   0.987   5.590  1.5291  0.3185  0.4540
 6851SOL     OW32014   3.980   0.022   6.144  0.0499  0.5947 -0.1513
 6851SOL    HW132015   3.964   0.109   6.107 -0.1369  0.8483  0.5245
 6851SOL    HW232016   3.894   4.700   6.147  0.5203 -0.2447  1.7932
 6852SOL     OW32017   0.439   4.680  11.291  0.0836  0.6622 -0.1558
 6852SOL    HW132018   0.369   4.629  11.251 -0.2567 -0.4818  1.9089
 6852SOL    HW232019   0.411   0.051  11.277 -0.0570  0.6068 -0.2354
 6853SOL     OW32020   0.805   0.722   7.467  0.0681 -0.0596  0.1094
 6853SOL    HW132021   0.791   0.771   7.386  0.4424  2.4753  1.5778
 6853SOL    HW232022   0.827   0.795   7.525 -0.5687 -0.6606  1.1038
 6854SOL     OW32023   0.405   3.841   5.407  0.4962  0.1147  0.4326
 6854SOL    HW132024   0.368   3.898   5.475 -0.0736  0.3652 -0.0846
 6854SOL    HW232025   0.431   3.763   5.456 -0.9453  1.1596  2.8348
 6855SOL     OW32026   1.513   0.522   6.361 -0.4212  0.4321 -0.0010
 6855SOL    HW132027   1.487   0.593   6.419  0.9111  1.0454 -0.1522
 6855SOL    HW232028   1.441   0.522   6.299  1.4059  2.6891 -2.0986
 6856SOL     OW32029   4.509   4.536   5.979 -0.0842 -0.1282 -0.6528
 6856SOL    HW132030   4.513   4.444   5.954 -2.2720 -0.5798  0.6748
 6856SOL    HW232031   4.438   4.542   6.043 -0.2725 -0.7909 -0.8077
 6857SOL     OW32032   4.177   3.296   3.453  0.0296  0.4929 -0.3773
 6857SOL    HW132033   4.220   3.230   3.399  1.9984 -0.3319  2.1702
 6857SOL    HW232034   4.086   3.278   3.429 -0.4554  1.8633  0.4597
 6858SOL     OW32035   1.515   4.293   4.850 -0.6389 -0.4387 -0.5273
 6858SOL    HW132036   1.463   4.333   4.780  0.4399  0.6285 -0.7155
 6858SOL    HW232037   1.488   4.202   4.838  1.9304 -1.6067  2.8542
 6859SOL     OW32038   2.178   0.478   9.920 -0.2647 -0.0501  0.2117
 6859SOL    HW132039   2.236   0.404   9.937  0.7783  0.2903 -1.8194
 6859SOL    HW232040   2.203   0.510   9.833 -0.2726  0.0512  0.2462
 6860SOL     OW32041   1.377   4.174   1.165 -0.0646 -0.3283 -0.3966
 6860SOL    HW132042   1.463   4.212   1.185  0.3708 -0.7754 -1.4509
 6860SOL    HW232043   1.415   4.099   1.119  0.2187 -1.3320  1.4347
 6861SOL     OW32044   1.927   1.553   3.724  0.2540  0.0128  0.2247
 6861SOL    HW132045   1.841   1.585   3.749  0.2143  1.0238 -1.2438
 6861SOL    HW232046   1.967   1.639   3.716 -3.0098  1.6922  2.0947
 6862SOL     OW32047   0.874   2.441   8.228 -0.0900 -0.4250  0.7815
 6862SOL    HW132048   0.866   2.446   8.323  1.5683  1.4005  0.8282
 6862SOL    HW232049   0.792   2.478   8.198  1.1743  0.0435 -2.1075
 6863SOL     OW32050   2.327   0.398  14.120 -0.0868  0.0050 -0.5716
 6863SOL    HW132051   2.237   0.374  14.141 -0.3739  1.3299 -0.2398
 6863SOL    HW232052   2.325   0.491  14.094  1.4306 -0.2852 -1.7193
 6864SOL     OW32053   2.419   2.389   4.792  0.0034  0.6699  0.3082
 6864SOL    HW132054   2.469   2.344   4.861 -0.6719  1.0808  1.0726
 6864SOL    HW232055   2.383   2.312   4.748  0.5176  1.1091 -0.8662
 6865SOL     OW32056   4.423   0.550   7.839  0.1757 -0.0876  0.8803
 6865SOL    HW132057   4.388   0.463   7.858 -0.4778 -0.3089 -1.2981
 6865SOL    HW232058   4.376   0.607   7.900  0.3251  1.6690 -0.6385
 6866SOL     OW32059   0.848   2.094   9.189 -0.4739 -0.6395  0.1934
 6866SOL    HW132060   0.833   2.171   9.243 -0.7805 -0.2861 -0.3970
 6866SOL    HW232061   0.904   2.037   9.241  0.6451  0.4602  0.1919
 6867SOL     OW32062   3.732   1.634   5.233  0.1595 -0.3700  0.5768
 6867SOL    HW132063   3.791   1.696   5.190 -0.2628 -0.8740 -0.7243
 6867SOL    HW232064   3.788   1.578   5.287 -0.2972 -0.8636  0.5340
 6868SOL     OW32065   3.847   2.113   8.849 -0.1852 -0.4910  0.0839
 6868SOL    HW132066   3.754   2.116   8.829 -0.3813  1.7487  1.2522
 6868SOL    HW232067   3.841   2.142   8.940 -1.0887 -0.0059 -0.1291
 6869SOL     OW32068   3.137   1.001   3.881  0.6788 -0.3919  0.0339
 6869SOL    HW132069   3.056   0.969   3.921  0.5983  0.5258  0.6073
 6869SOL    HW232070   3.105   1.083   3.843  1.9182 -0.3547 -0.9573
 6870SOL     OW32071   3.904   2.580  10.360  0.5287  0.0048  0.1227
 6870SOL    HW132072   3.858   2.546  10.437  0.4124 -0.7827 -0.2921
 6870SOL    HW232073   3.990   2.597  10.398  0.2086  1.6071  0.1426
 6871SOL     OW32074   1.999   2.914   7.263  0.3741  0.3850 -0.7751
 6871SOL    HW132075   2.087   2.920   7.227 -0.7237  0.5717 -3.4579
 6871SOL    HW232076   1.949   2.967   7.201 -0.6148 -0.3096 -0.5820
 6872SOL     OW32077   0.206   2.228  17.435  0.0494 -0.0026 -0.4235
 6872SOL    HW132078   0.175   2.191  17.518  1.9138  1.3775  0.8902
 6872SOL    HW232079   0.188   2.322  17.441 -0.0777 -0.0414 -0.1905
 6873SOL     OW32080   2.158   3.654   8.282  0.3112  0.1629  0.2958
 6873SOL    HW132081   2.181   3.579   8.337  4.4905 -0.5287 -2.4346
 6873SOL    HW232082   2.080   3.620   8.239 -0.3149  0.4449  1.2002
 6874SOL     OW32083   1.545   2.189   7.420  0.1080  0.1198 -0.6182
 6874SOL    HW132084   1.616   2.190   7.485 -1.0045 -2.1827  0.6248
 6874SOL    HW232085   1.594   2.182   7.338  0.1359  3.4111 -0.8807
 6875SOL     OW32086   2.138   3.310   4.584  0.3850  0.0550  0.0396
 6875SOL    HW132087   2.066   3.289   4.524  0.1283 -0.7449  0.6183
 6875SOL    HW232088   2.101   3.261   4.658 -1.1099  2.6010  0.9871
 6876SOL     OW32089   3.365   4.262   2.185  0.0987 -0.1931 -0.5865
 6876SOL    HW132090   3.422   4.268   2.108  0.3352  2.5730 -0.1796
 6876SOL    HW232091   3.422   4.270   2.261 -0.9095  2.2399 -0.0762
 6877SOL     OW32092   2.451   2.164   6.840  0.5763 -0.1537 -0.1563
 6877SOL    HW132093   2.473   2.079   6.802 -1.7382 -0.3111 -1.1083
 6877SOL    HW232094   2.366   2.148   6.881  1.6131 -0.3654  1.9041
 6878SOL     OW32095   1.923   0.954   2.907 -0.3278 -0.1336  0.5854
 6878SOL    HW132096   1.973   0.929   2.984 -0.9468 -1.8927  0.4172
 6878SOL    HW232097   1.833   0.929   2.929 -0.9943  1.9006  0.1506
 6879SOL     OW32098   3.460   1.610   5.021  0.2798  0.1858  0.7353
 6879SOL    HW132099   3.371   1.595   4.988  0.8882  0.1658 -0.9247
 6879SOL    HW232100   3.476   1.539   5.082  1.0915  0.2546  0.5965
 6880SOL     OW32101   3.053   1.013   7.529  0.3083 -0.6849  0.5596
 6880SOL    HW132102   3.022   0.923   7.532  0.8838 -0.9209 -0.5044
 6880SOL    HW232103   3.036   1.037   7.620 -1.4471  1.0493 -0.2479
 6881SOL     OW32104   4.677   2.182  13.453  0.1605 -0.2570 -0.2220
 6881SOL    HW132105   0.023   2.251  13.454  0.9399 -0.9441 -3.0415
 6881SOL    HW232106   4.660   2.155  13.362 -1.7814 -0.5143  0.2282
 6882SOL     OW32107   1.094   4.083   7.252 -0.0689 -0.2562  0.6245
 6882SOL    HW132108   1.010   4.052   7.219  0.6551 -0.1811 -1.2705
 6882SOL    HW232109   1.087   4.053   7.343 -0.8230 -0.4032  0.5178
 6883SOL     OW32110   3.112   4.140   8.299 -0.4131  0.4601 -0.7076
 6883SOL    HW132111   3.085   4.217   8.350  0.6734  0.7246 -0.5361
 6883SOL    HW232112   3.075   4.170   8.216 -0.9789  0.5724 -0.4184
 6884SOL     OW32113   3.698   0.713   7.762 -0.4873 -0.4349 -0.1674
 6884SOL    HW132114   3.707   0.807   7.782 -0.2392 -0.4450 -0.2302
 6884SOL    HW232115   3.659   0.689   7.846 -0.8127  0.1964 -0.1315
 6885SOL     OW32116   2.810   3.024   8.561 -0.1437  0.2167 -0.1492
 6885SOL    HW132117   2.719   3.053   8.552 -0.2241  0.2361  0.8074
 6885SOL    HW232118   2.828   3.079   8.636  2.2020  0.8516 -1.1781
 6886SOL     OW32119   2.354   2.946   1.067 -0.5835 -0.1297  0.2138
 6886SOL    HW132120   2.420   2.932   1.135 -0.9033 -1.3347  0.2775
 6886SOL    HW232121   2.268   2.937   1.108 -0.1977 -0.0235  1.0331
 6887SOL     OW32122   0.461   2.413  10.499  0.0335  0.1097 -0.0068
 6887SOL    HW132123   0.530   2.465  10.457 -1.5358  0.7954 -1.7468
 6887SOL    HW232124   0.387   2.463  10.464  1.7458  2.6321  0.0067
 6888SOL     OW32125   0.562   1.644   4.324  0.1512 -0.0685  0.7918
 6888SOL    HW132126   0.495   1.658   4.391 -0.6209  0.1423 -0.0209
 6888SOL    HW232127   0.531   1.701   4.254  1.5330 -2.0398 -1.4152
 6889SOL     OW32128   2.279   3.149   3.267 -0.2538 -0.2578 -0.0795
 6889SOL    HW132129   2.272   3.192   3.353 -1.0161  0.6288 -0.5866
 6889SOL    HW232130   2.374   3.134   3.270 -0.2327 -0.1727 -0.3830
 6890SOL     OW32131   4.025   3.677   4.071 -0.5342  0.1046  0.2874
 6890SOL    HW132132   4.017   3.706   4.162 -0.4152 -0.0437  0.3440
 6890SOL    HW232133   4.022   3.764   4.030  0.2734  0.2055  0.4432
 6891SOL     OW32134   3.192   1.801   4.419 -0.6080 -0.1026 -0.5609
 6891SOL    HW132135   3.163   1.890   4.437 -0.4826 -0.3212  0.6684
 6891SOL    HW232136   3.145   1.765   4.344 -1.1027 -0.6408  0.0145
 6892SOL     OW32137   2.504   2.776   1.577  0.4673  0.0201  0.4777
 6892SOL    HW132138   2.518   2.692   1.534 -1.6794 -0.8489  1.4912
 6892SOL    HW232139   2.591   2.814   1.586  1.2045 -1.5620  0.0171
 6893SOL     OW32140   4.713   4.358   7.645  0.1975  0.0284  0.4034
 6893SOL    HW132141   0.053   4.327   7.577  1.0133 -0.0867  1.1702
 6893SOL    HW232142   4.685   4.280   7.693 -0.6920  0.6987  0.9769
 6894SOL     OW32143   3.834   4.012  13.573  0.1053 -0.4653  0.1320
 6894SOL    HW132144   3.860   3.946  13.508 -1.5264 -0.2249 -0.7608
 6894SOL    HW232145   3.740   3.996  13.580  0.5520 -3.6709 -1.2056
 6895SOL     OW32146   0.069   4.505   7.313 -0.5744 -0.0439 -0.1348
 6895SOL    HW132147   4.719   4.540   7.257 -1.7516 -0.7404  0.9078
 6895SOL    HW232148   0.123   4.584   7.303 -0.0444 -0.1174  2.1193
 6896SOL     OW32149   0.753   0.438   4.865 -0.6606 -0.0736  0.1205
 6896SOL    HW132150   0.682   0.434   4.802  0.4062  0.3346 -1.1243
 6896SOL    HW232151   0.745   0.528   4.897 -1.1873  0.0491 -0.3640
 6897SOL     OW32152   0.497   1.805  11.688 -0.3481  1.0276 -0.0184
 6897SOL    HW132153   0.464   1.895  11.696  0.7113  1.1488  3.1324
 6897SOL    HW232154   0.414   1.759  11.681  0.0780  0.2885 -0.2052
 6898SOL     OW32155   1.291   4.484   7.349 -0.2298  0.1601 -0.1361
 6898SOL    HW132156   1.308   4.442   7.264  1.8250  1.1070 -0.2115
 6898SOL    HW232157   1.375   4.460   7.388  0.0685  1.9414  0.2975
 6899SOL     OW32158   2.686   0.205   2.536  0.1380 -0.1554 -0.3789
 6899SOL    HW132159   2.726   0.136   2.589  1.2891  0.1433 -0.8818
 6899SOL    HW232160   2.730   0.280   2.577  0.0263  0.7693 -1.9425
 6900SOL     OW32161   0.120   3.080   9.069 -0.2231 -0.0290  0.0659
 6900SOL    HW132162   0.192   3.141   9.085 -2.7492  3.0322 -0.2277
 6900SOL    HW232163   0.097   3.087   8.976 -2.5614  0.0430  0.6558
 6901SOL     OW32164   4.112   3.551  10.718  0.4720 -0.5241  0.1904
 6901SOL    HW132165   4.034   3.509  10.754 -0.5800  0.0901 -1.3777
 6901SOL    HW232166   4.153   3.470  10.688 -0.8054  0.1428 -3.3653
 6902SOL     OW32167   0.908   3.801   8.897 -0.0025 -0.3910 -0.0088
 6902SOL    HW132168   0.870   3.740   8.834 -0.5436 -0.4476  0.3713
 6902SOL    HW232169   0.831   3.841   8.937  0.8037 -0.1274  1.2730
 6903SOL     OW32170   0.829   2.478   8.500  0.1955  0.2925  0.1834
 6903SOL    HW132171   0.821   2.476   8.596 -1.2744  2.5355  0.1186
 6903SOL    HW232172   0.768   2.548   8.476 -1.4716 -1.5446 -0.8583
 6904SOL     OW32173   1.204   3.471  10.596  0.1435  0.1918  0.4314
 6904SOL    HW132174   1.181   3.547  10.651  1.9947  0.9889  0.1133
 6904SOL    HW232175   1.217   3.523  10.516  0.2584  0.7659  0.8176
 6905SOL     OW32176   0.462   2.407  13.625  0.6941 -0.6704 -0.1513
 6905SOL    HW132177   0.520   2.332  13.640 -0.0351 -0.8400  1.8371
 6905SOL    HW232178   0.513   2.470  13.575 -1.9568  2.0944  0.6465
 6906SOL     OW32179   4.577   0.037   1.330 -0.3097  0.2174 -0.5663
 6906SOL    HW132180   4.529   0.105   1.284  0.4974  1.4600  0.4511
 6906SOL    HW232181   4.600   0.073   1.416 -1.6838 -0.8141  0.2383
 6907SOL     OW32182   0.935   1.982   5.701  0.3800  0.4828  0.6169
 6907SOL    HW132183   0.986   1.904   5.681  0.0658  0.3688  0.2455
 6907SOL    HW232184   0.855   1.963   5.651 -0.2246 -0.4651  1.9490
 6908SOL     OW32185   3.682   4.691  13.918  0.6714 -0.4915 -0.1212
 6908SOL    HW132186   3.702   4.597  13.925  0.8769 -0.4712 -0.4135
 6908SOL    HW232187   3.714   4.718  14.004 -1.2317  1.2094  0.0392
 6909SOL     OW32188   2.028   3.155   4.770  0.6752  0.1955  0.5644
 6909SOL    HW132189   1.993   3.066   4.766 -1.1361  0.9455 -0.6679
 6909SOL    HW232190   1.943   3.198   4.771  0.7249  0.2947  0.4727
 6910SOL     OW32191   3.058   3.181   1.092 -0.4083 -0.0880  0.5473
 6910SOL    HW132192   3.116   3.175   1.016 -2.0189  0.1878 -0.6843
 6910SOL    HW232193   3.071   3.091   1.122 -2.0385 -0.2235  0.8423
 6911SOL     OW32194   2.036   1.338  16.403 -0.9299  0.0680  0.6309
 6911SOL    HW132195   2.088   1.322  16.481 -2.1625 -1.4093  1.1577
 6911SOL    HW232196   2.094   1.384  16.343 -3.4143  0.9899 -1.0889
 6912SOL     OW32197   0.872   2.982   1.002 -0.4693  0.5174 -0.0043
 6912SOL    HW132198   0.785   3.007   0.973 -0.6215  0.5813  0.5057
 6912SOL    HW232199   0.905   3.063   1.041  2.4469 -0.1276 -1.0946
 6913SOL     OW32200   4.425   2.378   4.338  0.1040  0.3342  0.5408
 6913SOL    HW132201   4.370   2.311   4.298  2.6728 -0.6956 -1.2585
 6913SOL    HW232202   4.511   2.343   4.314 -0.8037 -1.3086 -0.2837
 6914SOL     OW32203   3.783   1.860   2.191 -0.4394 -0.3015  0.0004
 6914SOL    HW132204   3.830   1.942   2.179 -0.3048 -0.1516  1.5465
 6914SOL    HW232205   3.785   1.836   2.099 -0.6280  1.2905 -0.4164
 6915SOL     OW32206   4.671   1.512   2.145 -0.3245 -0.1512  0.2922
 6915SOL    HW132207   0.024   1.573   2.131  1.2645 -1.7137  1.7627
 6915SOL    HW232208   4.653   1.478   2.057 -1.7058  3.0856 -0.6713
 6916SOL     OW32209   3.553   1.406  14.229 -0.2380  0.2543 -0.3774
 6916SOL    HW132210   3.493   1.463  14.181  0.0372 -0.1959 -1.2495
 6916SOL    HW232211   3.572   1.351  14.153 -1.7375 -0.6371 -0.1324
 6917SOL     OW32212   3.196   4.618   3.519 -0.2862 -0.4528 -0.8358
 6917SOL    HW132213   3.253   4.554   3.561 -2.6192 -3.2774 -2.0016
 6917SOL    HW232214   3.109   4.591   3.547  0.0248 -2.0351 -1.4058
 6918SOL     OW32215   0.624   2.530  10.184  0.0850  0.3981 -0.0819
 6918SOL    HW132216   0.688   2.597  10.159 -0.6244  1.0290 -0.2410
 6918SOL    HW232217   0.614   2.563  10.274 -1.2420  1.1061 -0.4781
 6919SOL     OW32218   4.502   1.530   4.224  1.5909  0.4817 -0.3013
 6919SOL    HW132219   4.518   1.438   4.205 -1.6942  0.6604 -3.8927
 6919SOL    HW232220   4.474   1.522   4.315  3.3020  2.0644  0.3756
 6920SOL     OW32221   2.299   1.069   3.041  0.0879 -0.4737 -0.1873
 6920SOL    HW132222   2.385   1.110   3.041 -0.9964  1.7873  0.8098
 6920SOL    HW232223   2.258   1.144   2.998 -0.3859 -0.9804 -0.6327
 6921SOL     OW32224   2.467   0.093   3.580 -0.2939 -0.4919 -0.3490
 6921SOL    HW132225   2.394   0.085   3.518 -0.6863  3.0227 -0.3266
 6921SOL    HW232226   2.418   0.060   3.655 -1.0252 -0.9706 -1.0335
 6922SOL     OW32227   4.603   0.196   5.675  0.4825  0.9095 -0.3214
 6922SOL    HW132228   4.585   0.229   5.764  1.9457 -0.7960  0.6027
 6922SOL    HW232229   4.695   0.172   5.679  0.1661 -0.5665 -1.8390
 6923SOL     OW32230   3.740   4.571   5.312  0.0698  0.1023 -0.4875
 6923SOL    HW132231   3.672   4.604   5.370 -0.4356 -1.4345 -0.2089
 6923SOL    HW232232   3.751   4.488   5.358  1.0295  0.6213  0.2121
 6924SOL     OW32233   4.318   0.497   3.580 -0.2077 -0.3007 -0.4455
 6924SOL    HW132234   4.233   0.453   3.584 -0.3202  0.0913  1.4630
 6924SOL    HW232235   4.373   0.466   3.508  2.0414 -0.5093  1.3767
 6925SOL     OW32236   1.735   2.582   6.047  0.5601  0.5953  0.3398
 6925SOL    HW132237   1.789   2.591   5.968  0.4244  0.9964  0.2906
 6925SOL    HW232238   1.663   2.641   6.025  1.2662  1.2884 -0.1456
 6926SOL     OW32239   2.554   1.933   5.194  0.6051  0.3409  0.2712
 6926SOL    HW132240   2.511   2.019   5.189 -1.0290 -0.5691 -1.0273
 6926SOL    HW232241   2.539   1.899   5.282  0.8116  2.0008  0.9580
 6927SOL     OW32242   1.741   4.038   5.260 -0.1318 -0.0920  0.2379
 6927SOL    HW132243   1.759   3.993   5.343  0.8288  1.2718  0.7690
 6927SOL    HW232244   1.706   4.120   5.295 -1.1361  0.6447 -2.5407
 6928SOL     OW32245   2.702   0.139   6.922 -0.8312  0.2441 -0.2864
 6928SOL    HW132246   2.724   0.224   6.961  2.3953  0.4297 -2.5414
 6928SOL    HW232247   2.679   0.092   7.002 -1.7978 -1.7001 -1.7174
 6929SOL     OW32248   4.627   2.272   8.517 -0.0950 -0.0108 -0.0667
 6929SOL    HW132249   4.567   2.346   8.505  0.1522  0.5140  1.8370
 6929SOL    HW232250   4.673   2.295   8.598  1.0530 -1.8055 -0.2247
 6930SOL     OW32251   2.266   3.144   4.977  0.4723 -0.2005  0.1696
 6930SOL    HW132252   2.170   3.146   4.978  0.4618 -0.7655  0.1346
 6930SOL    HW232253   2.270   3.096   4.894 -3.9341 -0.5337  0.1204
 6931SOL     OW32254   4.034   1.250   6.954 -0.7652  0.5225 -0.1693
 6931SOL    HW132255   4.104   1.290   6.903 -0.0009  0.7938  1.1156
 6931SOL    HW232256   3.956   1.227   6.903  0.2068 -1.6553 -0.6617
 6932SOL     OW32257   4.360   4.392   8.353  0.3843  0.4525 -0.5897
 6932SOL    HW132258   4.422   4.378   8.282  0.4001  0.2499 -0.5368
 6932SOL    HW232259   4.319   4.306   8.359 -0.0844  0.7317  0.3205
 6933SOL     OW32260   2.275   0.199   3.143 -0.1287 -0.1376  0.2941
 6933SOL    HW132261   2.361   0.182   3.106 -0.2839 -1.7749  0.7053
 6933SOL    HW232262   2.287   0.203   3.238 -0.0558  2.1660  0.2005
 6934SOL     OW32263   2.352   3.269   8.077  0.3088  0.6006 -0.1420
 6934SOL    HW132264   2.377   3.359   8.058 -3.6741  1.1278 -2.6736
 6934SOL    HW232265   2.299   3.251   8.000 -0.4524  2.1206  0.0242
 6935SOL     OW32266   2.744   1.018   8.635 -0.3981  0.6141 -0.2432
 6935SOL    HW132267   2.716   1.025   8.726 -0.1081 -0.3302 -0.0827
 6935SOL    HW232268   2.785   0.932   8.641 -3.2664 -0.5872  2.1742
 6936SOL     OW32269   0.394   2.270   9.016  0.2153  0.3763  0.1276
 6936SOL    HW132270   0.425   2.346   9.064 -1.7217  2.4196 -1.8577
 6936SOL    HW232271   0.465   2.205   9.021 -1.9347 -1.9418  0.5282
 6937SOL     OW32272   0.383   0.172  13.611 -0.3295  0.0928  0.2779
 6937SOL    HW132273   0.358   0.263  13.602 -0.5999 -0.3001 -2.8509
 6937SOL    HW232274   0.299   0.129  13.594  0.1128  0.5124 -2.9289
 6938SOL     OW32275   3.065   0.928  10.619 -0.3752 -0.8677 -0.1241
 6938SOL    HW132276   2.980   0.922  10.662  0.1788 -2.9635  0.6486
 6938SOL    HW232277   3.120   0.954  10.692 -2.0207 -0.9903  1.1644
 6939SOL     OW32278   1.644   3.834   0.218  0.0573  0.6302  0.0169
 6939SOL    HW132279   1.577   3.896   0.247  0.6432  1.2414  0.0982
 6939SOL    HW232280   1.669   3.776   0.290  3.1566  1.4913 -0.3557
 6940SOL     OW32281   0.178   0.210   6.129  0.3126 -0.0201  0.0205
 6940SOL    HW132282   0.147   0.300   6.118  1.8587  0.3683 -1.1648
 6940SOL    HW232283   0.096   0.179   6.168  0.9657 -1.6636  0.0899
 6941SOL     OW32284   2.985   0.025   4.400 -0.1906  0.2888 -0.2487
 6941SOL    HW132285   3.046   0.097   4.411 -1.4337  1.5211 -1.3375
 6941SOL    HW232286   2.934   0.061   4.327 -2.7174 -0.6197  1.0774
 6942SOL     OW32287   3.045   0.808  10.365 -0.6863  0.4308 -0.8112
 6942SOL    HW132288   3.072   0.889  10.321  1.6432  0.2548  0.3099
 6942SOL    HW232289   3.076   0.819  10.455  0.4930  2.0361 -1.4201
 6943SOL     OW32290   1.670   4.327   8.927  0.3094 -0.3147  0.1699
 6943SOL    HW132291   1.637   4.237   8.930 -0.5750  0.0153  0.3319
 6943SOL    HW232292   1.754   4.320   8.882  0.5841 -1.4116  0.8543
 6944SOL     OW32293   3.113   2.701   7.292  0.1001 -0.2952  0.2133
 6944SOL    HW132294   3.074   2.780   7.255 -1.7170 -0.2562  2.2553
 6944SOL    HW232295   3.053   2.678   7.363  2.0826 -0.5253  1.8429
 6945SOL     OW32296   2.709   2.100   2.058 -0.2791  0.0273  0.3557
 6945SOL    HW132297   2.742   2.095   2.147  0.8922  1.4233  0.0075
 6945SOL    HW232298   2.677   2.191   2.054 -0.2811 -0.0297 -1.0229
 6946SOL     OW32299   3.944   2.050   6.571 -0.3810 -0.0319  0.3489
 6946SOL    HW132300   3.853   2.068   6.594 -0.9606 -1.4669 -0.8142
 6946SOL    HW232301   3.988   2.127   6.607 -0.8362 -0.1896  1.2428
 6947SOL     OW32302   4.032   2.977   9.021 -0.2372 -0.2769  0.4914
 6947SOL    HW132303   4.047   3.064   8.984  0.3303  0.1006  1.6274
 6947SOL    HW232304   4.110   2.933   8.989 -0.3888  0.6075 -1.0723
 6948SOL     OW32305   0.734   2.742  16.628  0.4117  0.3468  0.2139
 6948SOL    HW132306   0.801   2.800  16.594  2.4707 -0.6106  2.6684
 6948SOL    HW232307   0.761   2.710  16.714  0.6641 -1.9307 -0.7176
 6949SOL     OW32308   4.348   1.992   5.501  0.8092  0.1204 -0.7428
 6949SOL    HW132309   4.409   1.953   5.437 -2.3197 -1.6078 -2.6466
 6949SOL    HW232310   4.377   1.959   5.586 -3.1897 -1.5554 -0.0487
 6950SOL     OW32311   4.479   1.823  15.765  0.3490  0.2320 -0.6950
 6950SOL    HW132312   4.452   1.832  15.674  1.3203  0.4068 -0.9613
 6950SOL    HW232313   4.525   1.739  15.756 -1.4540 -0.6624 -1.6242
 6951SOL     OW32314   0.623   2.665  11.374  0.3188  0.5281 -0.2147
 6951SOL    HW132315   0.707   2.627  11.349 -0.3288 -0.8024 -0.3175
 6951SOL    HW232316   0.596   2.603  11.441  2.7132 -0.6290 -0.3638
 6952SOL     OW32317   0.761   2.968   3.650 -0.3324  0.0364  0.3273
 6952SOL    HW132318   0.756   3.029   3.724 -0.2737  2.7052 -1.8445
 6952SOL    HW232319   0.853   2.974   3.625 -0.0422 -0.0728  1.4060
 6953SOL     OW32320   1.313   4.053   2.361 -0.1016 -0.0663 -0.5977
 6953SOL    HW132321   1.291   4.128   2.416  3.2059  0.6252 -0.2278
 6953SOL    HW232322   1.287   3.982   2.419 -2.8206 -0.7550 -2.6515
 6954SOL     OW32323   4.434   0.390   0.429 -0.4339  0.0338 -0.7073
 6954SOL    HW132324   4.500   0.334   0.471 -0.4971  0.5043  0.0184
 6954SOL    HW232325   4.457   0.481   0.449  2.5474 -1.0242  0.6709
 6955SOL     OW32326   3.308   0.734   4.404  0.3646  0.0368 -0.3036
 6955SOL    HW132327   3.400   0.709   4.404  0.3752  0.0774 -0.3254
 6955SOL    HW232328   3.322   0.828   4.400 -0.6100  0.1495 -1.0984
 6956SOL     OW32329   1.220   4.259   1.814  0.4172  0.4540  0.0203
 6956SOL    HW132330   1.170   4.178   1.799 -0.1211  0.6222  0.9475
 6956SOL    HW232331   1.177   4.290   1.893  1.9016 -0.0768  1.0203
 6957SOL     OW32332   1.976   2.644   1.271 -0.1322 -0.3822 -0.1813
 6957SOL    HW132333   1.909   2.673   1.334  0.2637  0.6462 -0.2389
 6957SOL    HW232334   2.021   2.568   1.307 -0.2471 -1.8440 -3.1292
 6958SOL     OW32335   2.945   1.858   2.238 -0.2193  0.0468 -0.2117
 6958SOL    HW132336   2.969   1.768   2.259  0.1665  0.5816  1.6993
 6958SOL    HW232337   3.009   1.902   2.294 -2.4403 -0.4017  2.6697
 6959SOL     OW32338   1.429   0.866   3.061 -0.4822  0.1115 -0.1899
 6959SOL    HW132339   1.434   0.910   3.146  2.1210  1.2503 -0.9442
 6959SOL    HW232340   1.518   0.874   3.027  0.0334 -1.1037  0.8734
 6960SOL     OW32341   1.948   1.197  12.084 -0.6053 -0.1342 -0.1759
 6960SOL    HW132342   1.978   1.107  12.097 -1.2200 -0.5736 -1.8122
 6960SOL    HW232343   2.018   1.248  12.122 -0.2140  0.6086 -1.8946
 6961SOL     OW32344   0.546   1.790   3.736 -0.5238  0.3054 -0.1081
 6961SOL    HW132345   0.580   1.754   3.654 -0.5529 -1.7010  0.7581
 6961SOL    HW232346   0.463   1.827   3.706 -1.8125 -3.0132 -0.5870
 6962SOL     OW32347   0.034   2.939  14.389  0.5897  0.2743 -0.3221
 6962SOL    HW132348   4.675   2.954  14.441  2.3932 -0.0510  2.5119
 6962SOL    HW232349   0.042   3.021  14.340  1.7522  0.8033  0.7469
 6963SOL     OW32350   3.248   4.079  14.213  0.2404 -0.5645 -0.5192
 6963SOL    HW132351   3.340   4.059  14.197  0.4772 -0.2840  0.4931
 6963SOL    HW232352   3.247   4.070  14.308  0.9486  2.8392 -0.1913
 6964SOL     OW32353   0.360   2.092   2.642  0.3475  0.1071 -0.4496
 6964SOL    HW132354   0.455   2.079   2.638  0.4743  1.3496 -1.4107
 6964SOL    HW232355   0.335   2.049   2.560 -1.2017  0.3640 -0.0947
 6965SOL     OW32356   4.655   0.237  17.488  0.0766 -0.1988 -0.2072
 6965SOL    HW132357   4.664   0.219  17.581  2.5422  1.7825 -0.0718
 6965SOL    HW232358   0.021   0.216  17.452 -1.0186 -3.3956 -0.9062
 6966SOL     OW32359   1.153   2.923   4.358  0.4353 -0.0991 -0.1254
 6966SOL    HW132360   1.236   2.941   4.313  0.8682 -1.1863  0.2606
 6966SOL    HW232361   1.173   2.918   4.451  3.2065 -0.9771 -0.7738
 6967SOL     OW32362   2.724   4.178   7.655 -0.1572 -0.3606  0.2474
 6967SOL    HW132363   2.696   4.269   7.639 -1.8955 -1.0518 -0.6042
 6967SOL    HW232364   2.782   4.154   7.582  0.9806  0.6186  0.8186
 6968SOL     OW32365   3.727   4.419  14.883  0.4015  0.6349 -0.0474
 6968SOL    HW132366   3.813   4.441  14.847  0.4613 -0.2390 -0.4406
 6968SOL    HW232367   3.680   4.489  14.838 -0.0912 -0.0084 -0.5226
 6969SOL     OW32368   2.725   2.725   3.518  0.3531  0.2384 -0.3667
 6969SOL    HW132369   2.756   2.812   3.545  0.5811 -0.0303  0.2453
 6969SOL    HW232370   2.676   2.746   3.438  2.5697  0.1270 -1.7369
 6970SOL     OW32371   1.805   1.996  11.765 -0.3623 -0.4694 -0.1978
 6970SOL    HW132372   1.860   1.975  11.840 -0.8032 -1.9714 -0.3065
 6970SOL    HW232373   1.836   2.086  11.749 -0.7483 -0.5925 -1.7066
 6971SOL     OW32374   2.716   1.934   6.464 -0.0093  0.5239  0.3664
 6971SOL    HW132375   2.726   1.839   6.469  0.5120  0.4362 -2.5865
 6971SOL    HW232376   2.622   1.943   6.479  0.2677 -0.2681  2.5554
 6972SOL     OW32377   0.094   0.162   5.864 -0.4534  0.1601  0.3228
 6972SOL    HW132378   0.116   0.068   5.865  0.1691  0.3024 -0.3795
 6972SOL    HW232379   0.133   0.195   5.945  1.4052  0.6047 -0.7634
 6973SOL     OW32380   1.879   4.214   2.114  0.2139 -0.4582  0.3367
 6973SOL    HW132381   1.895   4.303   2.146  2.3887 -0.3991 -0.8840
 6973SOL    HW232382   1.806   4.234   2.056 -2.0341 -1.0760  2.9864
 6974SOL     OW32383   0.669   4.293  12.434 -0.3783  0.3564  0.1228
 6974SOL    HW132384   0.725   4.312  12.359  0.6799  0.8878  1.0432
 6974SOL    HW232385   0.590   4.265  12.388 -0.0549 -1.2427  0.5351
 6975SOL     OW32386   4.298   4.233   7.217  0.3138  0.0330 -0.0079
 6975SOL    HW132387   4.306   4.263   7.126  1.4057 -1.1773 -0.3119
 6975SOL    HW232388   4.266   4.315   7.253 -0.7569 -1.6218  2.8180
 6976SOL     OW32389   3.841   2.626   5.194  0.3092 -0.2734 -0.2384
 6976SOL    HW132390   3.905   2.678   5.146  2.8329 -2.1206  1.1288
 6976SOL    HW232391   3.904   2.564   5.230  0.4500 -0.3240 -0.5668
 6977SOL     OW32392   1.429   0.524   7.718  0.9231  0.5329  0.0678
 6977SOL    HW132393   1.470   0.517   7.805  3.0834 -0.1330 -1.0037
 6977SOL    HW232394   1.346   0.478   7.722  2.2266 -1.7020  1.7792
 6978SOL     OW32395   1.178   2.522   4.232  0.0183 -0.4005  0.6144
 6978SOL    HW132396   1.112   2.555   4.293  0.6094  0.6916  0.6769
 6978SOL    HW232397   1.144   2.525   4.143  0.0786  1.0975  0.6350
 6979SOL     OW32398   3.534   4.295   3.925 -0.7466 -0.0010 -0.0338
 6979SOL    HW132399   3.600   4.226   3.933  0.1872  0.8217 -0.6316
 6979SOL    HW232400   3.465   4.261   3.868 -1.2767  0.4404  0.3400
 6980SOL     OW32401   2.967   3.893   6.252  0.2600  0.2502  0.1496
 6980SOL    HW132402   2.993   3.963   6.193 -0.1608  0.1539 -0.1475
 6980SOL    HW232403   3.007   3.815   6.214  0.4556 -0.7320  2.3465
 6981SOL     OW32404   2.161   3.958   0.333  0.1073 -0.5898 -0.3166
 6981SOL    HW132405   2.071   3.987   0.343  0.3848 -0.8646  2.9291
 6981SOL    HW232406   2.186   4.016   0.260 -0.9609  0.8997  0.5027
 6982SOL     OW32407   0.540   1.953   2.880  0.0578 -0.4724  0.0115
 6982SOL    HW132408   0.447   1.934   2.898  0.1333 -2.0343 -1.2397
 6982SOL    HW232409   0.532   2.030   2.825  2.7167 -1.2171 -1.3841
 6983SOL     OW32410   0.549   2.239   6.341  0.8959 -0.0863 -0.3144
 6983SOL    HW132411   0.462   2.228   6.380  1.0298  2.3059  0.6759
 6983SOL    HW232412   0.585   2.152   6.357 -0.0173 -0.0369  2.0331
 6984SOL     OW32413   1.070   3.939   1.021 -0.4388  0.2504  0.6918
 6984SOL    HW132414   1.077   3.902   1.109  2.1219  1.0791  0.8538
 6984SOL    HW232415   1.122   4.020   1.026  0.4378 -0.2880  0.3549
 6985SOL     OW32416   0.515   0.173   2.562  0.3232 -0.1145  0.4107
 6985SOL    HW132417   0.467   0.251   2.534 -0.6351 -1.1963 -0.9565
 6985SOL    HW232418   0.470   0.140   2.640  1.2178  0.2552  1.0839
 6986SOL     OW32419   3.650   1.524  16.167 -0.2089 -0.2005  0.3479
 6986SOL    HW132420   3.678   1.613  16.190  1.0885 -0.6179  0.3935
 6986SOL    HW232421   3.732   1.478  16.186 -1.1395 -1.9299  0.1487
 6987SOL     OW32422   4.407   4.468   3.089 -0.3009 -0.0637  0.0715
 6987SOL    HW132423   4.332   4.417   3.120 -1.4661  0.3122 -2.1129
 6987SOL    HW232424   4.458   4.489   3.167 -0.8565 -1.8286  0.9006
 6988SOL     OW32425   0.735   2.187   4.490  0.2628 -0.5036  0.0370
 6988SOL    HW132426   0.684   2.216   4.414 -0.0799  1.5167  1.0293
 6988SOL    HW232427   0.826   2.207   4.465  0.5305 -1.2093  0.4450
 6989SOL     OW32428   1.066   3.465   1.544  0.5123  0.3242 -0.4627
 6989SOL    HW132429   1.135   3.453   1.608  0.1709 -1.3484 -0.4016
 6989SOL    HW232430   1.063   3.560   1.538  0.2188  0.4127  1.1023
 6990SOL     OW32431   3.929   2.289   8.439  0.1191 -0.3420 -0.0631
 6990SOL    HW132432   3.839   2.260   8.426  0.2732  0.2366 -2.4965
 6990SOL    HW232433   3.924   2.338   8.521  2.7282 -1.4347  0.7508
 6991SOL     OW32434   0.839   0.777   8.104 -0.5736  0.3914 -0.4976
 6991SOL    HW132435   0.805   0.729   8.180  1.0288  3.3647  2.1269
 6991SOL    HW232436   0.756   0.807   8.067 -0.4359 -0.5192 -1.5350
 6992SOL     OW32437   0.826   4.127  10.046  0.3459  0.1728  0.0324
 6992SOL    HW132438   0.750   4.182  10.065  0.8487  0.7176  0.4653
 6992SOL    HW232439   0.813   4.095   9.957  1.7335 -1.4051  0.3895
 6993SOL     OW32440   0.404   0.204  16.205  0.5134 -0.5057 -0.0893
 6993SOL    HW132441   0.374   0.249  16.126  0.6415  2.4251  1.5534
 6993SOL    HW232442   0.325   0.207  16.258  0.6096 -1.4561  0.1201
 6994SOL     OW32443   4.241   0.923   6.471  0.1749  0.6606 -0.6125
 6994SOL    HW132444   4.213   0.987   6.536 -0.0849 -1.7312  1.6194
 6994SOL    HW232445   4.307   0.872   6.518  0.3843  2.3666  0.9070
 6995SOL     OW32446   3.773   0.809   1.473  0.6105  0.0681 -0.2864
 6995SOL    HW132447   3.856   0.857   1.464  0.7473 -0.2239 -0.5934
 6995SOL    HW232448   3.792   0.784   1.564 -0.0752 -0.0538 -0.1805
 6996SOL     OW32449   0.711   0.154   7.481  0.6161 -0.3602  0.0603
 6996SOL    HW132450   0.781   0.181   7.422  1.6857  2.1582  2.4751
 6996SOL    HW232451   0.637   0.204   7.448  0.3614 -0.7910 -0.0199
 6997SOL     OW32452   0.464   2.536   3.666  0.2458 -0.3092 -0.2188
 6997SOL    HW132453   0.537   2.589   3.633  0.4691 -0.9396 -0.7308
 6997SOL    HW232454   0.502   2.508   3.749  0.4024 -0.3348 -0.2990
 6998SOL     OW32455   0.465   2.834  14.019  0.0376 -0.0319  0.1098
 6998SOL    HW132456   0.419   2.754  14.044  0.6609  0.5614  3.1566
 6998SOL    HW232457   0.547   2.804  13.980  1.5190  3.6279  0.3156
 6999SOL     OW32458   3.209   1.200   4.761 -0.4140 -0.3963 -0.4054
 6999SOL    HW132459   3.240   1.290   4.748 -1.4633 -0.1409 -1.1153
 6999SOL    HW232460   3.241   1.187   4.851  0.4875  0.4508 -0.5965
 7000SOL     OW32461   0.294   0.573   3.012 -0.6223  0.2474 -0.0830
 7000SOL    HW132462   0.378   0.608   3.039  1.2742 -2.4535 -2.4255
 7000SOL    HW232463   0.274   0.616   2.929 -0.7676 -1.7875 -1.0964
 7001SOL     OW32464   3.724   3.434   4.852 -0.1548 -0.2591  0.5766
 7001SOL    HW132465   3.647   3.454   4.904 -0.4068 -0.2082  0.1846
 7001SOL    HW232466   3.684   3.452   4.767  0.2914  0.3300  0.4963
 7002SOL     OW32467   2.242   2.293  11.306 -0.0691  0.0157 -0.1787
 7002SOL    HW132468   2.214   2.384  11.308 -1.6601 -0.5227  1.8877
 7002SOL    HW232469   2.319   2.298  11.249 -0.3572 -1.1485 -0.6703
 7003SOL     OW32470   0.132   0.772   1.129 -0.3742 -0.3511  0.2400
 7003SOL    HW132471   0.049   0.820   1.135  0.7696  1.7521 -0.7203
 7003SOL    HW232472   0.174   0.811   1.206 -1.5885  0.7817  0.3514
 7004SOL     OW32473   0.947   0.653   3.020  0.1175  0.2404 -0.5318
 7004SOL    HW132474   0.958   0.732   3.072  1.3557 -0.8148  0.7916
 7004SOL    HW232475   0.935   0.699   2.937 -0.9664 -0.0762 -0.5558
 7005SOL     OW32476   0.604   1.471   9.348  0.5505  0.5615  0.0421
 7005SOL    HW132477   0.642   1.558   9.361  0.6540  0.6050 -0.5833
 7005SOL    HW232478   0.626   1.455   9.257  3.1162 -1.8949  1.0986
 7006SOL     OW32479   0.046   2.367   7.047  0.5181 -0.4809 -0.1997
 7006SOL    HW132480   0.073   2.347   7.136  0.3815  1.5132  0.2822
 7006SOL    HW232481   0.118   2.424   7.020  0.5743 -1.1937 -1.5704
 7007SOL     OW32482   0.783   3.915  10.624  0.4918  0.1046  0.5760
 7007SOL    HW132483   0.820   3.990  10.669 -0.5241  0.5588  0.6373
 7007SOL    HW232484   0.688   3.924  10.635  0.3341 -0.2126 -0.5083
 7008SOL     OW32485   1.184   3.689   9.255 -0.4911 -0.1820 -0.0891
 7008SOL    HW132486   1.233   3.608   9.243  2.1592  1.2626  1.0226
 7008SOL    HW232487   1.238   3.719   9.328 -0.3768  2.4800 -1.2781
 7009SOL     OW32488   3.300   2.828   8.809 -0.3387 -0.0422  0.3051
 7009SOL    HW132489   3.336   2.760   8.866 -0.3515 -1.1508 -1.0181
 7009SOL    HW232490   3.263   2.775   8.739  3.3166 -0.1186 -1.5646
 7010SOL     OW32491   2.745   4.636   3.910  0.2232  0.1150  0.2429
 7010SOL    HW132492   2.746   4.695   3.835 -0.4724  1.0659  0.9698
 7010SOL    HW232493   2.660   4.667   3.944  0.3515  0.3351  0.3624
 7011SOL     OW32494   2.455   1.313  14.752 -0.1940  0.0750 -0.2693
 7011SOL    HW132495   2.435   1.321  14.658  0.1220  0.6116 -0.2878
 7011SOL    HW232496   2.473   1.219  14.747 -1.7166 -0.2557  0.3712
 7012SOL     OW32497   2.212   3.272   0.105 -0.3056 -0.3742  0.0049
 7012SOL    HW132498   2.231   3.294   0.014 -1.8516  0.4976 -0.0973
 7012SOL    HW232499   2.287   3.300   0.157  0.6667 -1.8660 -0.5780
 7013SOL     OW32500   2.254   2.132   0.326 -0.2387  0.1532  0.6209
 7013SOL    HW132501   2.325   2.155   0.386 -0.0341 -0.1004  0.4762
 7013SOL    HW232502   2.274   2.039   0.319 -0.9197 -0.0454  1.3243
 7014SOL     OW32503   1.158   1.557   6.094  0.1298  0.0555 -0.3697
 7014SOL    HW132504   1.122   1.476   6.058 -0.5307  0.2343 -0.1046
 7014SOL    HW232505   1.083   1.590   6.144  1.2385  0.3890  1.0685
 7015SOL     OW32506   2.747   1.065   5.112 -0.6491 -0.2504  0.0349
 7015SOL    HW132507   2.717   1.135   5.055  0.3672 -0.6020 -0.9352
 7015SOL    HW232508   2.711   0.982   5.080  2.0516 -1.0011 -1.1070
 7016SOL     OW32509   1.823   3.069   3.209  0.1799  0.3753  0.5306
 7016SOL    HW132510   1.791   3.043   3.296  3.1390 -1.6011  1.0328
 7016SOL    HW232511   1.871   3.144   3.245  0.3926  0.8117 -0.6680
 7017SOL     OW32512   0.400   2.696   6.402 -0.2332 -0.1336  0.5331
 7017SOL    HW132513   0.406   2.716   6.495 -1.5994  0.6488  0.4583
 7017SOL    HW232514   0.314   2.661   6.381 -0.4761  0.8025 -0.0496
 7018SOL     OW32515   3.446   1.993   3.521 -0.4369  0.4620 -0.2547
 7018SOL    HW132516   3.380   2.025   3.583 -0.7043 -0.1594 -0.2103
 7018SOL    HW232517   3.424   1.900   3.526  3.2643 -0.3256  0.9420
 7019SOL     OW32518   2.240   0.654   3.713  0.1193 -0.0706 -0.3724
 7019SOL    HW132519   2.242   0.700   3.797  1.8447 -0.5555 -0.1357
 7019SOL    HW232520   2.223   0.566   3.747 -1.1604  1.2781  2.4784
 7020SOL     OW32521   1.425   3.800   5.560 -0.3131 -0.5795  0.3052
 7020SOL    HW132522   1.446   3.707   5.570  0.5114 -0.4464 -0.1774
 7020SOL    HW232523   1.515   3.830   5.573 -0.0165 -0.2077 -2.4646
 7021SOL     OW32524   0.797   0.135   3.220 -0.0389 -0.3990 -0.0974
 7021SOL    HW132525   0.733   0.095   3.161  0.7627 -0.9381 -0.6230
 7021SOL    HW232526   0.807   0.225   3.191 -2.2909  0.8560  3.1286
 7022SOL     OW32527   3.885   3.782   7.200  0.0916  0.0965 -0.0027
 7022SOL    HW132528   3.944   3.838   7.149  0.0981  1.9677  2.0670
 7022SOL    HW232529   3.907   3.818   7.286 -0.3466  0.1232  0.0960
 7023SOL     OW32530   1.764   3.394  11.664  0.2663 -0.2177 -0.6385
 7023SOL    HW132531   1.719   3.431  11.588 -0.9034  1.2639  0.7826
 7023SOL    HW232532   1.794   3.470  11.713 -0.6244  0.5067 -1.2236
 7024SOL     OW32533   0.137   0.092   2.591  0.4648  0.0358 -0.1011
 7024SOL    HW132534   0.222   0.126   2.617  0.6319 -0.0613 -0.5081
 7024SOL    HW232535   0.137   0.034   2.667 -0.8922  0.3061  0.1042
 7025SOL     OW32536   2.809   3.791   6.936 -0.4043 -0.0638  0.2233
 7025SOL    HW132537   2.738   3.737   6.974  0.4550 -1.2600  0.1374
 7025SOL    HW232538   2.771   3.821   6.853  2.2197  1.3880 -0.4452
 7026SOL     OW32539   2.099   2.926   3.275 -0.6057 -0.0931 -0.4925
 7026SOL    HW132540   2.082   2.948   3.367  2.2776  1.6649 -0.3777
 7026SOL    HW232541   2.183   2.969   3.259  0.5180 -0.7551  3.3906
 7027SOL     OW32542   1.483   2.496   8.077 -0.1381  0.2062  0.2177
 7027SOL    HW132543   1.406   2.510   8.132  0.6841  2.7236  0.7210
 7027SOL    HW232544   1.492   2.400   8.078 -0.3813  0.1484 -3.9608
 7028SOL     OW32545   3.456   2.790   6.612  0.4122 -0.4509 -0.0465
 7028SOL    HW132546   3.372   2.818   6.577 -0.5472 -2.3225  0.7633
 7028SOL    HW232547   3.427   2.718   6.668 -0.6542  0.5072  0.6283
 7029SOL     OW32548   3.919   1.912  11.894  0.1620 -0.0174 -0.0878
 7029SOL    HW132549   4.011   1.934  11.910  0.1286  0.4617 -0.5586
 7029SOL    HW232550   3.881   1.967  11.963 -1.2578 -2.5816  1.1488
 7030SOL     OW32551   0.483   1.498   5.607  0.2593 -0.1673  0.6058
 7030SOL    HW132552   0.409   1.445   5.575  0.5618 -0.7102  0.8169
 7030SOL    HW232553   0.500   1.452   5.689  2.2189  0.1623  0.3701
 7031SOL     OW32554   3.422   0.742   7.710 -0.1502 -0.0113  0.6461
 7031SOL    HW132555   3.511   0.727   7.740  0.3030  0.6872 -0.3577
 7031SOL    HW232556   3.392   0.791   7.787  1.1467 -2.6291  2.8330
 7032SOL     OW32557   2.668   0.139   4.903  0.2380  0.3836 -0.2524
 7032SOL    HW132558   2.611   0.072   4.865  0.7110  0.9274 -1.9207
 7032SOL    HW232559   2.753   0.119   4.865 -0.1015 -0.7965 -0.3795
 7033SOL     OW32560   2.576   3.227   4.821 -0.1630  0.2727  0.7128
 7033SOL    HW132561   2.507   3.202   4.760 -0.1223 -0.2247  0.8640
 7033SOL    HW232562   2.554   3.189   4.906 -2.6878 -1.3551 -0.6558
 7034SOL     OW32563   4.399   2.629  12.953  0.4740 -0.1297 -0.1870
 7034SOL    HW132564   4.466   2.630  12.884  1.2756  0.7900  0.6006
 7034SOL    HW232565   4.403   2.723  12.970  1.7263 -0.5357  1.7769
 7035SOL     OW32566   4.542   1.084   6.361 -0.0232  0.9138  0.0615
 7035SOL    HW132567   4.603   1.028   6.313  1.2315  1.9216  0.4632
 7035SOL    HW232568   4.606   1.141   6.403 -0.0288 -0.0463  1.3898
 7036SOL     OW32569   4.648   4.218   8.861  0.1446  0.2453  0.5428
 7036SOL    HW132570   4.576   4.280   8.869 -0.1106  0.1486 -1.0934
 7036SOL    HW232571   0.005   4.272   8.842  0.6337 -1.5128 -2.4927
 7037SOL     OW32572   3.549   1.416   8.316 -0.1376  0.2032  0.0122
 7037SOL    HW132573   3.642   1.428   8.336  0.3790 -0.9185 -1.6647
 7037SOL    HW232574   3.549   1.389   8.224 -1.3824  0.9998 -0.2232
 7038SOL     OW32575   2.458   2.807   7.019 -0.6272 -0.3851 -0.4507
 7038SOL    HW132576   2.503   2.725   6.999  1.8431  0.9239 -0.2457
 7038SOL    HW232577   2.424   2.827   6.932 -4.0538 -0.5979  0.8549
 7039SOL     OW32578   1.075   3.221   7.050 -0.0365 -0.3704 -0.7414
 7039SOL    HW132579   1.139   3.196   7.117 -2.5284  0.0607  1.8015
 7039SOL    HW232580   1.121   3.200   6.969  0.7057 -1.3909 -0.0563
 7040SOL     OW32581   1.798   1.333   6.836 -0.1665  0.4934 -0.5735
 7040SOL    HW132582   1.814   1.279   6.914  0.3178  1.4201 -0.0406
 7040SOL    HW232583   1.747   1.272   6.782  0.5286 -1.4947  1.0247
 7041SOL     OW32584   1.319   2.182   0.964  0.3002 -0.0963  0.6097
 7041SOL    HW132585   1.309   2.109   0.902  0.8298  0.5707 -0.2548
 7041SOL    HW232586   1.399   2.156   1.010  0.5245  2.4305  1.6172
 7042SOL     OW32587   2.609   2.296   2.652 -0.3907 -0.4011  0.4051
 7042SOL    HW132588   2.530   2.350   2.644 -0.3419 -0.3170  0.4933
 7042SOL    HW232589   2.580   2.234   2.719 -2.1876  1.0851  0.9886
 7043SOL     OW32590   2.191   3.789  15.181  0.0838  0.7579 -0.0105
 7043SOL    HW132591   2.109   3.835  15.199 -1.4375 -2.0752  0.2836
 7043SOL    HW232592   2.215   3.814  15.091 -2.8260  0.0842 -0.9640
 7044SOL     OW32593   3.975   0.679  11.974  0.1421 -0.4035 -0.3865
 7044SOL    HW132594   4.046   0.619  11.953  0.5326 -0.5573  1.4269
 7044SOL    HW232595   4.003   0.705  12.061 -0.2023  0.2562 -0.4759
 7045SOL     OW32596   0.329   3.010  10.238  0.5660 -0.0747 -0.5151
 7045SOL    HW132597   0.360   2.920  10.229  0.2622 -0.3042  0.7478
 7045SOL    HW232598   0.239   2.995  10.267  0.9579  1.0043  1.2176
 7046SOL     OW32599   2.685   2.270   7.467 -0.1797  0.4510 -0.4316
 7046SOL    HW132600   2.776   2.258   7.494 -0.4785  0.2551  0.4570
 7046SOL    HW232601   2.692   2.337   7.398  1.8521  2.1077  1.3552
 7047SOL     OW32602   2.732   2.361  15.021  0.0354  0.2855  0.3913
 7047SOL    HW132603   2.717   2.270  15.045  2.0935 -0.2724 -0.3793
 7047SOL    HW232604   2.823   2.357  14.991  0.1426  1.2817  0.5803
 7048SOL     OW32605   2.792   0.541   2.933  0.5792 -0.3241 -0.0274
 7048SOL    HW132606   2.778   0.455   2.894 -0.6724 -0.3228  0.4422
 7048SOL    HW232607   2.886   0.533   2.953  0.5433 -2.5364 -0.7786
 7049SOL     OW32608   2.792   1.413  16.526  0.1288 -0.0953  0.6868
 7049SOL    HW132609   2.738   1.489  16.507 -0.6080 -1.1004 -1.1436
 7049SOL    HW232610   2.805   1.363  16.446 -0.7165 -0.6375  0.8969
 7050SOL     OW32611   4.614   0.131   4.345  0.3927 -0.3727 -0.4750
 7050SOL    HW132612   4.522   0.103   4.352 -0.4898  2.7859  0.9607
 7050SOL    HW232613   4.643   0.154   4.433  1.9190 -2.1131 -0.5471
 7051SOL     OW32614   2.091   2.859  14.633  0.1625 -0.6309  0.5748
 7051SOL    HW132615   2.052   2.775  14.657 -1.0971 -0.2410 -0.1111
 7051SOL    HW232616   2.013   2.915  14.635  0.2836 -0.4289 -0.2424
 7052SOL     OW32617   1.270   2.542   6.021  0.6526 -0.0106  0.0209
 7052SOL    HW132618   1.329   2.468   6.007  0.5238 -0.3124  1.0895
 7052SOL    HW232619   1.189   2.491   6.020 -0.1092  1.1889  0.3000
 7053SOL     OW32620   2.617   2.519   5.120 -0.0971 -0.0657 -0.1280
 7053SOL    HW132621   2.640   2.439   5.073 -0.3471  1.0156 -2.0768
 7053SOL    HW232622   2.548   2.557   5.064 -0.7423 -1.6166 -0.3673
 7054SOL     OW32623   2.461   3.136   1.505 -0.1428  0.0421  0.1391
 7054SOL    HW132624   2.377   3.180   1.514  0.6845  2.0769 -2.0542
 7054SOL    HW232625   2.492   3.125   1.595 -1.3064 -1.2013  0.3848
 7055SOL     OW32626   1.562   2.387   4.756  0.6502  0.3261 -0.4114
 7055SOL    HW132627   1.510   2.371   4.835  1.6603 -2.9504 -0.4306
 7055SOL    HW232628   1.501   2.375   4.684 -0.5257 -1.9647  0.9840
 7056SOL     OW32629   3.562   3.059   9.181 -0.4654 -0.5595  0.1088
 7056SOL    HW132630   3.485   3.014   9.217  0.7176 -1.0607  2.0105
 7056SOL    HW232631   3.618   3.088   9.254  1.1729  1.0659 -1.7978
 7057SOL     OW32632   1.480   1.940   6.484  0.0781  0.2788  0.0962
 7057SOL    HW132633   1.536   1.883   6.431  1.0342  1.8390 -0.5906
 7057SOL    HW232634   1.513   2.024   6.451  1.4554 -0.0169  0.7318
 7058SOL     OW32635   4.117   0.723  12.206  0.6296 -0.3874  0.1936
 7058SOL    HW132636   4.200   0.738  12.250 -0.7083  1.9271  1.9438
 7058SOL    HW232637   4.056   0.775  12.259  0.8054 -1.4654  1.4721
 7059SOL     OW32638   3.743   4.710  13.185  0.0186  0.1310  0.2743
 7059SOL    HW132639   3.808   4.647  13.154  0.8918  1.0608  0.2001
 7059SOL    HW232640   3.800   0.066  13.195 -1.1673  0.9819  0.6500
 7060SOL     OW32641   3.811   1.795   6.295  0.0217 -0.1476 -0.0462
 7060SOL    HW132642   3.854   1.716   6.264 -1.9442 -1.1552 -0.2125
 7060SOL    HW232643   3.878   1.863   6.302 -2.7419  2.5806 -0.2084
 7061SOL     OW32644   3.427   1.750  11.806 -0.0175 -0.1669 -0.8176
 7061SOL    HW132645   3.436   1.667  11.760 -2.3287 -0.6413 -0.4092
 7061SOL    HW232646   3.519   1.776  11.813 -0.3631  0.0476  2.8503
 7062SOL     OW32647   1.351   2.524   0.018  0.0816  0.1298 -0.5999
 7062SOL    HW132648   1.274   2.538   0.073 -0.9934  0.1546 -2.0981
 7062SOL    HW232649   1.399   2.607   0.015  0.4784 -0.0164  1.9203
 7063SOL     OW32650   2.215   3.664   7.947 -0.2304 -0.3650  0.0137
 7063SOL    HW132651   2.277   3.735   7.935  1.0651 -2.0152 -3.0871
 7063SOL    HW232652   2.268   3.585   7.959 -2.6229 -1.9290  0.3748
 7064SOL     OW32653   0.266   0.289   5.470  0.4126 -0.2335  0.2831
 7064SOL    HW132654   0.224   0.320   5.550  0.0676  1.6266 -0.6229
 7064SOL    HW232655   0.277   0.195   5.486 -3.2193 -0.6645  0.2415
 7065SOL     OW32656   3.932   0.654  10.854  0.2208 -0.3524 -0.3127
 7065SOL    HW132657   4.024   0.680  10.856  0.1398  0.0050 -1.2955
 7065SOL    HW232658   3.928   0.646  10.759  1.1016 -2.3895 -0.1909
 7066SOL     OW32659   0.041   3.576   4.464  0.3682  0.3429 -0.0001
 7066SOL    HW132660   0.065   3.669   4.471 -1.8395  0.8310  1.0208
 7066SOL    HW232661   0.106   3.562   4.396 -0.0457 -0.4562 -0.2217
 7067SOL     OW32662   1.699   1.151   2.405 -0.7337  0.3618  0.5461
 7067SOL    HW132663   1.619   1.163   2.456  0.5995  0.5127  2.6124
 7067SOL    HW232664   1.682   1.215   2.336  0.0814  0.2559  0.2427
 7068SOL     OW32665   3.272   4.005   4.340  0.1570 -0.3255 -0.5315
 7068SOL    HW132666   3.286   3.984   4.248 -0.1632 -1.0762 -0.4035
 7068SOL    HW232667   3.205   4.072   4.330 -1.4525 -1.8665  0.0835
 7069SOL     OW32668   4.048   2.871   5.241  0.7893  0.7067  0.0274
 7069SOL    HW132669   4.120   2.925   5.274  1.1553  0.2899 -0.0941
 7069SOL    HW232670   4.078   2.784   5.269  0.2736  0.5311  0.0433
 7070SOL     OW32671   0.308   4.583   8.648  0.1147  0.2727 -0.2867
 7070SOL    HW132672   0.323   4.633   8.567 -0.5166  1.9188  0.6196
 7070SOL    HW232673   0.232   4.625   8.686  0.4299 -1.1201  1.8363
 7071SOL     OW32674   1.258   2.598   6.279 -0.0054 -0.4426 -0.5292
 7071SOL    HW132675   1.227   2.519   6.323 -2.4818  1.9211  2.0208
 7071SOL    HW232676   1.263   2.575   6.187 -0.4374  2.8741 -1.3771
 7072SOL     OW32677   4.208   1.726   6.396 -0.3465 -0.0480  0.2332
 7072SOL    HW132678   4.128   1.778   6.403 -1.5412 -2.0924  1.9965
 7072SOL    HW232679   4.179   1.634   6.397 -1.0484  0.1988  2.2174
 7073SOL     OW32680   3.710   4.007   5.724  0.2910  0.0354 -0.6013
 7073SOL    HW132681   3.741   3.917   5.728 -0.0806 -0.0348  0.9779
 7073SOL    HW232682   3.621   3.983   5.699  0.0726 -0.1673  0.3772
 7074SOL     OW32683   4.461   0.426  15.334 -0.7835  0.6242  0.1195
 7074SOL    HW132684   4.508   0.509  15.331  0.2687  0.0305  0.1385
 7074SOL    HW232685   4.532   0.365  15.312 -2.4195 -0.6770 -1.4983
 7075SOL     OW32686   1.914   1.812  17.632  0.0393  0.1466  0.0303
 7075SOL    HW132687   1.899   1.865  17.554 -1.1951 -1.4825 -0.8546
 7075SOL    HW232688   2.008   1.817  17.648  0.0953  0.2891 -0.3416
 7076SOL     OW32689   0.367   4.038   4.741  0.3969 -0.4307 -0.2510
 7076SOL    HW132690   0.292   3.983   4.721 -1.5571  1.9710  0.5123
 7076SOL    HW232691   0.404   4.010   4.825 -1.0191 -1.5178 -0.0089
 7077SOL     OW32692   1.733   1.992   3.792  0.3452  0.1217  0.2395
 7077SOL    HW132693   1.826   2.000   3.812 -0.0246  1.9121  1.2556
 7077SOL    HW232694   1.689   2.007   3.876  2.6075  3.2618  0.8900
 7078SOL     OW32695   0.353   3.532   8.156  0.2499 -0.2905  0.4662
 7078SOL    HW132696   0.387   3.575   8.077  2.0205  0.0707  1.4332
 7078SOL    HW232697   0.387   3.581   8.231  1.4979  0.5382 -0.6436
 7079SOL     OW32698   0.534   2.402  12.952 -0.1140 -0.2552 -0.7027
 7079SOL    HW132699   0.596   2.361  12.891 -0.0584 -0.6834 -0.3558
 7079SOL    HW232700   0.523   2.490  12.915  2.2222  1.2008  2.0339
 7080SOL     OW32701   3.505   2.713  14.890 -0.5294 -0.6344 -0.3073
 7080SOL    HW132702   3.575   2.737  14.950  0.6583 -0.6058 -1.7022
 7080SOL    HW232703   3.560   2.694  14.814  1.1628 -0.8391  0.9673
 7081SOL     OW32704   2.741   3.512   5.774  0.3192  0.1635  0.1696
 7081SOL    HW132705   2.757   3.576   5.843 -1.4894 -0.8090  1.4943
 7081SOL    HW232706   2.822   3.460   5.775 -0.9862 -1.8995 -2.2970
 7082SOL     OW32707   2.353   0.074  15.931 -0.0595 -0.5085  0.4439
 7082SOL    HW132708   2.405   0.146  15.895 -0.1610 -0.6053  0.1049
 7082SOL    HW232709   2.272   0.118  15.954 -0.6119 -1.5314  0.4822
 7083SOL     OW32710   2.384   1.640   2.504 -0.1610 -0.0950  1.1025
 7083SOL    HW132711   2.335   1.705   2.453  2.0748  1.8469  1.4469
 7083SOL    HW232712   2.352   1.556   2.470 -0.5858  0.4618  0.1189
 7084SOL     OW32713   3.827   2.032  11.165 -0.2591  0.0786  0.1689
 7084SOL    HW132714   3.907   2.084  11.171 -0.5277  0.7694 -2.2320
 7084SOL    HW232715   3.785   2.074  11.240 -1.0627 -0.0096 -0.2320
 7085SOL     OW32716   3.856   3.111   2.291  0.4126 -0.0099  0.3633
 7085SOL    HW132717   3.905   3.103   2.210 -0.4631  3.5642 -0.5133
 7085SOL    HW232718   3.854   3.017   2.314  0.2069  0.1815  1.1466
 7086SOL     OW32719   3.671   3.230   3.104 -0.1610  0.4347 -0.5447
 7086SOL    HW132720   3.591   3.178   3.114  1.0210 -1.5938 -1.5106
 7086SOL    HW232721   3.631   3.303   3.057 -0.7093  1.8865  2.2123
 7087SOL     OW32722   1.707   3.406   0.057  0.0605 -0.0715  0.1159
 7087SOL    HW132723   1.733   3.414  17.647  0.0052  1.4449  0.2398
 7087SOL    HW232724   1.762   3.476   0.092  2.6513 -2.4786  0.8580
 7088SOL     OW32725   3.879   1.681  13.653 -0.1519 -0.0187  0.1603
 7088SOL    HW132726   3.905   1.643  13.737 -3.2416 -1.3655  0.5028
 7088SOL    HW232727   3.962   1.661  13.610 -0.6592 -0.2892 -0.6929
 7089SOL     OW32728   4.068   1.403   7.577  0.4265  0.3190  0.4795
 7089SOL    HW132729   3.988   1.395   7.524 -0.1995 -3.3744  2.0198
 7089SOL    HW232730   4.062   1.485   7.626 -0.1278 -0.0726  1.0643
 7090SOL     OW32731   1.187   3.533  14.455  0.0557  0.3890 -0.1293
 7090SOL    HW132732   1.102   3.546  14.414 -0.3813  2.1132  1.3269
 7090SOL    HW232733   1.185   3.615  14.505 -1.9630 -0.1118  0.6011
 7091SOL     OW32734   0.440   2.296   7.805 -0.2647 -0.9875  0.1138
 7091SOL    HW132735   0.478   2.248   7.732  0.4380  0.3706 -0.4078
 7091SOL    HW232736   0.505   2.277   7.873  2.4618  1.3007 -1.8579
 7092SOL     OW32737   4.407   2.585   9.893  0.3595 -0.0457 -0.0467
 7092SOL    HW132738   4.334   2.527   9.915  1.3411 -1.8519 -1.4763
 7092SOL    HW232739   4.394   2.664   9.945  0.3311 -0.0243 -0.0863
 7093SOL     OW32740   3.783   1.667   2.633 -0.6157  0.3519 -0.2289
 7093SOL    HW132741   3.802   1.705   2.719  1.4692 -1.3191  0.0562
 7093SOL    HW232742   3.834   1.586   2.640  0.2578  1.0351  1.2094
 7094SOL     OW32743   2.677   1.360  12.596  0.3246  0.0683  0.4366
 7094SOL    HW132744   2.731   1.432  12.564  0.0056  0.2893  0.3971
 7094SOL    HW232745   2.699   1.283  12.544  1.5365  1.3881 -0.9975
 7095SOL     OW32746   1.402   3.110   1.791 -0.6581  0.2219 -0.0712
 7095SOL    HW132747   1.427   3.128   1.700 -0.1957 -1.2397 -0.2252
 7095SOL    HW232748   1.481   3.070   1.827 -0.2535  0.2999 -0.8652
 7096SOL     OW32749   1.195   0.625   8.072 -0.4157  0.1440  0.2711
 7096SOL    HW132750   1.221   0.533   8.066  1.5482  0.8065 -1.0835
 7096SOL    HW232751   1.145   0.615   8.153 -0.8576 -0.2221 -0.0430
 7097SOL     OW32752   3.571   2.988   1.053 -0.4040 -0.0869 -0.1974
 7097SOL    HW132753   3.604   2.938   1.128 -1.3722  2.2176  1.7565
 7097SOL    HW232754   3.510   2.921   1.021 -0.8022  0.6431 -0.9387
 7098SOL     OW32755   3.740   4.605  14.669 -0.1522  0.7104  0.8167
 7098SOL    HW132756   3.761   4.644  14.584 -0.6198 -0.7094  0.0575
 7098SOL    HW232757   3.803   4.533  14.669  1.0930  1.8148 -1.9311
 7099SOL     OW32758   2.775   4.447   4.369  0.1093  0.6024  0.2707
 7099SOL    HW132759   2.870   4.444   4.356 -0.2438 -2.8414 -1.5884
 7099SOL    HW232760   2.743   4.405   4.289  0.8394 -0.8432  0.7387
 7100SOL     OW32761   3.579   2.617  10.105  0.6708 -0.0747 -0.0463
 7100SOL    HW132762   3.673   2.618  10.088  0.2804 -0.0926 -2.1585
 7100SOL    HW232763   3.570   2.525  10.131 -1.6640 -0.1780 -1.1853
 7101SOL     OW32764   1.522   0.059   5.236  0.4099  0.1081  0.0382
 7101SOL    HW132765   1.521   0.061   5.140 -1.2724 -0.1277  0.0570
 7101SOL    HW232766   1.452   0.121   5.255  0.0793 -0.3292  0.2362
 7102SOL     OW32767   2.814   4.210   5.431  0.1810 -0.0656 -0.3460
 7102SOL    HW132768   2.759   4.166   5.496 -2.1925  2.5107 -0.6063
 7102SOL    HW232769   2.756   4.282   5.406  1.1927  0.3559 -1.4807
 7103SOL     OW32770   0.377   2.215   5.653  0.2250 -0.2500  0.2624
 7103SOL    HW132771   0.410   2.298   5.618  2.0703  0.2398  3.1500
 7103SOL    HW232772   0.285   2.240   5.639  0.2124  0.1313  1.0442
 7104SOL     OW32773   4.654   3.527  10.233 -0.2796  0.1611 -0.0320
 7104SOL    HW132774   4.677   3.588  10.164  0.8166  0.7846  0.8713
 7104SOL    HW232775   4.569   3.488  10.214  0.3828 -0.2916 -2.0120
 7105SOL     OW32776   2.339   1.299   6.015  0.1693 -0.6117 -0.6206
 7105SOL    HW132777   2.373   1.236   6.078 -0.0992 -0.1926 -0.0545
 7105SOL    HW232778   2.245   1.293   6.029  0.0839  0.1873 -0.8668
 7106SOL     OW32779   2.989   3.440   6.756  0.4059 -0.5118  0.0142
 7106SOL    HW132780   2.955   3.522   6.721 -1.4598 -1.2741 -0.0055
 7106SOL    HW232781   3.072   3.420   6.714  1.1663 -1.1201  1.8077
 7107SOL     OW32782   0.068   2.500   3.296  0.4155  0.3636  0.4408
 7107SOL    HW132783   0.084   2.592   3.275  0.7316  0.5678  1.5969
 7107SOL    HW232784   0.144   2.459   3.254 -0.4223 -0.3941 -0.3211
 7108SOL     OW32785   2.777   4.042   4.627  0.2538 -0.1560 -0.0937
 7108SOL    HW132786   2.793   4.014   4.717 -0.3254  0.5655  0.2385
 7108SOL    HW232787   2.745   3.964   4.582  0.8116  0.4767 -1.5831
 7109SOL     OW32788   2.721   4.459   7.760 -0.2358  0.4372 -0.3482
 7109SOL    HW132789   2.762   4.514   7.693 -1.0348  1.7796  0.2698
 7109SOL    HW232790   2.645   4.517   7.765 -1.0890 -0.6571 -0.5192
 7110SOL     OW32791   3.237   1.311   6.820  0.5113 -0.1216  0.3651
 7110SOL    HW132792   3.275   1.384   6.869 -0.4006  1.3939 -1.1902
 7110SOL    HW232793   3.184   1.354   6.752 -0.9207 -0.6146  1.1777
 7111SOL     OW32794   1.583   1.444   8.643 -0.1433  0.0129  0.6627
 7111SOL    HW132795   1.606   1.385   8.715  2.6819  2.0591  1.4280
 7111SOL    HW232796   1.494   1.468   8.668 -1.3977 -2.8958 -0.9787
 7112SOL     OW32797   0.580   3.170   4.786 -0.0216  0.0547  0.0716
 7112SOL    HW132798   0.663   3.152   4.742  1.0798  1.1749  1.6748
 7112SOL    HW232799   0.511   3.109   4.762 -0.2262  0.1341  0.4699
 7113SOL     OW32800   2.026   2.963   2.635 -0.4758  0.4702 -0.6449
 7113SOL    HW132801   2.020   3.014   2.554 -1.2338 -0.4375 -1.1806
 7113SOL    HW232802   2.073   2.889   2.596 -0.1554 -0.2621  1.1246
 7114SOL     OW32803   3.028   3.244   4.329  0.8118  0.3229 -0.5711
 7114SOL    HW132804   3.015   3.160   4.287  0.2527  1.0858 -1.9250
 7114SOL    HW232805   3.117   3.274   4.313  1.5991 -2.3875 -1.2543
 7115SOL     OW32806   2.794   4.183  13.462  0.3390  0.0490  0.3830
 7115SOL    HW132807   2.860   4.130  13.506 -1.0138 -1.5656  0.4604
 7115SOL    HW232808   2.849   4.216  13.391  1.6963 -0.3264  1.2635
 7116SOL     OW32809   2.359   2.177   6.136 -0.0819 -0.4698 -0.2243
 7116SOL    HW132810   2.305   2.255   6.153  1.1813  0.1292  1.0407
 7116SOL    HW232811   2.430   2.214   6.084  0.7428  0.6369  1.7002
 7117SOL     OW32812   3.263   0.371   5.074 -0.1202 -0.0582 -0.3189
 7117SOL    HW132813   3.186   0.427   5.071  0.6025  1.1209  2.5092
 7117SOL    HW232814   3.307   0.398   5.155 -1.4923 -1.1759  0.7914
 7118SOL     OW32815   0.450   1.505   5.991 -0.0117 -0.0787  0.3486
 7118SOL    HW132816   0.444   1.445   6.066 -0.3176  0.1391  0.5007
 7118SOL    HW232817   0.480   1.449   5.920 -0.7594  0.5271 -0.4329
 7119SOL     OW32818   2.538   0.338   5.357  0.9076 -0.4492 -0.7950
 7119SOL    HW132819   2.612   0.324   5.299  0.7180 -0.0421 -1.1346
 7119SOL    HW232820   2.472   0.279   5.321  1.3544 -0.1939 -2.0374
 7120SOL     OW32821   4.712   4.041   2.394 -0.5817  0.1960  0.5758
 7120SOL    HW132822   4.699   4.134   2.373 -0.2989 -0.3323 -1.9396
 7120SOL    HW232823   4.655   3.999   2.329  2.0635 -0.2051 -1.4630
 7121SOL     OW32824   1.579   0.577   2.933 -0.1443  0.5666 -0.2444
 7121SOL    HW132825   1.493   0.614   2.952 -0.5150 -1.5299  2.1085
 7121SOL    HW232826   1.611   0.569   3.023  1.0548 -0.4836 -0.7618
 7122SOL     OW32827   2.043   3.459  16.491  0.1673  0.1362 -0.8522
 7122SOL    HW132828   2.030   3.370  16.457  1.3176 -0.8729  1.3474
 7122SOL    HW232829   2.097   3.491  16.418  1.1187  1.0409  0.2594
 7123SOL     OW32830   0.768   0.172   4.885  0.2955 -0.2837 -0.1539
 7123SOL    HW132831   0.801   0.185   4.974 -2.5884 -1.5762  1.1133
 7123SOL    HW232832   0.739   0.262   4.869  1.1032 -0.1570 -0.8779
 7124SOL     OW32833   2.068   3.113  15.004  0.5968 -0.0791 -0.3712
 7124SOL    HW132834   2.087   3.147  14.916  0.3311 -0.5658 -0.6137
 7124SOL    HW232835   2.125   3.174  15.052 -0.3920 -0.4286  1.2448
 7125SOL     OW32836   3.328   4.261   4.203  0.2454  0.1089 -0.4306
 7125SOL    HW132837   3.340   4.290   4.293 -1.9445 -1.1366  0.2592
 7125SOL    HW232838   3.416   4.280   4.171  0.7807 -0.0269  0.9604
 7126SOL     OW32839   4.421   2.706   2.602 -0.2781 -0.4371 -0.2200
 7126SOL    HW132840   4.407   2.612   2.615 -2.5294 -0.0976 -0.2643
 7126SOL    HW232841   4.353   2.725   2.537 -1.0910  0.1951  0.8258
 7127SOL     OW32842   2.172   2.273  11.754 -0.4197  0.4468  0.3813
 7127SOL    HW132843   2.085   2.280  11.714 -0.2652 -0.4291 -0.1095
 7127SOL    HW232844   2.213   2.198  11.710  0.3467  0.8974  0.3325
 7128SOL     OW32845   4.409   4.700   4.229  0.4086  0.1736  0.2395
 7128SOL    HW132846   4.399   0.029   4.148  2.2108 -0.5557 -0.4197
 7128SOL    HW232847   4.497   4.663   4.227  0.2438 -0.2081  0.0814
 7129SOL     OW32848   2.605   2.882   4.884 -0.1599  0.3883  0.1050
 7129SOL    HW132849   2.698   2.896   4.866 -0.3468  0.3042 -0.8878
 7129SOL    HW232850   2.608   2.786   4.877  0.0218  0.3625  0.5274
 7130SOL     OW32851   0.754   3.577   2.782 -0.1223 -0.1419  0.5763
 7130SOL    HW132852   0.665   3.610   2.795  0.6333  1.6483  1.1925
 7130SOL    HW232853   0.796   3.662   2.789  0.6406 -0.4309 -0.5474
 7131SOL     OW32854   1.901   4.429   2.326 -0.1515  0.7879  0.0549
 7131SOL    HW132855   1.942   4.384   2.400 -1.2017  1.2629  0.9286
 7131SOL    HW232856   1.808   4.407   2.337  0.2493 -0.0644  1.6069
 7132SOL     OW32857   0.520   0.357   7.430 -0.5439 -0.3623  0.0320
 7132SOL    HW132858   0.449   0.376   7.491  0.3733 -0.2241  1.0531
 7132SOL    HW232859   0.563   0.442   7.426 -1.5040  0.0139 -2.2293
 7133SOL     OW32860   2.677   1.669  16.481  0.1350  0.2164 -0.4991
 7133SOL    HW132861   2.645   1.704  16.564  0.6071  1.0279 -0.6599
 7133SOL    HW232862   2.661   1.742  16.422 -1.7302  0.0698 -0.1632
 7134SOL     OW32863   3.558   4.241   2.857  0.0448  0.4214  0.5622
 7134SOL    HW132864   3.621   4.170   2.861 -1.0058 -0.6870 -1.9995
 7134SOL    HW232865   3.575   4.284   2.941  0.4003  0.7006  0.3470
 7135SOL     OW32866   4.369   0.647   7.161 -0.2999 -0.4114  0.5942
 7135SOL    HW132867   4.385   0.560   7.124 -0.9441 -0.3897  0.2492
 7135SOL    HW232868   4.282   0.664   7.124 -0.0965 -1.7099 -0.4614
 7136SOL     OW32869   2.171   2.797   3.719  0.7554  0.3711  0.5753
 7136SOL    HW132870   2.263   2.815   3.698  0.2335  1.8478 -0.4055
 7136SOL    HW232871   2.134   2.867   3.666  1.1003  0.7301  0.8052
 7137SOL     OW32872   0.363   1.587   5.244 -0.4193 -0.3836  0.0990
 7137SOL    HW132873   0.286   1.537   5.216  1.3146 -2.9729 -0.0724
 7137SOL    HW232874   0.441   1.538   5.216 -0.5876 -1.6151  1.7970
 7138SOL     OW32875   0.433   2.386  14.117  0.4871  0.4030 -0.2929
 7138SOL    HW132876   0.503   2.432  14.162 -1.5212  2.4425  0.7090
 7138SOL    HW232877   0.383   2.355  14.192 -0.6611  1.0291 -0.8013
 7139SOL     OW32878   1.707   2.513   3.462 -0.0035 -0.1551  0.1015
 7139SOL    HW132879   1.692   2.563   3.381  2.9761  0.3612 -0.1356
 7139SOL    HW232880   1.649   2.553   3.526 -0.2857 -0.6486  0.1479
 7140SOL     OW32881   0.179   3.088  12.225 -0.3001  0.1283  0.2452
 7140SOL    HW132882   0.227   3.099  12.143 -1.5579  0.4260 -0.4634
 7140SOL    HW232883   0.235   3.135  12.286 -0.4633  0.9876 -0.2655
 7141SOL     OW32884   3.548   1.729   2.494 -0.0386  0.3627  0.2921
 7141SOL    HW132885   3.637   1.726   2.530  0.8115 -2.8752 -2.0518
 7141SOL    HW232886   3.523   1.636   2.489  0.1243  0.3426 -0.1328
 7142SOL     OW32887   2.739   1.742   9.165  1.0963 -0.6786  0.4009
 7142SOL    HW132888   2.777   1.822   9.129 -0.1682 -0.0920  0.3783
 7142SOL    HW232889   2.819   1.689   9.169  1.8714  0.5451  0.8663
 7143SOL     OW32890   2.200   0.928   7.917 -0.4598 -0.2951 -0.0342
 7143SOL    HW132891   2.214   0.863   7.848  0.9171 -0.1091  0.0667
 7143SOL    HW232892   2.231   0.876   7.991  0.7521  0.5599  0.0550
 7144SOL     OW32893   1.846   0.447   3.757  0.0462 -0.4771  0.4209
 7144SOL    HW132894   1.812   0.516   3.814 -0.7512 -0.6956  0.2078
 7144SOL    HW232895   1.924   0.495   3.730  0.4772 -1.5655 -0.3091
 7145SOL     OW32896   2.481   2.531  11.992  0.0989  0.2561  0.6039
 7145SOL    HW132897   2.436   2.600  11.944  0.2732  0.4487  0.7207
 7145SOL    HW232898   2.422   2.458  11.972  0.4761  0.1966 -0.3150
 7146SOL     OW32899   4.522   3.724   8.892  0.0587 -0.4670  0.1098
 7146SOL    HW132900   4.558   3.736   8.804  1.0178 -0.3955  0.5147
 7146SOL    HW232901   4.483   3.638   8.874  0.7853 -0.6216 -0.7158
 7147SOL     OW32902   3.441   0.856   8.340 -0.0804 -0.4669  0.4519
 7147SOL    HW132903   3.369   0.826   8.285  1.7607 -3.1293 -0.4959
 7147SOL    HW232904   3.421   0.949   8.349  0.8632 -0.4090  2.0610
 7148SOL     OW32905   2.052   3.763   1.295 -0.0925  0.1682  0.1146
 7148SOL    HW132906   2.133   3.749   1.246 -1.8848 -0.9825 -2.5418
 7148SOL    HW232907   2.074   3.837   1.351  0.0072 -0.4731  0.9242
 7149SOL     OW32908   4.633   1.424   6.259  0.2650 -0.8819  0.7419
 7149SOL    HW132909   4.650   1.447   6.351  1.9336  1.5645 -0.1705
 7149SOL    HW232910   4.543   1.394   6.253  0.1117  0.5021 -3.6945
 7150SOL     OW32911   1.629   0.119   8.968  0.4258 -0.3898 -0.2251
 7150SOL    HW132912   1.619   0.030   9.001 -0.9397 -0.7828 -1.6972
 7150SOL    HW232913   1.543   0.126   8.928  1.2580 -0.4137 -2.0466
 7151SOL     OW32914   4.041   2.596   3.469 -1.0643 -0.3775 -0.6493
 7151SOL    HW132915   4.026   2.678   3.423  0.0007 -0.8280 -1.7948
 7151SOL    HW232916   4.093   2.619   3.545 -0.6025  1.7825 -1.6295
 7152SOL     OW32917   2.740   3.327   5.095  0.0085  0.1104  0.2017
 7152SOL    HW132918   2.715   3.235   5.089  0.0094  0.2139 -1.6069
 7152SOL    HW232919   2.675   3.364   5.035  0.6335 -1.0571 -1.2206
 7153SOL     OW32920   0.147   2.388  15.141 -0.3418 -0.5108 -0.2253
 7153SOL    HW132921   0.181   2.349  15.060 -0.9606 -3.0779  0.7889
 7153SOL    HW232922   0.156   2.478  15.109 -0.5967  0.1647  1.6053
 7154SOL     OW32923   2.632   1.846  16.712 -0.3557  0.2460  0.4397
 7154SOL    HW132924   2.558   1.820  16.767 -0.4315  0.0711  0.2562
 7154SOL    HW232925   2.678   1.900  16.775  1.4454  1.1736 -1.6689
 7155SOL     OW32926   3.713   4.393   0.795 -0.5282 -0.0700 -0.6262
 7155SOL    HW132927   3.808   4.387   0.808 -0.5606 -0.5607 -0.5932
 7155SOL    HW232928   3.682   4.308   0.826  0.6965  0.4077  1.9111
 7156SOL     OW32929   1.980   3.605  10.229  0.7097  0.8450  0.1358
 7156SOL    HW132930   2.003   3.656  10.306 -2.4879  0.9706  0.9849
 7156SOL    HW232931   1.907   3.547  10.251  1.9986 -0.7025  0.3708
 7157SOL     OW32932   4.379   4.386   7.565  0.2342 -0.4782 -0.6729
 7157SOL    HW132933   4.444   4.318   7.580 -0.6788 -0.8877  1.3939
 7157SOL    HW232934   4.352   4.406   7.654 -2.4356 -2.1904 -1.1193
 7158SOL     OW32935   1.603   4.559   4.932 -0.0030 -0.6942 -0.3818
 7158SOL    HW132936   1.620   4.474   4.890  1.2701 -0.3054 -0.6506
 7158SOL    HW232937   1.601   4.531   5.023 -3.4838 -0.4811 -0.4086
 7159SOL     OW32938   4.527   3.403  14.437  0.4740 -0.0465  0.1924
 7159SOL    HW132939   4.536   3.495  14.411 -0.9931 -0.5511 -2.0483
 7159SOL    HW232940   4.438   3.378  14.462  0.6496  0.2806  1.1696
 7160SOL     OW32941   4.266   4.610   0.948  0.1848  0.2352  0.9664
 7160SOL    HW132942   4.184   4.647   0.983  0.2192  2.9068 -1.7860
 7160SOL    HW232943   4.256   4.519   0.977 -1.4047 -0.4940 -1.8781
 7161SOL     OW32944   4.086   0.930  12.725 -0.2691  0.1506  0.7384
 7161SOL    HW132945   4.029   0.997  12.760 -1.1774 -1.1993  1.8019
 7161SOL    HW232946   4.124   0.911  12.810  0.0392 -0.5681  0.4448
 7162SOL     OW32947   2.668   3.293  12.512 -0.0123 -0.5202 -0.1699
 7162SOL    HW132948   2.666   3.359  12.443 -0.7923 -0.7881 -0.4146
 7162SOL    HW232949   2.752   3.314  12.551 -0.5862 -0.7283  1.1628
 7163SOL     OW32950   0.319   4.580   3.755 -0.6840 -0.2606 -0.0067
 7163SOL    HW132951   0.369   4.540   3.827  1.1351 -0.7401 -1.5348
 7163SOL    HW232952   0.345   4.517   3.689  1.0399 -0.1857  0.5767
 7164SOL     OW32953   4.421   3.261   3.294 -0.5397  0.5819 -0.0865
 7164SOL    HW132954   4.456   3.264   3.383 -0.7695 -0.4477  0.0432
 7164SOL    HW232955   4.496   3.251   3.236  0.0508  2.5626  0.3310
 7165SOL     OW32956   3.040   1.953   1.232 -0.1556 -0.2479 -0.0890
 7165SOL    HW132957   3.018   2.027   1.175 -1.7982 -0.6091  0.0753
 7165SOL    HW232958   2.948   1.925   1.231 -0.2005 -0.0863 -0.9118
 7166SOL     OW32959   0.715   1.246   2.681 -0.0681  0.9748  0.1267
 7166SOL    HW132960   0.771   1.287   2.614 -0.4502  2.0873  0.4948
 7166SOL    HW232961   0.685   1.168   2.635 -1.2528 -0.6546  3.6761
 7167SOL     OW32962   2.105   3.165  14.738  0.0761  0.2804  0.0537
 7167SOL    HW132963   2.054   3.243  14.716 -1.7443 -0.8428  0.2917
 7167SOL    HW232964   2.129   3.144  14.647 -0.3854  1.8843 -0.4448
 7168SOL     OW32965   1.118   3.740  12.454 -0.1813 -0.5049  0.4251
 7168SOL    HW132966   1.138   3.785  12.536 -0.5267 -0.0022  0.2316
 7168SOL    HW232967   1.028   3.708  12.464  0.1788 -1.4214  0.7379
 7169SOL     OW32968   3.473   4.143   9.556  0.1415 -0.0428 -0.8118
 7169SOL    HW132969   3.561   4.110   9.577 -0.0061 -1.2287 -2.0486
 7169SOL    HW232970   3.433   4.128   9.642 -1.9357  1.0367 -1.6142
 7170SOL     OW32971   2.412   3.115  14.467  0.4602  0.0237  0.1686
 7170SOL    HW132972   2.318   3.101  14.453  0.6792 -2.3847  1.0724
 7170SOL    HW232973   2.415   3.209  14.480 -0.5790  0.0909 -0.0936
 7171SOL     OW32974   0.092   3.166   1.710 -0.1493 -0.5874  0.1414
 7171SOL    HW132975   0.176   3.195   1.675 -0.8705  1.1326 -0.1326
 7171SOL    HW232976   0.099   3.071   1.697  2.0323 -0.0851 -2.2736
 7172SOL     OW32977   2.885   4.403   4.807 -0.2362  0.6234  0.3914
 7172SOL    HW132978   2.923   4.329   4.760 -1.6248  0.1978 -0.0542
 7172SOL    HW232979   2.802   4.422   4.764 -1.9383 -1.3363  2.7965
 7173SOL     OW32980   2.560   4.410   0.463  0.0665  0.3170 -1.0020
 7173SOL    HW132981   2.585   4.346   0.530 -2.0877  1.4054  0.8317
 7173SOL    HW232982   2.482   4.363   0.436 -0.1436  0.6683 -0.9973
 7174SOL     OW32983   2.178   0.832  13.841  0.4459 -0.1989  0.0982
 7174SOL    HW132984   2.117   0.887  13.792  1.8682 -0.0486 -1.4890
 7174SOL    HW232985   2.205   0.770  13.774 -0.0045  3.3148 -3.3238
 7175SOL     OW32986   4.095   0.260  12.524 -0.3950  0.5675 -0.1583
 7175SOL    HW132987   4.019   0.215  12.487 -1.5739  2.0856  0.4311
 7175SOL    HW232988   4.105   0.197  12.595  0.3994  0.3963 -0.4178
 7176SOL     OW32989   3.808   4.170   5.006  0.2614 -0.1002 -0.6651
 7176SOL    HW132990   3.854   4.196   5.086  0.3988 -0.9214 -0.4755
 7176SOL    HW232991   3.813   4.256   4.964 -0.3280  1.1390  1.7938
 7177SOL     OW32992   4.116   2.207   2.287 -0.6261 -0.1401  0.3756
 7177SOL    HW132993   4.061   2.279   2.317 -0.6099 -1.3268  3.3322
 7177SOL    HW232994   4.094   2.136   2.348  0.9666  0.9093  2.1504
 7178SOL     OW32995   4.547   3.800   2.165  0.3297 -0.2788  0.3986
 7178SOL    HW132996   4.491   3.809   2.242 -0.6133 -1.7485 -0.1137
 7178SOL    HW232997   4.540   3.706   2.147 -0.3386 -0.3573  1.0420
 7179SOL     OW32998   2.399   3.866   5.168  0.0134  0.1145 -0.4883
 7179SOL    HW132999   2.444   3.942   5.203  0.8764 -0.2804 -0.7302
 7179SOL    HW233000   2.319   3.861   5.220 -0.2674  2.7402 -0.6988
 7180SOL     OW33001   4.360   4.450  16.255  0.5356  0.0696 -0.1664
 7180SOL    HW133002   4.331   4.365  16.222 -1.1195  0.0593  1.2742
 7180SOL    HW233003   4.357   4.506  16.178 -1.6299  1.3652  0.8478
 7181SOL     OW33004   0.877   3.828   3.398 -0.0625  0.4150 -0.5597
 7181SOL    HW133005   0.879   3.893   3.328 -0.7482 -0.4775 -1.4127
 7181SOL    HW233006   0.948   3.855   3.456 -0.4409 -0.9652  0.5452
 7182SOL     OW33007   0.483   2.075  11.633  0.0014  0.1869  0.2469
 7182SOL    HW133008   0.459   2.161  11.598  3.9909  1.3637  0.3823
 7182SOL    HW233009   0.501   2.020  11.556  2.1851  0.7409  0.3438
 7183SOL     OW33010   1.636   3.749   7.333  0.0489 -0.2563  0.3365
 7183SOL    HW133011   1.729   3.755   7.355 -0.1691  1.0344  0.8972
 7183SOL    HW233012   1.622   3.841   7.311  0.1622 -0.7699 -1.9371
 7184SOL     OW33013   0.470   1.230   5.156  0.2124 -0.0189  0.0495
 7184SOL    HW133014   0.506   1.319   5.162  2.0060 -0.5877 -1.9450
 7184SOL    HW233015   0.490   1.216   5.063  0.7649  1.8875 -0.1238
 7185SOL     OW33016   2.288   1.676   9.152  0.2104 -0.6766  0.1927
 7185SOL    HW133017   2.239   1.595   9.168 -3.7723  2.1255  2.0642
 7185SOL    HW233018   2.370   1.661   9.200  0.4997  1.5684  0.3808
 7186SOL     OW33019   0.820   1.071   6.891  0.6728  0.2525 -0.1934
 7186SOL    HW133020   0.809   1.123   6.971  1.9355  1.9726 -1.1345
 7186SOL    HW233021   0.894   1.015   6.914 -0.1815 -0.6482  0.3913
 7187SOL     OW33022   3.116   1.140   6.163  0.6015 -0.3048 -0.2233
 7187SOL    HW133023   3.051   1.089   6.211  0.1185  0.6439  0.1372
 7187SOL    HW233024   3.156   1.202   6.224  1.0296 -2.1886  1.3986
 7188SOL     OW33025   1.635   1.619   8.191 -0.2744 -0.3146  0.2600
 7188SOL    HW133026   1.686   1.580   8.263 -1.0803 -0.6911  0.6333
 7188SOL    HW233027   1.699   1.623   8.120 -1.4078  0.6721 -0.6951
 7189SOL     OW33028   3.366   3.108  17.665  0.6478 -0.7017 -0.3673
 7189SOL    HW133029   3.354   3.062  17.582  0.6639 -1.2870 -0.0421
 7189SOL    HW233030   3.421   3.052   0.038  0.4686 -0.9408 -0.4314
 7190SOL     OW33031   4.125   1.366   4.838 -0.7742  0.3090  0.2648
 7190SOL    HW133032   4.163   1.395   4.756 -2.1552  0.1853 -0.4174
 7190SOL    HW233033   4.033   1.392   4.829 -1.3469 -0.4760  3.6171
 7191SOL     OW33034   1.150   3.438  10.105  0.2784  0.8454 -0.4331
 7191SOL    HW133035   1.135   3.502  10.035 -0.0491  1.8750  0.5888
 7191SOL    HW233036   1.074   3.380  10.102  2.1058 -1.5845  1.2802
 7192SOL     OW33037   4.288   4.564  15.997  0.4094  0.6062  0.1569
 7192SOL    HW133038   4.204   4.520  15.989  1.0248 -0.1344 -2.0364
 7192SOL    HW233039   4.262   4.656  15.997 -2.1943 -0.1550 -1.9635
 7193SOL     OW33040   3.755   2.930  16.735 -0.1618  0.2643  0.5979
 7193SOL    HW133041   3.686   2.866  16.747  1.1731 -1.3034 -0.1540
 7193SOL    HW233042   3.832   2.875  16.724 -1.1753 -0.9003 -0.6785
 7194SOL     OW33043   0.473   0.147   6.856  0.7949  0.2420 -0.0677
 7194SOL    HW133044   0.513   0.232   6.844 -0.2728  1.0611  2.0525
 7194SOL    HW233045   0.509   0.099   6.782  0.2318 -0.2825 -0.0085
 7195SOL     OW33046   2.213   0.300   5.629  0.1916 -0.3298 -0.1091
 7195SOL    HW133047   2.193   0.358   5.556  0.4275  2.9594  2.4309
 7195SOL    HW233048   2.137   0.242   5.635  0.5258 -0.6350  1.1025
 7196SOL     OW33049   4.599   0.523   6.850 -0.1836  0.2314 -0.0435
 7196SOL    HW133050   4.549   0.548   6.772  0.7425  0.9594 -0.4184
 7196SOL    HW233051   4.641   0.608   6.868 -0.6065  0.3539  0.3399
 7197SOL     OW33052   4.495   2.981   3.248  0.1552 -0.0392  0.5863
 7197SOL    HW133053   4.449   2.990   3.332  0.1688  0.4330  0.5397
 7197SOL    HW233054   4.443   3.037   3.191 -0.2565 -1.5429 -0.5361
 7198SOL     OW33055   1.994   1.534   1.999 -0.7104  0.4875  0.2821
 7198SOL    HW133056   2.075   1.581   2.018 -0.3052  0.2126 -0.7361
 7198SOL    HW233057   1.931   1.606   2.007 -1.7906 -0.5104  0.7857
 7199SOL     OW33058   1.726   4.007  12.001  0.5713 -0.1056  0.3036
 7199SOL    HW133059   1.714   4.011  12.096 -0.1054 -0.5518  0.2314
 7199SOL    HW233060   1.813   3.967  11.999  0.3800 -0.4725 -0.7172
 7200SOL     OW33061   1.424   0.977  14.160  0.5537 -0.1016  0.4385
 7200SOL    HW133062   1.425   1.019  14.074 -1.2801 -4.1594 -1.5838
 7200SOL    HW233063   1.471   1.047  14.204  0.2076  0.7213 -0.5093
 7201SOL     OW33064   1.669   3.253   7.868 -0.4426  0.5344 -0.8596
 7201SOL    HW133065   1.600   3.292   7.814 -1.8676  0.8368  1.1536
 7201SOL    HW233066   1.734   3.323   7.862  0.9953 -0.9532 -2.5966
 7202SOL     OW33067   3.949   1.441   9.296  0.5714 -0.2663 -0.3879
 7202SOL    HW133068   3.965   1.535   9.301  1.5381 -0.4784  0.5022
 7202SOL    HW233069   3.860   1.444   9.263  0.6016 -1.2204 -0.5685
 7203SOL     OW33070   3.695   3.420   2.007 -0.0165  0.3772 -0.0747
 7203SOL    HW133071   3.789   3.428   2.024  0.0040 -1.3045  0.5951
 7203SOL    HW233072   3.697   3.468   1.924 -0.7428 -0.4405 -0.5656
 7204SOL     OW33073   2.006   2.705  11.168  0.5402  0.2433  0.7937
 7204SOL    HW133074   2.050   2.707  11.083 -1.3470  2.5572 -0.1273
 7204SOL    HW233075   2.005   2.800  11.177  1.6359  0.4622 -1.4666
 7205SOL     OW33076   3.242   2.823  13.966  0.3452 -0.2272  0.3190
 7205SOL    HW133077   3.148   2.835  13.976  0.4224  0.4618  0.1843
 7205SOL    HW233078   3.271   2.759  14.032 -1.4729 -0.4298  0.9190
 7206SOL     OW33079   0.293   3.957  10.590 -0.1136 -0.0620  0.4788
 7206SOL    HW133080   0.201   3.970  10.568  0.2575 -0.4558 -1.3318
 7206SOL    HW233081   0.283   3.866  10.617 -1.3927  0.4613  1.7430
 7207SOL     OW33082   1.841   2.653   7.115 -0.0930  0.5273  0.2328
 7207SOL    HW133083   1.785   2.726   7.090  0.0407 -0.0672 -1.7597
 7207SOL    HW233084   1.880   2.701   7.188  0.4217  1.3974 -0.6111
 7208SOL     OW33085   3.664   1.925  17.586  0.3002 -0.0566 -0.2041
 7208SOL    HW133086   3.714   1.984  17.529 -0.1363  1.3522  0.8692
 7208SOL    HW233087   3.686   1.959  17.673  0.6492  0.3932 -0.4651
 7209SOL     OW33088   2.464   3.579  13.803 -0.4800  0.0125 -0.1462
 7209SOL    HW133089   2.498   3.586  13.892  0.7176 -3.2046 -0.3637
 7209SOL    HW233090   2.378   3.542  13.822 -0.2175 -0.5308 -0.0138
 7210SOL     OW33091   2.269   0.203   7.588 -0.0573 -0.1530  0.5341
 7210SOL    HW133092   2.361   0.204   7.561 -0.7804  1.8770 -1.9055
 7210SOL    HW233093   2.280   0.212   7.682 -2.2329 -1.9264  0.9702
 7211SOL     OW33094   3.651   2.075   5.705 -0.0041  0.1535  0.1159
 7211SOL    HW133095   3.571   2.026   5.726  1.3853 -2.8126 -1.4543
 7211SOL    HW233096   3.676   2.123   5.784 -0.8774 -0.2186  0.6229
 7212SOL     OW33097   3.150   1.701   3.404 -0.2669  0.6616 -0.5772
 7212SOL    HW133098   3.176   1.723   3.315 -0.3231  1.7885 -0.3159
 7212SOL    HW233099   3.231   1.704   3.455  0.1461 -1.1318 -1.1106
 7213SOL     OW33100   3.701   1.843   3.576 -0.0894  0.2235 -0.2937
 7213SOL    HW133101   3.720   1.886   3.493 -0.1269 -0.4411 -0.6458
 7213SOL    HW233102   3.790   1.854   3.609 -0.6942 -1.4356  1.9029
 7214SOL     OW33103   2.735   3.733   3.422  0.5758  0.0427  0.3523
 7214SOL    HW133104   2.767   3.793   3.355 -0.7560  0.1795 -0.1586
 7214SOL    HW233105   2.676   3.784   3.477 -0.8116  1.1143 -2.1590
 7215SOL     OW33106   2.119   1.815   9.007 -0.4954  0.0544 -0.1120
 7215SOL    HW133107   2.052   1.848   9.066 -2.0267 -0.2578 -1.6859
 7215SOL    HW233108   2.185   1.773   9.062 -1.8205  2.5862  3.3564
 7216SOL     OW33109   0.471   1.493  16.778 -0.1859 -0.5328 -0.1094
 7216SOL    HW133110   0.376   1.499  16.768 -0.0416 -2.8280 -2.7791
 7216SOL    HW233111   0.487   1.406  16.814  2.0463 -0.2386 -0.3773
 7217SOL     OW33112   0.005   1.554   7.832 -0.2029 -0.0565  0.1392
 7217SOL    HW133113   0.045   1.641   7.821  0.2077 -0.3637 -0.7278
 7217SOL    HW233114   4.634   1.583   7.820 -0.6442 -0.8239  1.6821
 7218SOL     OW33115   3.663   2.934   5.404 -0.4959  0.1259 -0.2420
 7218SOL    HW133116   3.580   2.916   5.448  1.4003 -4.2563  1.5394
 7218SOL    HW233117   3.677   2.842   5.379  1.9571 -0.0382  1.7234
 7219SOL     OW33118   3.011   2.954   6.754 -0.1194 -0.3555 -0.0066
 7219SOL    HW133119   2.984   2.886   6.693  0.1860  0.1433 -0.7007
 7219SOL    HW233120   3.060   2.902   6.817 -0.5602  0.4919  1.0390
 7220SOL     OW33121   2.646   0.560   3.196 -0.5576 -0.2801 -0.4222
 7220SOL    HW133122   2.681   0.641   3.158 -1.5047  0.4710  0.3367
 7220SOL    HW233123   2.568   0.540   3.145 -0.9157  1.8002 -0.6721
 7221SOL     OW33124   3.363   3.793   6.788 -0.1119 -0.5420 -0.0758
 7221SOL    HW133125   3.400   3.750   6.866  1.2261  0.7627  0.0066
 7221SOL    HW233126   3.269   3.795   6.804  0.1641  0.7431  1.4390
 7222SOL     OW33127   0.090   0.466   3.159  0.1744 -0.5369 -0.2092
 7222SOL    HW133128   0.094   0.381   3.115  1.4899  0.4478 -1.9946
 7222SOL    HW233129   0.153   0.518   3.110  0.0118  0.3655  0.5520
 7223SOL     OW33130   4.415   1.767   4.272 -0.0288  0.3622  0.0503
 7223SOL    HW133131   4.348   1.738   4.334 -1.1966  1.9570 -0.4632
 7223SOL    HW233132   4.446   1.689   4.227 -1.1518 -0.2179  0.2870
 7224SOL     OW33133   3.027   0.007  13.678 -0.3950  0.8978  0.1775
 7224SOL    HW133134   3.010   4.683  13.761  1.1967  1.7982  0.9793
 7224SOL    HW233135   3.110   0.044  13.708  0.4423 -0.5804 -0.3632
 7225SOL     OW33136   0.120   4.332  10.138 -0.1127 -0.4837 -0.3665
 7225SOL    HW133137   0.043   4.322  10.082  1.8308 -2.3675 -2.7218
 7225SOL    HW233138   0.177   4.384  10.082 -0.4968 -1.8344 -2.0010
 7226SOL     OW33139   1.978   4.271   1.411 -0.4335  0.1078 -0.1376
 7226SOL    HW133140   1.997   4.180   1.390 -0.4420  0.0357  0.1814
 7226SOL    HW233141   1.969   4.302   1.320 -1.2320  2.5209  0.7674
 7227SOL     OW33142   4.458   1.960   2.034  0.5397  0.3983  0.0172
 7227SOL    HW133143   4.454   2.009   1.952  0.7963 -0.4359 -0.4892
 7227SOL    HW233144   4.434   2.033   2.091 -1.5411 -1.2472  1.2622
 7228SOL     OW33145   0.608   2.205   5.235 -0.0054 -0.2876 -0.6501
 7228SOL    HW133146   0.671   2.199   5.163  1.8452  1.7949  0.7939
 7228SOL    HW233147   0.531   2.169   5.191  0.2690 -1.5439 -0.1067
 7229SOL     OW33148   2.680   0.327   8.774  0.0747 -0.0581  0.2005
 7229SOL    HW133149   2.695   0.380   8.852 -2.0351 -0.7346  1.0808
 7229SOL    HW233150   2.609   0.378   8.734 -0.9421 -1.9265 -0.4344
 7230SOL     OW33151   2.494   2.899   7.590 -0.0719 -0.1243  0.6852
 7230SOL    HW133152   2.454   2.852   7.517 -0.0050  1.4311 -0.3634
 7230SOL    HW233153   2.543   2.830   7.633 -2.2668 -1.5182  0.9636
 7231SOL     OW33154   4.533   2.714  12.462 -0.3574 -0.2695  0.0077
 7231SOL    HW133155   4.490   2.791  12.424  0.9907  0.5880  0.2125
 7231SOL    HW233156   4.608   2.762  12.497  0.3671 -1.8751  0.6636
 7232SOL     OW33157   1.301   3.295   5.653 -0.4266  0.6691 -0.1573
 7232SOL    HW133158   1.221   3.315   5.604 -0.9086  2.5609  1.4347
 7232SOL    HW233159   1.347   3.238   5.591 -0.1179 -0.3824  1.0388
 7233SOL     OW33160   3.581   2.286  15.113 -0.1795 -0.1647 -0.6777
 7233SOL    HW133161   3.635   2.364  15.126  0.8634 -0.7862 -1.3576
 7233SOL    HW233162   3.500   2.317  15.154 -0.2803 -0.8473 -0.3622
 7234SOL     OW33163   1.838   0.723  15.356 -0.3320  0.1633 -0.0235
 7234SOL    HW133164   1.748   0.693  15.363 -0.2717 -0.2844 -1.1321
 7234SOL    HW233165   1.822   0.816  15.343 -0.4513  0.5731  3.1705
 7235SOL     OW33166   3.972   2.323   5.188  0.1236 -0.0410  0.4029
 7235SOL    HW133167   3.912   2.335   5.262  2.0446 -0.5825  2.0328
 7235SOL    HW233168   4.054   2.304   5.234 -0.8144 -1.7184  1.3891
 7236SOL     OW33169   0.551   4.090   5.414  0.0351  0.5967  0.0900
 7236SOL    HW133170   0.502   4.074   5.333  0.7475 -0.6702 -0.0930
 7236SOL    HW233171   0.597   4.007   5.429 -0.7629 -0.0291 -0.9285
 7237SOL     OW33172   0.866   0.123   4.433  0.4075  0.3105 -0.0613
 7237SOL    HW133173   0.920   0.137   4.511  0.8259  2.4654 -0.7501
 7237SOL    HW233174   0.931   0.138   4.365  0.0751  1.8212 -0.0457
 7238SOL     OW33175   0.223   4.714   4.577 -0.7350  0.0130 -0.3716
 7238SOL    HW133176   0.267   4.655   4.515 -0.6642  0.4841 -0.7717
 7238SOL    HW233177   0.175   4.650   4.629 -1.2163  0.9908  0.3739
 7239SOL     OW33178   3.764   0.594  11.420  0.4453 -0.2914  0.3783
 7239SOL    HW133179   3.673   0.584  11.448 -0.5217  3.4938 -1.4036
 7239SOL    HW233180   3.762   0.540  11.341  0.1741  0.1928  0.0554
 7240SOL     OW33181   3.054   1.110   5.414  0.1444 -0.3720 -0.0618
 7240SOL    HW133182   3.132   1.165   5.409  0.9597 -1.7566 -2.5075
 7240SOL    HW233183   3.094   1.029   5.383  3.0043  0.4745  1.4190
 7241SOL     OW33184   3.536   2.432   7.666  0.1022 -0.3091  0.1484
 7241SOL    HW133185   3.489   2.488   7.604  0.1557 -1.7900 -1.2418
 7241SOL    HW233186   3.470   2.430   7.735 -0.5875 -1.3452 -0.5493
 7242SOL     OW33187   3.115   2.692   8.298  0.0111  0.5475 -0.2746
 7242SOL    HW133188   3.143   2.688   8.390  0.9353  0.9797 -0.5350
 7242SOL    HW233189   3.195   2.703   8.247  0.1136 -1.4548 -0.5237
 7243SOL     OW33190   4.403   3.630   9.966 -0.2397  0.4974  0.2247
 7243SOL    HW133191   4.321   3.585   9.987 -0.0918  0.0434 -0.1566
 7243SOL    HW233192   4.425   3.660  10.054  0.7604  0.8995 -0.1566
 7244SOL     OW33193   4.541   2.731  13.276  0.5974 -0.0659 -0.3017
 7244SOL    HW133194   4.606   2.714  13.344 -0.7876  0.4142  1.1302
 7244SOL    HW233195   4.550   2.823  13.251  0.9192 -0.1248 -0.3992
 7245SOL     OW33196   0.106   3.999   3.437  0.1204 -0.2779  0.3563
 7245SOL    HW133197   0.098   3.916   3.389 -0.3932  0.5877 -1.0472
 7245SOL    HW233198   0.077   3.968   3.523  1.6897  0.9249  1.3281
 7246SOL     OW33199   0.553   3.986  10.701 -0.1426 -0.1774  0.0059
 7246SOL    HW133200   0.463   3.988  10.666 -1.0619 -0.1728  2.4003
 7246SOL    HW233201   0.556   4.072  10.743 -0.5751  0.8571 -2.0743
 7247SOL     OW33202   2.605   3.070   6.610 -0.4525 -0.5683  0.3058
 7247SOL    HW133203   2.650   3.132   6.667 -0.8784  1.3508 -1.4357
 7247SOL    HW233204   2.631   2.987   6.649 -1.9460 -1.8384 -1.4086
 7248SOL     OW33205   4.266   3.964   6.705 -0.0748  0.1749 -0.1628
 7248SOL    HW133206   4.220   3.896   6.755 -1.1779 -1.0177 -2.8028
 7248SOL    HW233207   4.293   3.917   6.626 -1.7455  1.4211 -1.4621
 7249SOL     OW33208   4.706   0.738   9.559 -0.1447  0.3463 -0.4288
 7249SOL    HW133209   4.672   0.727   9.648  0.4503 -0.4441 -0.3062
 7249SOL    HW233210   0.080   0.722   9.569 -0.1585  1.4598  1.4208
 7250SOL     OW33211   2.400   0.449   7.195 -0.1251 -0.6053  0.1231
 7250SOL    HW133212   2.310   0.441   7.228 -0.0702 -1.4046  0.0890
 7250SOL    HW233213   2.412   0.369   7.143 -1.9619 -1.7686  1.4749
 7251SOL     OW33214   4.665   2.492   2.711 -0.4541 -0.7822 -0.1307
 7251SOL    HW133215   0.004   2.497   2.787  0.2887 -1.2596 -0.6697
 7251SOL    HW233216   4.593   2.549   2.736 -1.6224 -1.6243 -1.5574
 7252SOL     OW33217   3.207   1.568   4.929 -0.4233  0.4922  0.1250
 7252SOL    HW133218   3.187   1.490   4.982  0.2230  0.5125  0.4027
 7252SOL    HW233219   3.149   1.547   4.856 -0.0668 -3.4717  0.9668
 7253SOL     OW33220   1.735   0.465   7.729 -0.3862  0.3380 -0.2798
 7253SOL    HW133221   1.668   0.457   7.797  1.0738 -0.1499  1.1120
 7253SOL    HW233222   1.764   0.551   7.760  3.9789 -0.7801 -1.2263
 7254SOL     OW33223   3.913   2.365  12.556  0.0450  0.0390  0.2031
 7254SOL    HW133224   3.988   2.309  12.573  0.1698  0.1289 -0.0452
 7254SOL    HW233225   3.960   2.446  12.574 -1.4038  1.1387 -0.9681
 7255SOL     OW33226   3.531   1.416   2.466 -0.1461  0.5174 -0.5054
 7255SOL    HW133227   3.504   1.419   2.375 -0.9789 -1.4508 -0.3052
 7255SOL    HW233228   3.611   1.367   2.450 -0.4195  0.0905 -0.5407
 7256SOL     OW33229   3.590   0.205  12.708 -0.1113 -0.1650 -0.6667
 7256SOL    HW133230   3.526   0.194  12.779  2.0072 -0.4608  1.2090
 7256SOL    HW233231   3.547   0.256  12.639  1.0311  2.1961  0.3409
 7257SOL     OW33232   2.357   2.918   4.780 -0.1037  0.3431  0.2210
 7257SOL    HW133233   2.444   2.919   4.818  0.8810 -0.5153 -1.9721
 7257SOL    HW233234   2.314   2.872   4.851  1.2432 -2.6691 -0.9148
 7258SOL     OW33235   3.315   1.431  15.943 -0.0632 -0.8164 -0.6926
 7258SOL    HW133236   3.245   1.371  15.917 -0.6282 -0.4610 -0.0039
 7258SOL    HW233237   3.338   1.396  16.029 -0.9181  2.8066  1.0462
 7259SOL     OW33238   3.850   2.340   5.726  0.3761  0.2519  0.2238
 7259SOL    HW133239   3.927   2.285   5.742 -1.9339 -2.7915  0.8509
 7259SOL    HW233240   3.784   2.300   5.782  0.9989 -2.0753 -0.7268
 7260SOL     OW33241   0.852   2.944  16.206  0.0673 -0.2046  0.1764
 7260SOL    HW133242   0.903   2.866  16.186  0.9029  0.6661 -1.0763
 7260SOL    HW233243   0.767   2.916  16.172 -0.1704  0.1519  0.4766
 7261SOL     OW33244   2.807   1.133   9.060 -0.7791 -0.5504  0.4906
 7261SOL    HW133245   2.740   1.139   9.128  0.2949  0.8221  1.4248
 7261SOL    HW233246   2.743   1.114   8.990 -0.4452 -0.5974  0.1992
 7262SOL     OW33247   1.403   3.506   4.931 -0.5118 -0.3324  0.2788
 7262SOL    HW133248   1.359   3.421   4.928 -0.8309 -0.1661  0.2674
 7262SOL    HW233249   1.347   3.548   4.866 -0.1905  0.4197  0.4822
 7263SOL     OW33250   1.733   0.019   7.138 -0.2227  0.2168  0.0703
 7263SOL    HW133251   1.696   4.673   7.196  2.2124 -1.5430 -0.3692
 7263SOL    HW233252   1.826   4.713   7.135  0.3979  2.4825 -0.0954
 7264SOL     OW33253   0.009   0.517   4.279  0.5250 -0.0175 -0.0223
 7264SOL    HW133254   0.031   0.464   4.356 -0.0401 -2.8620 -1.8186
 7264SOL    HW233255   0.087   0.573   4.280  0.4734  0.0595 -0.7003
 7265SOL     OW33256   1.859   4.229   8.510  0.6788  0.9208 -0.3385
 7265SOL    HW133257   1.907   4.151   8.538  0.3690  1.2673  1.1399
 7265SOL    HW233258   1.772   4.195   8.490  0.8821 -0.7908  1.6922
 7266SOL     OW33259   3.520   0.583   5.670 -0.3079  0.4648  0.4562
 7266SOL    HW133260   3.560   0.594   5.756  0.3759  2.5101 -0.1246
 7266SOL    HW233261   3.491   0.493   5.689 -2.2220  1.0151  0.1659
 7267SOL     OW33262   1.212   0.393   5.522  0.4861 -0.6241  0.1032
 7267SOL    HW133263   1.160   0.467   5.553 -1.2359 -1.0387 -1.7710
 7267SOL    HW233264   1.172   0.320   5.569  0.9927 -1.0473 -0.1263
 7268SOL     OW33265   4.134   0.955   4.180 -0.3493 -0.3297  0.1282
 7268SOL    HW133266   4.165   1.032   4.133 -4.0465  0.8316 -0.4513
 7268SOL    HW233267   4.134   0.896   4.105  1.4780  0.4663 -0.4803
 7269SOL     OW33268   1.255   1.455   7.508  0.1340 -0.5664 -0.1644
 7269SOL    HW133269   1.191   1.481   7.441 -0.0017  2.0609  0.9867
 7269SOL    HW233270   1.310   1.534   7.502  2.2153 -1.9955  0.1443
 7270SOL     OW33271   4.633   4.145  13.137 -0.4028 -0.0787 -0.1634
 7270SOL    HW133272   4.631   4.140  13.233  3.7318  1.8265  0.0142
 7270SOL    HW233273   4.693   4.072  13.124 -0.6589 -0.3208  0.0135
 7271SOL     OW33274   3.324   3.232   1.844 -0.5586 -0.3919 -0.0554
 7271SOL    HW133275   3.363   3.224   1.757  0.2100 -2.5995  0.5059
 7271SOL    HW233276   3.378   3.307   1.869 -0.1432 -0.1149 -1.7593
 7272SOL     OW33277   3.822   4.550   2.246  0.0848  0.1376 -0.4882
 7272SOL    HW133278   3.828   4.604   2.168  2.2970  1.8977  0.8856
 7272SOL    HW233279   3.900   4.578   2.294 -0.5569 -1.4621  1.4992
 7273SOL     OW33280   2.918   0.557   6.607 -0.2904  0.0718  0.0836
 7273SOL    HW133281   2.834   0.602   6.596  0.2254  1.2826  1.0750
 7273SOL    HW233282   2.968   0.600   6.537  3.2666  0.5072  2.8479
 7274SOL     OW33283   4.680   0.066  17.225 -0.3975 -0.9715  0.0748
 7274SOL    HW133284   4.703   0.119  17.301  1.2248  1.3819 -2.0304
 7274SOL    HW233285   4.701   0.136  17.163  1.6770 -0.8798  0.8814
 7275SOL     OW33286   3.036   0.247  17.481  0.2517 -0.4612  0.1462
 7275SOL    HW133287   2.981   0.234  17.558  2.1347 -5.6149  0.6078
 7275SOL    HW233288   3.106   0.306  17.510 -0.6010  0.0717  1.1086
 7276SOL     OW33289   0.538   2.951  10.487 -0.1686 -0.2026 -0.8630
 7276SOL    HW133290   0.616   2.959  10.541  0.1622 -0.4176 -1.3108
 7276SOL    HW233291   0.568   2.978  10.400 -0.3498 -0.6946 -1.0805
 7277SOL     OW33292   1.438   1.184  14.335 -0.2340 -0.2151 -0.7733
 7277SOL    HW133293   1.344   1.188  14.317 -0.1645 -0.3746 -1.1656
 7277SOL    HW233294   1.459   1.274  14.361  0.5675 -0.1957 -1.5044
 7278SOL     OW33295   4.573   2.943   1.272 -0.0622  0.0338  0.0748
 7278SOL    HW133296   4.612   2.908   1.192  0.7617 -0.8388  0.8619
 7278SOL    HW233297   4.541   3.029   1.244 -0.3023 -0.1300 -0.1581
 7279SOL     OW33298   0.747   0.604   8.877 -0.5901  0.5255 -0.0105
 7279SOL    HW133299   0.705   0.642   8.799  1.5029  1.4241 -0.6958
 7279SOL    HW233300   0.786   0.678   8.924 -0.1137 -1.3226  2.4491
 7280SOL     OW33301   3.415   3.464   2.056 -0.4603  0.0610  0.4461
 7280SOL    HW133302   3.505   3.436   2.042 -1.4175 -3.4001  1.3289
 7280SOL    HW233303   3.425   3.555   2.083  1.0713  0.0021  0.0624
 7281SOL     OW33304   2.519   0.749   2.126  0.0433 -0.2208  0.6602
 7281SOL    HW133305   2.575   0.791   2.191  1.1591 -0.4729 -0.1355
 7281SOL    HW233306   2.428   0.757   2.154  0.4639  1.4429  1.5545
 7282SOL     OW33307   2.952   0.574  12.516  0.4131  0.2749  0.1156
 7282SOL    HW133308   2.900   0.503  12.477 -1.2890  1.1891  0.7347
 7282SOL    HW233309   3.024   0.523  12.553 -0.6127 -1.1929  0.1099
 7283SOL     OW33310   1.648   1.368   4.398 -0.1519 -0.5105 -0.3164
 7283SOL    HW133311   1.742   1.364   4.382 -0.6372 -1.2879 -2.9150
 7283SOL    HW233312   1.642   1.344   4.491  0.8774  2.0601  0.4256
 7284SOL     OW33313   0.516   2.722   6.146 -0.1084 -0.5973 -0.2535
 7284SOL    HW133314   0.493   2.629   6.148  0.9154 -0.8249  0.4104
 7284SOL    HW233315   0.486   2.743   6.234  2.6475  1.7343  0.0946
 7285SOL     OW33316   1.879   0.611   2.853 -0.0095 -0.2316 -0.1327
 7285SOL    HW133317   1.832   0.592   2.772  3.1968 -0.9976 -1.8205
 7285SOL    HW233318   1.807   0.660   2.893 -1.2765 -2.3231  0.1603
 7286SOL     OW33319   1.576   4.465   4.572  0.0764 -0.7437  0.1233
 7286SOL    HW133320   1.492   4.459   4.618 -1.3834  0.6667 -2.4232
 7286SOL    HW233321   1.586   4.558   4.556 -2.8515 -0.7457 -1.7125
 7287SOL     OW33322   2.403   4.111  11.788 -0.3297  0.8067  0.3856
 7287SOL    HW133323   2.431   4.173  11.855  0.4172  1.0995 -0.2025
 7287SOL    HW233324   2.314   4.112  11.824  0.6303 -1.3815  2.7401
 7288SOL     OW33325   1.649   4.316   3.790 -0.2312  0.6246 -0.1227
 7288SOL    HW133326   1.600   4.257   3.847 -0.4373 -1.8111 -2.8433
 7288SOL    HW233327   1.587   4.388   3.780  0.8173  1.5498  0.0337
 7289SOL     OW33328   3.704   4.172   6.822  0.0829  0.1462  0.2893
 7289SOL    HW133329   3.789   4.137   6.848 -0.3079  1.2456  3.0738
 7289SOL    HW233330   3.728   4.224   6.745 -0.4710  0.2317  0.1756
 7290SOL     OW33331   0.986   4.083   4.777  0.6219 -0.3523 -0.0483
 7290SOL    HW133332   1.041   4.049   4.706 -0.2276  0.5484 -1.1514
 7290SOL    HW233333   0.907   4.100   4.726  0.8836  0.2186 -0.2640
 7291SOL     OW33334   4.126   1.405   3.991 -0.3929 -0.7371  0.1109
 7291SOL    HW133335   4.168   1.327   4.028  1.6822  0.8006  0.9379
 7291SOL    HW233336   4.087   1.362   3.914  0.2190  0.6439 -0.9462
 7292SOL     OW33337   0.060   3.913  12.624 -0.0098  0.8277  0.4175
 7292SOL    HW133338   0.006   3.860  12.683 -0.5447 -0.3970 -1.1422
 7292SOL    HW233339   0.014   3.996  12.621 -0.0359  0.8060  0.2068
 7293SOL     OW33340   2.124   3.483   1.240 -0.3895  0.4240  0.3125
 7293SOL    HW133341   2.030   3.465   1.238  0.1409 -2.4069  0.5506
 7293SOL    HW233342   2.109   3.535   1.319  1.5358  0.1438  0.8687
 7294SOL     OW33343   3.435   3.964   7.405  0.4333  0.0181 -0.1968
 7294SOL    HW133344   3.463   3.968   7.497 -1.0032 -0.2393  0.2522
 7294SOL    HW233345   3.342   3.986   7.403  0.9090  1.7055 -3.4268
 7295SOL     OW33346   1.882   0.133   4.563  0.3101 -0.0404  0.0552
 7295SOL    HW133347   1.826   0.070   4.608  0.8625  0.7364  1.8310
 7295SOL    HW233348   1.813   0.183   4.519  0.5010 -0.5009 -0.7752
 7296SOL     OW33349   4.291   3.976  17.286  0.2901  0.0135  0.1020
 7296SOL    HW133350   4.242   3.942  17.361 -0.0829  0.6119  0.1358
 7296SOL    HW233351   4.228   4.041  17.254  1.7821  0.6421 -1.5214
 7297SOL     OW33352   1.803   3.912  13.700  0.0306 -0.1510  0.2120
 7297SOL    HW133353   1.815   3.974  13.772 -0.6545 -1.0412  1.0995
 7297SOL    HW233354   1.867   3.945  13.638 -1.7210  2.0956 -0.3971
 7298SOL     OW33355   4.427   0.048   5.506  0.2732  0.0813  0.6569
 7298SOL    HW133356   4.395   0.110   5.442  1.7437 -0.0575 -0.2074
 7298SOL    HW233357   4.481   0.096   5.569  2.1904  2.4706 -2.8281
 7299SOL     OW33358   4.620   0.470   1.307 -0.2757  0.2530 -0.1221
 7299SOL    HW133359   4.565   0.392   1.301 -0.5344  0.4971 -0.8876
 7299SOL    HW233360   4.609   0.510   1.221 -0.2245 -1.5923 -0.9826
 7300SOL     OW33361   0.285   3.563  10.931 -0.0969  0.1870 -0.4374
 7300SOL    HW133362   0.227   3.514  10.990 -3.8047  2.4305 -2.1677
 7300SOL    HW233363   0.284   3.644  10.983  0.3810  0.3436 -0.6733
 7301SOL     OW33364   4.355   4.360  14.029 -0.2988 -0.1717  0.1261
 7301SOL    HW133365   4.396   4.320  13.953  1.0886 -0.3503  0.9671
 7301SOL    HW233366   4.375   4.306  14.106 -2.2098  1.7915  2.0310
 7302SOL     OW33367   3.033   1.781   5.774  0.3308  0.2197 -0.0623
 7302SOL    HW133368   3.037   1.876   5.766  1.5071  0.1692 -0.0231
 7302SOL    HW233369   3.112   1.752   5.728  0.2470  1.8145 -1.2058
 7303SOL     OW33370   1.943   0.565   9.310  0.1796 -0.4623 -0.5502
 7303SOL    HW133371   1.928   0.642   9.364  1.7414 -0.8263  0.4210
 7303SOL    HW233372   1.926   0.491   9.369  0.6193  1.8076  2.4536
 7304SOL     OW33373   0.173   0.593  15.828 -0.0247  0.2426 -0.3182
 7304SOL    HW133374   0.161   0.548  15.744 -0.3045  0.3926 -0.3610
 7304SOL    HW233375   0.104   0.557  15.883  0.3105 -1.3216 -0.9121
 7305SOL     OW33376   4.577   3.779   4.760 -0.4247 -0.0385 -0.1604
 7305SOL    HW133377   4.483   3.780   4.747 -0.4619 -0.5691  0.0827
 7305SOL    HW233378   4.604   3.869   4.780 -1.7070  0.1123  0.8964
 7306SOL     OW33379   3.636   4.126  11.280  0.5910  0.2171 -0.0038
 7306SOL    HW133380   3.635   4.133  11.185 -3.1571 -1.2050 -0.0794
 7306SOL    HW233381   3.719   4.083  11.301  0.8093  0.5517 -0.1914
 7307SOL     OW33382   3.016   1.644   8.175 -0.0173  0.5216 -0.0018
 7307SOL    HW133383   3.077   1.718   8.171  0.7609 -0.1036  0.3204
 7307SOL    HW233384   2.945   1.672   8.116 -0.2839 -1.3707 -0.5889
 7308SOL     OW33385   1.107   4.114  12.854  0.3967 -0.2231 -0.1277
 7308SOL    HW133386   1.031   4.155  12.894  0.1773 -0.4253 -0.3371
 7308SOL    HW233387   1.158   4.119  12.935  0.4112 -2.3257  0.0020
 7309SOL     OW33388   1.958   3.321   7.975 -0.0379 -0.6296 -0.1206
 7309SOL    HW133389   2.048   3.310   7.944  0.5734  2.0482  0.7278
 7309SOL    HW233390   1.965   3.396   8.034 -1.6231  0.5839 -1.5020
 7310SOL     OW33391   2.438   0.672   5.272  0.1333 -0.1508 -0.7813
 7310SOL    HW133392   2.357   0.719   5.252  1.1581  0.4674 -3.4909
 7310SOL    HW233393   2.506   0.732   5.241  0.6838 -1.7483 -2.7348
 7311SOL     OW33394   4.419   3.739   4.000 -0.3434 -0.7338 -0.3101
 7311SOL    HW133395   4.448   3.830   3.992  0.7025 -1.0691 -0.2178
 7311SOL    HW233396   4.473   3.690   3.938  2.0337 -1.8662  2.6916
 7312SOL     OW33397   2.605   3.411   6.177 -0.4050  1.0221  0.8495
 7312SOL    HW133398   2.515   3.378   6.179 -0.6131  1.4323 -1.9448
 7312SOL    HW233399   2.593   3.486   6.119 -0.3502 -1.3867 -2.2695
 7313SOL     OW33400   3.220   1.424   5.490 -0.1480  1.2565 -0.7191
 7313SOL    HW133401   3.219   1.496   5.552  2.8020  0.2544  0.4938
 7313SOL    HW233402   3.244   1.349   5.545 -1.6179  0.4938 -1.1232
 7314SOL     OW33403   4.058   1.305   3.736  0.4855 -0.3049 -0.6544
 7314SOL    HW133404   4.049   1.224   3.686 -0.2210  0.2439 -1.4302
 7314SOL    HW233405   4.005   1.368   3.686  1.7150  0.5068 -0.9282
 7315SOL     OW33406   0.988   2.775   5.980  0.2466 -0.5796  0.2777
 7315SOL    HW133407   0.965   2.742   6.066  0.9832 -1.9182 -0.0324
 7315SOL    HW233408   0.995   2.869   5.998 -0.6494 -0.0501 -2.0202
 7316SOL     OW33409   4.051   0.575   5.697 -0.1966 -0.9587  0.6657
 7316SOL    HW133410   4.144   0.593   5.689 -0.1516 -1.2324  0.5922
 7316SOL    HW233411   4.007   0.660   5.707  1.4797 -0.0680  0.4794
 7317SOL     OW33412   2.844   3.686   5.968  0.1088  0.4660  0.1778
 7317SOL    HW133413   2.792   3.753   6.013  1.7016  1.5278  0.4330
 7317SOL    HW233414   2.858   3.724   5.881  1.4134 -2.6967 -0.9867
 7318SOL     OW33415   4.004   3.616   2.873  0.4440  0.3246  0.3275
 7318SOL    HW133416   4.011   3.546   2.808 -1.6047 -0.3715  0.8397
 7318SOL    HW233417   4.074   3.674   2.842  0.8878 -0.4816 -0.1770
 7319SOL     OW33418   1.414   3.113   2.993 -0.3308 -0.0132 -0.3197
 7319SOL    HW133419   1.481   3.045   2.987  0.3828  0.6200  0.5025
 7319SOL    HW233420   1.460   3.174   3.051  1.4407 -0.5877 -1.1240
 7320SOL     OW33421   3.328   3.122  14.842  0.6671 -0.2261  0.3528
 7320SOL    HW133422   3.382   3.131  14.920 -1.3996  2.4291  1.5068
 7320SOL    HW233423   3.249   3.142  14.893 -0.6007 -0.2143 -1.5819
 7321SOL     OW33424   1.103   2.111   7.158 -0.3247 -0.5010  0.0690
 7321SOL    HW133425   1.175   2.168   7.183  1.5169 -1.8944 -2.0609
 7321SOL    HW233426   1.138   2.052   7.092 -0.5825  0.8288 -1.2448
 7322SOL     OW33427   0.107   0.108   3.468 -0.0623  0.3288 -0.3961
 7322SOL    HW133428   0.030   0.164   3.479 -1.0253 -1.3448  1.2916
 7322SOL    HW233429   0.102   0.096   3.373  3.6352  1.9455 -0.7978
 7323SOL     OW33430   0.340   4.135  14.118  0.2736 -0.4760  0.1272
 7323SOL    HW133431   0.407   4.173  14.174  0.1043 -0.5708  0.3995
 7323SOL    HW233432   0.385   4.130  14.034  1.3585  2.2552  0.5716
 7324SOL     OW33433   3.117   3.774  10.627 -0.1238 -0.7224 -0.2583
 7324SOL    HW133434   3.022   3.782  10.632  0.0631  0.9266  0.6704
 7324SOL    HW233435   3.128   3.687  10.666 -0.8409 -1.3681 -1.4755
 7325SOL     OW33436   1.230   4.673   6.767 -0.1373  0.1212 -0.5402
 7325SOL    HW133437   1.307   0.000   6.734  0.6899 -0.1026  1.0638
 7325SOL    HW233438   1.162   4.700   6.706 -1.3854 -1.9337 -0.0526
 7326SOL     OW33439   1.901   1.205  15.116 -0.5055  0.3881  0.6287
 7326SOL    HW133440   1.920   1.282  15.170 -0.4542  0.6916  0.1763
 7326SOL    HW233441   1.842   1.243  15.051  1.0851  0.4322 -0.8016
 7327SOL     OW33442   1.846   2.588   0.729 -0.2289  0.0956  0.3424
 7327SOL    HW133443   1.860   2.499   0.697  2.0799  0.2829  0.8078
 7327SOL    HW233444   1.752   2.591   0.743 -0.6497 -0.7244 -2.3224
 7328SOL     OW33445   2.974   4.485   8.186  0.2549  0.0240 -0.0566
 7328SOL    HW133446   2.990   4.400   8.145  1.9011  0.2578  0.0861
 7328SOL    HW233447   2.892   4.465   8.230 -0.5447  1.4643 -0.9253
 7329SOL     OW33448   3.001   0.073   3.406  0.3046 -0.5446  0.4550
 7329SOL    HW133449   3.039   0.106   3.487 -0.7410  0.0247  0.7111
 7329SOL    HW233450   3.050   4.712   3.387  2.9348  1.0193  0.6252
 7330SOL     OW33451   1.499   4.182   3.324  0.0390 -0.4199  0.0498
 7330SOL    HW133452   1.553   4.223   3.392  0.9537 -0.8175 -0.4406
 7330SOL    HW233453   1.548   4.102   3.308  1.0517 -0.3308  2.7083
 7331SOL     OW33454   1.646   1.151   8.311 -0.0207 -0.0193 -0.3808
 7331SOL    HW133455   1.634   1.066   8.270 -2.1807 -0.3670  0.9414
 7331SOL    HW233456   1.555   1.182   8.309 -0.0036 -0.0733 -2.0166
 7332SOL     OW33457   0.303   1.761   2.344 -0.0234  0.4632  0.4357
 7332SOL    HW133458   0.265   1.709   2.273  2.3336 -0.0048 -0.4919
 7332SOL    HW233459   0.278   1.714   2.422  1.7154  0.4706  1.0073
 7333SOL     OW33460   4.630   2.358   9.193  0.2381  0.4368 -0.3978
 7333SOL    HW133461   4.699   2.295   9.170 -0.3149 -0.7921  1.3975
 7333SOL    HW233462   4.681   2.435   9.220  0.2068 -0.1774  1.4074
 7334SOL     OW33463   0.343   1.856  10.590  0.1070 -0.3458 -0.0625
 7334SOL    HW133464   0.424   1.906  10.595 -0.9556  1.3457  0.1312
 7334SOL    HW233465   0.377   1.766  10.590  0.1505 -0.3322 -1.6809
 7335SOL     OW33466   3.791   0.489   8.215 -0.3170  0.0739  0.4720
 7335SOL    HW133467   3.727   0.483   8.286  0.7409 -1.1229  1.3258
 7335SOL    HW233468   3.868   0.450   8.256 -0.6058 -1.6838 -0.6351
 7336SOL     OW33469   2.510   0.128  15.513  0.2490  0.4616  0.0685
 7336SOL    HW133470   2.524   0.212  15.468 -0.9974  0.8273  0.3684
 7336SOL    HW233471   2.593   0.084  15.495  1.0629  1.3140  1.8435
 7337SOL     OW33472   4.106   2.353   8.990 -0.7304 -0.3318  0.2974
 7337SOL    HW133473   4.039   2.301   8.945 -1.7128  1.2451 -0.0530
 7337SOL    HW233474   4.123   2.423   8.927 -3.0004 -0.8320 -0.8984
 7338SOL     OW33475   3.928   4.635   3.618 -0.0191 -0.8381  0.2383
 7338SOL    HW133476   3.891   4.667   3.535 -0.5053 -0.8036  0.4676
 7338SOL    HW233477   3.958   4.546   3.601 -1.4804 -1.1641 -0.7175
 7339SOL     OW33478   4.619   0.668  15.517 -0.2364 -0.0842 -0.0779
 7339SOL    HW133479   4.670   0.747  15.535 -0.5672 -0.1729  1.2566
 7339SOL    HW233480   4.632   0.672  15.423 -0.6073  0.6720 -0.0991
 7340SOL     OW33481   2.549   0.894   4.823 -0.5041  0.0185  0.8035
 7340SOL    HW133482   2.540   0.800   4.806 -3.4058  0.0468  2.3174
 7340SOL    HW233483   2.628   0.909   4.771 -0.1967 -0.5423  1.0995
 7341SOL     OW33484   4.095   4.031   4.468  0.4353  0.2253 -0.2874
 7341SOL    HW133485   4.147   4.080   4.532  1.2351  0.0472 -0.7983
 7341SOL    HW233486   4.012   4.078   4.462 -0.2022 -0.9459 -0.6505
 7342SOL     OW33487   1.984   2.764   9.219  0.3331  0.6385 -0.2273
 7342SOL    HW133488   2.026   2.849   9.207 -1.2018  1.4792  0.4120
 7342SOL    HW233489   1.910   2.776   9.159  1.4490 -0.9693 -1.9484
 7343SOL     OW33490   0.985   3.198  10.891 -0.1157 -0.2587  0.4757
 7343SOL    HW133491   1.012   3.159  10.974  2.3456 -0.0835 -0.2365
 7343SOL    HW233492   0.891   3.206  10.905 -0.5615 -0.4054 -2.3976
 7344SOL     OW33493   4.695   0.322   4.050  0.4109 -0.2600 -0.3197
 7344SOL    HW133494   0.056   0.313   4.101  1.5113 -1.0768 -2.1802
 7344SOL    HW233495   4.663   0.408   4.074  0.6076 -0.5184  0.8486
 7345SOL     OW33496   4.230   4.433   5.890  0.2173  0.2337 -0.4471
 7345SOL    HW133497   4.221   4.514   5.840  2.1614  1.0019  0.4295
 7345SOL    HW233498   4.234   4.469   5.979  0.2237 -1.2648  0.1512
 7346SOL     OW33499   0.928   1.604   1.779 -0.5260  0.4658 -0.2964
 7346SOL    HW133500   0.885   1.562   1.705 -0.6784 -0.5703  0.3853
 7346SOL    HW233501   0.993   1.541   1.811  0.5261  2.2444  1.0884
 7347SOL     OW33502   4.541   1.330   3.202  0.5844  0.3796  0.0914
 7347SOL    HW133503   4.488   1.333   3.122  0.7552 -0.3126 -0.0446
 7347SOL    HW233504   4.603   1.261   3.179  1.2807  1.2336 -0.5728
 7348SOL     OW33505   2.513   2.955  11.684  0.6626 -0.4335 -0.0653
 7348SOL    HW133506   2.559   2.994  11.759  0.3855  1.3062 -0.7825
 7348SOL    HW233507   2.579   2.980  11.619  0.1936  0.2335 -0.2904
 7349SOL     OW33508   4.462   3.894  16.571 -0.4853 -0.1660 -0.0464
 7349SOL    HW133509   4.397   3.856  16.512 -1.1109 -1.6183  1.6026
 7349SOL    HW233510   4.457   3.989  16.565  1.3102 -0.0218  0.7724
 7350SOL     OW33511   0.760   1.590   3.608 -0.1882  0.4164 -0.1491
 7350SOL    HW133512   0.812   1.646   3.550 -1.2872 -0.2894 -1.7855
 7350SOL    HW233513   0.837   1.554   3.654 -1.2385 -1.0765  0.4316
 7351SOL     OW33514   2.099   0.143   0.830  0.9769 -0.3067  0.0770
 7351SOL    HW133515   2.170   0.135   0.894  0.6080 -1.0412  0.3895
 7351SOL    HW233516   2.087   0.055   0.794 -0.5566  0.6265 -1.6860
 7352SOL     OW33517   3.123   3.168   7.588 -0.3362 -0.1912  0.5443
 7352SOL    HW133518   3.039   3.145   7.629 -0.7077  1.8937  0.9560
 7352SOL    HW233519   3.138   3.253   7.630  1.8958 -0.6172  0.6337
 7353SOL     OW33520   4.553   1.065  16.091  0.0752 -0.4363  0.5018
 7353SOL    HW133521   4.613   1.128  16.131 -1.8632  1.0394  1.0523
 7353SOL    HW233522   4.617   1.007  16.049  1.1070  0.5278  0.7386
 7354SOL     OW33523   1.217   0.577  14.164  0.1087 -0.4212  0.2821
 7354SOL    HW133524   1.159   0.639  14.208  0.6130 -1.3495  2.2288
 7354SOL    HW233525   1.174   0.492  14.162  0.1575 -0.4265 -0.6620
 7355SOL     OW33526   4.713   1.547   1.314  0.3114 -0.4922  0.5393
 7355SOL    HW133527   4.715   1.460   1.353  1.7078  0.1199  1.8615
 7355SOL    HW233528   0.086   1.564   1.296 -0.2781  1.5618 -0.6085
 7356SOL     OW33529   3.905   0.378  16.677 -0.5487  0.2001  0.1248
 7356SOL    HW133530   3.886   0.347  16.589 -0.6358  3.0260 -0.8424
 7356SOL    HW233531   3.971   0.313  16.702 -0.7926  0.0547  0.3952
 7357SOL     OW33532   1.187   4.480   4.897  0.0003 -0.0067  0.0446
 7357SOL    HW133533   1.252   4.473   4.967 -0.9065  0.4081  0.9271
 7357SOL    HW233534   1.109   4.455   4.945 -0.6889 -1.4031 -1.8313
 7358SOL     OW33535   3.955   1.036  16.711  0.3471  0.2500  0.0217
 7358SOL    HW133536   4.033   1.042  16.766  0.2013  1.6099  0.0932
 7358SOL    HW233537   3.912   0.961  16.751 -0.6683  1.3073  0.9072
 7359SOL     OW33538   4.603   3.821   2.717 -0.5346  0.3306  0.2364
 7359SOL    HW133539   4.552   3.900   2.697 -0.6553 -0.2546 -1.7295
 7359SOL    HW233540   4.602   3.823   2.813 -0.8650  1.3709  0.2116
 7360SOL     OW33541   1.564   0.305   0.514  0.1809 -0.4528 -0.6223
 7360SOL    HW133542   1.582   0.395   0.484  2.5994 -0.2252  1.5011
 7360SOL    HW233543   1.491   0.275   0.460 -0.3336  0.4422 -0.4243
 7361SOL     OW33544   3.862   1.783  14.712  0.0433 -0.1451 -0.5057
 7361SOL    HW133545   3.875   1.861  14.766  0.8634  0.5246 -1.6706
 7361SOL    HW233546   3.868   1.717  14.782  1.3364 -0.5898 -1.0344
 7362SOL     OW33547   1.378   2.453   0.845  0.3967 -0.6515  0.0095
 7362SOL    HW133548   1.314   2.494   0.787 -1.7686 -2.1322  1.3745
 7362SOL    HW233549   1.351   2.499   0.924  0.5391  0.0206 -0.3315
 7363SOL     OW33550   4.303   3.465   2.607  0.1549 -0.4008 -0.4247
 7363SOL    HW133551   4.345   3.466   2.521 -0.2527  2.4471 -0.6117
 7363SOL    HW233552   4.367   3.503   2.667  1.3113  0.6513 -2.3271
 7364SOL     OW33553   0.238   0.505  13.755  0.2443 -0.0878 -0.2289
 7364SOL    HW133554   0.293   0.583  13.754 -1.1671  0.9110  0.4404
 7364SOL    HW233555   0.291   0.455  13.818  1.0770  0.0548 -0.8197
 7365SOL     OW33556   1.622   3.979  12.881 -0.7339 -0.6687 -0.8650
 7365SOL    HW133557   1.564   4.032  12.826 -0.0855  1.6845  0.7442
 7365SOL    HW233558   1.703   3.972  12.830 -0.0379  0.7686  0.0557
 7366SOL     OW33559   3.174   4.531   8.920 -0.6129 -0.2498 -0.8759
 7366SOL    HW133560   3.213   4.526   9.007 -0.6073  0.3940 -0.8424
 7366SOL    HW233561   3.211   4.452   8.879 -0.1345  0.4502 -1.8038
 7367SOL     OW33562   0.154   0.661   4.567  0.4527  0.2986  0.5410
 7367SOL    HW133563   0.202   0.657   4.484  2.4744  0.8038  1.6746
 7367SOL    HW233564   0.070   0.698   4.542 -0.0309 -1.4666 -0.4645
 7368SOL     OW33565   1.340   2.753   6.483  0.0276  0.0465 -0.0580
 7368SOL    HW133566   1.316   2.699   6.407  0.0326  0.4010 -0.3140
 7368SOL    HW233567   1.418   2.788   6.440  1.2313 -0.3331  1.8231
 7369SOL     OW33568   1.571   1.223   5.950  0.7093  0.2622 -0.0045
 7369SOL    HW133569   1.600   1.156   6.011 -0.4076  0.1479  0.3925
 7369SOL    HW233570   1.495   1.190   5.902  0.5430 -0.0352  0.4698
 7370SOL     OW33571   1.897   4.122   0.676  0.0176  0.2769 -0.2184
 7370SOL    HW133572   1.959   4.085   0.739 -2.9202 -2.2529  1.1906
 7370SOL    HW233573   1.838   4.176   0.729 -0.4618 -0.4053 -0.0502
 7371SOL     OW33574   3.038   2.351   2.046 -0.2861 -0.2085  0.1866
 7371SOL    HW133575   3.013   2.350   2.138 -0.0936  0.0230  0.2413
 7371SOL    HW233576   3.118   2.298   2.043 -0.8461 -1.1023  1.3225
 7372SOL     OW33577   1.675   4.557   1.718 -0.2052  0.2776  0.4155
 7372SOL    HW133578   1.701   4.612   1.791 -1.0015 -0.5520  1.3313
 7372SOL    HW233579   1.597   4.512   1.753 -0.8412 -0.7877 -2.2980
 7373SOL     OW33580   2.616   3.449  10.007  0.0355  0.0530  0.0865
 7373SOL    HW133581   2.627   3.542   9.990 -0.4684 -0.4572 -3.1161
 7373SOL    HW233582   2.546   3.448  10.073  0.5537  0.9399  0.6471
 7374SOL     OW33583   2.665   1.545  11.124 -0.1691  0.1699 -0.5285
 7374SOL    HW133584   2.634   1.632  11.149  0.3459 -0.2963  1.6622
 7374SOL    HW233585   2.590   1.489  11.143 -2.5364  2.8711 -1.7771
 7375SOL     OW33586   2.270   0.926  13.023 -0.3693 -0.1586 -0.4282
 7375SOL    HW133587   2.177   0.924  13.046 -0.7891  0.6447 -2.0451
 7375SOL    HW233588   2.283   1.012  12.983 -2.6901 -0.3003 -1.5238
 7376SOL     OW33589   3.685   1.321   8.898 -0.2155  0.5244  0.5356
 7376SOL    HW133590   3.596   1.285   8.900  0.6292 -1.8319 -3.8507
 7376SOL    HW233591   3.687   1.364   8.813 -0.3108  1.0428  0.7967
 7377SOL     OW33592   1.063   1.669   3.970  0.2112 -0.0452 -0.2483
 7377SOL    HW133593   1.026   1.629   3.891 -0.0359  1.0182 -0.6735
 7377SOL    HW233594   1.011   1.629   4.040  0.1136 -1.2475 -1.0018
 7378SOL     OW33595   4.175   0.223  11.312 -0.0058 -0.2479 -0.5798
 7378SOL    HW133596   4.254   0.186  11.273  0.8698  0.0663  0.9012
 7378SOL    HW233597   4.223   0.288  11.364 -0.1189 -1.3932  0.9733
 7379SOL     OW33598   0.093   3.673   2.405  0.3270 -0.0762  0.6206
 7379SOL    HW133599   0.157   3.619   2.451  0.0150 -1.9525 -1.1277
 7379SOL    HW233600   0.012   3.640   2.443 -1.3714  1.6873 -1.5093
 7380SOL     OW33601   0.266   2.375   6.015  0.3576 -0.3914  0.5481
 7380SOL    HW133602   0.323   2.316   6.065  0.0066 -0.2564  1.1048
 7380SOL    HW233603   0.331   2.421   5.962  1.2453 -0.3402  1.6671
 7381SOL     OW33604   3.946   3.366  16.457  0.4719 -0.0422 -0.3930
 7381SOL    HW133605   4.009   3.300  16.427  0.9947 -0.6367  2.0121
 7381SOL    HW233606   3.877   3.355  16.392  0.7437  2.0292 -1.0140
 7382SOL     OW33607   4.631   2.497  11.250  0.3612 -0.2927 -0.2458
 7382SOL    HW133608   4.699   2.541  11.200  0.1968  0.3645  0.1102
 7382SOL    HW233609   4.632   2.410  11.210  1.1289 -0.9556  1.2126
 7383SOL     OW33610   1.556   2.742   2.573  0.1456  0.5186  0.0485
 7383SOL    HW133611   1.554   2.837   2.562 -1.6998  0.6187  1.2707
 7383SOL    HW233612   1.510   2.728   2.490  0.8701  2.2002 -0.6347
 7384SOL     OW33613   1.469   3.588   0.071 -0.4963 -0.6653 -0.4624
 7384SOL    HW133614   1.461   3.632  17.668 -2.3435 -2.1997 -1.0909
 7384SOL    HW233615   1.489   3.514   0.014  2.4206 -0.3618  0.1860
 7385SOL     OW33616   2.993   1.447   2.951  0.5794  0.1783  0.1401
 7385SOL    HW133617   2.935   1.523   2.940  1.8678  1.2933  1.1253
 7385SOL    HW233618   3.046   1.465   3.028  1.3853 -3.1621  0.3355
 7386SOL     OW33619   2.924   0.940  11.436  0.2714 -0.0204  0.7425
 7386SOL    HW133620   3.004   0.891  11.457  0.5005  0.5467  1.1899
 7386SOL    HW233621   2.942   1.009  11.500 -0.3198  1.2620 -0.4744
 7387SOL     OW33622   1.514   3.834   2.942  0.2729  0.0172 -0.2186
 7387SOL    HW133623   1.432   3.882   2.949 -0.1900 -0.6031 -1.4590
 7387SOL    HW233624   1.573   3.910   2.948 -1.7671  1.5200  0.5789
 7388SOL     OW33625   4.144   0.069   2.571 -0.6133 -0.2237  0.2667
 7388SOL    HW133626   4.161   0.157   2.605  0.1656 -0.0296 -0.6353
 7388SOL    HW233627   4.154   0.030   2.658  0.5690  0.7031  0.5407
 7389SOL     OW33628   1.135   0.900   3.073  0.3829  0.1918 -0.3822
 7389SOL    HW133629   1.229   0.916   3.067  0.4827  0.3354  1.5221
 7389SOL    HW233630   1.089   0.974   3.036 -0.2663 -0.2605 -0.4728
 7390SOL     OW33631   1.751   2.517  13.658 -0.1245  0.6207 -0.3315
 7390SOL    HW133632   1.724   2.564  13.738 -1.8158  1.7670 -1.5875
 7390SOL    HW233633   1.807   2.446  13.691  0.8442  1.3149 -0.4891
 7391SOL     OW33634   2.830   2.761   4.014  0.2510 -0.1609 -0.1334
 7391SOL    HW133635   2.852   2.781   4.105  0.8102  0.8293 -0.4824
 7391SOL    HW233636   2.849   2.838   3.960  0.3473  1.2455  1.8999
 7392SOL     OW33637   1.763   1.398  12.397  0.0476  0.0588 -0.2417
 7392SOL    HW133638   1.769   1.323  12.456  1.2871  0.9772  0.8058
 7392SOL    HW233639   1.692   1.450  12.435  0.2177 -0.3785  0.6862
 7393SOL     OW33640   2.194   0.505   2.545 -0.2363  0.5422 -0.7672
 7393SOL    HW133641   2.283   0.534   2.526  0.3395 -0.3978  0.5032
 7393SOL    HW233642   2.178   0.537   2.633  4.0943 -0.8546  0.4769
 7394SOL     OW33643   2.649   0.802   5.050 -0.2897  0.3137 -0.1787
 7394SOL    HW133644   2.566   0.812   5.003 -0.0909  1.1432 -0.3537
 7394SOL    HW233645   2.693   0.733   5.001 -1.1902  0.2184 -0.8638
 7395SOL     OW33646   3.884   1.355   5.834 -0.2810 -0.2120  0.1642
 7395SOL    HW133647   3.965   1.342   5.885 -1.1076 -0.1416  1.4840
 7395SOL    HW233648   3.906   1.318   5.748 -0.6214 -0.4100  0.1657
 7396SOL     OW33649   1.215   0.104   6.999  0.3297  0.1755  0.7410
 7396SOL    HW133650   1.206   0.035   6.933  0.2118 -0.7982  1.7798
 7396SOL    HW233651   1.307   0.125   6.984  0.2120  1.7606  2.2440
 7397SOL     OW33652   0.163   2.581  10.803 -0.4243 -0.0597  0.4903
 7397SOL    HW133653   0.168   2.574  10.708 -0.2919  0.2854  0.4697
 7397SOL    HW233654   0.109   2.505  10.824 -1.5077  0.8549  0.9718
 7398SOL     OW33655   1.799   1.212   3.211 -0.2103 -0.0094  0.5612
 7398SOL    HW133656   1.883   1.189   3.249  0.8404 -1.9700 -2.9845
 7398SOL    HW233657   1.744   1.171   3.278  0.1550  0.2144  0.9959
 7399SOL     OW33658   3.252   0.415  17.544 -0.0407 -0.0880  0.4927
 7399SOL    HW133659   3.250   0.427  17.639  1.0801 -0.6076  0.5794
 7399SOL    HW233660   3.267   0.503  17.510  1.0480 -0.4047  0.1681
 7400SOL     OW33661   2.320   0.215   2.683  0.1604  0.2929 -0.0789
 7400SOL    HW133662   2.354   0.126   2.691  2.5042  1.1292 -0.5916
 7400SOL    HW233663   2.245   0.209   2.742  0.8077 -0.3196  0.6919
 7401SOL     OW33664   1.245   1.235   8.046 -0.4362  0.1802  0.2751
 7401SOL    HW133665   1.236   1.172   8.118  1.8268 -2.5815 -1.8381
 7401SOL    HW233666   1.324   1.282   8.070  0.1196 -0.9343  0.6262
 7402SOL     OW33667   0.726   2.470  15.013  0.4375  0.1965  0.4193
 7402SOL    HW133668   0.759   2.414  14.943  0.9799  0.8892  0.1289
 7402SOL    HW233669   0.654   2.511  14.965 -0.2663  0.1492  1.4323
 7403SOL     OW33670   1.654   1.127   4.615  0.7799 -0.3904 -0.3399
 7403SOL    HW133671   1.581   1.136   4.553  2.2212  2.2087 -1.6581
 7403SOL    HW233672   1.615   1.137   4.702 -2.5849  0.7149 -1.9695
 7404SOL     OW33673   0.812   3.414   2.565 -0.4067 -0.2155 -0.0533
 7404SOL    HW133674   0.804   3.475   2.492 -0.7734 -0.0739  0.1077
 7404SOL    HW233675   0.795   3.478   2.634  1.0078 -2.2375  2.1953
 7405SOL     OW33676   3.710   2.795   4.209  0.2067  0.2703  0.4071
 7405SOL    HW133677   3.696   2.827   4.120  1.5579 -2.4585 -0.7865
 7405SOL    HW233678   3.753   2.711   4.190  0.8953  0.3557  1.5935
 7406SOL     OW33679   2.858   3.358   8.838  0.0673 -1.0631  0.4503
 7406SOL    HW133680   2.833   3.332   8.927 -0.9717  1.4583  0.9205
 7406SOL    HW233681   2.787   3.323   8.783 -1.1611  0.5719  0.9825
 7407SOL     OW33682   2.238   1.335   3.453 -0.7151  0.4222 -0.1717
 7407SOL    HW133683   2.307   1.274   3.478 -1.6299 -0.5484  0.0329
 7407SOL    HW233684   2.279   1.388   3.385  1.1975 -1.0964 -0.1833
 7408SOL     OW33685   1.744   4.384   7.356 -0.2065 -0.3238 -0.8379
 7408SOL    HW133686   1.724   4.476   7.377 -1.8622 -0.1199 -3.3171
 7408SOL    HW233687   1.677   4.357   7.294 -1.3105  0.1881  0.1110
 7409SOL     OW33688   4.237   2.599   3.051  0.2244  0.6019  0.3676
 7409SOL    HW133689   4.240   2.670   2.986 -2.9031 -0.2630 -0.7328
 7409SOL    HW233690   4.290   2.628   3.125  3.4561 -2.9503 -0.5084
 7410SOL     OW33691   4.716   1.751  15.028 -0.3608  0.3502  0.0563
 7410SOL    HW133692   0.083   1.740  14.989 -0.7345 -0.0097 -0.6691
 7410SOL    HW233693   4.670   1.672  15.000 -1.4536  1.2827 -0.7912
 7411SOL     OW33694   3.504   4.631  14.984  0.1072 -0.0720 -0.3516
 7411SOL    HW133695   3.533   4.717  15.014 -1.6975  0.4434 -0.0804
 7411SOL    HW233696   3.443   4.651  14.914 -0.8674  2.0247  1.1086
 7412SOL     OW33697   1.156   4.099  11.823 -0.1327  0.0608  0.8409
 7412SOL    HW133698   1.180   4.033  11.888  0.6973 -0.4132  0.0408
 7412SOL    HW233699   1.218   4.165  11.854 -1.1327  0.1286  2.7543
 7413SOL     OW33700   2.980   3.386   5.788 -0.0329 -0.7944 -0.8886
 7413SOL    HW133701   3.019   3.392   5.701 -0.5233  0.4635 -1.0243
 7413SOL    HW233702   3.008   3.303   5.828 -0.7391 -0.4914  0.2656
 7414SOL     OW33703   1.937   4.679   2.899 -0.2540  0.1164  0.0994
 7414SOL    HW133704   2.015   4.628   2.924 -0.2100 -0.5415 -1.4058
 7414SOL    HW233705   1.965   0.047   2.924  0.9219 -1.0696  2.9573
 7415SOL     OW33706   3.263   0.013   7.976 -0.0997  0.4355 -0.1331
 7415SOL    HW133707   3.239   0.100   7.947 -1.3290  0.4996  1.0891
 7415SOL    HW233708   3.356   0.028   7.993 -0.4355  1.2701  0.9488
 7416SOL     OW33709   3.954   1.830  17.511 -0.3033 -0.1910  0.3298
 7416SOL    HW133710   3.956   1.738  17.536 -3.3520 -0.6148 -1.0494
 7416SOL    HW233711   3.885   1.834  17.445 -0.6125  0.1741  0.6772
 7417SOL     OW33712   4.612   0.458  12.731 -0.4060 -0.0951 -0.0870
 7417SOL    HW133713   4.707   0.442  12.735 -0.3478 -0.4204 -2.5944
 7417SOL    HW233714   4.581   0.478  12.819 -1.5989  0.3004 -0.5911
 7418SOL     OW33715   2.561   0.158  17.604  0.0562  0.2755 -0.0049
 7418SOL    HW133716   2.656   0.169  17.607  0.5434 -4.4546  2.5862
 7418SOL    HW233717   2.538   0.183   0.012  0.6053 -1.4853  0.6319
 7419SOL     OW33718   4.063   4.247   8.266  0.5128 -0.3128 -0.3247
 7419SOL    HW133719   4.150   4.214   8.286  0.3976 -1.9047 -2.3703
 7419SOL    HW233720   4.055   4.316   8.331  1.1450 -0.9553  0.4444
 7420SOL     OW33721   0.449   3.456   2.849 -0.0988 -0.0733 -0.3527
 7420SOL    HW133722   0.519   3.416   2.796 -0.5798 -1.1641 -0.1648
 7420SOL    HW233723   0.409   3.517   2.787  1.8086  0.4461 -1.0644
 7421SOL     OW33724   4.019   0.878   4.762 -0.2831 -0.4183 -0.1413
 7421SOL    HW133725   4.040   0.801   4.814 -1.4005 -0.4354  0.2985
 7421SOL    HW233726   4.003   0.837   4.677  0.0696  0.3922 -0.5943
 7422SOL     OW33727   0.913   0.567   1.449 -0.2613  0.6826 -0.1650
 7422SOL    HW133728   0.966   0.643   1.472 -0.3330  0.3406  1.0894
 7422SOL    HW233729   0.915   0.574   1.353  0.2877 -2.4366 -0.3839
 7423SOL     OW33730   2.386   2.183   5.269 -0.0891 -0.3086  0.2308
 7423SOL    HW133731   2.354   2.240   5.198 -0.4844  0.0516  0.7040
 7423SOL    HW233732   2.425   2.244   5.331  0.7617  0.2926 -0.8918
 7424SOL     OW33733   1.562   1.919   2.790 -0.2275 -0.5739  0.5773
 7424SOL    HW133734   1.502   1.862   2.838  1.0582  0.0815  2.9797
 7424SOL    HW233735   1.521   2.005   2.791 -0.2745 -0.6309  3.5830
 7425SOL     OW33736   4.543   0.534   1.042  0.0759 -0.2320 -0.2642
 7425SOL    HW133737   4.488   0.601   1.001 -0.1874  0.9596  2.0605
 7425SOL    HW233738   4.527   0.458   0.985  1.6887 -0.7548 -0.0163
 7426SOL     OW33739   3.825   2.915   4.410  0.0912 -0.2786 -0.6792
 7426SOL    HW133740   3.775   2.862   4.348  1.0439  0.2686 -1.9344
 7426SOL    HW233741   3.896   2.942   4.351 -0.9891 -1.3331 -2.4654
 7427SOL     OW33742   1.393   1.052   9.811  0.0914  0.0687 -0.9977
 7427SOL    HW133743   1.302   1.074   9.832  1.6666  4.0805  1.5392
 7427SOL    HW233744   1.417   1.003   9.889  0.2447  2.0953  0.2144
 7428SOL     OW33745   4.687   3.236  11.401  0.8260  0.4454  0.7812
 7428SOL    HW133746   4.601   3.263  11.435  0.9980  0.6841  1.0256
 7428SOL    HW233747   4.698   3.315  11.348  1.5588  0.3676  0.8196
 7429SOL     OW33748   2.538   0.285   4.147  0.7150  0.1756  0.1276
 7429SOL    HW133749   2.448   0.311   4.128  0.9800  0.2520 -1.0318
 7429SOL    HW233750   2.529   0.243   4.232 -1.3355 -0.1553 -0.2483
 7430SOL     OW33751   1.816   0.441   2.602 -0.1367 -0.1869  1.0141
 7430SOL    HW133752   1.820   0.519   2.547 -2.1617 -0.8079  0.0059
 7430SOL    HW233753   1.888   0.391   2.563  0.4347  0.9745  0.5825
 7431SOL     OW33754   2.067   2.235   9.613  0.2218 -0.0221 -0.1186
 7431SOL    HW133755   2.025   2.182   9.544 -0.6064  1.3745 -0.6816
 7431SOL    HW233756   2.033   2.324   9.603  0.6620  0.5696  3.7127
 7432SOL     OW33757   3.198   1.904   7.604 -0.0762 -0.1342  0.0855
 7432SOL    HW133758   3.180   1.928   7.695 -2.5443  0.2021 -0.4906
 7432SOL    HW233759   3.251   1.826   7.622  0.0381 -0.2264 -0.6563
 7433SOL     OW33760   2.914   2.841   8.188 -0.3185  0.5488 -0.1019
 7433SOL    HW133761   2.961   2.922   8.206  1.5965 -0.6785  0.5158
 7433SOL    HW233762   2.980   2.781   8.223  1.1597  2.6701  0.7694
 7434SOL     OW33763   4.108   4.555   4.664 -0.2562  0.0382 -0.1076
 7434SOL    HW133764   4.079   4.486   4.604  1.6187  0.0614 -1.0345
 7434SOL    HW233765   4.188   4.594   4.629  0.0769  1.1035  1.8675
 7435SOL     OW33766   1.262   3.163   4.603  0.2479 -0.4220 -0.0627
 7435SOL    HW133767   1.214   3.245   4.619  0.8977  0.0714 -0.6214
 7435SOL    HW233768   1.340   3.202   4.563  0.5251 -1.4243 -0.4961
 7436SOL     OW33769   4.661   2.075   8.985 -0.4406 -0.3267  0.6985
 7436SOL    HW133770   0.020   2.106   9.030  0.0989  3.3270 -2.7634
 7436SOL    HW233771   4.593   2.069   9.052 -0.6676 -3.3329  0.2118
 7437SOL     OW33772   0.756   2.440   9.793  0.1412 -0.3450 -0.6378
 7437SOL    HW133773   0.834   2.448   9.847  0.1332  0.6216 -0.7630
 7437SOL    HW233774   0.795   2.464   9.709 -0.7087 -1.8100 -1.4543
 7438SOL     OW33775   1.768   0.954   5.881  0.0244 -0.0006  0.4269
 7438SOL    HW133776   1.834   1.013   5.844 -1.8734  2.3139  0.7681
 7438SOL    HW233777   1.752   0.995   5.967  0.5520 -1.5363  1.2638
 7439SOL     OW33778   2.298   2.271  13.904  0.7662  0.1628 -0.6741
 7439SOL    HW133779   2.219   2.321  13.881  0.1422 -1.2903 -1.6812
 7439SOL    HW233780   2.262   2.224  13.979 -1.6277  3.1806  0.0574
 7440SOL     OW33781   1.623   0.310  10.670 -0.0927 -0.2484 -0.3636
 7440SOL    HW133782   1.672   0.265  10.601  0.4281 -0.6465  0.2738
 7440SOL    HW233783   1.570   0.238  10.704  0.0948  0.2454  0.9698
 7441SOL     OW33784   2.667   3.123   6.090  0.0364 -0.3315 -0.3416
 7441SOL    HW133785   2.587   3.133   6.038  0.8209 -2.2934 -1.9487
 7441SOL    HW233786   2.635   3.139   6.178  2.3954  0.9357  0.2901
 7442SOL     OW33787   4.656   3.428   4.269  0.1879 -0.3491  0.2209
 7442SOL    HW133788   4.563   3.427   4.247 -0.1864 -1.2014  1.8900
 7442SOL    HW233789   4.660   3.470   4.355 -0.7671 -1.7493  0.9364
 7443SOL     OW33790   2.822   2.294   7.102 -0.3698 -0.4655  0.3466
 7443SOL    HW133791   2.886   2.225   7.117 -1.0918 -1.0243  0.8630
 7443SOL    HW233792   2.748   2.238   7.076 -0.5041 -0.6834  1.2229
 7444SOL     OW33793   1.807   0.179  17.641 -0.3437 -0.0128 -0.7942
 7444SOL    HW133794   1.837   0.197  17.552  0.6704  1.1985 -0.2153
 7444SOL    HW233795   1.728   0.233  17.641  0.1280  0.6829 -1.6088
 7445SOL     OW33796   3.351   1.419   0.101 -0.1275 -0.5061 -0.2459
 7445SOL    HW133797   3.394   1.407   0.016 -3.2325 -2.9707 -1.4783
 7445SOL    HW233798   3.320   1.333   0.128  0.3288 -0.9317 -1.0597
 7446SOL     OW33799   3.737   0.588   6.401 -0.3833 -0.1323 -0.2525
 7446SOL    HW133800   3.729   0.662   6.341  0.5124 -0.2246 -0.4896
 7446SOL    HW233801   3.825   0.598   6.436  0.0725 -1.3969 -1.0307
 7447SOL     OW33802   0.917   2.044   8.503  0.2273  0.1037 -0.1206
 7447SOL    HW133803   0.910   2.043   8.598 -0.5495  0.4811 -0.1706
 7447SOL    HW233804   0.839   2.092   8.474 -1.3987 -0.1980  3.8105
 7448SOL     OW33805   1.260   4.047   7.936  0.2839  0.7026 -0.4882
 7448SOL    HW133806   1.256   4.018   8.027  2.9194  0.2373 -0.5265
 7448SOL    HW233807   1.343   4.094   7.931  0.8911 -0.5532 -2.2512
 7449SOL     OW33808   0.049   1.160  12.313 -0.8461  0.2834 -0.2423
 7449SOL    HW133809   0.065   1.086  12.372  1.1751  1.6975  0.9517
 7449SOL    HW233810   0.087   1.123  12.233  1.0253  1.3050  0.1948
 7450SOL     OW33811   3.997   1.174   5.664  0.6053 -0.1864  0.1576
 7450SOL    HW133812   4.041   1.177   5.579 -0.2108  0.2666 -0.2504
 7450SOL    HW233813   4.049   1.111   5.714  0.9657  0.4292  0.5561
 7451SOL     OW33814   4.073   1.075   7.418 -0.2886 -0.2217 -0.1007
 7451SOL    HW133815   4.131   1.077   7.342 -0.2583 -1.8698 -0.1239
 7451SOL    HW233816   4.130   1.127   7.475  2.0043 -2.6927 -0.1608
 7452SOL     OW33817   2.645   1.694   8.365 -0.0148 -0.0570  0.2144
 7452SOL    HW133818   2.700   1.669   8.440  0.9520 -0.1512 -0.5285
 7452SOL    HW233819   2.566   1.652   8.401 -0.0513  0.0391  0.2461
 7453SOL     OW33820   0.020   1.498  14.219 -0.1522  0.2680 -0.0151
 7453SOL    HW133821   0.045   1.409  14.193  0.6968  0.0984  1.4054
 7453SOL    HW233822   0.065   1.547  14.150  0.8009 -0.2136  0.2715
 7454SOL     OW33823   4.666   3.778  10.371  0.0981  0.0370  0.2317
 7454SOL    HW133824   0.026   3.724  10.369  1.0408  1.4833 -1.9056
 7454SOL    HW233825   4.612   3.700  10.376  1.1627 -0.7219  0.0091
 7455SOL     OW33826   0.819   0.696   6.454  0.2239  0.2217  0.5060
 7455SOL    HW133827   0.850   0.666   6.539  0.8632 -2.9748 -0.8720
 7455SOL    HW233828   0.879   0.771   6.447 -0.4600  0.5166 -2.3326
 7456SOL     OW33829   3.667   3.024   0.519 -0.3756  0.9031  0.5165
 7456SOL    HW133830   3.727   2.949   0.519  1.4261  2.3784  2.2039
 7456SOL    HW233831   3.668   3.028   0.614 -0.9872 -0.2439  0.5795
 7457SOL     OW33832   1.588   0.445   7.965 -0.2371 -0.3120 -0.0804
 7457SOL    HW133833   1.566   0.366   8.013 -2.0384 -1.1549 -2.2480
 7457SOL    HW233834   1.612   0.513   8.028 -0.1019  0.3077 -0.7916
 7458SOL     OW33835   2.923   3.990   3.564 -0.7720  0.3735  0.1485
 7458SOL    HW133836   2.953   3.969   3.652 -2.0165 -1.4604  0.1435
 7458SOL    HW233837   2.838   4.032   3.579 -0.8534  0.7021 -1.2372
 7459SOL     OW33838   1.218   1.928   6.165 -0.0580  0.3680 -0.0047
 7459SOL    HW133839   1.195   1.881   6.084  2.5038  0.0576 -0.5608
 7459SOL    HW233840   1.312   1.913   6.154  0.2292  0.6645  2.0430
 7460SOL     OW33841   1.086   1.919   8.000  0.0608  0.1017  0.3972
 7460SOL    HW133842   1.054   1.830   7.984 -0.0807  0.4878 -1.4874
 7460SOL    HW233843   1.134   1.919   8.083 -0.9915 -2.9841  1.0236
 7461SOL     OW33844   1.974   2.593   1.900 -0.1823  0.2692 -0.0320
 7461SOL    HW133845   2.042   2.532   1.931 -1.4176 -0.7395  0.6904
 7461SOL    HW233846   1.947   2.634   1.983 -0.4080 -0.7282  0.3925
 7462SOL     OW33847   3.685   3.673   5.184 -0.2876  0.1929 -0.3145
 7462SOL    HW133848   3.627   3.614   5.136 -1.2047  0.8809 -0.0475
 7462SOL    HW233849   3.708   3.614   5.256  0.3640  2.0806  1.0189
 7463SOL     OW33850   0.111   2.907   5.405  0.0864 -0.5318  0.1154
 7463SOL    HW133851   0.067   2.828   5.436  0.9246 -0.5710  1.1946
 7463SOL    HW233852   0.192   2.871   5.370  0.5170 -1.1181  1.7186
 7464SOL     OW33853   3.903   4.253   3.044 -0.0752  0.2110  0.5090
 7464SOL    HW133854   3.827   4.282   3.094 -1.0975 -1.9608  0.1692
 7464SOL    HW233855   3.868   4.186   2.987 -0.8279  1.8781 -0.9948
 7465SOL     OW33856   4.688   0.894   8.457 -0.0063 -0.1608 -0.0966
 7465SOL    HW133857   0.026   0.951   8.507 -0.8183 -0.1279  0.7992
 7465SOL    HW233858   0.027   0.818   8.455 -0.1513 -0.2971  0.7690
 7466SOL     OW33859   3.921   2.019   4.828 -0.1809 -0.4121 -0.2830
 7466SOL    HW133860   3.868   2.048   4.754  0.6299 -1.1933 -1.1631
 7466SOL    HW233861   3.974   1.945   4.798  0.0972 -0.3990  0.1803
 7467SOL     OW33862   2.290   2.771  13.986  0.5078  0.1627  0.1354
 7467SOL    HW133863   2.330   2.684  13.988 -0.2941 -0.2336 -1.4576
 7467SOL    HW233864   2.350   2.812  13.924  1.1821 -0.0433  0.6471
 7468SOL     OW33865   3.933   2.826   1.110 -0.4286 -0.2223 -0.5354
 7468SOL    HW133866   4.014   2.812   1.160 -1.2922 -2.1868  0.2943
 7468SOL    HW233867   3.974   2.862   1.031  1.9699 -0.2628  0.6638
 7469SOL     OW33868   1.881   3.557   5.741  0.4316  0.4306  0.0470
 7469SOL    HW133869   1.947   3.516   5.797 -1.9634 -0.5698  2.1246
 7469SOL    HW233870   1.886   3.650   5.763 -0.5312  0.2223  1.1290
 7470SOL     OW33871   2.725   2.086   5.405 -0.0259 -0.4730 -0.1679
 7470SOL    HW133872   2.642   2.047   5.434 -1.5338  0.5690 -3.1500
 7470SOL    HW233873   2.785   2.021   5.443 -0.9553 -0.7284  0.8606
 7471SOL     OW33874   3.231   1.160   2.867  0.2399  0.2319 -0.7580
 7471SOL    HW133875   3.246   1.187   2.958 -2.6158 -1.0048  0.0422
 7471SOL    HW233876   3.138   1.142   2.875 -0.0736  2.0749 -0.1900
 7472SOL     OW33877   3.658   2.239   8.642 -0.0840  0.4064 -0.5996
 7472SOL    HW133878   3.682   2.330   8.626  2.1797 -0.2237 -0.8023
 7472SOL    HW233879   3.642   2.195   8.559  3.3547 -2.2750  0.1399
 7473SOL     OW33880   2.258   0.550   5.990 -0.2598  0.3077 -0.3220
 7473SOL    HW133881   2.301   0.566   5.906  1.6061 -0.8031  0.4371
 7473SOL    HW233882   2.223   0.637   6.012 -0.1707  0.1014  0.6266
 7474SOL     OW33883   2.890   0.350   7.609  0.6074 -0.2363  0.2574
 7474SOL    HW133884   2.838   0.325   7.533 -0.4497  2.8753 -0.0612
 7474SOL    HW233885   2.938   0.271   7.635  0.4790 -0.2711  0.3861
 7475SOL     OW33886   4.510   1.803   8.142 -0.0289 -0.3512  0.2100
 7475SOL    HW133887   4.418   1.777   8.144 -0.0342 -0.1611  2.6741
 7475SOL    HW233888   4.507   1.878   8.202  2.6252 -1.0600  1.2212
 7476SOL     OW33889   2.703   4.149   1.044  0.0035 -0.0562 -0.1161
 7476SOL    HW133890   2.729   4.209   0.975  0.8381  0.1474  0.3785
 7476SOL    HW233891   2.654   4.086   0.990  0.5528 -1.9612  1.6190
 7477SOL     OW33892   0.470   3.698   3.447  0.1749  0.0207 -0.0997
 7477SOL    HW133893   0.516   3.665   3.369  0.3494  0.7383 -0.3020
 7477SOL    HW233894   0.424   3.620   3.477 -1.7639  0.7329 -1.1893
 7478SOL     OW33895   4.549   2.707   4.178 -0.4276 -0.0011  0.0174
 7478SOL    HW133896   4.541   2.692   4.084 -0.7137  0.3572 -0.0150
 7478SOL    HW233897   4.455   2.707   4.193 -0.4686  1.1448 -0.2397
 7479SOL     OW33898   4.474   1.415   1.662 -0.4873 -0.5915  0.2873
 7479SOL    HW133899   4.388   1.451   1.685 -0.3256  0.7609 -1.2320
 7479SOL    HW233900   4.470   1.395   1.569 -0.4074  0.0991  0.1343
 7480SOL     OW33901   4.514   0.284  10.654 -0.3014  0.0575 -0.3002
 7480SOL    HW133902   4.508   0.251  10.744 -0.6087 -0.1820 -0.4064
 7480SOL    HW233903   4.509   0.379  10.660 -0.5552 -0.1726  2.8362
 7481SOL     OW33904   2.518   1.593  14.719 -0.2132 -0.1932 -0.0448
 7481SOL    HW133905   2.458   1.528  14.756 -1.7297  1.7216  0.8831
 7481SOL    HW233906   2.575   1.545  14.659 -0.3476 -0.2194 -0.1504
 7482SOL     OW33907   2.308   1.280   8.734  0.0059 -0.2864 -0.3048
 7482SOL    HW133908   2.360   1.224   8.677 -0.4753 -1.2376  0.1967
 7482SOL    HW233909   2.219   1.245   8.729 -0.0233 -0.2377 -0.1421
 7483SOL     OW33910   0.111   0.174   4.890  0.0546 -0.2453 -0.0361
 7483SOL    HW133911   0.139   0.098   4.839  0.5389 -0.4115  0.4802
 7483SOL    HW233912   0.109   0.241   4.821 -2.1315 -0.7875 -0.5021
 7484SOL     OW33913   0.885   2.323  16.791  0.2208  0.3157 -0.2808
 7484SOL    HW133914   0.896   2.300  16.883 -0.1955  3.3769  0.5231
 7484SOL    HW233915   0.822   2.258  16.759 -0.1753  0.7589 -0.3885
 7485SOL     OW33916   3.725   1.417  13.581  0.5815  0.0590  0.2922
 7485SOL    HW133917   3.754   1.505  13.605 -1.5797  1.1555 -1.1201
 7485SOL    HW233918   3.757   1.391  13.495 -2.5603 -0.5187 -0.7131
 7486SOL     OW33919   2.658   1.391   7.321 -0.6469 -0.3227 -0.1092
 7486SOL    HW133920   2.657   1.319   7.383  1.0516 -0.3000 -0.0367
 7486SOL    HW233921   2.660   1.460   7.387 -0.2315 -1.4457  1.0392
 7487SOL     OW33922   0.459   3.209  10.568  0.3484  0.0815 -0.4574
 7487SOL    HW133923   0.383   3.222  10.511  1.2997  1.2066 -1.4848
 7487SOL    HW233924   0.479   3.118  10.545  1.3454 -0.1101  1.1853
 7488SOL     OW33925   0.246   0.073  12.180 -0.1187 -0.1777  0.0031
 7488SOL    HW133926   0.340   0.055  12.175  0.1951  1.5410 -0.4897
 7488SOL    HW233927   0.214   4.717  12.133 -0.4754 -0.9244  1.4531
 7489SOL     OW33928   0.395   0.479  10.401 -0.4574 -0.3979 -0.4740
 7489SOL    HW133929   0.301   0.472  10.417 -0.5431 -0.0576 -0.8459
 7489SOL    HW233930   0.427   0.402  10.353  0.0682 -0.8433  0.5792
 7490SOL     OW33931   3.021   1.543   7.459 -0.1239  0.1631 -0.0484
 7490SOL    HW133932   2.963   1.569   7.388 -2.3789 -0.2108  1.6324
 7490SOL    HW233933   2.991   1.452   7.468 -1.1136  0.5766  0.8399
 7491SOL     OW33934   2.516   3.143   6.338  0.6685  0.3607 -0.2509
 7491SOL    HW133935   2.559   3.119   6.420 -1.3088  1.1128  1.0084
 7491SOL    HW233936   2.479   3.229   6.358  1.0484  0.3900  0.3302
 7492SOL     OW33937   0.065   4.545   2.531  0.7143  0.1518  0.2494
 7492SOL    HW133938   0.114   4.473   2.491  2.5220  1.2550  0.4769
 7492SOL    HW233939   0.126   4.616   2.547 -1.5053  2.2883 -0.8461
 7493SOL     OW33940   1.276   3.863  12.277 -0.8681 -0.5293  0.4773
 7493SOL    HW133941   1.256   3.821  12.360 -1.6702  0.6714  0.8829
 7493SOL    HW233942   1.207   3.837  12.216 -0.1124  1.3707 -1.1998
 7494SOL     OW33943   0.977   0.167  10.803  0.2747  0.3801 -0.2382
 7494SOL    HW133944   1.027   0.098  10.847 -1.1047  0.1392  0.9559
 7494SOL    HW233945   0.992   0.148  10.710 -3.6571 -0.8030 -0.6068
 7495SOL     OW33946   0.509   4.528   2.338 -0.5024 -0.1024  1.0779
 7495SOL    HW133947   0.600   4.554   2.328 -0.7542 -0.5877 -2.3152
 7495SOL    HW233948   0.474   4.602   2.289  0.7559 -0.0577  0.2464
 7496SOL     OW33949   2.030   2.964   9.619  0.1575  0.3263  0.6841
 7496SOL    HW133950   2.080   2.988   9.698 -0.8325 -1.9337  1.9901
 7496SOL    HW233951   2.045   3.038   9.560 -0.7535 -1.2522 -1.5183
 7497SOL     OW33952   0.814   4.548   0.141 -0.1167 -0.6748  0.6963
 7497SOL    HW133953   0.831   4.495   0.063 -2.7156  1.1560 -1.1333
 7497SOL    HW233954   0.821   4.636   0.105  0.3421 -1.0567 -0.1456
 7498SOL     OW33955   3.764   3.667  16.641  0.0671  0.1576 -0.1252
 7498SOL    HW133956   3.829   3.603  16.672 -0.0754  1.1452  2.1829
 7498SOL    HW233957   3.721   3.683  16.724  0.8406  1.7415 -0.0475
 7499SOL     OW33958   1.364   0.255   0.289 -0.0310 -0.0224 -0.4033
 7499SOL    HW133959   1.382   0.200   0.212  0.0881 -0.6740  0.0904
 7499SOL    HW233960   1.392   0.332   0.241 -1.8843  0.5421 -0.5934
 7500SOL     OW33961   2.192   2.361  12.009 -0.7383  0.3159 -0.3859
 7500SOL    HW133962   2.190   2.450  11.974 -2.4156 -0.0715 -1.2734
 7500SOL    HW233963   2.174   2.315  11.927 -2.5538  0.7203 -0.2098
 7501SOL     OW33964   4.172   0.521  11.888 -0.7345 -0.5987 -0.4166
 7501SOL    HW133965   4.213   0.514  11.802  1.1958 -2.5451  0.6656
 7501SOL    HW233966   4.204   0.437  11.920  1.0143 -0.4247 -1.7181
 7502SOL     OW33967   1.962   0.556   6.935  0.6435 -0.2912 -0.7165
 7502SOL    HW133968   2.045   0.530   6.896  0.5966  1.3069 -1.9010
 7502SOL    HW233969   1.974   0.536   7.027 -2.7468 -1.4085 -0.5069
 7503SOL     OW33970   3.559   2.785   3.044  0.7525  0.0439 -0.6371
 7503SOL    HW133971   3.605   2.804   2.962  0.2033  1.3441 -0.6539
 7503SOL    HW233972   3.518   2.871   3.052 -0.2785 -0.4818 -0.3228
 7504SOL     OW33973   2.165   3.364  15.834  0.0233 -0.1101 -0.2744
 7504SOL    HW133974   2.083   3.316  15.845 -0.2493  0.5578  0.5370
 7504SOL    HW233975   2.198   3.345  15.922 -2.8504  0.1334  0.8556
 7505SOL     OW33976   3.831   4.591   7.617 -0.8992  0.4135 -0.1078
 7505SOL    HW133977   3.774   4.602   7.541  0.3508  0.3332 -1.0442
 7505SOL    HW233978   3.908   4.554   7.573 -0.7632  1.3879 -0.6865
 7506SOL     OW33979   4.107   4.315   1.618 -0.0873 -0.2722 -0.0548
 7506SOL    HW133980   4.181   4.372   1.599 -1.5516  1.8212  0.4723
 7506SOL    HW233981   4.039   4.379   1.598  0.8992  0.0456 -2.3795
 7507SOL     OW33982   1.131   3.042   8.255 -0.7976 -0.4726  0.1106
 7507SOL    HW133983   1.089   2.969   8.301  0.2391 -1.3361 -0.2986
 7507SOL    HW233984   1.222   3.035   8.283 -0.3858 -1.7048 -1.5112
 7508SOL     OW33985   0.774   1.585  13.111 -0.1945 -0.1443 -0.6065
 7508SOL    HW133986   0.701   1.593  13.172  1.9598 -0.9999  2.0614
 7508SOL    HW233987   0.782   1.491  13.100  2.8399  0.0158  0.2791
 7509SOL     OW33988   1.905   2.923   6.441 -0.1226  0.4640  0.3616
 7509SOL    HW133989   1.864   2.848   6.397  0.5521  0.4240 -0.1984
 7509SOL    HW233990   1.898   2.984   6.367  0.7689  0.9381  0.6687
 7510SOL     OW33991   1.556   0.034   1.872  0.0865 -0.6387 -0.3490
 7510SOL    HW133992   1.547   0.121   1.911  0.8561 -1.2750  1.2506
 7510SOL    HW233993   1.557   0.066   1.781  0.3229  1.4967  0.3975
 7511SOL     OW33994   0.470   0.775   4.946 -0.3058  0.3140  0.7169
 7511SOL    HW133995   0.428   0.814   5.023 -0.5869  1.1438  0.1484
 7511SOL    HW233996   0.410   0.791   4.874  0.9193  0.1848 -0.3365
 7512SOL     OW33997   2.027   2.291   7.690  0.2655  0.4212  0.7741
 7512SOL    HW133998   2.015   2.366   7.749 -1.6545  0.3435  0.4809
 7512SOL    HW233999   2.096   2.244   7.738 -0.9836 -2.3818 -0.1948
 7513SOL     OW34000   0.626   2.880   9.855  0.0108 -0.0189  0.3167
 7513SOL    HW134001   0.698   2.927   9.815 -0.7827  1.6432  0.8538
 7513SOL    HW234002   0.549   2.934   9.839  1.7318  2.5517  0.6567
 7514SOL     OW34003   2.731   0.284   5.173  0.5300  0.1369 -0.5764
 7514SOL    HW134004   2.713   0.272   5.080 -0.5640 -1.6809 -0.1231
 7514SOL    HW234005   2.765   0.201   5.206  0.7511 -0.4032 -2.1795
 7515SOL     OW34006   2.613   0.982   3.323 -0.4632 -0.5339 -0.0452
 7515SOL    HW134007   2.639   1.074   3.328  0.0902 -0.6786 -0.3448
 7515SOL    HW234008   2.689   0.938   3.286 -0.6410 -0.6005 -0.3314
 7516SOL     OW34009   2.341   4.651   2.618 -0.1004  0.0738 -0.0410
 7516SOL    HW134010   2.353   4.614   2.530 -1.5454  1.1157 -0.6689
 7516SOL    HW234011   2.246   4.645   2.615 -0.0453 -1.1821  0.8522
 7517SOL     OW34012   4.574   0.440   6.054  0.3166  0.2108  0.5925
 7517SOL    HW134013   4.665   0.424   6.077  0.7497  3.2899  0.9838
 7517SOL    HW234014   4.552   0.508   6.117  0.6967  1.2398 -0.3760
 7518SOL     OW34015   3.636   3.599   8.465  0.1948 -0.1697 -0.2568
 7518SOL    HW134016   3.675   3.677   8.506  0.0846 -0.3436  0.1767
 7518SOL    HW234017   3.604   3.638   8.383 -1.0675 -2.2990 -0.7713
 7519SOL     OW34018   2.888   0.534   5.470 -0.3351 -0.0977  0.0931
 7519SOL    HW134019   2.876   0.599   5.539  0.4209  1.7469 -1.5132
 7519SOL    HW234020   2.847   0.574   5.393  1.1384  1.0869 -0.0752
 7520SOL     OW34021   0.334   1.670  12.880  0.2310 -0.1736  0.2453
 7520SOL    HW134022   0.429   1.665  12.878  0.1885 -0.4781 -1.1057
 7520SOL    HW234023   0.322   1.652  12.786  0.1046 -0.7891  0.3765
 7521SOL     OW34024   1.961   0.058   8.841  0.3960 -0.2484  0.4172
 7521SOL    HW134025   2.022   0.039   8.912 -1.1874  1.1612  2.1526
 7521SOL    HW234026   1.942   0.149   8.861 -0.4216 -0.1851 -0.6696
 7522SOL     OW34027   0.454   2.480   5.601 -0.7866 -0.1019 -0.2275
 7522SOL    HW134028   0.475   2.479   5.694 -2.7840 -2.7570  0.1675
 7522SOL    HW234029   0.375   2.533   5.607 -0.3494  0.3221  1.6439
 7523SOL     OW34030   3.989   2.099  14.593  0.4113 -0.2259  0.0033
 7523SOL    HW134031   3.952   2.063  14.673  1.0782  2.4235  1.4883
 7523SOL    HW234032   4.017   2.016  14.554 -0.3591 -0.3508 -0.2715
 7524SOL     OW34033   0.356   1.119   0.542 -0.5489 -0.7997  0.2352
 7524SOL    HW134034   0.407   1.122   0.461 -0.4360 -1.7989  0.2783
 7524SOL    HW234035   0.341   1.214   0.539 -2.8482 -1.1465  0.4591
 7525SOL     OW34036   0.819   4.189   5.258 -0.0175 -0.7656  0.1527
 7525SOL    HW134037   0.884   4.240   5.210 -0.7742 -0.6986 -0.7995
 7525SOL    HW234038   0.737   4.234   5.241  0.3467 -0.2361 -0.2111
 7526SOL     OW34039   4.539   4.066   2.128 -0.5253 -0.3197  0.2804
 7526SOL    HW134040   4.566   3.976   2.113 -0.7841 -0.4196  0.4125
 7526SOL    HW234041   4.446   4.066   2.149 -1.0073 -0.3594 -1.9513
 7527SOL     OW34042   1.197   0.494   5.096  0.0377 -0.5552 -0.2343
 7527SOL    HW134043   1.147   0.464   5.172  0.8188  0.3064  0.6198
 7527SOL    HW234044   1.178   0.588   5.095  0.9817 -0.3134  3.4475
 7528SOL     OW34045   3.523   1.135   4.451  0.0430  0.1151 -0.3292
 7528SOL    HW134046   3.506   1.055   4.500  0.7766 -0.3650 -0.8566
 7528SOL    HW234047   3.480   1.106   4.371 -1.4875  0.4352  0.3905
 7529SOL     OW34048   3.223   2.046   8.665 -0.0240 -0.4820  0.1199
 7529SOL    HW134049   3.243   2.043   8.571  0.4524 -0.9272  0.2333
 7529SOL    HW234050   3.291   1.990   8.701  0.7327 -0.6994 -1.6338
 7530SOL     OW34051   3.277   1.179   5.034 -0.3676  0.5155  0.1501
 7530SOL    HW134052   3.213   1.250   5.026  0.1979  1.2277  1.8743
 7530SOL    HW234053   3.264   1.162   5.127 -2.4451  0.8166 -0.1013
 7531SOL     OW34054   2.949   0.381   3.474  0.4698  0.4788 -0.0385
 7531SOL    HW134055   2.854   0.372   3.475  0.4639  0.5925  0.3688
 7531SOL    HW234056   2.966   0.422   3.390 -2.9150  0.5526 -0.6808
 7532SOL     OW34057   3.197   0.788  17.159  0.1403 -0.8287  0.3050
 7532SOL    HW134058   3.103   0.789  17.144 -0.1089 -0.0635  1.8451
 7532SOL    HW234059   3.225   0.832  17.079  1.3044 -3.4221 -0.7127
 7533SOL     OW34060   2.351   3.015   2.086 -0.5215  0.0920 -0.3271
 7533SOL    HW134061   2.320   2.991   1.999 -0.1822  1.9269 -0.9592
 7533SOL    HW234062   2.275   2.989   2.138 -0.6165 -0.5525 -0.7898
 7534SOL     OW34063   0.437   0.619   5.653 -0.1995 -0.3290 -0.0493
 7534SOL    HW134064   0.524   0.635   5.617  0.2852 -0.7247  0.9504
 7534SOL    HW234065   0.374   0.661   5.595  1.4810  0.1693 -1.5266
 7535SOL     OW34066   4.647   0.830   3.679  0.2145  0.0599  0.1541
 7535SOL    HW134067   4.716   0.822   3.746 -0.1692  0.7763  0.6246
 7535SOL    HW234068   4.602   0.747   3.696 -0.1450  0.2234 -0.0108
 7536SOL     OW34069   3.843   3.900  16.921 -0.1696 -0.0027 -0.3562
 7536SOL    HW134070   3.888   3.832  16.871 -0.0627 -1.3203  1.5194
 7536SOL    HW234071   3.753   3.867  16.922 -0.5375  1.0255  0.2333
 7537SOL     OW34072   3.509   1.393   5.203  0.4934  0.1467 -0.1527
 7537SOL    HW134073   3.594   1.381   5.247  0.1548  1.0643  0.7697
 7537SOL    HW234074   3.530   1.349   5.122 -1.3435  0.2266 -0.6764
 7538SOL     OW34075   2.170   3.399   5.948 -0.0912 -0.4129  0.3172
 7538SOL    HW134076   2.213   3.424   5.866  0.0940  0.7076  0.7527
 7538SOL    HW234077   2.149   3.307   5.929  0.0307 -0.5452  0.8139
 7539SOL     OW34078   2.950   2.605   8.676 -0.0800 -0.0514  0.3114
 7539SOL    HW134079   2.866   2.650   8.661 -0.1968 -1.3246 -2.9439
 7539SOL    HW234080   2.981   2.652   8.753 -0.8203  0.4534  0.3096
 7540SOL     OW34081   4.671   2.916   3.623  0.3118  0.3601 -0.2382
 7540SOL    HW134082   4.669   2.894   3.530 -2.3714 -0.3637 -0.0022
 7540SOL    HW234083   4.576   2.912   3.635  0.4278  0.2365  0.6599
 7541SOL     OW34084   0.243   0.181  10.359 -0.7570  0.2726 -0.1680
 7541SOL    HW134085   0.217   0.100  10.316 -0.0003  0.8254 -1.6366
 7541SOL    HW234086   0.167   0.198  10.415  0.2142 -0.1451  1.2887
 7542SOL     OW34087   1.454   2.269   1.911 -0.7063  0.6881  0.5471
 7542SOL    HW134088   1.494   2.223   1.984 -0.4635 -0.2087 -0.1521
 7542SOL    HW234089   1.363   2.267   1.940 -0.3438 -1.8357  1.4609
 7543SOL     OW34090   2.507   0.859   6.658 -0.1666 -0.2092  0.0087
 7543SOL    HW134091   2.473   0.947   6.673 -0.1278  0.1077 -1.7530
 7543SOL    HW234092   2.423   0.824   6.628 -0.4626  1.3849 -1.0262
 7544SOL     OW34093   1.652   0.235  16.127  0.2038  0.1134 -0.2434
 7544SOL    HW134094   1.586   0.285  16.176 -0.4739 -1.6917  0.7123
 7544SOL    HW234095   1.670   0.292  16.053  4.9891 -1.3831 -0.2278
 7545SOL     OW34096   0.012   0.337   5.361  0.1381  0.6085  0.0949
 7545SOL    HW134097   0.038   0.338   5.269  1.0088 -1.4224  0.3346
 7545SOL    HW234098   0.047   0.253   5.389  0.1224  0.0073 -1.6935
 7546SOL     OW34099   0.702   0.978  10.329 -0.1627 -0.0093  0.1072
 7546SOL    HW134100   0.745   0.969  10.414 -1.3393 -1.3196  0.5721
 7546SOL    HW234101   0.648   1.056  10.346 -0.1793 -0.1910  0.8647
 7547SOL     OW34102   1.963   3.095  14.250  0.0201 -0.2972 -0.5371
 7547SOL    HW134103   1.902   3.024  14.271  1.1381 -0.6448  1.5604
 7547SOL    HW234104   2.018   3.064  14.178  1.1407  0.9562 -0.2019
 7548SOL     OW34105   2.781   3.962   2.470  0.2164  0.2450 -0.3139
 7548SOL    HW134106   2.733   3.955   2.388  1.7655  1.9835 -1.3669
 7548SOL    HW234107   2.713   3.948   2.535 -0.0227  2.3903 -0.1076
 7549SOL     OW34108   1.525   1.824  10.060 -0.3300  0.2136 -0.3286
 7549SOL    HW134109   1.618   1.829  10.037 -0.7887 -0.1980 -2.2637
 7549SOL    HW234110   1.499   1.747  10.010  1.8719  0.4467 -1.8417
 7550SOL     OW34111   4.678   2.225   4.330  0.8059  0.7404 -0.2348
 7550SOL    HW134112   4.707   2.147   4.283  3.2752  1.6267 -0.1541
 7550SOL    HW234113   4.665   2.276   4.251  0.3367  1.1919  0.1279
 7551SOL     OW34114   2.553   4.384   6.838 -0.0327 -0.4724 -0.4176
 7551SOL    HW134115   2.501   4.315   6.879 -0.4291  0.7490  1.1328
 7551SOL    HW234116   2.505   4.461   6.869 -1.0923 -1.1655 -0.3336
 7552SOL     OW34117   0.701   4.155  11.061  0.4233  0.2799  0.7626
 7552SOL    HW134118   0.674   4.064  11.048  2.0785  0.1400 -1.5635
 7552SOL    HW234119   0.624   4.211  11.072  1.0714  0.9726  1.7692
 7553SOL     OW34120   0.517   3.348   6.721  0.1899 -0.3337 -0.1854
 7553SOL    HW134121   0.582   3.351   6.791 -0.0713 -1.2525  0.0870
 7553SOL    HW234122   0.472   3.271   6.755  1.7194 -1.6746 -1.1657
 7554SOL     OW34123   1.159   0.007   1.859  0.7666  0.4592  0.1688
 7554SOL    HW134124   1.143   4.717   1.765  1.8985  1.3311 -0.1062
 7554SOL    HW234125   1.089   4.676   1.902 -0.3461  0.9936 -0.9875
 7555SOL     OW34126   0.207   4.202  14.433  0.0494  0.4149 -1.2237
 7555SOL    HW134127   0.149   4.278  14.446 -1.9286 -1.5856  1.6973
 7555SOL    HW234128   0.285   4.253  14.414 -0.4663  1.3984 -0.7311
 7556SOL     OW34129   4.242   2.809   2.175 -0.2236  0.1877  1.1257
 7556SOL    HW134130   4.167   2.850   2.131  1.6970  0.7621 -1.6621
 7556SOL    HW234131   4.223   2.716   2.164 -1.9002  0.6878 -0.3194
 7557SOL     OW34132   1.997   4.028   1.094  0.0121  0.3450 -0.1476
 7557SOL    HW134133   2.075   3.990   1.133 -0.3955  0.9078  1.2136
 7557SOL    HW234134   2.014   4.005   1.003  3.1958 -0.5690  0.7053
 7558SOL     OW34135   0.793   4.476   4.700  0.3315  0.3146  0.5911
 7558SOL    HW134136   0.825   4.441   4.783  0.2821  0.3660  0.6319
 7558SOL    HW234137   0.730   4.543   4.724 -0.7532  0.4718 -2.6349
 7559SOL     OW34138   2.904   0.271  13.484  0.5481 -0.1817  0.5724
 7559SOL    HW134139   2.909   0.226  13.400 -1.4668 -0.0809  0.4052
 7559SOL    HW234140   2.943   0.357  13.472  0.5220 -0.3092 -0.4068
 7560SOL     OW34141   0.211   4.554  13.835  0.0215 -0.3393 -0.3362
 7560SOL    HW134142   0.138   4.507  13.877 -0.0500 -0.0483 -0.1311
 7560SOL    HW234143   0.209   4.515  13.748  1.7135  0.1626 -0.5767
 7561SOL     OW34144   0.690   1.874   2.108  0.2091  0.4062 -0.5222
 7561SOL    HW134145   0.714   1.793   2.062 -0.2343  0.7478 -1.3482
 7561SOL    HW234146   0.759   1.936   2.083  1.3081 -1.2235 -1.5554
 7562SOL     OW34147   1.012   1.107  10.929 -0.0311  0.0813 -0.2092
 7562SOL    HW134148   0.922   1.123  10.902 -0.2967 -1.2472 -0.1117
 7562SOL    HW234149   1.011   1.013  10.946  1.2214  0.1415  0.2557
 7563SOL     OW34150   3.511   3.974   6.111 -0.0343 -0.0069 -0.4582
 7563SOL    HW134151   3.562   3.898   6.083  0.9372 -0.4664  2.5234
 7563SOL    HW234152   3.588   4.025   6.137  0.5247 -0.4247 -1.3091
 7564SOL     OW34153   3.814   0.323   4.902  0.1377  0.3827 -0.2695
 7564SOL    HW134154   3.807   0.418   4.898 -0.8704  0.3787  1.0353
 7564SOL    HW234155   3.725   0.298   4.927  0.2767 -1.7025 -1.8681
 7565SOL     OW34156   3.025   2.621   3.371 -0.6442  0.1325  0.5737
 7565SOL    HW134157   2.969   2.699   3.368  0.1187  0.7170  1.4476
 7565SOL    HW234158   2.960   2.567   3.327 -1.4202  1.1390  0.4931
 7566SOL     OW34159   1.112   3.892   0.465 -0.0375 -0.2869  0.3627
 7566SOL    HW134160   1.202   3.890   0.497  0.5929  0.0616 -1.3871
 7566SOL    HW234161   1.085   3.975   0.504  2.0522  0.2025  0.7792
 7567SOL     OW34162   3.359   2.085   7.942  0.3606  0.2031  0.3380
 7567SOL    HW134163   3.368   2.058   7.850 -1.0556  0.4737  0.1167
 7567SOL    HW234164   3.376   2.179   7.939  0.3149  0.1665 -1.2416
 7568SOL     OW34165   3.473   1.970   2.538 -0.0752  0.1667 -0.0202
 7568SOL    HW134166   3.510   1.886   2.512  0.4268  0.5684 -0.6246
 7568SOL    HW234167   3.458   1.956   2.632  0.3051  2.5587  0.4107
 7569SOL     OW34168   3.168   0.838  16.625 -0.4730 -0.5256 -0.3531
 7569SOL    HW134169   3.135   0.826  16.536 -0.2772  3.8901 -1.0135
 7569SOL    HW234170   3.214   0.757  16.650 -1.7662 -1.1639 -0.0737
 7570SOL     OW34171   1.120   3.743   0.201 -0.0968 -0.3625  0.7751
 7570SOL    HW134172   1.111   3.805   0.273  0.7435  1.7141 -0.9105
 7570SOL    HW234173   1.038   3.747   0.152  0.0003 -2.8633  0.3570
 7571SOL     OW34174   3.164   4.686  14.373  0.2738  0.1382  0.7425
 7571SOL    HW134175   3.172   4.591  14.376 -0.1817  0.1272  1.3917
 7571SOL    HW234176   3.232   4.716  14.433  1.0226  1.1439 -0.6146
 7572SOL     OW34177   2.148   1.696   6.549  0.5333 -0.1818  0.0045
 7572SOL    HW134178   2.153   1.625   6.613 -0.5623  0.4370  0.7823
 7572SOL    HW234179   2.064   1.734   6.573 -0.1370 -0.5273 -1.8004
 7573SOL     OW34180   3.644   2.023   3.326  0.4087  0.3696  0.2962
 7573SOL    HW134181   3.679   2.095   3.379 -3.1557 -0.2392  3.4340
 7573SOL    HW234182   3.557   2.019   3.364 -0.6801  0.5037 -2.2137
 7574SOL     OW34183   0.274   1.240   8.848 -0.0118 -0.1844 -0.7703
 7574SOL    HW134184   0.253   1.302   8.779 -0.9231 -1.3612 -1.5553
 7574SOL    HW234185   0.189   1.195   8.847  0.5864 -1.2683 -1.7161
 7575SOL     OW34186   3.628   0.520   1.232  0.0344  0.4595  0.4374
 7575SOL    HW134187   3.550   0.514   1.175 -0.0683 -0.0318  0.6344
 7575SOL    HW234188   3.676   0.591   1.190 -0.5788 -1.3363 -3.3880
 7576SOL     OW34189   4.535   4.505   6.787 -0.2866  0.2157 -0.2654
 7576SOL    HW134190   4.575   4.418   6.792  1.7841  1.2403  0.8210
 7576SOL    HW234191   4.592   4.551   6.725  2.4180 -1.2094  1.1780
 7577SOL     OW34192   1.223   2.236   2.383  0.8962 -0.8964  0.0947
 7577SOL    HW134193   1.214   2.161   2.326  0.5822  0.1338 -1.2121
 7577SOL    HW234194   1.227   2.206   2.474 -1.4287 -1.4665  0.0008
 7578SOL     OW34195   1.126   1.343   3.186 -0.7288 -0.0482  0.1278
 7578SOL    HW134196   1.034   1.319   3.189 -0.7808  0.1991  0.5386
 7578SOL    HW234197   1.135   1.378   3.097 -0.9090  1.3172  0.6503
 7579SOL     OW34198   3.182   2.363   0.334  0.1505  0.1640 -0.0225
 7579SOL    HW134199   3.216   2.274   0.325  1.0341  0.4728  0.1663
 7579SOL    HW234200   3.144   2.373   0.247  0.5520  0.0242 -0.2160
 7580SOL     OW34201   2.725   4.607   5.120 -0.2677 -0.1368  0.0298
 7580SOL    HW134202   2.650   4.643   5.073 -1.5926 -1.1262  1.3878
 7580SOL    HW234203   2.749   4.538   5.059  1.3463  0.6346 -0.2051
 7581SOL     OW34204   0.778   0.866  17.366 -0.8336  0.2172 -0.1416
 7581SOL    HW134205   0.855   0.918  17.388 -2.0554  2.4317 -1.0871
 7581SOL    HW234206   0.722   0.935  17.331 -0.0056  0.0705 -1.7307
 7582SOL     OW34207   0.405   1.502   0.952  0.5643 -0.1932  0.1377
 7582SOL    HW134208   0.372   1.565   1.016 -1.0220 -1.0962  0.2229
 7582SOL    HW234209   0.498   1.499   0.972  0.3761 -1.1781  0.9150
 7583SOL     OW34210   4.262   0.452  10.386 -0.2454 -0.5951  0.0047
 7583SOL    HW134211   4.266   0.540  10.348  0.3805 -0.0886  1.2735
 7583SOL    HW234212   4.169   0.426  10.381 -0.5085  0.1427  1.0945
 7584SOL     OW34213   1.737   2.613  14.341 -0.4288 -0.2320 -0.4101
 7584SOL    HW134214   1.748   2.540  14.280 -0.4468 -1.3622  0.9442
 7584SOL    HW234215   1.643   2.600  14.337 -0.6718  1.5056 -0.3601
 7585SOL     OW34216   3.628   2.614   1.573  0.3819 -0.2708 -0.0088
 7585SOL    HW134217   3.614   2.555   1.498  1.3999 -0.8222  0.2347
 7585SOL    HW234218   3.628   2.703   1.538  0.0041  0.2594  1.3514
 7586SOL     OW34219   4.408   2.877   7.472  0.2733  0.9310  0.8031
 7586SOL    HW134220   4.482   2.819   7.487  0.2316  0.9205  0.9652
 7586SOL    HW234221   4.396   2.916   7.558  0.4539  1.7860  0.4438
 7587SOL     OW34222   1.433   1.856   0.898 -0.2464  0.2899 -0.0407
 7587SOL    HW134223   1.434   1.851   0.993 -1.2965 -1.0612 -0.1039
 7587SOL    HW234224   1.509   1.806   0.869  1.0348  2.0876  0.2131
 7588SOL     OW34225   2.407   3.562   3.220 -0.4751  0.5849  0.6793
 7588SOL    HW134226   2.407   3.632   3.154  0.3425  1.4664  1.6207
 7588SOL    HW234227   2.429   3.485   3.166  0.1625  0.4489  1.1362
 7589SOL     OW34228   3.290   3.729   6.008 -0.4291  0.6845 -0.3179
 7589SOL    HW134229   3.376   3.691   6.028 -0.7099  0.8953  1.2883
 7589SOL    HW234230   3.283   3.711   5.914  5.0317  0.2188 -0.6429
 7590SOL     OW34231   3.051   1.111   9.145  0.0570 -0.2636 -0.2872
 7590SOL    HW134232   3.100   1.175   9.092 -0.2904 -0.1104 -0.4217
 7590SOL    HW234233   2.964   1.114   9.105 -1.0462 -1.6973  1.9806
 7591SOL     OW34234   4.081   2.945   4.155  0.0830 -0.3592  0.2136
 7591SOL    HW134235   4.118   3.006   4.219  1.1751  1.2519 -1.9606
 7591SOL    HW234236   4.001   2.986   4.120  0.3708  0.1462  0.1435
 7592SOL     OW34237   3.953   2.369  10.164 -0.1883  0.4913  0.1902
 7592SOL    HW134238   3.954   2.460  10.193 -0.3033  0.8859 -1.0174
 7592SOL    HW234239   4.029   2.337  10.213 -0.9382 -0.8608  0.4597
 7593SOL     OW34240   0.587   1.763   7.447 -0.2364  0.0748  0.4616
 7593SOL    HW134241   0.584   1.691   7.384  0.4254  0.5228 -0.0734
 7593SOL    HW234242   0.661   1.741   7.504  0.6011 -2.1387 -1.4461
 7594SOL     OW34243   0.358   0.201  12.416 -0.2546 -0.6947 -0.3213
 7594SOL    HW134244   0.281   0.253  12.438  1.5767  1.1817  1.6530
 7594SOL    HW234245   0.326   0.174  12.330  1.1386  0.5570 -1.2440
 7595SOL     OW34246   1.691   1.919  12.059  0.2163  0.2100  0.1178
 7595SOL    HW134247   1.685   1.894  12.151  1.2395 -0.0401  0.1068
 7595SOL    HW234248   1.784   1.908  12.042 -0.3133  1.5106 -3.6680
 7596SOL     OW34249   2.026   2.647   4.483 -0.0603 -0.7877 -0.4755
 7596SOL    HW134250   2.105   2.599   4.508 -1.4657 -1.6358  2.4332
 7596SOL    HW234251   2.059   2.736   4.493 -2.4062  0.0940 -0.4367
 7597SOL     OW34252   1.644   0.492  14.747  0.1931  0.1791  0.0612
 7597SOL    HW134253   1.731   0.453  14.760 -0.6964 -1.3739  1.3917
 7597SOL    HW234254   1.643   0.479  14.652 -0.1180 -0.7752  0.1942
 7598SOL     OW34255   4.490   0.306   0.860  0.4540 -0.0500 -0.8775
 7598SOL    HW134256   4.485   0.212   0.879  1.6715  0.0946  0.1140
 7598SOL    HW234257   4.403   0.326   0.826 -0.0813 -0.8018  0.0144
 7599SOL     OW34258   3.570   2.233   4.515  0.0463  0.0245  0.1145
 7599SOL    HW134259   3.478   2.209   4.516  0.9794 -3.7214  0.5000
 7599SOL    HW234260   3.569   2.315   4.467 -1.9761 -0.6338 -0.9535
 7600SOL     OW34261   0.725   3.514   6.421 -0.3557  0.3220 -0.0090
 7600SOL    HW134262   0.719   3.583   6.355 -0.7448  0.0799 -0.2244
 7600SOL    HW234263   0.630   3.509   6.432 -0.6281  0.3605 -2.3388
 7601SOL     OW34264   0.662   3.864   8.768 -0.1224  0.2540 -0.6057
 7601SOL    HW134265   0.622   3.946   8.797  0.3934  0.1999  0.2811
 7601SOL    HW234266   0.589   3.805   8.750 -0.1459 -0.6212  2.3793
 7602SOL     OW34267   2.133   1.443   3.184 -0.8401  0.6298 -0.6716
 7602SOL    HW134268   2.144   1.531   3.148  2.4002  0.4490 -0.1068
 7602SOL    HW234269   2.149   1.387   3.108 -0.6120 -1.4191  0.9015
 7603SOL     OW34270   0.479   1.257  10.139 -0.2653 -0.2181 -0.0237
 7603SOL    HW134271   0.455   1.244  10.231 -0.5024  1.1382  0.1126
 7603SOL    HW234272   0.462   1.351  10.130 -3.2301 -0.7406 -0.1084
 7604SOL     OW34273   2.582   4.380   5.337 -0.2991 -0.2931  0.2712
 7604SOL    HW134274   2.616   4.453   5.389 -0.6275 -2.2058  3.1852
 7604SOL    HW234275   2.532   4.423   5.267  0.1237 -1.6993 -0.8880
 7605SOL     OW34276   2.103   0.143   6.634  0.0617 -0.1764  0.7196
 7605SOL    HW134277   2.036   0.207   6.657 -0.4409 -0.5787  0.3528
 7605SOL    HW234278   2.135   0.180   6.552  3.0768 -1.5963  1.2505
 7606SOL     OW34279   3.177   1.436   8.778  0.3501 -0.0528 -0.6044
 7606SOL    HW134280   3.122   1.433   8.700  0.7479 -0.8672 -0.8672
 7606SOL    HW234281   3.265   1.434   8.740 -0.0718  1.4834 -1.6292
 7607SOL     OW34282   3.687   4.003   3.810  0.6676 -0.1149  0.3655
 7607SOL    HW134283   3.716   4.094   3.818 -0.8229  0.4052 -0.2189
 7607SOL    HW234284   3.764   3.956   3.843 -0.0052  0.0390  2.1606
 7608SOL     OW34285   0.907   4.334   1.015 -0.6194 -0.1961 -0.3855
 7608SOL    HW134286   0.987   4.289   1.043 -0.3850  0.1805 -0.4401
 7608SOL    HW234287   0.928   4.417   0.971 -0.7187 -0.0767 -0.2085
 7609SOL     OW34288   3.101   0.090   0.162 -0.3614  0.3215 -0.1078
 7609SOL    HW134289   3.187   0.106   0.200 -0.2737 -1.0508  0.2676
 7609SOL    HW234290   3.059   0.175   0.175 -2.9029 -1.2245  1.8775
 7610SOL     OW34291   2.399   2.172  13.643  0.3252 -0.5363 -1.0985
 7610SOL    HW134292   2.454   2.232  13.592 -0.6386  0.0996 -1.4096
 7610SOL    HW234293   2.365   2.228  13.714  0.2585  0.2166 -1.7235
 7611SOL     OW34294   4.514   3.557   2.735 -0.0989 -0.5349  0.4067
 7611SOL    HW134295   4.586   3.519   2.684 -0.9620  1.7154 -2.4544
 7611SOL    HW234296   4.558   3.642   2.739 -0.2289 -0.5760  2.5410
 7612SOL     OW34297   1.697   4.625  17.639 -0.2223  0.1240  0.0980
 7612SOL    HW134298   1.727   4.716  17.643 -1.2111  0.4239  0.5871
 7612SOL    HW234299   1.682   4.623  17.544 -1.1522 -0.8135  0.2701
 7613SOL     OW34300   4.665   4.384  13.919  0.7919 -0.0650 -1.0082
 7613SOL    HW134301   4.609   4.429  13.856 -0.6083 -0.4230 -0.0164
 7613SOL    HW234302   4.625   4.402  14.003 -0.6478 -1.3285 -1.4353
 7614SOL     OW34303   1.981   3.132   2.081  0.0919  0.2286 -0.2420
 7614SOL    HW134304   1.997   3.226   2.082  2.5954 -0.2086  0.6008
 7614SOL    HW234305   1.906   3.114   2.025  0.0588  1.4249 -0.5779
 7615SOL     OW34306   3.905   1.862   8.591 -0.0126 -0.6849  0.0724
 7615SOL    HW134307   3.923   1.801   8.519  1.2830  1.8130 -1.7115
 7615SOL    HW234308   3.992   1.903   8.591  0.8687 -2.5854 -1.2887
 7616SOL     OW34309   0.600   1.500   1.404 -0.8358 -0.1783  0.1561
 7616SOL    HW134310   0.516   1.527   1.441 -0.1244  0.5729  1.2380
 7616SOL    HW234311   0.587   1.408   1.382  0.5771 -0.3360 -0.0617
 7617SOL     OW34312   2.737   4.405   3.644 -0.4856 -0.3664  0.0178
 7617SOL    HW134313   2.757   4.399   3.738  0.3816 -1.2782 -0.2190
 7617SOL    HW234314   2.642   4.401   3.646 -0.5794  1.0006 -2.0143
 7618SOL     OW34315   3.214   2.860   5.507  0.8608  0.0198  0.3852
 7618SOL    HW134316   3.205   2.798   5.435 -1.9903 -0.1640  0.9182
 7618SOL    HW234317   3.134   2.906   5.482  0.6874 -0.2972  0.3585
 7619SOL     OW34318   0.301   2.788  17.507  0.7520  0.1099  0.3628
 7619SOL    HW134319   0.369   2.833  17.458 -1.6469  2.4841 -0.7996
 7619SOL    HW234320   0.232   2.842  17.470 -1.0450 -3.1568 -1.1032
 7620SOL     OW34321   1.275   0.597  11.671  0.6141  0.0596 -0.5801
 7620SOL    HW134322   1.326   0.647  11.735  0.6396 -0.2839 -0.3323
 7620SOL    HW234323   1.255   0.668  11.610  1.9230 -0.5401 -1.7150
 7621SOL     OW34324   4.660   2.661  15.202 -0.5622  0.1772  0.0415
 7621SOL    HW134325   4.691   2.749  15.223  1.0912 -0.0195 -1.6333
 7621SOL    HW234326   0.004   2.649  15.132  2.3841 -2.4182  3.2003
 7622SOL     OW34327   4.189   3.387   6.039  0.3090  0.4504 -0.1348
 7622SOL    HW134328   4.118   3.451   6.037 -0.3614 -0.2340  1.6720
 7622SOL    HW234329   4.185   3.352   6.128 -1.7309  1.0425  0.0038
 7623SOL     OW34330   2.084   0.492   4.397 -0.2124  0.0967  0.1361
 7623SOL    HW134331   2.075   0.426   4.465  0.1342 -0.1952 -0.1035
 7623SOL    HW234332   2.116   0.563   4.453  0.4544  0.0191 -0.1450
 7624SOL     OW34333   4.549   1.952   6.732 -0.0608  0.1214  0.3756
 7624SOL    HW134334   4.483   1.884   6.723  0.5791 -0.3972 -0.3488
 7624SOL    HW234335   4.627   1.904   6.760  0.9299  2.2542  1.2611
 7625SOL     OW34336   0.686   0.818  16.043 -0.6413  0.4499  0.6456
 7625SOL    HW134337   0.755   0.809  16.108  0.9421  0.0326 -1.1115
 7625SOL    HW234338   0.635   0.748  16.086 -0.3800  1.5903  2.8146
 7626SOL     OW34339   0.411   0.994  15.549 -0.0306 -0.4020  0.1544
 7626SOL    HW134340   0.419   1.041  15.633 -0.1729  0.3517 -0.2550
 7626SOL    HW234341   0.384   1.067  15.493 -1.6703  1.4505  3.3486
 7627SOL     OW34342   0.397   1.531   8.791 -0.0344 -0.1484  0.8083
 7627SOL    HW134343   0.326   1.506   8.732 -0.1312 -1.4821  1.4796
 7627SOL    HW234344   0.410   1.616   8.750 -1.2722 -0.0448  0.6082
 7628SOL     OW34345   2.020   2.752  11.497 -0.0411  0.7147  0.1009
 7628SOL    HW134346   2.084   2.818  11.524  1.4519 -0.5809 -0.2751
 7628SOL    HW234347   1.999   2.713  11.582 -1.0093 -0.8460 -0.8505
 7629SOL     OW34348   0.150   2.528  10.540 -0.2811  0.4135  0.1520
 7629SOL    HW134349   0.202   2.570  10.471 -1.2044 -0.1026 -0.8503
 7629SOL    HW234350   0.103   2.459  10.494  0.1330  0.0102  0.3387
 7630SOL     OW34351   2.265   3.441   3.935  0.0035  0.3746 -0.6586
 7630SOL    HW134352   2.357   3.431   3.962 -0.4932  0.0213  0.8895
 7630SOL    HW234353   2.280   3.498   3.860  0.5195  1.5600  0.3468
 7631SOL     OW34354   1.830   1.698   7.969  0.1725 -0.2289 -0.0548
 7631SOL    HW134355   1.879   1.780   7.966  0.1036 -0.2113 -0.6478
 7631SOL    HW234356   1.900   1.633   7.983  0.4297 -0.1421 -0.9404
 7632SOL     OW34357   1.591   3.863   8.490 -0.3048  0.1838  0.0506
 7632SOL    HW134358   1.575   3.912   8.409 -1.3667 -1.6747 -0.8712
 7632SOL    HW234359   1.610   3.778   8.448 -0.5592 -0.0079  0.3225
 7633SOL     OW34360   2.001   3.147   6.833  0.1469  0.8190  0.0064
 7633SOL    HW134361   2.021   3.166   6.741 -0.0330  2.1117  0.2289
 7633SOL    HW234362   1.919   3.098   6.823  0.0216  0.7822  1.2269
 7634SOL     OW34363   2.146   3.142   5.839  0.1134 -0.1198  0.5993
 7634SOL    HW134364   2.241   3.139   5.846  0.2504 -0.8214 -1.4787
 7634SOL    HW234365   2.137   3.096   5.755  1.0174  1.3575 -0.3079
 7635SOL     OW34366   2.916   3.560   0.571  0.2140  0.1486 -0.3094
 7635SOL    HW134367   2.901   3.589   0.661 -1.4222  1.1537 -0.9110
 7635SOL    HW234368   2.835   3.511   0.555  1.4232 -1.4388 -1.6358
 7636SOL     OW34369   2.931   1.165  10.447  0.4795  0.0679 -0.2483
 7636SOL    HW134370   2.931   1.208  10.532  0.0154  0.3047 -0.3663
 7636SOL    HW234371   2.976   1.083  10.465 -0.2529 -0.0861  0.8825
 7637SOL     OW34372   0.991   0.365   4.836 -0.1255 -0.2559  0.7431
 7637SOL    HW134373   0.906   0.409   4.838  0.6558  1.3168 -0.0629
 7637SOL    HW234374   1.000   0.358   4.931 -2.6391  0.6880  1.0601
 7638SOL     OW34375   0.432   1.508   1.743 -0.2695 -0.1934 -0.3172
 7638SOL    HW134376   0.421   1.600   1.767 -2.5794  0.2854 -3.2773
 7638SOL    HW234377   0.387   1.501   1.659 -0.0126  1.8329 -0.6171
 7639SOL     OW34378   4.473   1.695   2.180  0.0619  0.2036  0.2649
 7639SOL    HW134379   4.499   1.725   2.267 -0.6750 -0.8949  0.8710
 7639SOL    HW234380   4.543   1.630   2.169  1.2737  1.3312  1.3423
 7640SOL     OW34381   0.081   2.599  12.174  0.9324 -0.4860 -0.1769
 7640SOL    HW134382   0.044   2.684  12.197  2.5339 -0.4133  2.0407
 7640SOL    HW234383   0.011   2.563  12.118  0.1864 -0.6785  0.8779
 7641SOL     OW34384   1.489   1.572  16.790  0.3380  0.5443 -0.2495
 7641SOL    HW134385   1.437   1.493  16.774  0.6496 -0.0978  1.9976
 7641SOL    HW234386   1.427   1.603  16.855 -0.0622 -0.4902 -0.1268
 7642SOL     OW34387   2.539   2.939   1.306 -0.1474 -0.5342  0.4393
 7642SOL    HW134388   2.505   3.009   1.361 -2.0347 -0.6765 -0.5468
 7642SOL    HW234389   2.539   2.858   1.357 -1.9305 -0.8608 -0.0991
 7643SOL     OW34390   1.623   3.374   9.398 -0.6717 -0.3139 -0.4428
 7643SOL    HW134391   1.563   3.313   9.441 -2.5637  1.4100 -0.6465
 7643SOL    HW234392   1.650   3.308   9.335 -1.2911 -0.6315 -0.3787
 7644SOL     OW34393   2.992   1.805  15.856 -0.0859  0.0817 -0.1345
 7644SOL    HW134394   2.969   1.897  15.868  1.6728  0.0192  3.7367
 7644SOL    HW234395   3.085   1.813  15.833  0.1007 -0.2595  0.5064
 7645SOL     OW34396   1.536   2.181   6.308  0.5287 -0.1296  0.1686
 7645SOL    HW134397   1.530   2.255   6.368 -0.8795  0.3537 -0.5549
 7645SOL    HW234398   1.628   2.157   6.312  0.6933  0.4106 -0.3320
 7646SOL     OW34399   0.976   2.564   1.871 -0.1690 -0.0150  0.2580
 7646SOL    HW134400   0.946   2.643   1.916 -0.7007  1.0381 -1.9511
 7646SOL    HW234401   1.065   2.589   1.849 -0.6903  0.4104 -1.3714
 7647SOL     OW34402   2.284   2.472   5.820 -0.0229 -0.6570  0.0312
 7647SOL    HW134403   2.235   2.552   5.800  1.7569  0.4025 -0.1506
 7647SOL    HW234404   2.299   2.477   5.915  2.0532 -0.7851 -0.2755
 7648SOL     OW34405   3.359   1.930   1.988 -0.5241 -0.4669 -0.2409
 7648SOL    HW134406   3.328   1.843   1.962  0.0034 -0.1177 -1.9956
 7648SOL    HW234407   3.406   1.908   2.069 -2.5337  1.3728  1.4206
 7649SOL     OW34408   1.179   1.958   0.306 -0.4818 -0.6462  0.4157
 7649SOL    HW134409   1.135   1.882   0.343 -0.0591 -0.2666  1.7121
 7649SOL    HW234410   1.096   2.004   0.300 -0.6354 -0.8455  0.9984
 7650SOL     OW34411   2.718   3.395   5.342 -0.2330  0.0852 -0.2643
 7650SOL    HW134412   2.709   3.381   5.248  1.3294 -1.9545 -0.1170
 7650SOL    HW234413   2.683   3.484   5.346 -1.3558 -0.3565 -0.1943
 7651SOL     OW34414   2.000   2.028   0.290 -0.7864  0.1328  0.5326
 7651SOL    HW134415   2.019   2.116   0.324 -1.8221  0.9982 -1.1197
 7651SOL    HW234416   2.056   1.964   0.335  0.9328  0.7841 -0.6793
 7652SOL     OW34417   4.161   0.608   4.785  0.2758 -0.2238  0.1636
 7652SOL    HW134418   4.098   0.562   4.731  2.7662  0.0208 -2.9688
 7652SOL    HW234419   4.128   0.584   4.872  1.1581  0.1567  0.6100
 7653SOL     OW34420   1.012   2.256   4.042 -0.0325  0.5997  0.4654
 7653SOL    HW134421   1.034   2.170   4.077  0.7638  1.0277  1.0121
 7653SOL    HW234422   1.051   2.264   3.956 -0.6983 -0.1400  0.0955
 7654SOL     OW34423   2.375   2.755   0.254 -0.0031  0.6280 -0.0649
 7654SOL    HW134424   2.346   2.786   0.339 -0.4311  1.5843 -0.5646
 7654SOL    HW234425   2.398   2.664   0.275 -0.7958  0.3922 -0.2031
 7655SOL     OW34426   0.581   4.099   8.082 -0.6744 -0.3981 -0.3133
 7655SOL    HW134427   0.654   4.047   8.118  0.0044  2.2594  2.0908
 7655SOL    HW234428   0.526   4.116   8.158  0.1831 -0.6169  0.3682
 7656SOL     OW34429   0.349   3.250   7.519 -0.0225 -0.0928 -0.0610
 7656SOL    HW134430   0.277   3.187   7.531  0.1092 -0.4226 -1.0332
 7656SOL    HW234431   0.293   3.323   7.492 -1.1479 -0.0105  2.4649
 7657SOL     OW34432   2.999   0.113   4.921  0.3489  0.0855 -0.1055
 7657SOL    HW134433   2.993   0.057   4.844 -0.1904 -1.5158  1.0948
 7657SOL    HW234434   3.020   0.048   4.988 -1.0982  0.6093  0.8619
 7658SOL     OW34435   0.666   0.210   6.194  0.0266 -0.1729  0.1724
 7658SOL    HW134436   0.574   0.185   6.185 -0.8346  2.9459  0.5262
 7658SOL    HW234437   0.661   0.267   6.117  3.3628 -1.6303 -1.1501
 7659SOL     OW34438   4.452   2.937   6.580 -0.0935 -0.4682  0.5792
 7659SOL    HW134439   4.372   2.888   6.599  0.4397 -1.8533 -0.7572
 7659SOL    HW234440   4.525   2.906   6.634 -1.7729 -1.2566  2.4296
 7660SOL     OW34441   1.684   3.726   0.457  0.0116  0.1023  0.1576
 7660SOL    HW134442   1.680   3.706   0.551 -1.1761  0.1429  0.1092
 7660SOL    HW234443   1.648   3.645   0.421  1.5342 -1.4048  2.0612
 7661SOL     OW34444   1.380   4.282  13.565  0.5335 -0.0073  0.0720
 7661SOL    HW134445   1.401   4.313  13.653  1.9263 -0.5673 -0.0778
 7661SOL    HW234446   1.286   4.272  13.584  0.0910 -0.6447 -2.4242
 7662SOL     OW34447   1.627   4.273   1.212  0.4354  0.5036  0.2304
 7662SOL    HW134448   1.648   4.279   1.305 -0.5102  1.0519  0.4125
 7662SOL    HW234449   1.700   4.325   1.181  0.6844  0.5508  0.9041
 7663SOL     OW34450   0.393   4.403   7.517  0.5762 -0.5218 -0.1693
 7663SOL    HW134451   0.455   4.430   7.449 -1.2555  1.1690 -1.1792
 7663SOL    HW234452   0.447   4.433   7.590  1.4879 -0.2541 -0.9590
 7664SOL     OW34453   1.579   2.477  12.803  0.8984  0.0980  0.1066
 7664SOL    HW134454   1.586   2.409  12.737 -1.7674  1.3377 -1.4763
 7664SOL    HW234455   1.584   2.555  12.747  1.4436 -0.1869 -0.2384
 7665SOL     OW34456   4.466   0.009  11.061  0.5910 -0.2755  0.5068
 7665SOL    HW134457   4.527   4.670  11.105  1.5939  0.3654 -0.0182
 7665SOL    HW234458   4.383   4.692  11.091  0.7219 -1.4451 -0.5805
 7666SOL     OW34459   3.758   4.701   8.539 -0.0221 -0.1332  0.0149
 7666SOL    HW134460   3.740   0.012   8.628  0.1550 -0.6266  0.2191
 7666SOL    HW234461   3.839   4.652   8.557 -0.2393 -0.2408  0.7005
 7667SOL     OW34462   0.918   1.503  15.280 -0.1963  0.7469  1.1240
 7667SOL    HW134463   1.011   1.499  15.301 -0.2903  1.8721  1.7493
 7667SOL    HW234464   0.916   1.572  15.213 -1.0548  1.0115  1.4159
 7668SOL     OW34465   0.974   3.676   6.312 -0.2231  0.3872  0.0575
 7668SOL    HW134466   0.990   3.687   6.218 -0.5604 -0.5211 -0.1140
 7668SOL    HW234467   0.949   3.584   6.299  0.8082 -0.0899  1.5475
 7669SOL     OW34468   0.121   1.721   6.480  0.5933  0.2357 -0.5081
 7669SOL    HW134469   0.051   1.737   6.417 -0.1095  0.3178  0.2932
 7669SOL    HW234470   0.201   1.751   6.437  0.7922 -3.0385 -2.4625
 7670SOL     OW34471   4.233   4.648   8.754  0.3283  0.0412 -0.6101
 7670SOL    HW134472   4.267   4.707   8.822 -0.3528  0.4088 -0.5905
 7670SOL    HW234473   4.270   4.691   8.677 -1.5174  1.6933 -0.5880
 7671SOL     OW34474   0.234   2.536   8.475  0.2116 -0.3262  0.6036
 7671SOL    HW134475   0.286   2.607   8.512 -0.4965  0.3520  0.3150
 7671SOL    HW234476   0.153   2.563   8.518  0.6306  2.4827 -0.3530
 7672SOL     OW34477   1.482   3.805   3.884 -0.6865  0.3282 -0.4456
 7672SOL    HW134478   1.427   3.857   3.943 -2.2846  0.9149 -2.4501
 7672SOL    HW234479   1.416   3.789   3.816 -0.0836 -0.3266 -0.8791
 7673SOL     OW34480   0.015   3.981  10.541  0.5520  0.1148  0.1869
 7673SOL    HW134481   4.675   4.053  10.522  2.0878  1.5906  1.0120
 7673SOL    HW234482   4.714   3.918  10.472 -1.7765  1.6330 -0.4877
 7674SOL     OW34483   2.629   4.566   8.116  0.0724 -0.0106 -0.1527
 7674SOL    HW134484   2.569   4.492   8.110  2.2200 -1.7749 -0.0959
 7674SOL    HW234485   2.576   4.621   8.172 -0.4288  2.4594 -3.0644
 7675SOL     OW34486   1.205   2.417   0.398  0.2613 -0.8994  0.5282
 7675SOL    HW134487   1.175   2.344   0.452 -2.7459  1.9856  2.7025
 7675SOL    HW234488   1.301   2.413   0.401  0.2290 -1.1000  1.2402
 7676SOL     OW34489   2.520   0.698  14.746  0.3884  0.0694  0.4157
 7676SOL    HW134490   2.548   0.693  14.655 -0.6930 -0.5975  0.1282
 7676SOL    HW234491   2.581   0.769  14.768  0.7118  0.0220 -0.3443
 7677SOL     OW34492   2.602   1.272  16.701 -0.0276  0.3921 -0.0558
 7677SOL    HW134493   2.587   1.201  16.638 -0.3466  0.6305 -0.2515
 7677SOL    HW234494   2.615   1.338  16.632  2.7098 -1.2740 -1.1281
 7678SOL     OW34495   3.305   0.653   4.693 -0.1341 -0.5277  0.3969
 7678SOL    HW134496   3.218   0.630   4.658 -0.6082  2.7004 -0.6116
 7678SOL    HW234497   3.351   0.570   4.684  1.8372  0.8466 -1.9847
 7679SOL     OW34498   4.623   4.529   2.927 -0.2666 -0.2386  0.0846
 7679SOL    HW134499   4.685   4.465   2.963  0.0398  0.5834  1.0335
 7679SOL    HW234500   4.550   4.503   2.983 -0.4857  2.1081  0.8643
 7680SOL     OW34501   0.080   0.348   7.597 -0.6584 -0.2704 -0.3639
 7680SOL    HW134502   0.039   0.329   7.513  0.7913 -0.7696 -0.9560
 7680SOL    HW234503   0.022   0.421   7.618  0.3615  0.0645  1.2672
 7681SOL     OW34504   2.247   0.932   9.099  0.5334  0.0809  0.1888
 7681SOL    HW134505   2.285   0.849   9.127 -3.2877 -2.3004 -1.6821
 7681SOL    HW234506   2.169   0.938   9.154 -1.2659  0.6698 -2.4298
 7682SOL     OW34507   0.890   0.164   2.341 -0.0211 -0.2735 -0.0861
 7682SOL    HW134508   0.849   0.116   2.413  0.8931  0.5180  0.9561
 7682SOL    HW234509   0.820   0.156   2.277 -0.8234  3.1922  0.3274
 7683SOL     OW34510   1.934   0.870   2.237 -0.5149 -0.1592 -0.3770
 7683SOL    HW134511   1.970   0.793   2.280  0.7393  1.6096  1.7083
 7683SOL    HW234512   1.962   0.936   2.300  0.9566  0.1050 -1.3146
 7684SOL     OW34513   2.346   3.247   1.044  0.0792  0.0120  0.4999
 7684SOL    HW134514   2.306   3.161   1.029  0.8720 -0.1097 -0.8715
 7684SOL    HW234515   2.354   3.250   1.140  2.0353  0.2004  0.3245
 7685SOL     OW34516   4.118   1.021  15.194 -0.5440  0.0726 -0.2486
 7685SOL    HW134517   4.063   0.954  15.236 -1.6520 -0.3428 -2.3757
 7685SOL    HW234518   4.203   0.985  15.218 -0.3379 -0.2184 -1.4014
 7686SOL     OW34519   4.264   3.919  16.862 -0.2522 -0.0805  0.8042
 7686SOL    HW134520   4.318   3.987  16.903 -0.9982  0.6498  0.5849
 7686SOL    HW234521   4.319   3.843  16.876 -1.7668 -1.3338 -0.0490
 7687SOL     OW34522   4.701   4.684   4.156  0.4319 -0.0895 -0.6699
 7687SOL    HW134523   4.693   0.005   4.070 -3.9158 -0.9035 -0.6354
 7687SOL    HW234524   4.671   0.031   4.217  0.7186 -1.2107  0.7047
 7688SOL     OW34525   4.193   2.311  16.855 -0.0428 -0.4056  0.2023
 7688SOL    HW134526   4.132   2.383  16.840 -2.2466 -1.9140  1.9649
 7688SOL    HW234527   4.225   2.349  16.937 -0.6734 -0.2016  0.3519
 7689SOL     OW34528   0.723   0.794   3.396 -0.1347  0.0441  0.8270
 7689SOL    HW134529   0.753   0.882   3.375  0.6614 -0.5425 -0.4347
 7689SOL    HW234530   0.641   0.814   3.442 -0.0419 -0.8446  1.3712
 7690SOL     OW34531   4.615   2.850   8.592  0.1304 -0.0678 -0.0137
 7690SOL    HW134532   4.688   2.892   8.637 -0.7929  1.5198 -0.0071
 7690SOL    HW234533   4.564   2.926   8.564 -1.8191 -1.1911  0.4771
 7691SOL     OW34534   1.367   1.217   8.355 -0.6008 -0.3851  0.3893
 7691SOL    HW134535   1.362   1.313   8.349 -0.7780 -0.3668  0.7991
 7691SOL    HW234536   1.379   1.196   8.447 -2.6593 -0.4931  0.6518
 7692SOL     OW34537   1.268   1.894   5.406 -0.3977  0.1952 -0.0149
 7692SOL    HW134538   1.239   1.970   5.456 -1.5685  1.3785 -2.4738
 7692SOL    HW234539   1.205   1.894   5.334  0.8044 -0.6246 -1.0765
 7693SOL     OW34540   4.208   3.478  10.421 -0.1137 -0.0718 -0.7901
 7693SOL    HW134541   4.223   3.564  10.461  0.2933 -0.6514  0.3067
 7693SOL    HW234542   4.192   3.430  10.502  0.1042 -0.5350 -1.0261
 7694SOL     OW34543   2.083   3.991   1.447 -0.1834  0.1230 -0.0443
 7694SOL    HW134544   2.175   4.007   1.468 -0.6808  2.2995  0.4666
 7694SOL    HW234545   2.047   3.997   1.536 -1.1111 -1.1464 -0.3405
 7695SOL     OW34546   2.652   2.639   8.635 -0.1900  0.5793 -0.1304
 7695SOL    HW134547   2.623   2.549   8.645  0.9908  0.5734  2.9557
 7695SOL    HW234548   2.644   2.656   8.541 -0.0211  2.1628  0.1304
 7696SOL     OW34549   2.665   0.022   6.205 -0.4852 -0.6304  0.5039
 7696SOL    HW134550   2.684   4.700   6.289 -1.7307 -0.7759  0.7101
 7696SOL    HW234551   2.583   4.701   6.179  0.2459 -1.4806 -0.4795
 7697SOL     OW34552   4.396   3.273  13.150  0.0015 -0.0388  0.3005
 7697SOL    HW134553   4.304   3.269  13.175  0.2163  0.2448  1.1413
 7697SOL    HW234554   4.425   3.182  13.145  0.2257  0.0285  0.3755
 7698SOL     OW34555   3.135   3.166   5.852 -0.0575 -0.1973 -0.8074
 7698SOL    HW134556   3.168   3.206   5.933  1.1168 -0.3771 -1.1915
 7698SOL    HW234557   3.104   3.079   5.876 -0.7317  0.0946 -0.6365
 7699SOL     OW34558   1.012   3.225  12.548  0.0316  0.3610  0.2348
 7699SOL    HW134559   0.989   3.183  12.631  0.8177 -0.9843 -0.2245
 7699SOL    HW234560   1.044   3.150  12.498  0.6802  1.0191 -0.3311
 7700SOL     OW34561   0.081   1.329   1.479  0.2776  0.1122  0.2452
 7700SOL    HW134562   0.066   1.235   1.489 -0.7804  0.5484  2.9561
 7700SOL    HW234563   0.153   1.326   1.416 -1.8650 -1.8281 -2.1041
 7701SOL     OW34564   0.992   0.469   3.421  0.6075  0.2820 -0.0424
 7701SOL    HW134565   0.989   0.373   3.421  1.9012  0.2446  0.0705
 7701SOL    HW234566   0.899   0.476   3.443  0.4428 -1.2156 -0.2307
 7702SOL     OW34567   2.108   4.250   6.118 -0.3934 -1.1538  0.2731
 7702SOL    HW134568   2.145   4.224   6.203  0.9933 -1.0861 -0.3054
 7702SOL    HW234569   2.020   4.276   6.145  0.6183  1.0699  1.4351
 7703SOL     OW34570   2.013   1.087   6.914 -0.4356 -0.0748 -0.3847
 7703SOL    HW134571   2.075   1.024   6.951 -0.5333  1.6378  2.7009
 7703SOL    HW234572   1.960   1.111   6.990  1.6100  0.4931  0.8795
 7704SOL     OW34573   1.959   0.583   6.098  0.1441  0.3511 -0.6475
 7704SOL    HW134574   1.956   0.601   6.004  1.6215 -1.5636 -1.0787
 7704SOL    HW234575   2.041   0.630   6.111 -0.8024  1.9222 -0.4738
 7705SOL     OW34576   4.521   4.720   5.087  0.1715  0.4954  0.7018
 7705SOL    HW134577   4.511   0.074   5.146 -0.1284  0.5576  0.5743
 7705SOL    HW234578   4.432   4.684   5.090 -0.4110  1.6913 -1.7016
 7706SOL     OW34579   3.870   2.627   3.891 -0.6750  0.4555  0.4360
 7706SOL    HW134580   3.800   2.564   3.904  1.8964 -2.4344  0.2857
 7706SOL    HW234581   3.913   2.580   3.819 -1.4388  0.0230  0.2599
 7707SOL     OW34582   1.698   0.268  13.826  0.3783  0.3383  0.3063
 7707SOL    HW134583   1.723   0.344  13.772 -1.0363  1.5620  1.3760
 7707SOL    HW234584   1.670   0.201  13.763  0.5965 -0.8683  1.5007
 7708SOL     OW34585   3.036   3.548  11.965 -0.2557  0.1521  0.2068
 7708SOL    HW134586   3.123   3.554  12.006 -1.6607 -1.4204  3.4292
 7708SOL    HW234587   3.056   3.587  11.880  0.6216  1.2682  0.9203
 7709SOL     OW34588   2.182   0.411   3.852 -0.4897 -0.5138 -0.7198
 7709SOL    HW134589   2.142   0.447   3.931  0.9469 -2.4426  0.8728
 7709SOL    HW234590   2.243   0.348   3.891 -0.0370 -0.1846 -0.9028
 7710SOL     OW34591   3.433   4.658   2.842 -0.4845  0.3254  0.6140
 7710SOL    HW134592   3.357   4.629   2.791 -3.1136  1.7917  3.7072
 7710SOL    HW234593   3.492   4.595   2.801 -1.0989 -1.3139  2.2718
 7711SOL     OW34594   2.962   3.771   4.385  0.2606  0.3852  0.1092
 7711SOL    HW134595   2.944   3.695   4.330  2.1732  0.3044 -0.3873
 7711SOL    HW234596   2.981   3.836   4.318 -1.1559 -0.5388 -1.2054
 7712SOL     OW34597   1.455   0.730   6.110 -0.2282  0.2218  0.9300
 7712SOL    HW134598   1.413   0.803   6.065  0.0722  0.1051  0.4672
 7712SOL    HW234599   1.389   0.696   6.171 -1.2249  1.6122  0.6165
 7713SOL     OW34600   2.599   1.920  10.141  0.7166  0.5176  0.5714
 7713SOL    HW134601   2.537   1.900  10.211 -0.2026 -2.7956 -1.2215
 7713SOL    HW234602   2.538   1.966  10.082  0.2465 -0.8174  0.0237
 7714SOL     OW34603   0.308   0.044   9.071 -0.7549 -0.4421  0.5931
 7714SOL    HW134604   0.284   0.122   9.022 -1.2078 -0.4917  0.7335
 7714SOL    HW234605   0.392   0.028   9.028 -1.8812 -0.5843 -1.5414
 7715SOL     OW34606   0.938   0.071  13.926  0.5249  0.1756  0.8695
 7715SOL    HW134607   1.016   0.060  13.981 -0.3475  2.3660  2.5677
 7715SOL    HW234608   0.885   0.000  13.963  0.0883 -0.2379 -0.5731
 7716SOL     OW34609   4.195   0.909   8.891  0.3483  0.1595 -0.2740
 7716SOL    HW134610   4.272   0.967   8.894  1.3836 -1.2698  0.7756
 7716SOL    HW234611   4.127   0.974   8.911 -0.2459 -0.4266 -0.3827
 7717SOL     OW34612   1.446   2.556   3.305  0.3917  0.2424 -0.6141
 7717SOL    HW134613   1.371   2.606   3.336 -0.8173 -1.8156 -0.1852
 7717SOL    HW234614   1.502   2.629   3.280 -0.7120  1.1049 -0.5388
 7718SOL     OW34615   0.045   2.400   2.308 -0.2175 -0.3164 -0.0675
 7718SOL    HW134616   0.012   2.488   2.326 -1.4855 -1.0931  1.3628
 7718SOL    HW234617   0.125   2.402   2.362 -0.7599 -0.9334  0.7497
 7719SOL     OW34618   4.636   2.013   7.400  0.1452 -0.5079  0.8605
 7719SOL    HW134619   4.576   2.038   7.470  0.4921  2.4438  0.1056
 7719SOL    HW234620   4.691   1.950   7.447 -0.3385 -0.2912  1.7240
 7720SOL     OW34621   1.295   3.390   8.692  0.5756 -0.4373 -0.3866
 7720SOL    HW134622   1.323   3.390   8.600 -3.1480  3.2983 -1.5237
 7720SOL    HW234623   1.378   3.373   8.736  0.6227  0.4073 -0.1434
 7721SOL     OW34624   2.761   1.256   4.446  0.4480  0.3140  0.2080
 7721SOL    HW134625   2.738   1.317   4.517  1.2001  1.6988 -0.7359
 7721SOL    HW234626   2.853   1.243   4.469  0.6914 -2.6559 -2.5222
 7722SOL     OW34627   2.827   3.446  17.229 -0.2138 -0.1017 -0.4374
 7722SOL    HW134628   2.865   3.495  17.156 -0.0658  1.0399  0.4066
 7722SOL    HW234629   2.823   3.523  17.284  0.3577  0.3688 -1.0548
 7723SOL     OW34630   2.649   2.697  16.250  1.0862  0.0019 -0.6151
 7723SOL    HW134631   2.672   2.790  16.246  2.4741 -0.3991 -1.8694
 7723SOL    HW234632   2.574   2.695  16.190  0.0224  1.2883  0.6512
 7724SOL     OW34633   4.431   1.755   9.127 -0.6825 -0.6585  0.1027
 7724SOL    HW134634   4.412   1.844   9.157  2.0262  0.2309 -0.8508
 7724SOL    HW234635   4.409   1.770   9.035 -0.8104  0.2410  0.2841
 7725SOL     OW34636   1.343   3.149   5.232  0.0038  0.5401 -0.3920
 7725SOL    HW134637   1.394   3.122   5.308  0.0791  0.9828 -0.2886
 7725SOL    HW234638   1.349   3.063   5.189  0.7519  0.3217  0.1540
 7726SOL     OW34639   1.710   2.455  12.219 -0.4531 -0.5036  0.3005
 7726SOL    HW134640   1.787   2.509  12.197 -1.5577  0.4394 -1.3059
 7726SOL    HW234641   1.668   2.498  12.293  2.4356  0.4135  1.4146
 7727SOL     OW34642   2.333   3.961  12.751  0.0373  0.1789  0.3365
 7727SOL    HW134643   2.383   3.978  12.831 -1.1383 -0.9748  1.3113
 7727SOL    HW234644   2.398   3.995  12.690  0.0143 -0.4917 -0.0536
 7728SOL     OW34645   1.774   0.093  16.734 -0.1097  1.0369 -0.1484
 7728SOL    HW134646   1.728   0.013  16.758  1.0757  0.1941 -0.6495
 7728SOL    HW234647   1.709   0.147  16.689 -0.8015 -0.6666 -1.1803
 7729SOL     OW34648   0.640   4.291   0.174  0.0184 -0.2037 -0.5825
 7729SOL    HW134649   0.598   4.356   0.117  1.1508  0.5968 -0.5120
 7729SOL    HW234650   0.590   4.213   0.153  1.1736 -0.5711 -1.9468
 7730SOL     OW34651   3.296   4.012   5.932  0.0329  0.0819 -0.0849
 7730SOL    HW134652   3.363   4.061   5.884 -0.0212 -0.4817 -0.7437
 7730SOL    HW234653   3.340   3.943   5.982 -1.9873  0.4987  2.2661
 7731SOL     OW34654   2.751   1.352  10.900 -0.2681 -0.2662  0.0835
 7731SOL    HW134655   2.740   1.381  10.990 -1.1563 -0.0191 -0.1062
 7731SOL    HW234656   2.664   1.320  10.876  0.3865 -1.5795 -0.5253
 7732SOL     OW34657   2.784   2.562   3.736  0.0109  0.7740  0.3037
 7732SOL    HW134658   2.866   2.535   3.695  0.0158 -4.1063  3.4465
 7732SOL    HW234659   2.738   2.593   3.658 -1.9430 -1.7304  0.4578
 7733SOL     OW34660   3.869   1.500   4.875 -0.2600 -0.7136  0.5404
 7733SOL    HW134661   3.861   1.416   4.921 -1.1086 -0.5323  0.7261
 7733SOL    HW234662   3.789   1.498   4.823  0.0604  1.4680 -0.0177
 7734SOL     OW34663   4.426   2.770  16.612  0.0167  0.1622  0.0910
 7734SOL    HW134664   4.361   2.745  16.677 -1.3507 -0.3492 -1.4690
 7734SOL    HW234665   4.445   2.859  16.642  1.4278  0.2015 -0.9236
 7735SOL     OW34666   3.400   4.460   8.052 -0.2808  0.2223 -0.2486
 7735SOL    HW134667   3.350   4.394   8.099  0.9239  0.3903  1.2785
 7735SOL    HW234668   3.339   4.477   7.980 -0.2282 -0.5356 -0.4722
 7736SOL     OW34669   2.728   0.037   8.823  0.3873  0.0156  0.2573
 7736SOL    HW134670   2.675   0.065   8.898  0.5454  0.1661  0.3139
 7736SOL    HW234671   2.763   4.670   8.843 -0.8735 -0.5790 -0.0918
 7737SOL     OW34672   4.456   0.547   2.404 -0.2957  0.0155 -0.1952
 7737SOL    HW134673   4.446   0.461   2.363 -2.6909  0.3881 -0.4107
 7737SOL    HW234674   4.549   0.556   2.425 -0.2365 -0.7836 -0.1083
 7738SOL     OW34675   2.211   3.765   2.228  0.4137 -0.1643 -0.3070
 7738SOL    HW134676   2.183   3.824   2.158 -0.2125  0.4120  0.4435
 7738SOL    HW234677   2.297   3.727   2.209  0.2488  0.5338 -2.5443
 7739SOL     OW34678   3.241   1.278   9.000  0.1528  0.0310  0.1943
 7739SOL    HW134679   3.256   1.341   9.071 -2.4475 -0.6715  1.3705
 7739SOL    HW234680   3.224   1.335   8.926 -1.1401  0.1693  0.5948
 7740SOL     OW34681   3.405   3.269   3.512 -0.3479  0.2695 -0.3885
 7740SOL    HW134682   3.338   3.333   3.487 -1.2141 -1.0042 -1.2833
 7740SOL    HW234683   3.374   3.186   3.476  1.4232 -0.9870  1.0065
 7741SOL     OW34684   3.751   2.983   8.971  0.0580 -0.6867  0.1213
 7741SOL    HW134685   3.683   2.978   9.037  0.0854  3.8228  0.5000
 7741SOL    HW234686   3.831   2.993   9.023 -0.5844 -0.6645  1.0987
 7742SOL     OW34687   4.079   1.855   0.090  0.4653 -0.3629  0.0857
 7742SOL    HW134688   4.031   1.854   0.008 -1.7730 -0.2109  1.4038
 7742SOL    HW234689   4.167   1.855   0.052 -0.1158  0.7409 -1.2188
 7743SOL     OW34690   3.992   3.499   6.857  0.2879  0.6510  0.2882
 7743SOL    HW134691   3.973   3.578   6.908 -4.2245 -0.3331  0.0941
 7743SOL    HW234692   4.071   3.525   6.809 -0.7003  1.2731 -0.9909
 7744SOL     OW34693   1.893   3.752   0.908  0.0177  0.1448 -0.5481
 7744SOL    HW134694   1.979   3.765   0.948  0.3089 -0.8200 -0.8657
 7744SOL    HW234695   1.866   3.671   0.951  2.2021  1.3288  3.0379
 7745SOL     OW34696   0.106   0.801  11.081 -0.4199  0.5029 -0.1001
 7745SOL    HW134697   0.168   0.863  11.042  0.4670 -0.1135  0.3333
 7745SOL    HW234698   0.152   0.718  11.081  0.4178  0.9830  2.9362
 7746SOL     OW34699   2.427   0.007   9.869  0.1817  0.0441  0.1714
 7746SOL    HW134700   2.396   4.684   9.789  1.7818 -0.0610 -0.3932
 7746SOL    HW234701   2.408   4.658   9.933  2.0739  0.8841  1.6256
 7747SOL     OW34702   2.760   3.298  10.787  1.2834  0.4888  0.4258
 7747SOL    HW134703   2.841   3.249  10.780  0.8643 -0.2695  0.9672
 7747SOL    HW234704   2.776   3.348  10.867  0.8071  1.9372 -0.3837
 7748SOL     OW34705   3.872   3.168   8.631 -1.0929  0.6918 -0.3905
 7748SOL    HW134706   3.795   3.145   8.682 -0.4582 -1.9172 -0.6273
 7748SOL    HW234707   3.862   3.260   8.605 -2.2266  0.3443 -1.2018
 7749SOL     OW34708   3.493   4.016   7.866 -0.4145 -0.0222 -0.6736
 7749SOL    HW134709   3.449   4.026   7.950  2.8240 -0.7526  1.1352
 7749SOL    HW234710   3.542   4.098   7.856 -2.0511  1.0057 -0.1645
 7750SOL     OW34711   2.283   2.476   7.613  0.4367 -0.3258 -0.1499
 7750SOL    HW134712   2.236   2.480   7.696 -0.5426  1.5564 -0.7867
 7750SOL    HW234713   2.307   2.385   7.598  0.3974  0.0562 -2.5778
 7751SOL     OW34714   1.994   3.645   2.631  0.4613  0.3072  0.0648
 7751SOL    HW134715   1.925   3.580   2.647 -0.6130  1.8820  1.7723
 7751SOL    HW234716   2.030   3.652   2.720 -0.0995 -0.6197  0.3595
 7752SOL     OW34717   0.092   4.266   3.370 -0.1743  0.4680 -0.0202
 7752SOL    HW134718   0.041   4.336   3.411 -0.8827  0.0123 -0.1182
 7752SOL    HW234719   0.064   4.182   3.407 -2.0802  1.4466  0.7721
 7753SOL     OW34720   0.953   4.520  11.800  0.2483 -0.0053  0.5062
 7753SOL    HW134721   1.010   4.597  11.807  0.6368 -0.5931  3.3914
 7753SOL    HW234722   0.874   4.567  11.774 -0.0362 -1.2289 -0.8469
 7754SOL     OW34723   3.525   3.405  15.523  0.3016  0.4076  0.0905
 7754SOL    HW134724   3.561   3.487  15.489  1.8069 -1.1918 -2.2277
 7754SOL    HW234725   3.443   3.444  15.555  0.8041 -0.2811  2.1494
 7755SOL     OW34726   0.628   0.775   4.658  0.7234  0.0088 -0.1410
 7755SOL    HW134727   0.533   0.787   4.655  0.7870  0.2622 -0.9290
 7755SOL    HW234728   0.634   0.753   4.751 -2.1108 -1.4038 -0.3038
 7756SOL     OW34729   0.026   3.720  10.076  0.2937  0.0516 -0.2881
 7756SOL    HW134730   0.116   3.727  10.105  0.5574 -2.0846 -0.5575
 7756SOL    HW234731   0.032   3.735   9.981 -1.0081 -0.9323 -0.5411
 7757SOL     OW34732   1.602   0.777   4.136 -0.4254  0.4125 -0.3233
 7757SOL    HW134733   1.553   0.697   4.121  0.6873 -0.4864  0.8066
 7757SOL    HW234734   1.560   0.804   4.217  2.7262  1.1135  1.1059
 7758SOL     OW34735   2.451   4.429   7.097 -0.1463  0.3451 -0.2421
 7758SOL    HW134736   2.437   4.336   7.082  0.6833  0.4390 -1.6252
 7758SOL    HW234737   2.363   4.462   7.082 -0.2314 -0.4568 -1.5176
 7759SOL     OW34738   2.249   3.501   0.467 -0.3797 -0.4356  0.2054
 7759SOL    HW134739   2.226   3.580   0.418  1.1564 -0.7217 -0.9761
 7759SOL    HW234740   2.160   3.464   0.469 -0.0686 -1.0376  3.1010
 7760SOL     OW34741   4.065   4.377  16.836 -0.3580 -0.1763  0.1528
 7760SOL    HW134742   4.057   4.287  16.804 -0.4976 -0.1744  0.1835
 7760SOL    HW234743   4.076   4.348  16.927  0.3620 -0.7113 -0.1036
 7761SOL     OW34744   2.714   2.963  16.194 -0.5584 -0.2655 -0.1143
 7761SOL    HW134745   2.619   2.964  16.178 -0.0697  1.6052 -2.8576
 7761SOL    HW234746   2.745   2.930  16.110 -0.3316  1.9778 -0.9319
 7762SOL     OW34747   2.281   4.075   4.235 -1.0422  0.0649 -0.1548
 7762SOL    HW134748   2.331   4.024   4.298 -0.4690  1.4817  0.5507
 7762SOL    HW234749   2.346   4.110   4.173  0.1136  0.7864  1.4658
 7763SOL     OW34750   2.426   0.230   6.758 -0.1839 -0.2500  0.1408
 7763SOL    HW134751   2.358   0.245   6.824  1.3122 -0.3553  1.7023
 7763SOL    HW234752   2.494   0.188   6.811  0.2469  0.8047  0.4213
 7764SOL     OW34753   4.225   0.554   5.231 -0.8632 -0.0769  0.2112
 7764SOL    HW134754   4.288   0.482   5.229 -0.2397  0.4788 -0.0344
 7764SOL    HW234755   4.289   0.606   5.279 -1.2292  0.0552  0.5544
 7765SOL     OW34756   4.179   2.101   9.542  0.3933 -0.4320 -0.5349
 7765SOL    HW134757   4.215   2.068   9.624 -0.4504  0.6663  0.2652
 7765SOL    HW234758   4.161   2.018   9.497  0.6471 -0.5273 -0.4643
 7766SOL     OW34759   4.092   1.344   4.559  0.3981 -0.3967  0.7260
 7766SOL    HW134760   4.090   1.427   4.513 -1.7608 -1.9911 -2.0718
 7766SOL    HW234761   4.019   1.307   4.509  1.6233 -1.7041 -0.0997
 7767SOL     OW34762   3.614   1.991  14.998 -0.1611 -0.4129  0.5279
 7767SOL    HW134763   3.587   2.077  15.031  0.3550 -0.2579  0.5412
 7767SOL    HW234764   3.686   2.011  14.939 -1.8981  2.9602 -0.4261
 7768SOL     OW34765   1.982   3.801   3.696  0.0396 -0.5223 -0.6021
 7768SOL    HW134766   1.923   3.737   3.736 -0.8552 -0.2754 -1.5362
 7768SOL    HW234767   1.922   3.876   3.699  0.8248  0.0751  0.3824
 7769SOL     OW34768   2.455   1.085   8.625 -0.6773  0.0684 -0.2029
 7769SOL    HW134769   2.543   1.060   8.598 -0.2823  0.1656  0.9843
 7769SOL    HW234770   2.444   1.021   8.696 -0.6152  0.5473  0.2410
 7770SOL     OW34771   1.540   0.371  13.495  0.1727 -0.1759 -0.3790
 7770SOL    HW134772   1.566   0.391  13.585  1.4660 -0.1640 -0.7497
 7770SOL    HW234773   1.579   0.284  13.489 -0.3143 -0.3478 -1.1147
 7771SOL     OW34774   1.637   3.157   4.536 -0.4159  0.0177  0.0369
 7771SOL    HW134775   1.562   3.216   4.532 -0.4081  0.0524  0.4002
 7771SOL    HW234776   1.610   3.098   4.466  0.8756 -1.5741  0.8630
 7772SOL     OW34777   0.011   3.832   4.196  0.0835 -0.3922  0.6869
 7772SOL    HW134778   4.654   3.835   4.138  0.4335  2.4002  0.3802
 7772SOL    HW234779   4.711   3.893   4.267 -0.0865 -0.2508  0.5181
 7773SOL     OW34780   4.614   0.684   1.515 -0.2416  0.2502 -0.7926
 7773SOL    HW134781   4.521   0.692   1.494 -0.6945 -0.5811  0.8786
 7773SOL    HW234782   4.631   0.607   1.459  0.3088 -0.2617  0.0778
 7774SOL     OW34783   1.093   2.812   0.682 -0.1961  0.3275  0.0236
 7774SOL    HW134784   1.067   2.788   0.770  0.9007  1.4218  0.6524
 7774SOL    HW234785   1.126   2.724   0.664 -1.0907  0.1080 -0.5597
 7775SOL     OW34786   0.701   3.054   5.264  0.2245  0.4545 -0.2248
 7775SOL    HW134787   0.723   3.012   5.348 -2.2023 -0.5595 -0.1056
 7775SOL    HW234788   0.615   3.084   5.293  0.1361  0.9604 -1.0207
 7776SOL     OW34789   0.732   0.704   4.955  0.1610 -0.1593 -0.1057
 7776SOL    HW134790   0.733   0.780   5.013  1.4365 -0.1704 -0.1138
 7776SOL    HW234791   0.638   0.693   4.946  0.3619 -1.1546 -1.0207
 7777SOL     OW34792   4.289   0.159  12.998  0.2271  0.0325  0.2513
 7777SOL    HW134793   4.211   0.104  12.986 -0.7010  1.2091  0.9610
 7777SOL    HW234794   4.334   0.111  13.068 -0.0366 -1.0080 -0.2977
 7778SOL     OW34795   2.686   3.086   7.573  0.1652 -0.2491  0.2463
 7778SOL    HW134796   2.611   3.027   7.569 -0.1037  0.1906 -1.1662
 7778SOL    HW234797   2.743   3.034   7.629 -3.2133 -1.4397  2.5533
 7779SOL     OW34798   0.172   4.658   1.556 -0.4823 -0.0764 -0.1387
 7779SOL    HW134799   0.221   4.712   1.494  1.8036 -1.5262  0.4034
 7779SOL    HW234800   0.143   4.598   1.487  1.4864  0.2432 -1.2573
 7780SOL     OW34801   0.669   3.807   6.443 -0.0261  0.5625  0.0552
 7780SOL    HW134802   0.757   3.800   6.480 -0.0677 -0.0663  0.0385
 7780SOL    HW234803   0.683   3.864   6.367  1.1707 -1.7397 -1.4693
 7781SOL     OW34804   2.454   4.455  17.316 -0.1250  0.3387  0.2356
 7781SOL    HW134805   2.403   4.473  17.394 -1.4230 -4.5695  0.5508
 7781SOL    HW234806   2.542   4.486  17.338 -0.2123 -0.3321  1.5596
 7782SOL     OW34807   2.184   0.738  12.799  0.0413  0.0903  0.2331
 7782SOL    HW134808   2.123   0.696  12.859 -0.2595  1.7064  1.0515
 7782SOL    HW234809   2.169   0.829  12.822  0.6239  0.2101  0.1390
 7783SOL     OW34810   0.935   3.542   3.899  0.0290 -0.3469  0.2121
 7783SOL    HW134811   0.873   3.508   3.835 -0.0901  0.0986  0.0876
 7783SOL    HW234812   0.911   3.478   3.966  0.8719 -1.9282 -0.9895
 7784SOL     OW34813   3.646   3.523  11.303  0.2934 -0.3597  0.7953
 7784SOL    HW134814   3.687   3.446  11.263  0.1012 -0.1247  0.1306
 7784SOL    HW234815   3.604   3.574  11.234  0.7443  0.8643  1.4230
 7785SOL     OW34816   2.753   1.394   8.051  0.4915 -0.2224 -0.7589
 7785SOL    HW134817   2.746   1.392   7.956  1.1390  0.7209 -0.8190
 7785SOL    HW234818   2.839   1.427   8.075  0.1163 -0.6836  1.2428
 7786SOL     OW34819   1.267   1.826   6.627 -0.4992  0.1634  0.1988
 7786SOL    HW134820   1.280   1.901   6.684  0.6960  0.5685 -0.5976
 7786SOL    HW234821   1.306   1.865   6.549 -0.7851 -0.0684 -0.0611
 7787SOL     OW34822   0.537   2.632   9.406  0.0102  0.0141 -0.5190
 7787SOL    HW134823   0.485   2.657   9.482  1.0161  0.7088 -0.0612
 7787SOL    HW234824   0.471   2.590   9.352  0.6179 -0.6668 -0.7273
 7788SOL     OW34825   2.371   1.723   2.879 -0.3306  0.5306 -0.1092
 7788SOL    HW134826   2.450   1.675   2.903  0.1840  1.8072  0.7549
 7788SOL    HW234827   2.380   1.728   2.784 -3.8044 -0.8148 -0.4826
 7789SOL     OW34828   0.521   1.592   7.915  0.1070 -0.1858  0.3385
 7789SOL    HW134829   0.614   1.566   7.917 -0.0821 -0.6851  2.2801
 7789SOL    HW234830   0.498   1.527   7.848  1.0301 -1.1246  0.9196
 7790SOL     OW34831   4.082   3.048   8.517  0.5077 -0.7801 -0.3377
 7790SOL    HW134832   3.989   3.063   8.538  0.6935  0.5508 -0.4978
 7790SOL    HW234833   4.108   2.989   8.588 -0.7791  0.8957  1.5211
 7791SOL     OW34834   2.599   2.945  10.466  0.6042  0.7899  0.4181
 7791SOL    HW134835   2.663   2.952  10.537  0.7698 -1.6675  0.4895
 7791SOL    HW234836   2.620   2.871  10.410 -1.3606  0.5244  0.0519
 7792SOL     OW34837   0.553   0.694   8.169  0.0176  0.1750 -0.3487
 7792SOL    HW134838   0.457   0.688   8.164  0.1066 -1.9955  0.4942
 7792SOL    HW234839   0.568   0.787   8.187  2.3954 -0.4683  0.9292
 7793SOL     OW34840   1.706   2.440   7.744 -0.0631 -0.2678  0.1448
 7793SOL    HW134841   1.755   2.409   7.820 -0.1600  0.2215  0.4066
 7793SOL    HW234842   1.646   2.368   7.728 -1.6154  0.6060  1.9859
 7794SOL     OW34843   2.298   4.359   1.464 -0.1030  0.1769  0.5803
 7794SOL    HW134844   2.371   4.420   1.450  0.6581 -0.5417  1.4019
 7794SOL    HW234845   2.228   4.418   1.493  2.4738  2.8075  1.4736
 7795SOL     OW34846   2.682   4.252   3.089  0.7313 -0.1132  0.5189
 7795SOL    HW134847   2.709   4.308   3.015 -0.7761 -1.0329 -0.7297
 7795SOL    HW234848   2.625   4.317   3.130  0.0857 -1.3400  1.5196
 7796SOL     OW34849   0.568   4.020   8.481  0.4305 -0.9032 -0.1005
 7796SOL    HW134850   0.512   4.081   8.432 -0.2311 -0.9049  0.6433
 7796SOL    HW234851   0.649   4.044   8.437 -1.6571 -0.0134 -3.4559
 7797SOL     OW34852   4.584   2.432  12.451  0.1734 -0.6636  0.1222
 7797SOL    HW134853   4.671   2.465  12.428 -0.5427  1.0068 -0.1926
 7797SOL    HW234854   4.559   2.520  12.480  1.4980  0.1255 -1.1230
 7798SOL     OW34855   1.125   4.453   5.985 -0.0309  0.3352 -0.9405
 7798SOL    HW134856   1.084   4.498   6.059  1.1217 -0.3353  0.1024
 7798SOL    HW234857   1.127   4.365   6.021  0.1332  0.8011  0.2059
 7799SOL     OW34858   4.537   3.405  12.925  0.6216  0.2553 -0.0573
 7799SOL    HW134859   4.589   3.327  12.905  0.7743  0.4084 -0.2676
 7799SOL    HW234860   4.488   3.375  13.001 -3.0084 -1.8931 -3.2184
 7800SOL     OW34861   3.538   2.632   5.796 -1.0489  0.5552 -0.2524
 7800SOL    HW134862   3.541   2.550   5.844  3.0851 -0.5863 -2.5557
 7800SOL    HW234863   3.549   2.600   5.707  3.0528  0.5492  0.2888
 7801SOL     OW34864   0.310   1.147   5.776  0.4449 -0.1406  0.3615
 7801SOL    HW134865   0.308   1.242   5.787  2.1938 -0.4618  3.4277
 7801SOL    HW234866   0.346   1.133   5.688  0.7130 -1.4202  0.6848
 7802SOL     OW34867   1.408   0.737  17.549 -0.1264  0.4035 -0.7299
 7802SOL    HW134868   1.457   0.728  17.631  0.8078  1.3389 -1.1794
 7802SOL    HW234869   1.473   0.727  17.480 -1.1874  1.4192 -1.8842
 7803SOL     OW34870   2.625   3.652   5.275 -0.5424  0.6251  0.2451
 7803SOL    HW134871   2.535   3.624   5.286 -0.9365  1.6349 -0.4649
 7803SOL    HW234872   2.631   3.687   5.186  0.0356 -0.8243 -0.2928
 7804SOL     OW34873   4.082   0.908   2.305  0.2796  0.3121 -0.0265
 7804SOL    HW134874   4.163   0.857   2.310 -0.2198 -0.2308  2.2363
 7804SOL    HW234875   4.030   0.853   2.246  1.2166  1.1910 -1.6855
 7805SOL     OW34876   4.239   2.366  11.899  0.5518  0.1732 -0.1651
 7805SOL    HW134877   4.242   2.461  11.906 -1.6408  0.1861  0.6098
 7805SOL    HW234878   4.294   2.359  11.821 -0.0480 -1.2506 -0.4653
 7806SOL     OW34879   1.498   4.434  13.369 -0.4572 -0.2611  0.0940
 7806SOL    HW134880   1.572   4.385  13.333  0.9614  3.0118 -1.4727
 7806SOL    HW234881   1.459   4.370  13.427 -0.9041  1.4942  1.7260
 7807SOL     OW34882   3.010   0.767   6.930 -0.0835  0.0826  0.0809
 7807SOL    HW134883   3.073   0.742   6.998  0.3525 -2.2027 -1.1654
 7807SOL    HW234884   2.992   0.856   6.962 -1.7382 -0.3448  0.3550
 7808SOL     OW34885   4.484   0.056   0.933  0.0682  0.0604 -0.1897
 7808SOL    HW134886   4.538   4.715   0.983  2.6076  0.2042 -2.7542
 7808SOL    HW234887   4.433   4.712   0.883  0.2135 -0.0468 -0.2015
 7809SOL     OW34888   1.048   4.650  14.864 -1.0819  0.3822  0.1406
 7809SOL    HW134889   1.076   4.559  14.868 -1.3916  0.1859 -2.2253
 7809SOL    HW234890   1.123   4.693  14.821 -0.0001 -1.5075  0.1317
 7810SOL     OW34891   1.126   2.373   0.977 -0.0320 -0.0104  0.1152
 7810SOL    HW134892   1.092   2.359   0.889  1.8214  0.0887 -0.6104
 7810SOL    HW234893   1.191   2.303   0.975 -1.2578 -1.1590  0.4051
 7811SOL     OW34894   4.338   1.429   5.983 -0.4799 -0.1624  0.0875
 7811SOL    HW134895   4.423   1.446   5.942  0.9776 -0.5798  2.9711
 7811SOL    HW234896   4.359   1.383   6.064  0.7150  1.1735  0.5350
 7812SOL     OW34897   0.997   4.399   4.504  0.6195 -0.3696  0.4146
 7812SOL    HW134898   1.023   4.477   4.455 -1.5673 -0.1452 -0.3869
 7812SOL    HW234899   0.935   4.427   4.572  0.3033 -0.9335  0.3608
 7813SOL     OW34900   4.481   2.376   2.415 -0.1020  0.3364  0.2175
 7813SOL    HW134901   4.553   2.440   2.420  0.3336 -0.1760  0.5116
 7813SOL    HW234902   4.519   2.303   2.366 -0.1057  0.4206  0.0908
 7814SOL     OW34903   4.511   1.244   4.213 -0.0686 -0.7277  0.0460
 7814SOL    HW134904   4.590   1.207   4.174  0.5074 -0.8545  1.3510
 7814SOL    HW234905   4.522   1.211   4.302  4.4361 -2.4014 -1.1385
 7815SOL     OW34906   2.705   0.467   2.632 -0.1663 -0.4033 -0.3099
 7815SOL    HW134907   2.726   0.557   2.658  0.7057 -0.9282  0.8012
 7815SOL    HW234908   2.667   0.489   2.547 -0.9155 -0.7282 -0.0542
 7816SOL     OW34909   3.785   1.481   6.487 -0.1394 -0.7193  0.3032
 7816SOL    HW134910   3.750   1.428   6.415 -0.9529  0.5376 -0.2410
 7816SOL    HW234911   3.714   1.459   6.548 -0.2948 -0.8590  0.0717
 7817SOL     OW34912   3.897   0.148   1.807  0.2429 -0.4333  0.5644
 7817SOL    HW134913   3.967   0.152   1.742  0.3158 -0.5879  0.6337
 7817SOL    HW234914   3.820   0.165   1.752  0.1898  2.7519  1.6337
 7818SOL     OW34915   1.590   4.602   6.636  0.1832 -0.1767 -0.5322
 7818SOL    HW134916   1.519   4.539   6.643  0.0466  0.1594  1.0320
 7818SOL    HW234917   1.666   4.550   6.664 -0.6961 -1.7536 -1.0372
 7819SOL     OW34918   3.951   1.457   6.695 -0.3080  0.2749  0.4399
 7819SOL    HW134919   3.874   1.433   6.747  0.5885 -2.6501  0.4091
 7819SOL    HW234920   3.911   1.464   6.609 -2.1485  0.3532  1.2862
 7820SOL     OW34921   1.275   3.860   4.970  0.1316 -0.4970  0.4898
 7820SOL    HW134922   1.205   3.826   5.026  0.3648 -0.5226  0.7666
 7820SOL    HW234923   1.345   3.877   5.033  0.0881 -1.1734  0.7156
 7821SOL     OW34924   1.118   2.678   2.583  0.2442 -0.5804  0.4798
 7821SOL    HW134925   1.209   2.693   2.609  0.3212  0.0319 -0.1567
 7821SOL    HW234926   1.121   2.722   2.498  0.7211  0.9368  1.2925
 7822SOL     OW34927   2.663   1.153   6.215  0.1885  0.3320 -0.2156
 7822SOL    HW134928   2.590   1.096   6.240 -0.2345  1.2791  0.7029
 7822SOL    HW234929   2.656   1.232   6.268  0.1468 -1.0574  1.8493
 7823SOL     OW34930   3.956   4.469   6.355 -0.6929  0.5772  0.0302
 7823SOL    HW134931   3.968   4.459   6.260  1.5638  0.7889  0.2974
 7823SOL    HW234932   4.042   4.501   6.382 -0.0946 -1.0643  0.0606
 7824SOL     OW34933   0.109   0.439   0.532 -0.1839  0.0681 -0.1955
 7824SOL    HW134934   0.137   0.511   0.589 -0.0365  0.2688 -0.5272
 7824SOL    HW234935   0.020   0.415   0.560 -0.4729  0.0905 -1.1031
 7825SOL     OW34936   2.220   3.006   6.909 -0.3071  0.4275  0.1612
 7825SOL    HW134937   2.131   3.040   6.897 -1.3720 -2.5749 -0.5387
 7825SOL    HW234938   2.266   3.055   6.841 -0.1147 -0.0954 -0.0821
 7826SOL     OW34939   3.264   1.728   3.137 -0.6510  0.3534 -0.4474
 7826SOL    HW134940   3.271   1.665   3.065  0.2682 -0.8041  0.6534
 7826SOL    HW234941   3.357   1.732   3.160 -0.4918  1.3270 -1.2711
 7827SOL     OW34942   0.640   1.933  11.429  0.3657  0.4928 -0.8045
 7827SOL    HW134943   0.695   1.908  11.355  1.0827 -0.0694 -0.0858
 7827SOL    HW234944   0.709   1.940  11.496 -2.4470 -1.1028  2.2234
 7828SOL     OW34945   1.790   2.564   2.342 -0.1551 -0.1317 -0.3246
 7828SOL    HW134946   1.758   2.526   2.260  1.1508 -0.0495 -0.8805
 7828SOL    HW234947   1.877   2.527   2.358 -0.8223 -0.8658  1.5474
 7829SOL     OW34948   0.207   3.663  10.373  0.5148  0.0080  0.4374
 7829SOL    HW134949   0.233   3.573  10.353 -1.5160  0.0436 -2.3325
 7829SOL    HW234950   0.280   3.711  10.334 -1.0141  2.6491  0.8868
 7830SOL     OW34951   2.974   1.901   2.789 -0.0844  0.8427 -0.0541
 7830SOL    HW134952   3.068   1.898   2.773 -0.4473 -0.8957 -1.8406
 7830SOL    HW234953   2.944   1.833   2.729  3.0091 -0.1040 -0.5262
 7831SOL     OW34954   1.380   4.273  17.570  0.7555  0.2761  0.3287
 7831SOL    HW134955   1.438   4.276  17.647  1.0208  0.2343  0.1321
 7831SOL    HW234956   1.429   4.212  17.515  0.5821  0.9386 -0.5505
 7832SOL     OW34957   0.783   2.306  14.814  0.5725 -0.5119  0.4050
 7832SOL    HW134958   0.811   2.339  14.728 -1.5378 -1.4158 -0.6129
 7832SOL    HW234959   0.760   2.215  14.798  2.1835 -0.7967 -0.2642
 7833SOL     OW34960   3.285   0.010   1.032  0.0285 -0.4883  0.1549
 7833SOL    HW134961   3.349   4.659   1.022 -0.6926 -0.8750 -1.7604
 7833SOL    HW234962   3.257   4.709   1.121 -1.4125  0.6860 -0.0437
 7834SOL     OW34963   3.034   2.452   3.615  0.2386  0.0330 -0.1059
 7834SOL    HW134964   3.124   2.422   3.606  0.2064  0.0000 -0.3141
 7834SOL    HW234965   3.032   2.525   3.554  2.4157 -1.0472 -1.4839
 7835SOL     OW34966   2.290   3.265   3.497 -0.1837  0.7026  0.0249
 7835SOL    HW134967   2.382   3.291   3.506  0.3032 -0.2572 -2.3236
 7835SOL    HW234968   2.267   3.233   3.584  0.7203  0.7231  0.2752
 7836SOL     OW34969   1.667   4.046  12.291 -0.3352 -0.3860  0.1304
 7836SOL    HW134970   1.726   4.012  12.358  1.0166  0.4300 -0.6398
 7836SOL    HW234971   1.635   4.119  12.344  1.8053  0.4299  0.3053
 7837SOL     OW34972   1.204   2.068  10.403  0.1984 -0.2307 -0.1064
 7837SOL    HW134973   1.271   2.016  10.447 -0.2505  0.2686  1.1619
 7837SOL    HW234974   1.247   2.064  10.317 -1.2590 -1.7593 -0.7783
 7838SOL     OW34975   3.922   0.993   7.747 -0.0282 -0.6054 -0.0393
 7838SOL    HW134976   3.880   0.959   7.668  0.9538 -1.9599  0.0348
 7838SOL    HW234977   3.991   1.046   7.708  0.4229 -1.4416 -0.3748
 7839SOL     OW34978   1.175   0.761   5.049  0.7041 -0.4144  0.9205
 7839SOL    HW134979   1.157   0.853   5.070 -0.5401 -0.4109 -0.1529
 7839SOL    HW234980   1.120   0.748   4.972 -0.0022 -0.2332  1.3920
 7840SOL     OW34981   0.883   4.573   0.473 -0.3683 -0.1861  0.0920
 7840SOL    HW134982   0.899   4.645   0.413  0.4205 -0.7769 -0.4185
 7840SOL    HW234983   0.864   4.614   0.558  1.5132 -1.1007  0.9782
 7841SOL     OW34984   1.894   0.866   4.968  0.7134  0.4417  0.1431
 7841SOL    HW134985   1.951   0.935   4.931 -2.3743  3.0945  0.3265
 7841SOL    HW234986   1.937   0.790   4.928 -0.0542  0.0979 -0.0093
 7842SOL     OW34987   0.404   4.176   9.637  0.2913  0.6255  0.0033
 7842SOL    HW134988   0.499   4.166   9.633  0.2301 -0.3516  0.8359
 7842SOL    HW234989   0.377   4.153   9.548 -2.2735 -0.8860  1.1712
 7843SOL     OW34990   0.748   1.622   2.020  0.1373 -0.1547 -0.1854
 7843SOL    HW134991   0.757   1.607   1.926  2.4560  1.5902 -0.2433
 7843SOL    HW234992   0.790   1.543   2.055 -1.6537 -1.1655 -0.3280
 7844SOL     OW34993   1.742   3.189   2.971  0.4929  0.2332  0.2529
 7844SOL    HW134994   1.789   3.167   3.052  0.8510 -0.3954 -0.1210
 7844SOL    HW234995   1.679   3.251   3.007 -0.9835 -0.9598 -0.2945
 7845SOL     OW34996   3.324   1.056   6.534  0.1947  0.0172  0.7919
 7845SOL    HW134997   3.276   1.074   6.615  0.5608  0.6785  0.8636
 7845SOL    HW234998   3.312   1.141   6.491  2.0334  1.1989  2.5920
 7846SOL     OW34999   3.118   3.253   2.791 -0.0095 -0.1054 -0.0103
 7846SOL    HW135000   3.197   3.278   2.840  0.4272  3.4881 -2.4667
 7846SOL    HW235001   3.146   3.247   2.700  1.3844  0.3013  0.3752
 7847SOL     OW35002   1.587   3.736   6.929 -0.1519  0.2204 -0.6562
 7847SOL    HW135003   1.538   3.658   6.900  0.1777 -0.0181 -0.5699
 7847SOL    HW235004   1.521   3.799   6.900  2.2739  3.7356  1.5610
 7848SOL     OW35005   1.309   4.085   4.558 -0.2771 -0.1415  0.5550
 7848SOL    HW135006   1.235   4.116   4.507 -1.5669  0.8644  3.0666
 7848SOL    HW235007   1.328   4.004   4.510  2.0195  0.6543  0.0703
 7849SOL     OW35008   1.748   0.478  13.672 -0.0704 -0.2314  0.0557
 7849SOL    HW135009   1.746   0.573  13.676 -1.9341 -0.3460  1.8583
 7849SOL    HW235010   1.780   0.456  13.584  2.2013  3.1010  0.0681
 7850SOL     OW35011   1.336   0.264   2.545  0.0988 -0.1607 -0.5703
 7850SOL    HW135012   1.371   0.326   2.609  0.5940 -0.7642 -0.2622
 7850SOL    HW235013   1.241   0.277   2.549 -0.0255 -0.7041 -1.9131
 7851SOL     OW35014   4.667   1.646   3.035  0.0740 -0.3022  0.4650
 7851SOL    HW135015   4.627   1.622   3.118 -2.0689 -0.8137 -0.7304
 7851SOL    HW235016   4.711   1.729   3.052 -2.1149  0.4947  2.2517
 7852SOL     OW35017   0.713   0.288   0.378 -0.1156 -0.4889  0.8878
 7852SOL    HW135018   0.632   0.339   0.377  0.3118  0.1891  0.9406
 7852SOL    HW235019   0.749   0.306   0.464 -0.8650 -0.4219  1.1898
 7853SOL     OW35020   4.626   1.469   1.879 -0.1526  1.0530  0.3729
 7853SOL    HW135021   4.712   1.454   1.839 -2.1037 -1.2458 -2.8686
 7853SOL    HW235022   4.572   1.466   1.801  1.0525 -0.3998 -0.3903
 7854SOL     OW35023   4.277   3.711   2.268  0.1372  0.0451 -0.4376
 7854SOL    HW135024   4.220   3.787   2.269  0.8020  0.5586 -1.8419
 7854SOL    HW235025   4.297   3.709   2.362  2.1735  0.6281 -0.8628
 7855SOL     OW35026   3.977   2.491   3.060  0.3129 -0.4584  0.0066
 7855SOL    HW135027   3.927   2.546   2.999 -1.9872 -1.9308  0.5604
 7855SOL    HW235028   4.065   2.527   3.054  0.6691 -0.9721  2.2442
 7856SOL     OW35029   1.056   1.477   7.313  0.0993  0.0500  0.9141
 7856SOL    HW135030   0.962   1.488   7.327  0.1863 -0.2742  1.7334
 7856SOL    HW235031   1.049   1.387   7.283 -1.1802  0.4905 -0.1010
 7857SOL     OW35032   0.692   4.045   7.418 -0.1425 -0.1110  0.0862
 7857SOL    HW135033   0.702   4.083   7.505 -0.0201 -0.5967  0.2826
 7857SOL    HW235034   0.782   4.041   7.384  0.9947  0.6882  3.0115
 7858SOL     OW35035   4.275   2.172   8.147  0.3484 -0.2909 -0.1286
 7858SOL    HW135036   4.268   2.216   8.232  1.0981  0.7940 -0.6373
 7858SOL    HW235037   4.366   2.144   8.139  0.1233 -0.8962 -0.6451
 7859SOL     OW35038   2.318   2.942  14.739  0.0143  0.3724 -0.0603
 7859SOL    HW135039   2.236   2.934  14.689 -1.1921  1.4885  1.7379
 7859SOL    HW235040   2.299   3.021  14.789 -1.4997 -0.0048 -0.0429
 7860SOL     OW35041   4.026   0.087   4.529  0.0903  0.7782 -0.4662
 7860SOL    HW135042   4.031   0.028   4.454  3.2160  0.1319  0.2615
 7860SOL    HW235043   3.994   0.028   4.597  1.5262  0.5710  0.0274
 7861SOL     OW35044   3.520   2.731  16.727 -0.1129  0.1214  0.3587
 7861SOL    HW135045   3.435   2.710  16.688 -0.5810  1.1380  0.8092
 7861SOL    HW235046   3.497   2.754  16.818  0.7262 -0.6682  0.7707
 7862SOL     OW35047   3.513   1.859   2.253  0.1116  0.6204  0.2223
 7862SOL    HW135048   3.479   1.802   2.322 -0.7046  1.3397  0.4161
 7862SOL    HW235049   3.607   1.853   2.271 -0.3226  0.0314  2.2974
 7863SOL     OW35050   2.105   2.271   8.301  0.4793 -0.3666  0.0774
 7863SOL    HW135051   2.120   2.350   8.354  0.7973 -0.3261 -0.0709
 7863SOL    HW235052   2.190   2.237   8.274  1.3165  0.7756  1.2556
 7864SOL     OW35053   0.065   0.467  11.107  0.0791  0.2921  0.2318
 7864SOL    HW135054   0.099   0.488  11.194  0.3291 -1.2379  0.4967
 7864SOL    HW235055   0.134   0.422  11.059  0.0373  0.5224 -0.0453
 7865SOL     OW35056   3.037   4.220   7.691 -0.1023  0.3742 -0.7921
 7865SOL    HW135057   3.114   4.244   7.744  0.3195  0.6657 -1.5414
 7865SOL    HW235058   3.031   4.299   7.638 -0.3700  1.0719  0.2720
 7866SOL     OW35059   2.307   4.130  16.989 -0.2591 -0.2803 -0.1844
 7866SOL    HW135060   2.377   4.083  17.032 -0.3917 -0.8889 -0.6354
 7866SOL    HW235061   2.339   4.220  16.979 -0.4068 -0.1197  0.7911
 7867SOL     OW35062   1.720   4.319   3.481 -0.9489 -0.1566 -0.1440
 7867SOL    HW135063   1.714   4.333   3.576  0.2459 -1.9268  0.1751
 7867SOL    HW235064   1.722   4.411   3.453  0.6679  0.9440  3.5815
 7868SOL     OW35065   1.462   2.837   0.870  0.3081  0.3368  0.5066
 7868SOL    HW135066   1.531   2.848   0.936 -0.1257  3.7964  0.4060
 7868SOL    HW235067   1.388   2.872   0.919 -0.4045 -1.4807  0.7090
 7869SOL     OW35068   0.997   0.227   7.351 -0.0978 -0.2556 -0.1067
 7869SOL    HW135069   1.072   0.168   7.337 -0.0338  0.0105 -0.8768
 7869SOL    HW235070   0.942   0.213   7.274  1.4507 -1.0133 -1.0836
 7870SOL     OW35071   4.295   1.821   7.286  0.3226 -0.2272  0.1643
 7870SOL    HW135072   4.291   1.729   7.311  2.1640 -0.9863 -2.3446
 7870SOL    HW235073   4.386   1.841   7.311 -0.3085 -0.6826  2.8417
 7871SOL     OW35074   2.667   0.912   5.457 -0.7041  0.5900  0.4466
 7871SOL    HW135075   2.729   0.892   5.387  0.8283 -0.1645  2.0180
 7871SOL    HW235076   2.601   0.955   5.402  0.4135 -1.3339 -2.3849
 7872SOL     OW35077   3.626   0.206   8.997  0.1813  0.0419  0.1164
 7872SOL    HW135078   3.556   0.192   8.933  1.4174  1.6393 -1.5894
 7872SOL    HW235079   3.570   0.262   9.050 -0.8086 -0.1502 -0.7235
 7873SOL     OW35080   2.257   2.885  15.718 -0.6532 -0.3649 -0.0790
 7873SOL    HW135081   2.187   2.924  15.666 -0.6801  0.2341  0.3975
 7873SOL    HW235082   2.312   2.840  15.654 -0.0694 -0.4580  0.4862
 7874SOL     OW35083   1.335   4.708   2.405  0.0836  0.8352 -0.1019
 7874SOL    HW135084   1.283   0.003   2.326 -0.6166  0.6335  0.3231
 7874SOL    HW235085   1.357   0.075   2.439 -0.4182  1.2602 -0.8642
 7875SOL     OW35086   4.250   1.689   5.988 -0.2763  0.3404  0.0927
 7875SOL    HW135087   4.296   1.674   5.906 -1.2480  0.2414 -0.4323
 7875SOL    HW235088   4.256   1.598   6.016 -2.2850 -0.5637 -2.5026
 7876SOL     OW35089   0.930   2.052   0.279 -0.4843  0.7760  0.1233
 7876SOL    HW135090   0.848   2.003   0.280  0.6014 -0.9342  2.6250
 7876SOL    HW235091   0.882   2.129   0.247  0.5780  1.0861 -0.7464
 7877SOL     OW35092   4.410   4.066   5.839  0.2591  0.1144  0.3688
 7877SOL    HW135093   4.327   4.066   5.793  0.5646  0.4257 -0.1891
 7877SOL    HW235094   4.383   4.022   5.919  2.1995 -1.3343  0.2413
 7878SOL     OW35095   1.546   0.460   3.416  0.1659  0.0635  0.1048
 7878SOL    HW135096   1.525   0.380   3.368 -0.8449 -0.7260  1.8972
 7878SOL    HW235097   1.571   0.412   3.495 -1.2268 -1.4028 -0.3506
 7879SOL     OW35098   4.187   0.722   5.041  0.0050 -0.0537  0.3140
 7879SOL    HW135099   4.272   0.722   4.997 -1.0554 -0.0253 -1.7273
 7879SOL    HW235100   4.208   0.664   5.114 -0.8285 -0.5530  0.1453
 7880SOL     OW35101   1.861   1.636   4.076  0.3564  0.1878 -0.4252
 7880SOL    HW135102   1.918   1.672   4.008  0.2291 -0.4459 -0.8785
 7880SOL    HW235103   1.915   1.565   4.109 -0.7078 -0.5875 -0.3491
 7881SOL     OW35104   1.185   2.312   3.218 -0.4301 -0.1226 -0.1094
 7881SOL    HW135105   1.198   2.332   3.310 -3.7151  0.9598  0.1339
 7881SOL    HW235106   1.141   2.227   3.222 -1.1350  0.3366  2.2328
 7882SOL     OW35107   1.370   0.321   3.769  0.1684  0.2392 -0.3386
 7882SOL    HW135108   1.452   0.308   3.721 -0.4008 -0.4321 -1.1425
 7882SOL    HW235109   1.302   0.319   3.702  0.0647 -1.4790 -0.1898
 7883SOL     OW35110   0.508   3.602   5.183  0.1586  0.3100  0.2368
 7883SOL    HW135111   0.481   3.693   5.183  0.7876  0.5045 -0.9030
 7883SOL    HW235112   0.590   3.617   5.135  1.4388  0.7859  2.5552
 7884SOL     OW35113   2.045   3.036   9.185 -0.1023 -0.1677  0.3885
 7884SOL    HW135114   2.120   3.045   9.126 -0.9564 -0.9057 -0.8000
 7884SOL    HW235115   1.984   3.098   9.146 -1.4677 -0.7603  1.5869
 7885SOL     OW35116   4.505   3.804   7.312 -0.0221  0.1657  0.3026
 7885SOL    HW135117   4.449   3.844   7.245  0.9864  1.3908  0.1942
 7885SOL    HW235118   4.537   3.881   7.360  0.9450  0.2919 -0.5444
 7886SOL     OW35119   3.653   4.114   3.317 -0.6301 -0.2013 -0.2088
 7886SOL    HW135120   3.624   4.169   3.390  4.3704  2.8654 -0.5259
 7886SOL    HW235121   3.575   4.105   3.262 -1.7853  2.5014  1.0115
 7887SOL     OW35122   3.372   4.084   2.722  0.5786 -0.1568  0.1320
 7887SOL    HW135123   3.304   4.148   2.700  1.3370  0.4120 -0.5627
 7887SOL    HW235124   3.431   4.143   2.770  0.5041  0.4645 -0.5479
 7888SOL     OW35125   0.270   1.277   1.305 -0.3823 -0.5670  0.4378
 7888SOL    HW135126   0.295   1.193   1.343  0.2563 -0.0837  1.0881
 7888SOL    HW235127   0.278   1.263   1.211 -1.2577 -1.6256  0.5228
 7889SOL     OW35128   1.700   0.001   4.712  0.0332  0.3685 -0.7699
 7889SOL    HW135129   1.686   4.675   4.795 -1.3058  0.1494 -1.1259
 7889SOL    HW235130   1.619   0.051   4.702  1.8861  2.4742 -5.2605
 7890SOL     OW35131   4.673   3.623   5.475  0.0732 -0.2765 -0.3102
 7890SOL    HW135132   4.592   3.673   5.489  0.4999  0.3145  0.0588
 7890SOL    HW235133   4.653   3.569   5.399 -0.8694  1.0253 -0.9866
 7891SOL     OW35134   4.135   3.937   8.568  0.0369 -0.0594  0.4873
 7891SOL    HW135135   4.092   3.985   8.640  0.3956 -0.7238  1.1400
 7891SOL    HW235136   4.204   3.882   8.605  1.7971  0.6558 -1.7244
 7892SOL     OW35137   1.072   2.302   9.081  0.3307  0.1987 -0.5105
 7892SOL    HW135138   1.093   2.251   9.160  0.6077 -0.8083 -1.2350
 7892SOL    HW235139   1.162   2.293   9.049  0.9818  0.1190  1.3144
 7893SOL     OW35140   3.839   2.573   6.515 -0.0045  0.1830 -0.6144
 7893SOL    HW135141   3.820   2.582   6.421  1.4775  1.2646 -0.8375
 7893SOL    HW235142   3.795   2.494   6.544  2.1119 -0.8074 -0.0667
 7894SOL     OW35143   2.542   4.720   7.386 -0.4405  0.2358  0.3545
 7894SOL    HW135144   2.559   0.090   7.412 -1.9816  0.6819 -0.1855
 7894SOL    HW235145   2.449   4.698   7.393 -0.3332 -0.4499 -0.3558
 7895SOL     OW35146   0.959   3.670  10.636 -0.5299 -0.3666  0.2126
 7895SOL    HW135147   1.033   3.673  10.696 -2.0896 -0.5530  2.1647
 7895SOL    HW235148   0.922   3.585  10.660 -1.8633 -0.3169 -1.6829
 7896SOL     OW35149   0.822   2.206   7.346 -0.2650 -0.2139  0.5609
 7896SOL    HW135150   0.912   2.223   7.372 -0.4090  1.7539 -0.2483
 7896SOL    HW235151   0.779   2.157   7.416 -2.1191 -2.0177 -1.8500
 7897SOL     OW35152   2.045   3.140   6.573 -0.1267 -0.3004 -0.3947
 7897SOL    HW135153   1.993   3.217   6.547 -1.8883 -0.4315  2.7878
 7897SOL    HW235154   2.002   3.076   6.516  1.0997 -1.4974  0.0223
 7898SOL     OW35155   3.483   4.543   6.075  0.1270  0.6156  0.4006
 7898SOL    HW135156   3.412   4.519   6.015  0.2022  0.4570  0.3742
 7898SOL    HW235157   3.427   4.578   6.144 -2.4906  0.7286 -1.7845
 7899SOL     OW35158   3.928   3.881  10.772  0.1214 -0.1383  0.0663
 7899SOL    HW135159   3.920   3.828  10.693  2.1149  0.0446 -0.2458
 7899SOL    HW235160   3.949   3.815  10.838  0.0178  0.9159  1.1630
 7900SOL     OW35161   1.215   3.490   7.362  0.0185  0.7498 -0.1019
 7900SOL    HW135162   1.184   3.578   7.386  0.1826  0.3392  1.6094
 7900SOL    HW235163   1.307   3.502   7.342 -0.4838  0.5099 -2.5782
 7901SOL     OW35164   1.571   3.794   4.548 -0.1304 -0.4660 -0.1713
 7901SOL    HW135165   1.593   3.715   4.599  2.2169 -0.2512 -0.8526
 7901SOL    HW235166   1.477   3.784   4.535  0.1509 -0.9648 -1.7618
 7902SOL     OW35167   0.999   1.860   1.739 -0.6033  0.3704  0.1112
 7902SOL    HW135168   1.000   1.854   1.644  1.2565  1.4175  0.0553
 7902SOL    HW235169   0.963   1.774   1.761  0.3358 -0.6237 -2.2941
 7903SOL     OW35170   1.410   3.079   8.362  0.2227  0.2151  0.1288
 7903SOL    HW135171   1.337   3.074   8.424  0.0380 -0.3657 -0.1429
 7903SOL    HW235172   1.407   3.173   8.342 -0.1049  0.1958  0.0909
 7904SOL     OW35173   1.626   2.836  14.917  0.2335 -0.3192 -0.1078
 7904SOL    HW135174   1.711   2.880  14.917  0.2816 -0.4070 -0.7163
 7904SOL    HW235175   1.566   2.905  14.890  0.6309  0.5486  1.2206
 7905SOL     OW35176   4.514   4.640   8.220 -0.5095 -0.0969  0.1769
 7905SOL    HW135177   4.510   4.546   8.204  1.1072 -0.4303  1.7386
 7905SOL    HW235178   4.602   4.649   8.257 -0.6808  2.2188  0.0459
 7906SOL     OW35179   2.431   1.878   6.557  0.1085  0.5926 -0.6300
 7906SOL    HW135180   2.356   1.925   6.522 -0.2695  0.6947  0.3068
 7906SOL    HW235181   2.404   1.886   6.649  0.4377 -1.0618 -0.3902
 7907SOL     OW35182   3.940   2.825   2.317 -0.1833 -0.2037 -0.5582
 7907SOL    HW135183   3.852   2.808   2.351  0.2548  0.9232  1.1459
 7907SOL    HW235184   3.947   2.762   2.246  2.2797 -1.4484  0.8084
 7908SOL     OW35185   3.441   0.697   2.425  0.0622 -0.2085 -0.6401
 7908SOL    HW135186   3.458   0.684   2.332  0.3488  0.2855 -0.6547
 7908SOL    HW235187   3.413   0.607   2.442  0.2988 -0.6453 -2.6328
 7909SOL     OW35188   1.157   3.129  10.152  0.6841  0.1302  0.2300
 7909SOL    HW135189   1.179   3.188  10.080 -0.3616 -1.1924 -1.1497
 7909SOL    HW235190   1.197   3.177  10.225  1.7674  0.6449 -0.6892
 7910SOL     OW35191   2.008   0.143   5.495  0.6222  0.7325 -0.0123
 7910SOL    HW135192   1.978   0.054   5.476  3.4465  0.2073 -1.8784
 7910SOL    HW235193   1.958   0.195   5.431 -1.0962  1.1633  1.6629
 7911SOL     OW35194   0.534   0.264  11.909  0.2755 -0.7228 -0.6570
 7911SOL    HW135195   0.531   0.228  11.997 -2.5213  0.1563 -0.3644
 7911SOL    HW235196   0.458   0.219  11.872 -1.7757  1.4765  0.8255
 7912SOL     OW35197   1.204   2.657   6.706  0.4430  0.1396  0.3272
 7912SOL    HW135198   1.261   2.685   6.635 -0.1655 -0.6482 -0.4706
 7912SOL    HW235199   1.215   2.729   6.768 -0.8010  0.6727 -0.0867
 7913SOL     OW35200   0.274   1.244   2.505 -0.0762  0.0872 -0.1994
 7913SOL    HW135201   0.352   1.190   2.492 -0.4384 -0.6143  0.5730
 7913SOL    HW235202   0.302   1.321   2.456  1.3299  0.1220  0.6533
 7914SOL     OW35203   4.647   1.797  10.612 -0.0049  0.1596 -0.7341
 7914SOL    HW135204   4.701   1.837  10.680  0.3596  0.5374 -1.2464
 7914SOL    HW235205   4.559   1.814  10.646 -0.9124 -0.7115 -2.6494
 7915SOL     OW35206   0.350   4.498  12.243  0.2939 -0.0693  0.2778
 7915SOL    HW135207   0.405   4.423  12.266  1.7453  0.6728 -0.7794
 7915SOL    HW235208   0.410   4.568  12.269 -1.5164  1.0230  1.5672
 7916SOL     OW35209   4.250   4.109   5.123 -0.3011  0.1074  0.3415
 7916SOL    HW135210   4.180   4.095   5.059 -0.6527 -1.4108  1.0563
 7916SOL    HW235211   4.257   4.017   5.150 -1.4934  0.0954  0.6265
 7917SOL     OW35212   0.890   0.102   8.407  0.6693  0.4376  0.3280
 7917SOL    HW135213   0.900   0.010   8.431  1.3679  0.8354  1.5669
 7917SOL    HW235214   0.829   0.079   8.337  1.3540  0.7354 -0.3630
 7918SOL     OW35215   4.660   2.012   5.511  0.1587  0.4571  0.3578
 7918SOL    HW135216   4.670   1.918   5.501 -2.8777  0.3069 -1.2825
 7918SOL    HW235217   4.595   2.026   5.579 -0.4375  0.2037 -0.1542
 7919SOL     OW35218   0.174   2.625   7.202 -0.8591  0.2371  0.0095
 7919SOL    HW135219   0.198   2.710   7.238 -1.6653 -0.1005  1.3673
 7919SOL    HW235220   0.260   2.585   7.212 -0.7412  0.2770 -0.8785
 7920SOL     OW35221   2.555   1.766   1.770  0.2953 -0.8874  0.2661
 7920SOL    HW135222   2.519   1.761   1.681 -0.9561  2.8153  0.5550
 7920SOL    HW235223   2.485   1.739   1.829  1.7692 -1.9200  1.5341
 7921SOL     OW35224   4.643   1.462   5.910  0.7040  0.1720 -0.3023
 7921SOL    HW135225   4.691   1.391   5.951 -1.6284 -1.9938 -1.2903
 7921SOL    HW235226   4.664   1.446   5.818  1.6546 -1.3803  0.1860
 7922SOL     OW35227   0.943   3.933   5.260 -0.1051 -0.4061  0.0283
 7922SOL    HW135228   0.852   3.912   5.282  0.2374  0.7521  2.5705
 7922SOL    HW235229   0.937   4.028   5.245 -0.8398 -0.1159  2.1529
 7923SOL     OW35230   2.270   3.777   9.789  0.2424  0.1936  0.5268
 7923SOL    HW135231   2.364   3.759   9.795  0.2212  0.0796  0.5242
 7923SOL    HW235232   2.235   3.688   9.779 -0.1461  0.4478 -0.3657
 7924SOL     OW35233   0.374   2.446   5.187 -0.2392  1.0076  0.1595
 7924SOL    HW135234   0.291   2.468   5.144 -0.6279 -0.0116  0.3848
 7924SOL    HW235235   0.392   2.527   5.234  0.6611  0.4558  0.7502
 7925SOL     OW35236   0.789   3.980   1.298 -0.4285 -0.1165  0.2409
 7925SOL    HW135237   0.800   4.074   1.292 -0.8800 -0.2767 -3.4790
 7925SOL    HW235238   0.858   3.951   1.357 -0.2036  1.3189  0.6631
 7926SOL     OW35239   2.489   1.566   7.072 -0.4307  0.1133  0.5198
 7926SOL    HW135240   2.502   1.488   7.126  1.1390 -0.2408 -0.3507
 7926SOL    HW235241   2.399   1.583   7.097 -0.5609 -0.0336  0.1475
 7927SOL     OW35242   2.291   0.519  14.403 -0.2116  0.4848 -0.4309
 7927SOL    HW135243   2.379   0.522  14.366 -0.6874  0.2364 -1.6150
 7927SOL    HW235244   2.230   0.488  14.335  0.6548  0.1244 -1.0488
 7928SOL     OW35245   1.894   1.220  16.694  0.0958  0.0684  0.2560
 7928SOL    HW135246   1.824   1.240  16.757  0.5564 -0.0707  0.8099
 7928SOL    HW235247   1.854   1.149  16.644  2.2960  0.6007 -2.2460
 7929SOL     OW35248   4.248   2.088   7.369  0.0824 -0.8283 -0.3513
 7929SOL    HW135249   4.318   2.103   7.305 -1.0566  1.9376 -0.9765
 7929SOL    HW235250   4.242   1.995   7.348 -2.0267 -0.7842  0.0605
 7930SOL     OW35251   4.605   0.711  16.546  0.0993 -0.0040  0.7538
 7930SOL    HW135252   4.535   0.770  16.516  1.9390  1.8061 -0.0080
 7930SOL    HW235253   4.682   0.766  16.534  0.6518 -1.3290 -1.7405
 7931SOL     OW35254   0.898   1.132  16.163 -0.5591  0.1457 -0.1625
 7931SOL    HW135255   0.867   1.114  16.251 -0.6052 -2.6984 -0.7617
 7931SOL    HW235256   0.908   1.047  16.121 -1.9729 -0.1832  0.1843
 7932SOL     OW35257   1.838   3.809   7.089 -0.2059  0.1709  0.3237
 7932SOL    HW135258   1.752   3.775   7.065 -1.2787  2.0306  1.5560
 7932SOL    HW235259   1.893   3.781   7.017  1.2625  1.4623  0.9301
 7933SOL     OW35260   2.453   2.435   6.543  0.4185 -0.0081  0.4847
 7933SOL    HW135261   2.528   2.378   6.558  0.6197 -0.0088 -0.5130
 7933SOL    HW235262   2.484   2.522   6.566  0.7405 -0.5277  1.9986
 7934SOL     OW35263   3.671   3.195   3.909  0.6511 -0.2115  0.3180
 7934SOL    HW135264   3.690   3.286   3.886 -2.5436  0.8009  1.7282
 7934SOL    HW235265   3.578   3.207   3.927  0.6983  2.3392 -1.1933
 7935SOL     OW35266   0.962   2.819   7.262 -0.9245  0.1186  0.7697
 7935SOL    HW135267   0.867   2.825   7.269 -1.1366 -2.4478  0.1240
 7935SOL    HW235268   0.974   2.762   7.185  0.0168  0.3515  0.7424
 7936SOL     OW35269   1.838   4.509  12.738  0.1260  0.0817  0.1816
 7936SOL    HW135270   1.871   4.534  12.651  0.2379 -2.6214 -0.5621
 7936SOL    HW235271   1.756   4.556  12.722  1.2794  2.1798  0.4575
 7937SOL     OW35272   3.518   4.575  12.797  0.3623  0.0178 -0.1294
 7937SOL    HW135273   3.585   4.632  12.833 -1.8625  1.7219  1.3061
 7937SOL    HW235274   3.454   4.612  12.857 -1.0461 -0.8694 -1.0686
 7938SOL     OW35275   0.475   3.545   4.464  0.3142 -0.2494 -0.1605
 7938SOL    HW135276   0.517   3.496   4.394  0.6598  0.4261 -0.4214
 7938SOL    HW235277   0.467   3.478   4.532  0.4278  0.0926  0.1939
 7939SOL     OW35278   2.055   1.933   4.275  0.1099  0.3025 -0.3253
 7939SOL    HW135279   2.075   1.858   4.331  0.6098  0.2499 -0.5720
 7939SOL    HW235280   1.971   1.967   4.306  0.1205  0.2135 -0.1990
 7940SOL     OW35281   4.544   0.644   5.717  0.1154  0.3383 -0.1600
 7940SOL    HW135282   4.494   0.572   5.755  0.7292 -0.7310 -1.3682
 7940SOL    HW235283   4.613   0.593   5.675 -1.4957 -2.0071  0.0113
 7941SOL     OW35284   2.397   0.875   9.335 -0.3929 -0.2907  0.2440
 7941SOL    HW135285   2.425   0.832   9.255  1.0706  0.6133  0.2625
 7941SOL    HW235286   2.387   0.805   9.400 -1.3383  0.2480  0.6824
 7942SOL     OW35287   1.105   3.720   5.123  0.4458 -0.4285  0.3240
 7942SOL    HW135288   1.135   3.677   5.204  1.9243  2.5888  1.3536
 7942SOL    HW235289   1.031   3.773   5.152  0.8283 -0.2961  1.0712
 7943SOL     OW35290   1.881   0.416   6.312 -0.1333 -0.0185  0.2525
 7943SOL    HW135291   1.898   0.491   6.368  1.8772  1.0216 -1.7444
 7943SOL    HW235292   1.893   0.467   6.232 -1.4841  0.9119  0.6481
 7944SOL     OW35293   1.728   0.633   2.407 -0.4054  0.0512 -0.5865
 7944SOL    HW135294   1.706   0.681   2.486 -0.1288 -0.2563 -0.3230
 7944SOL    HW235295   1.818   0.661   2.391 -0.4448  0.7236  0.3684
 7945SOL     OW35296   0.083   1.561   2.792 -0.0137 -0.0689  1.0301
 7945SOL    HW135297   0.092   1.508   2.712  1.5585  0.5107  0.8215
 7945SOL    HW235298   0.168   1.604   2.805  0.0258  0.4304 -0.8857
 7946SOL     OW35299   1.423   1.357   1.025 -0.7209 -0.2959  0.0548
 7946SOL    HW135300   1.399   1.408   0.948 -0.4309  1.1236  0.8986
 7946SOL    HW235301   1.422   1.426   1.091 -0.6027 -0.6458  0.4259
 7947SOL     OW35302   0.717   3.578   6.069 -0.5701 -0.4010  0.2878
 7947SOL    HW135303   0.624   3.563   6.080 -0.6582  1.7425  2.3432
 7947SOL    HW235304   0.720   3.601   5.976  1.1785  1.4756  0.7824
 7948SOL     OW35305   4.076   3.488   8.794 -0.2904 -0.0500 -0.2835
 7948SOL    HW135306   4.086   3.414   8.734 -0.0131 -1.2537  1.2483
 7948SOL    HW235307   4.169   3.507   8.799  0.1415 -2.3404  0.6591
 7949SOL     OW35308   4.458   3.774   4.425 -0.3178  0.4597  0.6917
 7949SOL    HW135309   4.425   3.779   4.515 -1.0778  2.7472  0.3103
 7949SOL    HW235310   4.551   3.759   4.440 -0.2061  2.5738  2.2144
 7950SOL     OW35311   1.523   2.857   5.459 -0.3866  0.1820  0.5227
 7950SOL    HW135312   1.456   2.907   5.506  0.0845  1.5591 -0.2581
 7950SOL    HW235313   1.472   2.789   5.415 -1.0509  2.1726 -1.8142
 7951SOL     OW35314   2.116   3.652   0.745  0.8938 -0.0055  0.3480
 7951SOL    HW135315   2.092   3.696   0.663 -2.1088  0.5492  1.5197
 7951SOL    HW235316   2.076   3.714   0.807 -0.8798  0.0140 -0.8034
 7952SOL     OW35317   2.779   0.672  10.212  0.0750  0.6043  0.0987
 7952SOL    HW135318   2.791   0.764  10.191  0.8776  0.3822 -0.4184
 7952SOL    HW235319   2.861   0.646  10.254 -0.6269 -2.4122 -0.3594
 7953SOL     OW35320   2.190   2.816  15.449 -0.6327 -0.3717 -0.7476
 7953SOL    HW135321   2.218   2.791  15.361  0.5940  1.3283 -0.8343
 7953SOL    HW235322   2.095   2.832  15.447 -0.9627 -2.2389  0.4787
 7954SOL     OW35323   0.681   3.753   9.409  0.2143 -0.3426  0.0742
 7954SOL    HW135324   0.751   3.814   9.386 -0.7338  0.2311 -1.3123
 7954SOL    HW235325   0.653   3.710   9.328 -3.4225 -0.6979  1.4911
 7955SOL     OW35326   2.532   3.840   6.697  0.0029  0.3893 -0.7082
 7955SOL    HW135327   2.548   3.751   6.666 -0.4929 -0.2586  0.9070
 7955SOL    HW235328   2.526   3.892   6.617  1.2381  0.2212 -0.9194
 7956SOL     OW35329   4.177   1.074   0.230 -0.5954 -0.3840  0.3120
 7956SOL    HW135330   4.245   1.120   0.280 -0.9295  0.6895 -0.2316
 7956SOL    HW235331   4.126   1.039   0.303  1.1597 -0.4470  1.5163
 7957SOL     OW35332   4.050   2.408   7.191  0.8619  1.0362  0.6178
 7957SOL    HW135333   4.132   2.425   7.145  1.1119  3.7955  2.0932
 7957SOL    HW235334   4.006   2.484   7.153 -1.9345 -0.7588  0.2712
 7958SOL     OW35335   1.942   1.227   4.684  0.0616 -0.0969 -0.5328
 7958SOL    HW135336   1.986   1.262   4.607  1.3867 -0.1021  0.2230
 7958SOL    HW235337   1.885   1.158   4.649  0.4740  0.7734 -2.8975
 7959SOL     OW35338   3.608   4.074   8.809  0.0439 -0.2497 -0.1809
 7959SOL    HW135339   3.545   4.107   8.745  1.3704  0.3646 -1.1666
 7959SOL    HW235340   3.657   4.155   8.822 -0.2147 -0.3279  1.3588
 7960SOL     OW35341   0.004   0.811   0.581  0.0526  0.1886  0.4551
 7960SOL    HW135342   0.086   0.834   0.539  1.4901 -2.9668  1.4815
 7960SOL    HW235343   0.037   0.770   0.661  0.4202  1.4091  0.9230
 7961SOL     OW35344   2.718   3.368   7.081 -0.1301 -0.8625  0.1479
 7961SOL    HW135345   2.731   3.308   7.155  2.3312 -0.7097 -0.1782
 7961SOL    HW235346   2.768   3.326   7.012  3.1605 -1.4968  2.9244
 7962SOL     OW35347   3.922   1.288   8.612 -0.5063 -0.0126  0.0235
 7962SOL    HW135348   3.933   1.256   8.702  0.7809  1.5785  0.4204
 7962SOL    HW235349   3.970   1.218   8.568  0.1644  0.8688 -0.6280
 7963SOL     OW35350   0.608   2.660   0.230 -0.3675 -0.0602  0.1009
 7963SOL    HW135351   0.549   2.732   0.252  0.6501  0.7482  0.2014
 7963SOL    HW235352   0.677   2.659   0.296 -1.0777  2.2931  0.8568
 7964SOL     OW35353   4.269   1.176   2.223  0.3775 -0.1505  0.3329
 7964SOL    HW135354   4.195   1.122   2.196 -0.8568  1.1205  1.1570
 7964SOL    HW235355   4.339   1.112   2.235  1.0119  0.6506  0.9196
 7965SOL     OW35356   3.189   4.453   2.272  0.3058 -0.0207 -0.1645
 7965SOL    HW135357   3.198   4.411   2.358 -1.9242  0.7102  0.4257
 7965SOL    HW235358   3.242   4.392   2.220 -0.9746  0.3408 -1.9082
 7966SOL     OW35359   4.055   1.327   8.326 -0.0749  0.0573  0.2981
 7966SOL    HW135360   4.058   1.261   8.396 -0.8393  1.7437  1.9139
 7966SOL    HW235361   4.118   1.272   8.279  1.2734  2.4837 -0.7696
 7967SOL     OW35362   2.434   3.301   1.295  0.0163 -0.3481  0.2316
 7967SOL    HW135363   2.473   3.261   1.373 -0.7710  0.7296  1.1665
 7967SOL    HW235364   2.513   3.343   1.260 -0.1458 -0.3297 -0.1084
 7968SOL     OW35365   0.134   1.611  13.993 -0.1841  0.3986  0.1312
 7968SOL    HW135366   0.176   1.541  13.942  1.2934 -0.1954  2.1555
 7968SOL    HW235367   0.128   1.676  13.924 -1.6509 -0.0594 -0.1741
 7969SOL     OW35368   3.478   0.720  17.233 -0.3237  0.1354  0.0396
 7969SOL    HW135369   3.476   0.636  17.187 -0.6662  0.4288 -0.4900
 7969SOL    HW235370   3.405   0.765  17.189 -0.4915  0.3612  0.5507
 7970SOL     OW35371   0.847   1.159   6.126 -0.1611 -0.4938 -0.1290
 7970SOL    HW135372   0.813   1.178   6.214 -0.5374 -0.7008 -0.2317
 7970SOL    HW235373   0.822   1.069   6.108 -3.3523  0.0848  1.3119
 7971SOL     OW35374   2.447   2.876   8.312  0.6170 -0.1636 -0.2154
 7971SOL    HW135375   2.531   2.863   8.355  0.1468  0.0767  0.7612
 7971SOL    HW235376   2.427   2.970   8.305 -1.3598 -0.4974  1.0543
 7972SOL     OW35377   3.156   2.245   2.723  0.2680 -0.0788 -0.1286
 7972SOL    HW135378   3.079   2.220   2.673 -0.4385  2.5707 -0.3598
 7972SOL    HW235379   3.224   2.233   2.656 -1.5518  0.0856 -1.9981
 7973SOL     OW35380   1.637   1.211   5.089 -0.1245 -0.2692 -0.1888
 7973SOL    HW135381   1.678   1.129   5.116 -0.1838 -0.1811  0.1740
 7973SOL    HW235382   1.717   1.258   5.066  0.5900 -0.1123  2.5811
 7974SOL     OW35383   1.815   0.363  15.430  0.3665 -0.3584  0.3662
 7974SOL    HW135384   1.875   0.340  15.359 -3.4013 -3.7050 -1.7009
 7974SOL    HW235385   1.842   0.451  15.459  1.7736 -0.9670  0.9323
 7975SOL     OW35386   1.945   3.057   1.142 -0.0638  0.0915 -0.7621
 7975SOL    HW135387   1.993   3.092   1.067  0.1644  1.2218 -0.0771
 7975SOL    HW235388   2.008   2.987   1.161  0.3921  0.8130  0.3481
 7976SOL     OW35389   1.372   4.123  15.538 -0.2396  0.1623 -0.4824
 7976SOL    HW135390   1.309   4.051  15.547  0.4550 -0.3282  0.5027
 7976SOL    HW235391   1.335   4.192  15.594 -0.9542 -1.0508  0.5447
 7977SOL     OW35392   4.691   3.110   5.279  0.0729  0.2052  0.4786
 7977SOL    HW135393   0.041   3.057   5.318  2.0868  1.4422 -1.4882
 7977SOL    HW235394   4.630   3.048   5.239  0.1115 -0.3478  1.2749
 7978SOL     OW35395   3.972   1.123   1.937  0.0129 -0.1097 -0.7308
 7978SOL    HW135396   3.885   1.097   1.966 -0.6367  4.1570  1.1948
 7978SOL    HW235397   4.011   1.041   1.907 -3.0551 -1.5959 -0.6165
 7979SOL     OW35398   2.697   0.836   9.133  0.1144  0.1059  0.0691
 7979SOL    HW135399   2.766   0.897   9.157  1.4993  0.6570 -5.2900
 7979SOL    HW235400   2.670   0.812   9.221  1.1961 -1.7162 -0.1018
 7980SOL     OW35401   0.614   1.968   7.786 -0.3551  0.0151 -0.0869
 7980SOL    HW135402   0.522   1.967   7.762 -0.0569 -0.5204 -1.2016
 7980SOL    HW235403   0.604   1.936   7.876 -2.5629  3.8951  1.0387
 7981SOL     OW35404   2.631   0.392   6.649 -0.4414  0.3460  0.2402
 7981SOL    HW135405   2.625   0.332   6.575  2.2016  1.5128 -0.9358
 7981SOL    HW235406   2.722   0.371   6.673  0.0322 -0.5663 -2.3357
 7982SOL     OW35407   4.219   2.633  16.752 -0.0798  0.1520 -1.0219
 7982SOL    HW135408   4.130   2.631  16.718 -0.4981 -0.3312  0.0938
 7982SOL    HW235409   4.205   2.593  16.838  0.1540 -0.1130 -1.1070
 7983SOL     OW35410   1.596   1.086  11.478 -0.5467 -0.1416 -0.7338
 7983SOL    HW135411   1.534   1.023  11.515  0.5428  0.0005  1.3918
 7983SOL    HW235412   1.677   1.047  11.512 -1.2147 -0.3731  0.6156
 7984SOL     OW35413   0.624   0.418   6.023  0.3466  0.2013 -0.0569
 7984SOL    HW135414   0.643   0.501   5.979 -0.1507 -0.2387 -1.1000
 7984SOL    HW235415   0.562   0.449   6.089 -0.4748 -2.7236  0.5378
 7985SOL     OW35416   1.842   0.710   5.456  0.0584 -0.0022 -0.3190
 7985SOL    HW135417   1.835   0.653   5.379 -1.3953 -1.0721  0.5982
 7985SOL    HW235418   1.858   0.639   5.518  2.0700  1.5906  0.9618
 7986SOL     OW35419   0.689   3.344   0.365 -0.3800  0.1001  0.1271
 7986SOL    HW135420   0.768   3.395   0.347 -1.8072  1.7902 -1.3918
 7986SOL    HW235421   0.612   3.402   0.359 -0.0249  0.4840 -0.8081
 7987SOL     OW35422   4.006   3.714   1.012  0.0271 -0.1054 -0.0835
 7987SOL    HW135423   4.010   3.680   0.923  0.4010  4.2331 -1.7156
 7987SOL    HW235424   4.098   3.723   1.036 -0.1907  0.3385  0.5744
 7988SOL     OW35425   4.585   1.118   6.763 -0.2463 -0.5639 -0.2017
 7988SOL    HW135426   4.606   1.041   6.816  0.9610  0.8474  1.3961
 7988SOL    HW235427   4.658   1.127   6.701 -0.4389  1.1314 -0.1947
 7989SOL     OW35428   2.432   1.559   8.461  0.9283  0.5306  0.0698
 7989SOL    HW135429   2.365   1.609   8.506 -0.5704 -0.7250 -0.7695
 7989SOL    HW235430   2.474   1.516   8.535 -0.8388 -1.1310  0.1039
 7990SOL     OW35431   2.037   0.949   8.901 -0.2857  0.2426 -0.3083
 7990SOL    HW135432   2.096   0.932   8.975 -0.9350  0.0335  0.1602
 7990SOL    HW235433   2.006   0.862   8.877 -1.2331  1.0839 -2.1014
 7991SOL     OW35434   4.371   1.202  11.570  0.4135 -0.6816 -1.1882
 7991SOL    HW135435   4.382   1.195  11.475 -0.6138  1.4765 -1.4580
 7991SOL    HW235436   4.404   1.119  11.604  1.3367 -0.4067 -1.3835
 7992SOL     OW35437   4.422   4.342   7.822  0.4183 -0.0034 -0.1679
 7992SOL    HW135438   4.423   4.247   7.835 -0.3321 -0.0328 -0.3178
 7992SOL    HW235439   4.505   4.364   7.863  0.1287 -0.2113  0.5268
 7993SOL     OW35440   4.619   0.410   7.368  0.0135  0.1455 -0.0896
 7993SOL    HW135441   4.585   0.410   7.278  0.0527 -2.5242 -0.0914
 7993SOL    HW235442   4.547   0.375   7.420 -1.1054  1.3800 -0.7978
 7994SOL     OW35443   1.900   1.939  15.005  0.3704 -0.2949  0.6241
 7994SOL    HW135444   1.859   1.934  15.091  0.3297  0.8487  0.6743
 7994SOL    HW235445   1.992   1.941  15.032  0.6527 -0.7716 -0.2813
 7995SOL     OW35446   1.893   2.381   5.106  0.4604 -0.2507 -0.3098
 7995SOL    HW135447   1.865   2.448   5.169  0.2533 -2.0543  1.5147
 7995SOL    HW235448   1.823   2.398   5.043  0.0469  0.0850  0.2408
 7996SOL     OW35449   1.645   3.454  13.682 -0.4615 -0.0240 -0.0392
 7996SOL    HW135450   1.714   3.471  13.618 -0.7584  1.4084  0.0341
 7996SOL    HW235451   1.596   3.390  13.631 -0.0070  0.4212 -1.0301
 7997SOL     OW35452   3.954   0.116   2.306 -0.0128  0.7790  0.5401
 7997SOL    HW135453   3.882   0.071   2.351  1.3915 -2.5097 -0.5198
 7997SOL    HW235454   3.920   0.139   2.219 -1.1782  1.2629  1.1200
 7998SOL     OW35455   4.217   2.413   9.931  0.5079 -0.9655  0.0866
 7998SOL    HW135456   4.232   2.321   9.952  3.3147 -0.4267  0.3683
 7998SOL    HW235457   4.140   2.408   9.874  0.6980  0.8205 -0.3264
 7999SOL     OW35458   0.036   2.212   6.427  0.4912  0.2447 -0.3398
 7999SOL    HW135459   0.019   2.235   6.336  0.5542  1.3445 -0.0804
 7999SOL    HW235460   4.712   2.128   6.442  0.5281 -0.1337 -2.4755
 8000SOL     OW35461   2.177   2.854   1.518  0.2920 -0.9002 -0.1511
 8000SOL    HW135462   2.141   2.774   1.557  1.6734  0.1571  3.3169
 8000SOL    HW235463   2.269   2.829   1.514  0.9571  1.7077 -0.9781
 8001SOL     OW35464   1.705   1.082   6.144 -0.3607  0.4422 -0.1852
 8001SOL    HW135465   1.722   1.123   6.229  2.1074  0.0858 -0.5211
 8001SOL    HW235466   1.723   0.994   6.177 -0.4403 -0.9782 -3.9200
 8002SOL     OW35467   3.145   0.038   8.764  0.6480  0.3800  0.1544
 8002SOL    HW135468   3.139   4.665   8.784  2.9003  0.2471  0.2336
 8002SOL    HW235469   3.145   0.040   8.668  0.1757  0.1100  0.1498
 8003SOL     OW35470   1.687   3.791   5.646 -0.3734  0.2686  0.3840
 8003SOL    HW135471   1.760   3.829   5.597  0.4988 -3.0447 -0.9148
 8003SOL    HW235472   1.709   3.783   5.738  0.4942  0.5796  0.2009
 8004SOL     OW35473   2.209   4.644  10.250 -0.2596 -0.0626  0.2252
 8004SOL    HW135474   2.232   4.608  10.165  1.6450 -1.2755  1.2627
 8004SOL    HW235475   2.179   0.013  10.233 -2.5166 -1.1925 -1.6955
 8005SOL     OW35476   1.433   3.088   6.465  0.2489 -0.3595 -0.1823
 8005SOL    HW135477   1.424   3.076   6.559 -0.6213  0.6181 -0.1474
 8005SOL    HW235478   1.521   3.126   6.459  0.6244 -1.2409 -0.3996
 8006SOL     OW35479   1.943   0.412  14.789 -0.0133  0.3922  0.6384
 8006SOL    HW135480   1.889   0.344  14.831  0.3599  0.8312  1.8511
 8006SOL    HW235481   2.007   0.434  14.857  0.8538  0.7371 -0.2988
 8007SOL     OW35482   3.467   3.654   3.039  1.2424  0.1810  0.3137
 8007SOL    HW135483   3.458   3.587   2.971 -2.9265  0.1538  0.9074
 8007SOL    HW235484   3.504   3.605   3.112 -0.3471 -0.7691  0.4638
 8008SOL     OW35485   2.144   2.645   6.261 -0.6900  0.1088 -0.6757
 8008SOL    HW135486   2.064   2.643   6.313  1.3077  0.9079  2.4499
 8008SOL    HW235487   2.201   2.593   6.318 -0.2882  2.0541  0.6947
 8009SOL     OW35488   3.693   4.084  10.769 -0.4300 -0.4685  0.0668
 8009SOL    HW135489   3.758   4.015  10.755  2.4441  2.2422  0.3560
 8009SOL    HW235490   3.652   4.091  10.682  1.2023 -1.7462 -0.8235
 8010SOL     OW35491   0.830   3.256   6.352  0.0968 -0.0117  0.1916
 8010SOL    HW135492   0.799   3.336   6.395  0.0982 -0.2293  0.5972
 8010SOL    HW235493   0.865   3.296   6.272 -0.9357  2.0186  0.7614
 8011SOL     OW35494   4.140   0.528   6.205  0.0066 -0.3824 -0.6104
 8011SOL    HW135495   4.101   0.611   6.232  0.5274  0.4065 -2.2988
 8011SOL    HW235496   4.199   0.521   6.280 -0.1959 -0.4485 -0.4555
 8012SOL     OW35497   2.639   3.022   3.771 -0.2177 -0.5038  0.3737
 8012SOL    HW135498   2.702   3.087   3.739 -0.1864 -0.0679  1.3106
 8012SOL    HW235499   2.690   2.941   3.764  1.7695  0.8863 -1.4729
 8013SOL     OW35500   4.556   3.486   5.291 -0.0564  0.9718  0.3850
 8013SOL    HW135501   4.465   3.497   5.319 -0.1125  1.9648 -0.1989
 8013SOL    HW235502   4.534   3.448   5.206  1.2718 -4.1049  2.3292
 8014SOL     OW35503   3.658   4.301   0.497  0.1960  0.3699 -0.1846
 8014SOL    HW135504   3.667   4.346   0.581  0.0725  2.2656 -1.1864
 8014SOL    HW235505   3.707   4.224   0.523 -0.9718 -0.1526  0.4443
 8015SOL     OW35506   4.072   3.727   0.006  0.4073  0.1053  0.2051
 8015SOL    HW135507   4.084   3.664   0.078 -0.4863 -0.0818  0.1926
 8015SOL    HW235508   4.009   3.779   0.057  1.5187  0.4280  1.2714
 8016SOL     OW35509   3.096   3.930   1.069 -0.6327 -0.3530 -0.1260
 8016SOL    HW135510   3.034   3.863   1.043 -2.0476 -0.3180  3.1091
 8016SOL    HW235511   3.054   3.979   1.140  0.0103  0.2244 -0.1327
 8017SOL     OW35512   1.166   0.383   0.850 -0.7421 -0.0438 -0.0195
 8017SOL    HW135513   1.240   0.342   0.805 -0.6844  0.0069  0.0290
 8017SOL    HW235514   1.097   0.331   0.810 -2.6232  0.5488  2.4503
 8018SOL     OW35515   1.258   2.047   6.884 -0.1011  0.6679  0.7839
 8018SOL    HW135516   1.224   2.076   6.799  0.8528 -1.6902 -0.3797
 8018SOL    HW235517   1.333   2.107   6.887  0.5166  0.0375 -1.7176
 8019SOL     OW35518   2.747   4.304   0.693  0.0510  0.3359  0.1577
 8019SOL    HW135519   2.764   4.211   0.700  2.7200  0.6753 -1.5201
 8019SOL    HW235520   2.835   4.330   0.665  0.4908 -1.3125  0.0318
 8020SOL     OW35521   3.141   1.954  12.598 -0.1416  0.1320 -0.0673
 8020SOL    HW135522   3.198   2.030  12.587 -0.0285 -0.0103 -0.4823
 8020SOL    HW235523   3.186   1.921  12.676 -1.6423 -1.3522  0.1557
 8021SOL     OW35524   0.014   3.279  14.515  0.2431 -0.4054  0.9702
 8021SOL    HW135525   4.655   3.326  14.486  0.9173 -0.3269 -0.6963
 8021SOL    HW235526   0.062   3.264  14.434 -0.1853 -1.4246  0.9012
 8022SOL     OW35527   2.677   4.414   4.639 -0.0150 -0.2457  0.1307
 8022SOL    HW135528   2.584   4.393   4.650 -0.1063  0.9728  1.5788
 8022SOL    HW235529   2.697   4.373   4.555 -0.7270  1.6188 -0.9529
 8023SOL     OW35530   2.629   1.199  16.298  0.2544  0.7128 -0.7024
 8023SOL    HW135531   2.722   1.194  16.319 -0.0437 -1.4748  0.1270
 8023SOL    HW235532   2.602   1.107  16.294  0.2846  0.6423  0.9365
 8024SOL     OW35533   2.810   1.872   5.173 -0.2452  0.1554  0.4581
 8024SOL    HW135534   2.719   1.901   5.180 -0.1981  0.1421  1.1584
 8024SOL    HW235535   2.862   1.952   5.179  2.4685 -1.4552 -1.5099
 8025SOL     OW35536   1.912   4.091   6.395  0.3513  0.3767  0.4553
 8025SOL    HW135537   1.869   4.098   6.310 -1.4533 -1.4879  1.1747
 8025SOL    HW235538   2.001   4.076   6.365  0.0065  2.1751 -1.4409
 8026SOL     OW35539   4.619   4.395  17.016 -0.4324 -0.1107 -0.6324
 8026SOL    HW135540   4.637   4.482  16.978  2.0977 -0.0688  0.6573
 8026SOL    HW235541   4.696   4.387  17.073 -0.7485  0.4539 -0.1189
 8027SOL     OW35542   2.130   1.346   4.091 -0.4048  0.8793  0.3124
 8027SOL    HW135543   2.179   1.426   4.073  2.9571 -1.1819  0.2304
 8027SOL    HW235544   2.190   1.301   4.151  0.3146  2.4171  0.7612
 8028SOL     OW35545   1.076   3.294   9.006  0.2244  0.4681 -0.2292
 8028SOL    HW135546   1.057   3.283   9.099 -1.5812  1.7896 -0.4483
 8028SOL    HW235547   1.122   3.378   9.009 -0.9215  1.0866  0.3777
 8029SOL     OW35548   2.703   0.271   6.391 -0.0980  0.2347  0.6763
 8029SOL    HW135549   2.795   0.282   6.415 -0.1627 -0.6350  1.3527
 8029SOL    HW235550   2.694   0.202   6.325 -1.6207  1.0179  0.0811
 8030SOL     OW35551   3.546   4.568   3.967 -0.1192 -0.0985 -0.2599
 8030SOL    HW135552   3.637   4.594   3.980  0.1366 -0.0433 -2.1366
 8030SOL    HW235553   3.561   4.473   3.967  2.4580  0.3207 -0.1377
 8031SOL     OW35554   2.245   3.475   8.655 -0.3112 -0.1954  0.5014
 8031SOL    HW135555   2.174   3.527   8.617 -0.2612  0.2143  0.9707
 8031SOL    HW235556   2.249   3.394   8.604  0.5073 -0.1897  0.5558
 8032SOL     OW35557   0.175   4.280   7.432  0.0745  0.6012 -0.2800
 8032SOL    HW135558   0.254   4.325   7.463 -0.7311 -0.6588  3.5084
 8032SOL    HW235559   0.125   4.353   7.394  1.4166  1.8473  0.3669
 8033SOL     OW35560   3.697   2.523   8.690 -0.0032  0.7230 -0.7430
 8033SOL    HW135561   3.761   2.581   8.649  2.3152 -2.4424 -1.6433
 8033SOL    HW235562   3.614   2.568   8.677 -1.8046 -2.6600 -1.0764
 8034SOL     OW35563   2.649   4.071   4.157  0.1733  0.3201 -0.1882
 8034SOL    HW135564   2.620   3.982   4.135  4.7442 -1.4871  1.0189
 8034SOL    HW235565   2.725   4.087   4.101  0.2363 -0.4801 -0.3383
 8035SOL     OW35566   0.762   1.618   6.560  0.1810 -0.2848 -0.3898
 8035SOL    HW135567   0.800   1.706   6.559 -0.9586  0.2074 -0.3250
 8035SOL    HW235568   0.704   1.626   6.636  2.1949  0.3803  1.0947
 8036SOL     OW35569   1.609   0.418   5.238  0.8376  0.4547  0.2009
 8036SOL    HW135570   1.538   0.473   5.270  0.5279 -0.0358  0.3459
 8036SOL    HW235571   1.567   0.399   5.154 -3.5783  0.4557  2.4061
 8037SOL     OW35572   2.850   0.900   7.312 -0.0322 -0.8852 -0.3249
 8037SOL    HW135573   2.785   0.937   7.251  2.7430  0.8856 -2.2193
 8037SOL    HW235574   2.804   0.853   7.381 -1.3578 -0.4627 -0.9124
 8038SOL     OW35575   1.006   0.894   6.447  0.0658  0.2312 -0.3506
 8038SOL    HW135576   1.035   0.985   6.436  0.6939 -0.0604 -1.1504
 8038SOL    HW235577   1.056   0.861   6.521 -0.6588  1.1046  0.5364
 8039SOL     OW35578   2.791   4.324  15.857 -0.1284  0.0604 -0.7383
 8039SOL    HW135579   2.718   4.343  15.916  1.7835  0.2072  1.6080
 8039SOL    HW235580   2.787   4.392  15.790 -3.2300 -0.6794 -1.2923
 8040SOL     OW35581   1.555   3.334   7.456  0.0813 -0.1479  0.6237
 8040SOL    HW135582   1.632   3.364   7.505  0.0682 -1.6160  1.5214
 8040SOL    HW235583   1.540   3.412   7.402  0.1941  0.4217  1.4073
 8041SOL     OW35584   1.615   2.212   2.550 -0.7873  0.0464 -0.5522
 8041SOL    HW135585   1.588   2.303   2.538  2.0534  1.1247  1.3040
 8041SOL    HW235586   1.552   2.159   2.598 -0.5805 -0.6249 -1.0323
 8042SOL     OW35587   4.366   2.004   9.742  0.0218  0.1406 -0.9678
 8042SOL    HW135588   4.411   1.921   9.757 -1.2051 -0.3212  0.1946
 8042SOL    HW235589   4.361   2.047   9.827 -1.6139 -0.1594 -0.9003
 8043SOL     OW35590   1.105   2.895  10.318 -0.3426 -0.2127  0.1285
 8043SOL    HW135591   1.109   2.974  10.264 -2.5277  0.1199  0.4314
 8043SOL    HW235592   1.081   2.925  10.406 -3.2353  1.9872 -1.4162
 8044SOL     OW35593   2.475   1.385   7.940  0.6849  0.1407 -0.1356
 8044SOL    HW135594   2.395   1.336   7.957  0.8518 -0.2336 -0.4173
 8044SOL    HW235595   2.530   1.362   8.014  0.1981 -0.8048 -0.0713
 8045SOL     OW35596   3.649   2.868   2.381  0.0463  0.3424 -0.3163
 8045SOL    HW135597   3.576   2.929   2.389  0.2242  0.4546  0.5163
 8045SOL    HW235598   3.618   2.798   2.439  0.4820 -0.8269 -1.5114
 8046SOL     OW35599   1.775   3.155   0.211 -0.2086 -0.2778  0.1278
 8046SOL    HW135600   1.746   3.231   0.160  1.3926 -0.8087 -1.5729
 8046SOL    HW235601   1.859   3.132   0.170  0.4638  1.7603  0.3684
 8047SOL     OW35602   0.465   3.658   8.398  0.0235  0.2297  0.2819
 8047SOL    HW135603   0.482   3.688   8.487  1.7997  0.0212  0.0028
 8047SOL    HW235604   0.543   3.698   8.360  0.8308 -1.2478  0.3845
 8048SOL     OW35605   0.786   0.245   7.187  0.2627  0.2058  0.2562
 8048SOL    HW135606   0.795   0.309   7.116 -0.2207 -4.3593 -3.9053
 8048SOL    HW235607   0.694   0.221   7.182 -0.1632  1.5264  1.7386
 8049SOL     OW35608   4.389   1.132  11.304  0.3099  0.0222 -0.2146
 8049SOL    HW135609   4.457   1.077  11.266 -0.7605 -1.1566 -0.4316
 8049SOL    HW235610   4.320   1.141  11.238  0.8324  0.7806 -0.6558
 8050SOL     OW35611   4.295   1.030  13.695 -0.3674 -0.0477 -0.2949
 8050SOL    HW135612   4.282   1.080  13.615 -1.3451  0.5747  0.2608
 8050SOL    HW235613   4.259   0.943  13.680  0.2600 -0.0129 -2.0368
 8051SOL     OW35614   1.645   3.002   5.220 -0.0325 -0.2329 -0.0722
 8051SOL    HW135615   1.623   2.922   5.171 -1.5803  0.9986 -1.3701
 8051SOL    HW235616   1.615   2.981   5.308  0.6902 -1.4363 -0.1051
 8052SOL     OW35617   0.560   3.654  17.247  0.0257  0.3436 -0.5797
 8052SOL    HW135618   0.478   3.690  17.280 -0.7183 -0.0543 -2.0083
 8052SOL    HW235619   0.575   3.575  17.298  0.8185  0.3952 -0.7343
 8053SOL     OW35620   2.126   0.900   0.418  0.4026 -0.0931 -0.4316
 8053SOL    HW135621   2.107   0.833   0.352  0.3856 -1.6706  1.1459
 8053SOL    HW235622   2.207   0.862   0.453 -0.3197 -0.6139  0.6896
 8054SOL     OW35623   3.867   3.402  10.813 -0.0745  0.1757 -0.7726
 8054SOL    HW135624   3.872   3.310  10.838  0.1751  0.1953 -0.7530
 8054SOL    HW235625   3.810   3.426  10.886 -0.3177 -1.5512 -0.4123
 8055SOL     OW35626   0.130   4.087   6.987 -0.1583  0.3223  0.1299
 8055SOL    HW135627   0.089   4.022   7.045 -0.0054 -1.9903 -2.3491
 8055SOL    HW235628   0.129   4.044   6.902  1.0804 -0.5975  0.5855
 8056SOL     OW35629   1.351   3.954   0.075  0.2892  0.5850 -0.4259
 8056SOL    HW135630   1.362   3.864   0.106  2.4260  0.3793 -1.8007
 8056SOL    HW235631   1.423   3.960   0.012  0.7541 -0.4578  0.0076
 8057SOL     OW35632   4.568   0.908   4.084  0.2319  0.4717 -0.1048
 8057SOL    HW135633   4.531   0.937   4.167  1.1398  1.8054 -0.1616
 8057SOL    HW235634   4.558   0.985   4.027 -0.0756  1.0076  0.6741
 8058SOL     OW35635   1.752   1.310   3.797  0.3768 -0.1674  0.4895
 8058SOL    HW135636   1.819   1.378   3.804  0.6265 -0.2519 -1.1242
 8058SOL    HW235637   1.789   1.260   3.725  0.3880  1.3632 -0.5597
 8059SOL     OW35638   2.886   0.829   7.999 -0.4396  0.3347 -0.4777
 8059SOL    HW135639   2.926   0.817   7.913 -0.4307  0.8479 -0.5447
 8059SOL    HW235640   2.914   0.918   8.021 -1.5626  0.2553  1.2962
 8060SOL     OW35641   4.676   2.691   2.115  0.0145 -0.3906 -0.1298
 8060SOL    HW135642   4.696   2.613   2.062  2.4575 -1.1465  1.9086
 8060SOL    HW235643   4.678   2.763   2.052  1.0851 -0.0883  0.2505
 8061SOL     OW35644   2.082   2.736   0.706  0.2633  0.2544 -0.0497
 8061SOL    HW135645   2.117   2.704   0.623  2.7234  0.2143  1.0059
 8061SOL    HW235646   1.994   2.699   0.705  0.3054  0.1932 -2.8684
 8062SOL     OW35647   0.839   2.702  14.835  0.4144 -0.3680 -0.0335
 8062SOL    HW135648   0.893   2.775  14.865 -1.3191  0.4837  1.0025
 8062SOL    HW235649   0.750   2.733  14.846  0.4939  0.2367 -1.1360
 8063SOL     OW35650   2.078   0.351  16.506 -0.2503 -0.5354  0.3455
 8063SOL    HW135651   2.171   0.331  16.503 -0.1578  0.1142 -1.0826
 8063SOL    HW235652   2.052   0.319  16.592  0.9748  2.6253  1.9055
 8064SOL     OW35653   3.560   1.759   6.290  0.1818  0.3868  0.6711
 8064SOL    HW135654   3.654   1.774   6.301  0.5148 -0.5657 -0.9195
 8064SOL    HW235655   3.568   1.756   6.195 -0.5380 -1.4146  0.6833
 8065SOL     OW35656   0.977   1.594   2.977 -0.6087 -0.7103  0.0011
 8065SOL    HW135657   0.915   1.622   2.910  0.8599 -0.4955 -1.2742
 8065SOL    HW235658   0.960   1.500   2.968 -2.4436 -0.3328 -0.4163
 8066SOL     OW35659   1.404   4.438   8.551 -0.5002 -0.6157  0.0564
 8066SOL    HW135660   1.474   4.482   8.599 -0.5547  1.4563 -1.7933
 8066SOL    HW235661   1.437   4.348   8.549  1.3072  0.0311  0.6404
 8067SOL     OW35662   1.586   2.951   9.303 -0.4585 -0.3230  0.6511
 8067SOL    HW135663   1.542   2.987   9.380 -3.0460 -0.7355 -0.6665
 8067SOL    HW235664   1.549   2.864   9.286  2.3226 -1.3863 -0.0072
 8068SOL     OW35665   3.489   1.658   7.938 -0.4398 -0.1522 -0.0557
 8068SOL    HW135666   3.398   1.688   7.939 -0.5124 -0.4074  1.1504
 8068SOL    HW235667   3.496   1.641   7.844 -2.4826  0.1643 -0.2793
 8069SOL     OW35668   1.416   1.939  11.507  0.0166  0.0204 -0.0143
 8069SOL    HW135669   1.474   2.014  11.489 -0.5141  0.1005 -1.4444
 8069SOL    HW235670   1.470   1.887  11.566 -0.9616 -2.0495 -0.9470
 8070SOL     OW35671   1.965   2.196   2.688 -0.3187 -0.0051 -0.1863
 8070SOL    HW135672   1.930   2.208   2.777  0.5300  2.2524 -0.1638
 8070SOL    HW235673   1.942   2.280   2.648  0.1155  0.0444 -0.3325
 8071SOL     OW35674   0.861   3.928  10.262  0.6278 -0.1515  0.1353
 8071SOL    HW135675   0.927   3.892  10.203  0.9943  2.9178 -1.3457
 8071SOL    HW235676   0.860   4.020  10.236  1.1415  0.0198  0.7159
 8072SOL     OW35677   1.226   2.554   5.217 -0.1672 -0.2257  0.3361
 8072SOL    HW135678   1.210   2.613   5.291  2.0241  0.1947  0.4756
 8072SOL    HW235679   1.291   2.495   5.256 -0.2972  0.9458  2.3157
 8073SOL     OW35680   1.642   3.535   9.049  0.4964 -0.4926  0.2500
 8073SOL    HW135681   1.708   3.560   9.113  1.1864 -0.2536 -0.5486
 8073SOL    HW235682   1.637   3.620   9.005 -0.7833 -1.6985 -1.9933
 8074SOL     OW35683   3.103   2.630   6.402 -0.3275  0.6790  0.1893
 8074SOL    HW135684   3.024   2.679   6.378 -0.8674 -0.5044 -0.4562
 8074SOL    HW235685   3.115   2.570   6.329  0.4598 -0.1044  0.9590
 8075SOL     OW35686   2.526   0.633   4.075  1.0894 -0.1956 -0.0632
 8075SOL    HW135687   2.514   0.588   4.159  0.8427 -0.1158 -0.0551
 8075SOL    HW235688   2.512   0.724   4.101 -2.3074 -0.6340 -0.3124
 8076SOL     OW35689   0.718   4.500  16.113  0.8512 -0.1992  0.2587
 8076SOL    HW135690   0.681   4.588  16.114 -0.4967 -0.7892  2.0919
 8076SOL    HW235691   0.810   4.527  16.110  1.4109 -1.9400  1.6550
 8077SOL     OW35692   1.443   0.642  14.477  0.3691 -0.4832  0.2104
 8077SOL    HW135693   1.394   0.596  14.546 -0.6501  0.8462  0.3746
 8077SOL    HW235694   1.499   0.697  14.530  0.0305  0.5908 -0.5429
 8078SOL     OW35695   3.460   1.687   0.599  0.7044  0.1170  0.0502
 8078SOL    HW135696   3.433   1.680   0.691  0.2236  1.0152 -0.0192
 8078SOL    HW235697   3.532   1.750   0.595  0.1026  0.7747 -0.4799
 8079SOL     OW35698   3.936   2.784  11.616 -0.1118  0.3580  0.0534
 8079SOL    HW135699   3.984   2.702  11.617 -0.7527 -0.0056  0.8829
 8079SOL    HW235700   3.975   2.832  11.542  2.8831 -2.7371 -0.3219
 8080SOL     OW35701   1.243   3.352   0.071  0.5206  0.1887  0.7958
 8080SOL    HW135702   1.208   3.314  17.672 -0.7170 -2.3915  2.5510
 8080SOL    HW235703   1.265   3.439   0.037  0.5199 -0.3246 -0.5098
 8081SOL     OW35704   2.713   1.179   7.101  0.2231 -0.5168 -0.3865
 8081SOL    HW135705   2.658   1.111   7.139  1.1238 -2.1958 -2.1101
 8081SOL    HW235706   2.714   1.238   7.177 -2.9253  2.2386 -2.5014
 8082SOL     OW35707   1.490   0.172   7.533 -0.1044  0.0135 -0.4242
 8082SOL    HW135708   1.539   0.204   7.457  2.0315 -1.1469  0.4701
 8082SOL    HW235709   1.422   0.123   7.487 -0.2044 -0.1827 -0.0638
 8083SOL     OW35710   3.090   2.096   3.922  0.0707  0.3536  0.3934
 8083SOL    HW135711   3.000   2.121   3.898 -0.4998 -0.1668  1.9751
 8083SOL    HW235712   3.079   2.049   4.004  0.7848  0.7389  0.7107
 8084SOL     OW35713   4.674   2.171   8.268 -0.1759  0.5411  0.0175
 8084SOL    HW135714   4.688   2.215   8.353 -0.5087  0.3897  0.1522
 8084SOL    HW235715   0.043   2.168   8.233 -0.2447 -3.5864  0.2561
 8085SOL     OW35716   4.604   0.269   0.615 -0.3937  0.2413 -0.2620
 8085SOL    HW135717   4.672   0.210   0.649 -1.8108 -2.5133 -2.2681
 8085SOL    HW235718   4.561   0.295   0.697  3.2700  0.1590  1.6962
 8086SOL     OW35719   2.656   1.968   7.803  0.1204 -0.1588  0.4476
 8086SOL    HW135720   2.619   2.053   7.778  0.8414 -0.2760 -1.0068
 8086SOL    HW235721   2.581   1.910   7.818  0.0700 -0.0224  0.7273
 8087SOL     OW35722   0.797   0.299   0.934  0.0820 -0.0776 -0.0522
 8087SOL    HW135723   0.701   0.302   0.933  0.0478 -1.0775  0.2826
 8087SOL    HW235724   0.816   0.257   1.018  1.2262 -0.7893 -0.6656
 8088SOL     OW35725   2.359   1.705   4.249  0.3189  0.0707 -0.8353
 8088SOL    HW135726   2.336   1.660   4.167 -0.5509 -1.2656  0.1241
 8088SOL    HW235727   2.274   1.705   4.293  1.0962  3.0573  0.6366
 8089SOL     OW35728   1.515   2.761   8.344 -0.4938  0.0355  0.1049
 8089SOL    HW135729   1.489   2.805   8.425  1.0919 -1.4879  1.4277
 8089SOL    HW235730   1.554   2.833   8.293 -2.2953 -0.0241 -1.3620
 8090SOL     OW35731   4.580   1.719   1.536  0.5326 -0.0116 -0.7482
 8090SOL    HW135732   4.661   1.675   1.562  1.5193  1.4732 -1.2693
 8090SOL    HW235733   4.575   1.788   1.602 -0.3072 -0.1657 -0.6561
 8091SOL     OW35734   4.666   2.449   6.587 -0.0147 -0.7408 -0.4222
 8091SOL    HW135735   4.719   2.377   6.552  1.6129 -0.6576  1.9325
 8091SOL    HW235736   4.609   2.404   6.649 -0.7807  0.6173 -0.1360
 8092SOL     OW35737   4.656   3.743  12.780  0.5467  0.4635 -0.2245
 8092SOL    HW135738   4.685   3.667  12.831 -0.9633 -0.2409 -0.4048
 8092SOL    HW235739   4.561   3.729  12.780  0.6759 -0.4515 -0.1077
 8093SOL     OW35740   2.254   3.353   9.868 -0.3907 -0.3188 -0.3689
 8093SOL    HW135741   2.184   3.390   9.922 -0.9713 -1.4043 -0.3805
 8093SOL    HW235742   2.225   3.262   9.867  0.7356 -0.6968  1.6512
 8094SOL     OW35743   3.186   2.593   2.066  0.0286 -0.0369  0.4584
 8094SOL    HW135744   3.135   2.672   2.084  2.4550  1.7512 -0.4331
 8094SOL    HW235745   3.126   2.521   2.049  0.8448 -1.3095  3.0199
 8095SOL     OW35746   4.381   1.105   8.881  0.4260  0.2377 -0.3823
 8095SOL    HW135747   4.441   1.113   8.956 -0.2661  0.6531  0.1324
 8095SOL    HW235748   4.439   1.113   8.806 -0.3333  0.6186 -0.9250
 8096SOL     OW35749   1.386   3.461  10.260 -0.1764 -0.1811  0.1884
 8096SOL    HW135750   1.296   3.441  10.237  0.8615 -0.1185 -3.8744
 8096SOL    HW235751   1.442   3.403  10.209  1.1613 -0.2573  1.7553
 8097SOL     OW35752   4.100   4.021   7.398  0.1051 -0.3455 -0.3620
 8097SOL    HW135753   4.022   4.051   7.351 -1.3569 -0.5898  1.9170
 8097SOL    HW235754   4.065   3.985   7.479  0.0871 -0.8289 -0.5832
 8098SOL     OW35755   1.353   3.883   6.842 -0.2738  0.2153  0.2948
 8098SOL    HW135756   1.325   3.957   6.789  1.0058  1.0138  0.7420
 8098SOL    HW235757   1.322   3.912   6.928  2.8690 -0.1290  1.5339
 8099SOL     OW35758   2.691   4.217  10.504  0.6353 -0.7486 -0.5478
 8099SOL    HW135759   2.713   4.302  10.465 -1.5766  0.5671  1.1208
 8099SOL    HW235760   2.687   4.242  10.596 -0.7719 -1.9695 -0.2795
 8100SOL     OW35761   4.264   0.066   8.218 -0.2329  0.4822  0.5888
 8100SOL    HW135762   4.308   0.148   8.195 -0.1784  0.3948  0.3777
 8100SOL    HW235763   4.325   4.720   8.185 -1.8182 -1.8658  2.3300
 8101SOL     OW35764   0.269   4.690   5.583 -0.0202  0.5401  0.6535
 8101SOL    HW135765   0.275   4.673   5.677 -1.7380 -0.8242  0.5447
 8101SOL    HW235766   0.247   4.598   5.568 -1.7843  1.2971 -1.4999
 8102SOL     OW35767   3.915   3.269   2.994  0.4555  0.0739  0.5024
 8102SOL    HW135768   3.834   3.242   3.037 -0.4045 -0.9417 -1.7793
 8102SOL    HW235769   3.885   3.281   2.904 -2.8242 -0.3213  1.5313
 8103SOL     OW35770   1.901   2.472  10.592  0.0878  0.8143  0.5701
 8103SOL    HW135771   1.914   2.526  10.670  0.6324  1.1345  0.2578
 8103SOL    HW235772   1.845   2.527  10.537  0.2649  1.7348  1.3176
 8104SOL     OW35773   4.714   0.247   2.143  0.1909  0.0478  0.6937
 8104SOL    HW135774   0.010   0.272   2.052 -0.4285  2.3787  1.2346
 8104SOL    HW235775   0.014   0.333   2.179 -0.2929 -0.0611  1.2194
 8105SOL     OW35776   2.525   1.435   4.933 -0.2561 -0.1947  0.6867
 8105SOL    HW135777   2.505   1.363   4.992 -0.0233 -2.0373 -1.4897
 8105SOL    HW235778   2.509   1.512   4.988  0.3659 -0.7634  1.6637
 8106SOL     OW35779   3.639   1.761   3.813 -0.1391  0.2096  0.0348
 8106SOL    HW135780   3.634   1.802   3.726 -0.0513  0.0926 -0.0255
 8106SOL    HW235781   3.637   1.668   3.792 -2.3312  0.5543 -1.3062
 8107SOL     OW35782   4.458   2.680   3.917  0.5832 -0.1135  0.6316
 8107SOL    HW135783   4.499   2.641   3.841  1.2928 -1.8543  1.9221
 8107SOL    HW235784   4.434   2.764   3.876  0.0328 -0.9448 -0.7333
 8108SOL     OW35785   2.249   3.841   7.129  0.1867 -0.4843 -0.2003
 8108SOL    HW135786   2.316   3.868   7.066  0.9264 -0.9097  0.4026
 8108SOL    HW235787   2.242   3.752   7.095 -0.9711  0.0985 -1.4770
 8109SOL     OW35788   3.014   2.653  16.718  0.1333 -0.0653  0.2902
 8109SOL    HW135789   3.015   2.627  16.810  4.4234  2.6359  0.9957
 8109SOL    HW235790   3.069   2.732  16.717 -0.8296  0.5959 -0.4488
 8110SOL     OW35791   0.774   0.273  11.729  0.3090 -0.6648  0.3300
 8110SOL    HW135792   0.691   0.265  11.775 -0.1008  1.1877 -0.0792
 8110SOL    HW235793   0.770   0.366  11.709  0.0678 -0.2386  2.3951
 8111SOL     OW35794   3.462   2.117  10.352  0.0556 -0.2259  0.5250
 8111SOL    HW135795   3.519   2.104  10.428  0.4273 -1.1277  0.0943
 8111SOL    HW235796   3.427   2.030  10.333 -0.0638 -0.0611 -0.0157
 8112SOL     OW35797   1.469   4.341   1.787  0.4735  0.1501  0.2174
 8112SOL    HW135798   1.377   4.345   1.812 -0.4327 -0.9461 -2.9751
 8112SOL    HW235799   1.456   4.256   1.745  0.5861  1.0829 -1.6684
 8113SOL     OW35800   3.396   2.693  14.176 -0.2603 -0.4155 -0.1743
 8113SOL    HW135801   3.405   2.664  14.267  0.0961  1.1417  0.2819
 8113SOL    HW235802   3.480   2.737  14.161  0.2736 -0.7142  1.9177
 8114SOL     OW35803   1.688   2.795  17.681  0.1398  0.3242  0.6052
 8114SOL    HW135804   1.703   2.789   0.094 -1.1291  0.2874  0.8002
 8114SOL    HW235805   1.634   2.874  17.677  0.1191  0.2925  0.2695
 8115SOL     OW35806   1.764   1.690   2.792 -0.4718  0.1116  0.1051
 8115SOL    HW135807   1.693   1.748   2.818 -0.0058  0.1111  1.3751
 8115SOL    HW235808   1.821   1.734   2.729 -2.0044  2.0322  0.0684
 8116SOL     OW35809   3.532   4.294   3.508 -0.3606 -0.5503 -0.0236
 8116SOL    HW135810   3.578   4.360   3.559  1.3975 -0.9362 -1.1063
 8116SOL    HW235811   3.503   4.351   3.437  0.8096  0.1845  0.0920
 8117SOL     OW35812   2.573   1.157  13.977  0.1730 -0.1728  0.0151
 8117SOL    HW135813   2.641   1.219  13.953  0.0193  0.1819  0.4846
 8117SOL    HW235814   2.545   1.187  14.064  1.1944 -0.2776  0.3824
 8118SOL     OW35815   3.035   0.172  12.658  0.4339  0.3944  0.3021
 8118SOL    HW135816   3.100   0.106  12.636 -0.6936 -1.6077  3.0281
 8118SOL    HW235817   2.968   0.134  12.602 -0.9048 -0.5934  2.5700
 8119SOL     OW35818   3.159   3.613   1.975  0.0969 -0.7052  0.4958
 8119SOL    HW135819   3.133   3.689   1.923  2.6002  0.0465  0.3627
 8119SOL    HW235820   3.231   3.640   2.031  1.7346 -2.6643 -0.6970
 8120SOL     OW35821   1.916   2.591   4.146  0.5801 -0.3243 -0.1753
 8120SOL    HW135822   1.937   2.522   4.209 -2.4595 -0.1320  1.0800
 8120SOL    HW235823   1.960   2.564   4.066  1.9735  0.0621  0.4615
 8121SOL     OW35824   3.306   1.954   9.026 -0.9744 -0.3652  0.1277
 8121SOL    HW135825   3.339   1.950   8.936  0.2669 -2.0855  0.6476
 8121SOL    HW235826   3.322   1.862   9.051  0.1668 -0.6407 -1.6178
 8122SOL     OW35827   1.228   3.365   4.273 -0.8019 -0.1990  0.1456
 8122SOL    HW135828   1.323   3.354   4.275 -0.8240 -0.5770 -0.5891
 8122SOL    HW235829   1.211   3.312   4.195 -2.4465  0.1807  0.2576
 8123SOL     OW35830   2.590   0.974   8.173 -0.1223 -0.2286  0.1518
 8123SOL    HW135831   2.554   0.898   8.220  1.8685  0.0769  2.1555
 8123SOL    HW235832   2.666   1.002   8.223 -0.1538  2.7028 -1.4378
 8124SOL     OW35833   1.837   2.361   5.417 -0.6303  0.4582  0.3099
 8124SOL    HW135834   1.931   2.360   5.436 -0.8199  0.6702  1.2489
 8124SOL    HW235835   1.822   2.266   5.419  0.0495  0.3446  0.0888
 8125SOL     OW35836   2.193   4.635   7.697  0.5111 -0.1339 -0.3686
 8125SOL    HW135837   2.166   4.574   7.766 -1.0642  2.8976  1.6509
 8125SOL    HW235838   2.282   4.601   7.692  1.3121  2.1488 -1.4571
 8126SOL     OW35839   4.031   3.568   8.484  0.3059 -0.0108 -0.1989
 8126SOL    HW135840   4.082   3.630   8.537 -0.5201  0.3053  0.2303
 8126SOL    HW235841   4.066   3.489   8.525 -0.9723 -0.0044  0.8970
 8127SOL     OW35842   0.519   0.262   7.837  0.2747  0.5141 -0.4274
 8127SOL    HW135843   0.433   0.225   7.858  0.5108  0.2716  0.1280
 8127SOL    HW235844   0.533   0.331   7.901  0.9593  2.5494 -2.8035
 8128SOL     OW35845   1.801   3.014  10.302 -0.5071  0.5351  0.8112
 8128SOL    HW135846   1.809   3.028  10.208 -0.0480  0.0899  0.7833
 8128SOL    HW235847   1.730   2.949  10.297  0.2794 -0.0576 -2.4686
 8129SOL     OW35848   1.759   2.075   6.132  0.2924 -0.2343 -0.5090
 8129SOL    HW135849   1.850   2.093   6.154  0.7499 -4.5712  1.2142
 8129SOL    HW235850   1.750   2.120   6.048 -0.4376  0.4968 -0.0334
 8130SOL     OW35851   4.379   2.777   1.410 -0.3505  0.2233  0.2468
 8130SOL    HW135852   4.308   2.837   1.386 -0.5533 -0.1278 -0.0370
 8130SOL    HW235853   4.452   2.816   1.363 -1.2452  1.1909 -0.3554
 8131SOL     OW35854   1.725   0.538  16.406 -0.5148 -0.0942 -0.1791
 8131SOL    HW135855   1.646   0.527  16.353  0.5892 -1.0947 -1.6137
 8131SOL    HW235856   1.786   0.480  16.359 -0.1415 -0.2631  0.5197
 8132SOL     OW35857   1.053   3.623   0.481  0.4049 -0.1011 -0.6220
 8132SOL    HW135858   1.087   3.711   0.494 -1.6774  0.6823 -0.5925
 8132SOL    HW235859   1.132   3.584   0.443 -0.8551 -3.6994  0.4338
 8133SOL     OW35860   4.366   2.562  10.877  0.9363 -0.0263 -0.5543
 8133SOL    HW135861   4.332   2.522  10.797  0.8651  0.3267 -0.7001
 8133SOL    HW235862   4.405   2.485  10.919  0.8574 -0.7033 -1.7187
 8134SOL     OW35863   1.939   4.087   5.902  0.6478  0.4320 -0.1127
 8134SOL    HW135864   1.850   4.104   5.871 -0.2976 -0.8679  1.8640
 8134SOL    HW235865   1.978   4.174   5.901  2.0242 -0.1699  1.8512
 8135SOL     OW35866   2.282   0.465   7.917 -0.5666  0.0297 -0.1237
 8135SOL    HW135867   2.262   0.559   7.921  0.1148  0.0275  3.7100
 8135SOL    HW235868   2.193   0.430   7.924 -0.9379  0.2770 -3.6989
 8136SOL     OW35869   2.440   1.119   6.699 -0.2194 -0.6307  0.4742
 8136SOL    HW135870   2.457   1.189   6.636  0.1516 -0.7042  0.4939
 8136SOL    HW235871   2.384   1.168   6.759  0.2549  1.9922 -1.2673
 8137SOL     OW35872   1.996   3.558   6.092 -0.2462 -0.1724  0.0335
 8137SOL    HW135873   2.057   3.517   6.030  0.1897 -1.9681  1.6607
 8137SOL    HW235874   1.923   3.499   6.078 -0.2460 -0.1167 -0.2036
 8138SOL     OW35875   0.111   4.415  12.146  0.0816 -0.6688 -0.5405
 8138SOL    HW135876   0.099   4.479  12.076 -0.4005 -0.2998 -0.1165
 8138SOL    HW235877   0.195   4.452  12.176 -0.2618  0.0953 -0.5253
 8139SOL     OW35878   0.272   2.095   9.711  0.5867 -0.0353 -0.4565
 8139SOL    HW135879   0.289   2.151   9.787 -0.4891  0.3113 -0.4622
 8139SOL    HW235880   0.179   2.079   9.725  1.0016 -0.8973  1.2992
 8140SOL     OW35881   3.729   1.585   0.759  0.3182 -0.6512  0.2087
 8140SOL    HW135882   3.756   1.601   0.668 -1.8069 -2.9008 -0.8384
 8140SOL    HW235883   3.780   1.510   0.791  1.0839 -0.2433 -0.0538
 8141SOL     OW35884   1.777   0.774  16.925 -0.4445  0.4557 -0.5038
 8141SOL    HW135885   1.743   0.853  16.968  0.9814  1.0762 -0.5298
 8141SOL    HW235886   1.865   0.778  16.962  0.3761 -1.9237 -2.2270
 8142SOL     OW35887   0.903   1.327  13.318 -0.0062  0.0968  0.2134
 8142SOL    HW135888   0.880   1.343  13.410  0.8856 -0.6231  0.5583
 8142SOL    HW235889   0.826   1.286  13.279  1.5333 -1.7829 -0.8000
 8143SOL     OW35890   2.303   1.309  13.308 -0.3805  0.2867  0.0933
 8143SOL    HW135891   2.312   1.390  13.358  2.4772 -0.5062  0.8600
 8143SOL    HW235892   2.271   1.338  13.223 -0.2556  0.0222 -0.0461
 8144SOL     OW35893   2.230   0.182   8.340 -0.2167 -0.1237 -0.2870
 8144SOL    HW135894   2.214   0.201   8.432  0.9230 -0.8494  0.0519
 8144SOL    HW235895   2.151   0.138   8.309 -0.6506 -0.7646  1.7526
 8145SOL     OW35896   1.624   1.213  16.804  0.4130 -0.1420  0.1898
 8145SOL    HW135897   1.626   1.299  16.762 -3.2585  0.4184  1.1274
 8145SOL    HW235898   1.530   1.200  16.821 -0.2358  2.1037 -1.6477
 8146SOL     OW35899   3.428   1.919   8.789  1.1086  0.2033 -0.1957
 8146SOL    HW135900   3.402   1.829   8.805  0.4199  0.3475 -0.4981
 8146SOL    HW235901   3.511   1.911   8.742  1.8737  1.1630  1.0013
 8147SOL     OW35902   4.637   3.610  16.559 -0.7413 -0.0600  0.3792
 8147SOL    HW135903   4.562   3.667  16.541  1.0094  2.1285 -0.0197
 8147SOL    HW235904   4.707   3.674  16.573  0.4919 -1.7644  1.8834
 8148SOL     OW35905   0.149   2.222   9.105 -0.2329  0.1890 -0.5011
 8148SOL    HW135906   0.221   2.266   9.061  1.0165 -0.3889  0.9187
 8148SOL    HW235907   0.196   2.149   9.148  0.7151  1.3447  0.4317
 8149SOL     OW35908   3.655   0.061   6.651  0.2382  0.2576 -0.3774
 8149SOL    HW135909   3.607   4.697   6.652 -2.2495  1.6656 -2.8411
 8149SOL    HW235910   3.723   0.045   6.586 -0.1922 -2.1976 -0.2335
 8150SOL     OW35911   1.412   1.614   6.003  0.3222  0.1969 -0.0652
 8150SOL    HW135912   1.330   1.590   6.047  1.9371 -2.3843  1.5644
 8150SOL    HW235913   1.384   1.596   5.914 -1.1517  0.4030  0.3443
 8151SOL     OW35914   2.145   3.955  15.463 -0.4855  0.1552  0.1137
 8151SOL    HW135915   2.109   3.866  15.464 -0.6124  0.2232  1.1353
 8151SOL    HW235916   2.081   3.999  15.407  0.6066  0.2767 -1.0275
 8152SOL     OW35917   1.597   2.752   5.124 -0.2762  0.2664 -0.2488
 8152SOL    HW135918   1.615   2.684   5.188  1.6560 -0.0938 -1.1701
 8152SOL    HW235919   1.634   2.717   5.042  0.7578  0.7279  0.0144
 8153SOL     OW35920   2.216   0.015   5.076 -0.0684  0.3962 -0.5803
 8153SOL    HW135921   2.231   4.669   5.008  0.7758 -0.7848  0.7426
 8153SOL    HW235922   2.140   4.696   5.120  0.9762 -1.3080 -0.2683
 8154SOL     OW35923   2.036   1.825  12.208  0.1963 -0.1974 -0.3586
 8154SOL    HW135924   2.090   1.748  12.226  0.8363  0.2709 -0.2313
 8154SOL    HW235925   2.037   1.865  12.295 -1.1158 -0.4150 -0.2556
 8155SOL     OW35926   1.993   2.120   1.347  0.4458 -0.0985  0.2707
 8155SOL    HW135927   1.924   2.061   1.319  0.1873  0.8111 -1.0155
 8155SOL    HW235928   1.962   2.200   1.305 -1.9379 -0.8735  0.5674
 8156SOL     OW35929   1.714   2.461  11.659  0.1159 -0.1719 -0.2910
 8156SOL    HW135930   1.647   2.528  11.646 -0.8982 -1.1932 -0.3366
 8156SOL    HW235931   1.793   2.505  11.690  1.2950 -1.5505 -1.3281
 8157SOL     OW35932   1.617   3.828  11.434 -0.9231 -0.2017 -0.6522
 8157SOL    HW135933   1.644   3.915  11.405  0.2263 -1.2810 -2.7954
 8157SOL    HW235934   1.538   3.803  11.386 -0.7812  3.6337 -2.8838
 8158SOL     OW35935   1.021   0.460   5.300 -0.1785 -0.4248  0.1400
 8158SOL    HW135936   1.074   0.433   5.376 -1.4788  1.2176  1.6222
 8158SOL    HW235937   0.957   0.517   5.342 -1.1645 -2.3591  1.2708
 8159SOL     OW35938   2.250   1.697   8.585  0.0065  0.3364 -0.1232
 8159SOL    HW135939   2.250   1.793   8.586  0.2604  0.3565 -2.4751
 8159SOL    HW235940   2.192   1.673   8.657  1.2836 -1.1581  0.4043
 8160SOL     OW35941   0.570   2.901   7.506  0.1180  0.7611  0.2767
 8160SOL    HW135942   0.625   2.824   7.492  0.0713  0.1623  3.2668
 8160SOL    HW235943   0.624   2.979   7.491  0.6485 -0.2450 -2.9589
 8161SOL     OW35944   0.591   2.832   0.620  0.1721  0.3759  0.1950
 8161SOL    HW135945   0.521   2.887   0.653 -0.2115 -1.2788  2.1527
 8161SOL    HW235946   0.617   2.774   0.692  0.7057  0.9462  0.4601
 8162SOL     OW35947   2.039   0.785   6.715 -0.1170 -0.2048 -0.4153
 8162SOL    HW135948   2.024   0.879   6.706 -2.3327 -0.5018  0.0627
 8162SOL    HW235949   1.996   0.747   6.639 -0.3043  0.9728 -0.8928
 8163SOL     OW35950   0.385   1.991  14.901  0.6265 -0.8536  0.1002
 8163SOL    HW135951   0.465   2.027  14.861  1.0975 -0.9218  0.9763
 8163SOL    HW235952   0.313   2.033  14.855  0.6237 -0.5487  0.3765
 8164SOL     OW35953   4.552   0.496  11.350 -0.2100 -0.2910  0.3125
 8164SOL    HW135954   4.485   0.440  11.390  1.2004 -2.2632 -0.0776
 8164SOL    HW235955   4.517   0.498  11.260 -0.4688 -1.6620  0.3670
 8165SOL     OW35956   1.678   1.067   0.061 -0.6770  0.4503 -0.5296
 8165SOL    HW135957   1.585   1.046   0.057 -0.8945  1.1542  0.9546
 8165SOL    HW235958   1.689   1.083  17.649  0.7845 -2.2267 -0.8397
 8166SOL     OW35959   2.749   1.076   8.363  0.0046  0.0115 -0.1147
 8166SOL    HW135960   2.744   1.032   8.448 -0.4614  0.9144  0.3270
 8166SOL    HW235961   2.758   1.168   8.388 -1.6915  0.0005  0.5483
 8167SOL     OW35962   3.871   1.726  10.851  0.2826  0.6941  0.3961
 8167SOL    HW135963   3.793   1.739  10.905  0.7110  0.9038  0.9606
 8167SOL    HW235964   3.943   1.758  10.905  1.9777  0.1563 -1.5460
 8168SOL     OW35965   4.560   4.365   8.180 -0.5978 -0.0400 -0.2111
 8168SOL    HW135966   4.599   4.397   8.099  0.2356 -1.3595 -0.3301
 8168SOL    HW235967   4.637   4.352   8.236 -1.4691 -1.5178  0.6103
 8169SOL     OW35968   2.259   3.497   1.022 -0.1027 -0.5231  0.3637
 8169SOL    HW135969   2.220   3.488   1.109 -0.8409 -1.1797 -0.0286
 8169SOL    HW235970   2.292   3.407   1.015 -1.1271 -0.7603 -1.3371
 8170SOL     OW35971   3.908   0.734  16.640  0.4515  0.4235 -0.2903
 8170SOL    HW135972   3.823   0.759  16.677  0.4509  1.0701 -0.7289
 8170SOL    HW235973   3.947   0.698  16.720  0.3845 -0.1360 -0.5072
 8171SOL     OW35974   4.395   3.527   4.284 -0.1302  0.3300 -0.0855
 8171SOL    HW135975   4.337   3.534   4.208  1.2923  0.0534 -1.2055
 8171SOL    HW235976   4.407   3.621   4.299 -0.2613  0.3017  0.1941
 8172SOL     OW35977   1.883   3.446   2.193  0.1002 -0.0210 -0.4277
 8172SOL    HW135978   1.948   3.478   2.256  1.1609 -0.7631 -1.1429
 8172SOL    HW235979   1.824   3.416   2.262 -1.3535  2.4625 -0.6230
 8173SOL     OW35980   2.480   3.101   2.347  0.6441 -0.2293  0.4343
 8173SOL    HW135981   2.469   3.085   2.254 -2.4293 -2.5296  1.1808
 8173SOL    HW235982   2.572   3.079   2.356  1.0188  1.5224  0.8977
 8174SOL     OW35983   0.402   2.935   5.708 -0.8419 -0.0209  0.0522
 8174SOL    HW135984   0.380   2.869   5.774 -0.0918 -1.2964 -0.9723
 8174SOL    HW235985   0.323   2.986   5.727 -0.8760  0.0005 -0.1550
 8175SOL     OW35986   1.033   4.170   5.046  0.1949 -0.2398 -0.4792
 8175SOL    HW135987   0.974   4.232   5.001 -1.2389 -1.1485  0.1733
 8175SOL    HW235988   1.043   4.118   4.966  0.6425 -1.7884  0.5994
 8176SOL     OW35989   0.362   2.374   8.747  0.2756  0.4099  0.1833
 8176SOL    HW135990   0.304   2.450   8.741  0.7227  0.8067  0.8413
 8176SOL    HW235991   0.328   2.330   8.825  1.5914  1.0251  1.1084
 8177SOL     OW35992   4.404   0.989   5.059 -0.5802  0.0075 -0.6356
 8177SOL    HW135993   4.411   0.896   5.035  0.5353  0.1984 -1.0831
 8177SOL    HW235994   4.424   1.040   4.980 -1.1661  0.2050 -0.6548
 8178SOL     OW35995   4.484   1.451   3.837  0.7291 -0.4378 -0.2813
 8178SOL    HW135996   4.573   1.444   3.873  0.4007  0.1200  0.6297
 8178SOL    HW235997   4.438   1.488   3.912  0.4475 -1.1249 -0.1159
 8179SOL     OW35998   1.642   3.469   3.913 -0.0294 -0.1245 -0.0538
 8179SOL    HW135999   1.623   3.405   3.845  3.1466 -0.9504 -0.1666
 8179SOL    HW236000   1.711   3.428   3.966 -0.4898  0.3943  0.9349
 8180SOL     OW36001   4.229   3.708   7.591  0.3922 -0.0535  0.3150
 8180SOL    HW136002   4.178   3.785   7.616  0.6706  0.6629 -1.3416
 8180SOL    HW236003   4.199   3.702   7.500  0.8896 -2.4538  0.3187
 8181SOL     OW36004   2.611   1.796   8.124 -0.2138 -0.1409  0.1198
 8181SOL    HW136005   2.608   1.761   8.213 -0.3303  0.2685  0.2787
 8181SOL    HW236006   2.691   1.755   8.090  2.2489  2.5930  2.5557
 8182SOL     OW36007   3.519   3.855  15.943  0.0430 -0.1517  0.5367
 8182SOL    HW136008   3.573   3.859  16.023  0.1636 -0.4288  0.4700
 8182SOL    HW236009   3.433   3.848  15.984 -1.0329 -1.3520 -1.9745
 8183SOL     OW36010   0.280   4.219   4.153 -0.5255  0.0498 -0.8147
 8183SOL    HW136011   0.314   4.250   4.237 -2.9895  0.6760 -0.0570
 8183SOL    HW236012   0.189   4.248   4.151 -0.8733 -0.8891  2.8927
 8184SOL     OW36013   3.625   4.105   0.894 -0.0199  0.0945 -0.2310
 8184SOL    HW136014   3.698   4.088   0.953 -1.2701 -1.5347  0.8326
 8184SOL    HW236015   3.637   4.028   0.839 -1.0836  1.2399 -2.0784
 8185SOL     OW36016   1.549   3.690   1.640  0.0218  0.0518  0.3496
 8185SOL    HW136017   1.584   3.753   1.577 -2.9884  3.3492  1.9844
 8185SOL    HW236018   1.457   3.695   1.615  0.5730  2.5554 -1.1761
 8186SOL     OW36019   4.468   0.291   4.925 -0.3257 -0.4107  0.1416
 8186SOL    HW136020   4.522   0.213   4.907 -1.2178 -0.7433 -1.0897
 8186SOL    HW236021   4.534   0.358   4.908 -0.5347 -0.0430  0.7734
 8187SOL     OW36022   3.086   4.419   6.470 -0.5550  0.3981 -0.0079
 8187SOL    HW136023   3.052   4.439   6.383 -1.3260 -2.6398 -0.4134
 8187SOL    HW236024   3.101   4.325   6.456  1.3269  0.4356  1.7008
 8188SOL     OW36025   3.705   2.053  12.020 -0.9686  0.0045  0.8682
 8188SOL    HW136026   3.656   2.058  11.938  0.1675 -0.1016  0.1766
 8188SOL    HW236027   3.645   2.041  12.093 -1.6414 -1.3317  0.0903
 8189SOL     OW36028   0.489   3.641   8.687 -0.0184 -0.7484 -0.7370
 8189SOL    HW136029   0.455   3.569   8.635  0.3829 -0.3143 -1.6024
 8189SOL    HW236030   0.424   3.634   8.757  2.2670 -1.1473  1.3671
 8190SOL     OW36031   2.614   3.852   0.987 -0.2152 -0.4425  0.5049
 8190SOL    HW136032   2.563   3.895   0.918  1.0802  1.2235  0.5909
 8190SOL    HW236033   2.580   3.763   0.988 -2.3899  0.3743  0.1210
 8191SOL     OW36034   4.686   1.699   7.091 -0.3946  0.1064 -0.0102
 8191SOL    HW136035   0.031   1.757   7.051 -0.6756  0.8360  0.6002
 8191SOL    HW236036   4.626   1.671   7.022 -1.1122  2.8801 -0.4827
 8192SOL     OW36037   1.702   2.170   8.425 -0.6011  0.6930  0.2400
 8192SOL    HW136038   1.660   2.180   8.511 -1.0600 -2.1534  0.3261
 8192SOL    HW236039   1.651   2.237   8.379  2.8497  2.7833 -0.6325
 8193SOL     OW36040   0.081   3.001  10.344  0.0755 -0.2504  0.0535
 8193SOL    HW136041   0.009   2.950  10.305 -1.0076  1.2763  0.0511
 8193SOL    HW236042   0.029   3.068  10.389 -0.5533 -1.4604  1.1223
 8194SOL     OW36043   0.002   1.404   1.001 -0.1467  0.1288  0.1962
 8194SOL    HW136044   4.650   1.340   0.995 -1.2314  1.2635  1.0894
 8194SOL    HW236045   0.042   1.378   1.084 -1.6244  0.8496  1.1362
 8195SOL     OW36046   3.652   2.221   8.376  0.3155  0.0455  0.0443
 8195SOL    HW136047   3.638   2.293   8.314 -0.0799 -0.2793 -0.2440
 8195SOL    HW236048   3.680   2.149   8.319 -1.2156 -0.8565  0.4283
 8196SOL     OW36049   3.777   0.203   6.324  0.0438 -0.4464 -0.4163
 8196SOL    HW136050   3.788   0.218   6.418  0.7998 -0.2001 -0.5503
 8196SOL    HW236051   3.740   0.114   6.327  0.3279 -0.5371  0.5614
 8197SOL     OW36052   1.375   1.622   8.572 -0.2656  0.3051 -0.3790
 8197SOL    HW136053   1.317   1.697   8.585  1.6715  1.7651 -0.2809
 8197SOL    HW236054   1.427   1.661   8.501  0.7069  1.0455  0.7523
 8198SOL     OW36055   3.983   1.866   0.354  0.6354  0.0188  0.1492
 8198SOL    HW136056   4.015   1.844   0.266 -0.3451 -3.1858  0.6087
 8198SOL    HW236057   3.899   1.905   0.330  0.9211 -0.5788 -1.7961
 8199SOL     OW36058   2.810   2.077   6.250  0.6220 -0.1901 -0.3903
 8199SOL    HW136059   2.777   2.032   6.328  0.7607 -0.1573 -0.3121
 8199SOL    HW236060   2.788   2.168   6.269  0.1771 -0.3192 -0.3012
 8200SOL     OW36061   1.487   1.269  17.443 -0.2093 -0.0491 -0.7369
 8200SOL    HW136062   1.580   1.256  17.463 -0.6407 -0.4020  1.0434
 8200SOL    HW236063   1.482   1.235  17.354  1.2370  0.5033 -1.0237
 8201SOL     OW36064   1.840   3.296   7.538 -0.2645 -0.6316  0.1734
 8201SOL    HW136065   1.817   3.378   7.580  0.4242 -0.2017 -0.2835
 8201SOL    HW236066   1.932   3.302   7.510 -0.4403  0.2823 -0.1960
 8202SOL     OW36067   0.485   1.268  14.996  0.3400 -0.4095 -0.6241
 8202SOL    HW136068   0.445   1.182  15.010  0.5731 -0.3847  0.2070
 8202SOL    HW236069   0.576   1.244  14.981  0.8672  1.0120  0.3087
 8203SOL     OW36070   0.598   1.434   3.809 -0.5846 -0.1656  0.6784
 8203SOL    HW136071   0.621   1.514   3.761 -2.7610 -0.3809 -0.7542
 8203SOL    HW236072   0.642   1.454   3.891  2.3582  1.3375 -1.2922
 8204SOL     OW36073   0.359   4.604  11.563  0.0640  0.1795  0.2246
 8204SOL    HW136074   0.408   4.641  11.489 -1.8219  0.3616 -0.9267
 8204SOL    HW236075   0.293   4.552  11.518 -0.3907  1.2969 -0.4068
 8205SOL     OW36076   4.691   4.419   7.944 -0.5515  0.1920  0.4634
 8205SOL    HW136077   0.029   4.458   7.878 -0.9474 -0.8180 -0.4727
 8205SOL    HW236078   0.002   4.328   7.948 -0.5551  0.2350  1.4674
 8206SOL     OW36079   2.998   2.833  14.662 -0.4984  0.4670  0.5553
 8206SOL    HW136080   3.003   2.906  14.724 -0.5360  1.1358 -0.2275
 8206SOL    HW236081   2.919   2.855  14.613 -0.8725 -0.3690  0.7787
 8207SOL     OW36082   3.491   3.275  13.588 -0.0582 -0.5479  0.0499
 8207SOL    HW136083   3.489   3.197  13.643  1.9122 -1.6577 -1.4549
 8207SOL    HW236084   3.462   3.348  13.642  0.3172  0.7539 -1.4993
 8208SOL     OW36085   3.111   0.660   9.271 -0.3987  0.2781 -0.0891
 8208SOL    HW136086   3.159   0.741   9.257  1.0044 -0.6245 -0.5052
 8208SOL    HW236087   3.130   0.629   9.182 -0.8556  0.4521 -0.2495
 8209SOL     OW36088   0.968   3.061   8.854 -0.6327  0.4280  0.6370
 8209SOL    HW136089   0.876   3.086   8.846 -0.8013 -0.2544  0.4365
 8209SOL    HW236090   1.011   3.142   8.880  0.7428  0.8692 -3.0426
 8210SOL     OW36091   4.207   4.114   0.701  0.1154 -0.9116  0.1158
 8210SOL    HW136092   4.286   4.074   0.736 -0.5452 -1.5314  0.9090
 8210SOL    HW236093   4.235   4.167   0.626 -0.6594  0.1593  0.5655
 8211SOL     OW36094   4.532   4.088   3.629 -0.2291 -0.0948  0.2072
 8211SOL    HW136095   4.452   4.070   3.579 -1.4625  3.7544  0.7163
 8211SOL    HW236096   4.539   4.184   3.625  1.1051 -0.2092 -0.3951
 8212SOL     OW36097   1.565   2.370   3.165 -0.3251 -0.1876  0.2948
 8212SOL    HW136098   1.515   2.438   3.210 -0.4967  0.5480 -1.0189
 8212SOL    HW236099   1.630   2.426   3.122 -0.9716  0.2290 -0.1452
 8213SOL     OW36100   2.181   1.388   7.794 -0.1266  0.0937  0.3383
 8213SOL    HW136101   2.272   1.419   7.790  0.5958 -2.5866 -4.5394
 8213SOL    HW236102   2.187   1.315   7.856 -0.7178  0.6742  1.0722
 8214SOL     OW36103   3.712   0.910  12.402  0.1052 -0.4212  0.4363
 8214SOL    HW136104   3.660   0.907  12.482 -1.4061 -0.3575 -0.5473
 8214SOL    HW236105   3.685   0.827  12.361  1.1673 -0.5199 -0.0579
 8215SOL     OW36106   4.326   1.139   6.849 -0.5702  0.0402  0.4722
 8215SOL    HW136107   4.327   1.233   6.867 -0.1135  0.6171 -2.5469
 8215SOL    HW236108   4.412   1.139   6.806 -0.6833  0.8163  0.2491
 8216SOL     OW36109   4.159   3.868   1.640 -0.2748  0.4615  0.2186
 8216SOL    HW136110   4.122   3.944   1.684  0.3435  0.7179  0.2878
 8216SOL    HW236111   4.112   3.791   1.675 -1.2634  0.9262 -0.0774
 8217SOL     OW36112   0.602   1.443   9.628  0.2436 -1.1027  0.1820
 8217SOL    HW136113   0.513   1.411   9.641  0.4480 -1.9386 -0.4844
 8217SOL    HW236114   0.633   1.411   9.544 -1.9648 -1.1369 -0.6153
 8218SOL     OW36115   0.393   4.049   3.116  0.0820 -0.0002 -0.3386
 8218SOL    HW136116   0.355   4.094   3.041  1.1978  1.5174  0.0277
 8218SOL    HW236117   0.367   3.958   3.099 -0.9270  0.3329 -0.5648
 8219SOL     OW36118   2.291   0.849   5.084 -0.4048 -0.4633  0.6369
 8219SOL    HW136119   2.236   0.922   5.113  0.6633  1.4703 -2.2888
 8219SOL    HW236120   2.216   0.790   5.087 -1.5404  0.8174 -2.5504
 8220SOL     OW36121   1.465   2.798   4.512  0.2303  0.0393 -0.4745
 8220SOL    HW136122   1.503   2.862   4.451  1.3777 -1.8426 -1.7012
 8220SOL    HW236123   1.440   2.730   4.449  0.5057 -0.9731  0.5255
 8221SOL     OW36124   3.346   3.566  16.144  0.6880 -0.1813  0.4302
 8221SOL    HW136125   3.264   3.608  16.170  0.2178 -0.5071 -0.5284
 8221SOL    HW236126   3.320   3.475  16.159  0.4261  0.0088  1.1418
 8222SOL     OW36127   1.163   3.062   0.758 -1.0094 -0.0950 -0.4191
 8222SOL    HW136128   1.152   3.116   0.679  0.2911  2.1947  0.9597
 8222SOL    HW236129   1.147   2.973   0.727 -1.2867 -0.8805  1.9608
 8223SOL     OW36130   2.018   0.575  15.221 -0.0231  0.7437 -0.2078
 8223SOL    HW136131   2.011   0.652  15.165  2.2150  0.0443 -1.4637
 8223SOL    HW236132   1.958   0.616  15.283  3.0714  2.1025  1.9116
 8224SOL     OW36133   0.194   4.239   6.609 -0.0816  0.2536  0.0142
 8224SOL    HW136134   0.289   4.238   6.593 -0.2411 -0.7549 -0.8271
 8224SOL    HW236135   0.185   4.153   6.650 -0.3137  1.6509  2.8602
 8225SOL     OW36136   4.417   1.902  11.726 -0.2079 -0.5342  0.2087
 8225SOL    HW136137   4.437   1.816  11.762  1.3275 -0.0170  0.6078
 8225SOL    HW236138   4.468   1.884  11.646  0.9046  1.6189  0.4276
 8226SOL     OW36139   4.523   1.606   6.640  0.7609 -0.6610 -0.4577
 8226SOL    HW136140   4.431   1.581   6.627 -0.5665  1.8640  4.1884
 8226SOL    HW236141   4.522   1.613   6.735  3.4642 -0.9862 -0.4159
 8227SOL     OW36142   0.576   1.153   5.594 -0.7922 -0.2956 -0.5405
 8227SOL    HW136143   0.494   1.142   5.545 -1.6101 -0.9487  0.9599
 8227SOL    HW236144   0.619   1.193   5.518  0.8369  0.3466  0.7338
 8228SOL     OW36145   3.294   3.033   7.150 -0.1099 -0.0045 -0.6426
 8228SOL    HW136146   3.386   3.045   7.127  0.0930 -0.4525 -0.0599
 8228SOL    HW236147   3.267   3.123   7.164 -0.0372 -0.3185  1.5079
 8229SOL     OW36148   3.623   1.376   4.352  0.2813 -0.4543  0.2022
 8229SOL    HW136149   3.590   1.292   4.383  0.2320 -0.1332  1.0199
 8229SOL    HW236150   3.694   1.387   4.416  0.5025  2.4364 -0.5467
 8230SOL     OW36151   0.987   1.161   5.087  0.4059 -0.0071  0.3103
 8230SOL    HW136152   0.957   1.212   5.162 -1.3859 -0.1755 -0.2873
 8230SOL    HW236153   0.959   1.222   5.019  0.3432 -1.5664 -1.0619
 8231SOL     OW36154   4.683   3.055   4.009 -0.0737  0.3370  0.3171
 8231SOL    HW136155   0.002   3.019   3.929  0.7579 -0.8561  1.2644
 8231SOL    HW236156   4.630   3.124   3.970 -2.4080 -1.3767  0.4786
 8232SOL     OW36157   4.569   4.683   4.792  0.2970  0.0128  0.5131
 8232SOL    HW136158   4.557   4.691   4.887 -3.2930 -1.1119  0.1308
 8232SOL    HW236159   4.513   4.607   4.777 -1.0810  0.7064  2.1282
 8233SOL     OW36160   3.210   3.420   7.693  0.7195 -0.4648  0.7878
 8233SOL    HW136161   3.130   3.470   7.708  1.1511  0.9480 -1.4898
 8233SOL    HW236162   3.244   3.410   7.781 -1.3175  0.9392  1.7255
 8234SOL     OW36163   1.522   0.186   6.969  0.0165  0.0912  0.1711
 8234SOL    HW136164   1.565   0.259   7.015  2.5004 -0.6774 -0.9472
 8234SOL    HW236165   1.592   0.121   6.979 -0.4831 -0.3681  0.6863
 8235SOL     OW36166   1.639   0.269   6.446  0.3689 -0.1742 -0.6742
 8235SOL    HW136167   1.585   0.314   6.511 -1.8426  0.7278 -3.1062
 8235SOL    HW236168   1.685   0.338   6.398 -0.1979  1.1361  0.6700
 8236SOL     OW36169   0.029   1.151   1.088  0.1624 -0.0153 -0.5271
 8236SOL    HW136170   0.070   1.080   1.136 -1.5480 -1.4290 -1.1311
 8236SOL    HW236171   0.079   1.155   1.007  1.1048  0.4896  0.0847
 8237SOL     OW36172   1.758   2.453   6.866 -0.5747  0.1301  0.5022
 8237SOL    HW136173   1.826   2.512   6.835  0.6796 -2.0170 -0.8538
 8237SOL    HW236174   1.790   2.412   6.947  0.3248  0.7395  0.4509
 8238SOL     OW36175   3.233   2.922   1.446 -0.0256  0.6444  0.4947
 8238SOL    HW136176   3.264   2.923   1.537  2.3504 -1.3640 -0.3105
 8238SOL    HW236177   3.261   2.839   1.409 -1.4316  1.3275 -2.0582
 8239SOL     OW36178   3.373   2.773  13.723 -0.0910 -0.0971  0.8245
 8239SOL    HW136179   3.344   2.793  13.812 -1.2350 -1.8565  0.8319
 8239SOL    HW236180   3.387   2.864  13.697  1.9817 -0.1794  1.5982
 8240SOL     OW36181   3.168   2.982   5.093  0.0261  0.3624 -0.1713
 8240SOL    HW136182   3.143   2.904   5.143 -1.0680  1.5937  1.2251
 8240SOL    HW236183   3.263   2.979   5.109  0.1607 -1.9327 -1.4295
 8241SOL     OW36184   4.477   4.085  12.698 -0.4591  0.2965  0.2101
 8241SOL    HW136185   4.495   4.082  12.604 -1.2168  2.2937 -0.0120
 8241SOL    HW236186   4.495   4.178  12.714 -1.9938  0.9783 -1.9891
 8242SOL     OW36187   0.058   3.998   5.225 -0.5968 -0.3451  0.1260
 8242SOL    HW136188   4.706   3.996   5.288 -1.5498 -2.6154 -1.0221
 8242SOL    HW236189   0.032   3.924   5.169  1.9304 -2.1000  1.2522
 8243SOL     OW36190   0.488   2.218   7.468  0.0865 -0.3979  0.3481
 8243SOL    HW136191   0.569   2.173   7.492  2.1173  2.5652 -0.9966
 8243SOL    HW236192   0.498   2.222   7.373  0.8764 -0.6380  0.4144
 8244SOL     OW36193   0.674   1.670  16.237 -0.7422 -0.5381  0.1055
 8244SOL    HW136194   0.753   1.705  16.196 -0.0207 -1.5846  0.5974
 8244SOL    HW236195   0.703   1.653  16.327 -1.1914  2.2754  0.7750
 8245SOL     OW36196   0.363   3.145  12.034  1.0100 -0.4553  0.2491
 8245SOL    HW136197   0.419   3.142  12.111  0.3171  4.7868  0.9803
 8245SOL    HW236198   0.376   3.235  12.003  0.9762  0.2040  2.1631
 8246SOL     OW36199   2.786   1.965   9.492  0.1115  0.3123 -0.1665
 8246SOL    HW136200   2.825   1.962   9.405  0.7245  0.2001  0.1125
 8246SOL    HW236201   2.839   2.037   9.526 -0.1012  0.0336  0.7696
 8247SOL     OW36202   3.006   0.705   8.436 -0.4074 -0.0245  0.0941
 8247SOL    HW136203   2.918   0.714   8.399 -1.1678  1.8659  2.3809
 8247SOL    HW236204   3.003   0.610   8.433  3.6579 -0.1911  1.6206
 8248SOL     OW36205   2.731   0.379   0.197 -0.1510 -0.0213  0.4742
 8248SOL    HW136206   2.705   0.441   0.129 -0.1893  0.0851  0.5849
 8248SOL    HW236207   2.656   0.320   0.189 -1.2352  1.3026  0.6388
 8249SOL     OW36208   3.985   3.218   0.110  0.0854 -0.2112 -0.3093
 8249SOL    HW136209   4.018   3.161   0.040 -2.3603 -1.3976 -0.4741
 8249SOL    HW236210   3.921   3.271   0.064  0.7351  0.4404 -0.4659
 8250SOL     OW36211   4.110   1.233   3.142  0.3866 -0.1672 -0.1849
 8250SOL    HW136212   4.025   1.204   3.174  0.2198  0.9278  0.3909
 8250SOL    HW236213   4.163   1.212   3.219 -1.8869 -1.5729  0.9828
 8251SOL     OW36214   0.975   1.218   5.755 -0.1822  0.0778 -0.1417
 8251SOL    HW136215   0.892   1.242   5.713  0.8518  1.3402 -1.4403
 8251SOL    HW236216   0.967   1.122   5.759 -0.5293  0.1307  0.5338
 8252SOL     OW36217   1.580   1.578   5.604 -0.7793  0.1197 -0.2021
 8252SOL    HW136218   1.506   1.540   5.651 -1.0110 -0.5606 -1.1254
 8252SOL    HW236219   1.536   1.611   5.525 -2.0260  0.9004  0.8235
 8253SOL     OW36220   4.679   3.692  16.190  0.2622 -0.6580 -0.8486
 8253SOL    HW136221   4.584   3.687  16.177 -0.0434  3.0445  0.0372
 8253SOL    HW236222   4.709   3.602  16.201  0.8099 -0.5048 -1.1044
 8254SOL     OW36223   0.209   2.164  16.580  0.3484 -0.0913  0.0084
 8254SOL    HW136224   0.210   2.069  16.584  1.4662 -0.1186 -0.7892
 8254SOL    HW236225   0.119   2.186  16.603  1.0436  0.3799  2.2775
 8255SOL     OW36226   4.116   3.492   4.378  0.3525  0.3543  0.1636
 8255SOL    HW136227   4.192   3.435   4.382 -0.0832 -0.0860  2.2508
 8255SOL    HW236228   4.150   3.581   4.384  1.8368 -0.2225  0.2224
 8256SOL     OW36229   0.630   1.669   5.447  0.5261  0.5041 -0.5950
 8256SOL    HW136230   0.565   1.713   5.391 -0.8773 -0.3839  0.3170
 8256SOL    HW236231   0.572   1.616   5.502 -0.2394  0.3587 -1.5385
 8257SOL     OW36232   3.449   3.062   3.073 -0.4554 -0.2242 -0.1082
 8257SOL    HW136233   3.378   3.112   3.031  0.0497 -1.8529 -2.8873
 8257SOL    HW236234   3.388   3.033   3.141 -0.0670 -0.7982 -0.0092
 8258SOL     OW36235   2.225   1.631  12.282 -0.0272 -0.0818  0.6752
 8258SOL    HW136236   2.280   1.605  12.356 -0.4048  2.3201  1.7955
 8258SOL    HW236237   2.208   1.543  12.249 -0.9471  0.7330 -0.9985
 8259SOL     OW36238   1.234   0.901   2.052  0.4720 -0.3540 -0.5840
 8259SOL    HW136239   1.302   0.834   2.050  1.2053  0.4028 -1.1481
 8259SOL    HW236240   1.294   0.974   2.037 -1.9438  1.4249 -1.4756
 8260SOL     OW36241   2.002   0.903   3.170 -0.1134  0.2948  0.3851
 8260SOL    HW136242   2.002   0.979   3.229  0.5680 -0.0310  0.8125
 8260SOL    HW236243   2.076   0.848   3.197 -1.4672 -2.1786 -0.9969
 8261SOL     OW36244   0.220   1.418   4.445 -0.2592  0.3776 -0.0297
 8261SOL    HW136245   0.224   1.423   4.349  0.6293 -0.0580 -0.0215
 8261SOL    HW236246   0.191   1.505   4.470  1.3191  0.6127  0.9538
 8262SOL     OW36247   0.229   2.298   9.464  0.2871 -1.1250 -0.2894
 8262SOL    HW136248   0.178   2.220   9.487 -1.0224 -0.9219 -2.4827
 8262SOL    HW236249   0.208   2.299   9.370  2.4369 -0.0926 -0.7637
 8263SOL     OW36250   2.267   2.556   1.388  0.3167  0.0523 -0.3291
 8263SOL    HW136251   2.247   2.545   1.295  0.7708  0.8322 -0.5152
 8263SOL    HW236252   2.362   2.551   1.375  0.4450  0.5129  0.3873
 8264SOL     OW36253   0.016   0.898  15.907 -0.1491 -0.5278 -0.2505
 8264SOL    HW136254   0.081   0.960  15.872  0.7608 -1.4675 -0.2176
 8264SOL    HW236255   0.048   0.818  15.866 -1.7652 -2.1436  1.6692
 8265SOL     OW36256   1.599   2.167   5.511  0.1517  0.4888  0.4889
 8265SOL    HW136257   1.618   2.241   5.568  1.5177  0.5728 -0.0810
 8265SOL    HW236258   1.543   2.112   5.566 -0.7869  0.6844 -0.2655
 8266SOL     OW36259   0.391   1.432  13.224 -0.0512  0.1549 -0.0398
 8266SOL    HW136260   0.416   1.524  13.222 -1.2976  0.4426 -2.8333
 8266SOL    HW236261   0.465   1.381  13.259  0.0204  0.8205  0.7564
 8267SOL     OW36262   0.405   2.842   8.150 -0.3969 -0.8769 -0.2447
 8267SOL    HW136263   0.359   2.767   8.187 -0.5859 -0.0120  1.2981
 8267SOL    HW236264   0.401   2.905   8.222  0.4905 -1.3572  0.2200
 8268SOL     OW36265   0.608   2.485   2.324 -0.1419 -0.1432  0.3808
 8268SOL    HW136266   0.617   2.437   2.241 -2.3502 -1.9716  1.2160
 8268SOL    HW236267   0.514   2.504   2.331  0.4298  2.5709  0.8195
 8269SOL     OW36268   0.673   3.364  10.208  0.4080 -0.7177 -0.1442
 8269SOL    HW136269   0.727   3.436  10.177  0.7546 -1.1396 -0.5200
 8269SOL    HW236270   0.648   3.322  10.126 -0.1244  0.5479 -0.6369
 8270SOL     OW36271   0.747   1.034   2.293 -0.2892 -0.8567 -0.4693
 8270SOL    HW136272   0.766   1.096   2.222  0.2827 -0.8899 -0.3429
 8270SOL    HW236273   0.673   1.079   2.335 -0.1961 -2.0645  0.9773
 8271SOL     OW36274   1.081   1.052   2.324 -0.0595 -0.4149  0.6205
 8271SOL    HW136275   1.167   1.083   2.295  0.0534  0.1388  1.5650
 8271SOL    HW236276   1.033   1.070   2.243  3.5628  0.4985 -1.3115
 8272SOL     OW36277   3.666   0.586   2.685 -0.0602  0.3088  0.7127
 8272SOL    HW136278   3.645   0.554   2.597  1.6840 -1.2101  0.8534
 8272SOL    HW236279   3.602   0.540   2.740 -0.1508 -0.7955 -0.3138
 8273SOL     OW36280   0.302   3.506   7.807 -0.6390  0.7373 -0.1204
 8273SOL    HW136281   0.244   3.515   7.732  0.2796  0.2915 -0.8782
 8273SOL    HW236282   0.245   3.456   7.865  0.4454 -0.0674  0.2640
 8274SOL     OW36283   2.563   4.193   8.365  0.0700  0.2767  0.1735
 8274SOL    HW136284   2.610   4.135   8.305 -2.0513 -2.4846  1.1544
 8274SOL    HW236285   2.473   4.183   8.337  0.1096  0.3056  0.0384
 8275SOL     OW36286   1.547   1.560  12.174 -0.1307  0.2997  0.0675
 8275SOL    HW136287   1.621   1.514  12.134 -0.6016 -0.1940 -0.2203
 8275SOL    HW236288   1.493   1.483  12.192  1.0160 -0.2051  1.4318
 8276SOL     OW36289   4.323   0.464   8.802 -0.2260  0.1308 -0.2002
 8276SOL    HW136290   4.259   0.535   8.806  1.0219  1.1638  1.6815
 8276SOL    HW236291   4.333   0.470   8.897  0.7370 -1.0377 -0.2164
 8277SOL     OW36292   3.891   3.275  12.924  0.3449 -0.3239 -0.3955
 8277SOL    HW136293   3.880   3.246  12.833 -0.7454  1.4248 -0.8292
 8277SOL    HW236294   3.830   3.349  12.921 -2.1951 -2.4325 -0.8077
 8278SOL     OW36295   0.405   2.631   2.671 -0.8687  0.7214  0.7507
 8278SOL    HW136296   0.394   2.631   2.576  2.2410  3.2265  0.3883
 8278SOL    HW236297   0.485   2.680   2.693  0.6223 -0.3091 -2.4013
 8279SOL     OW36298   2.464   4.449   3.427  0.4338  0.0279 -0.1064
 8279SOL    HW136299   2.473   4.431   3.521  0.8729  1.1600  0.0778
 8279SOL    HW236300   2.442   4.362   3.396  0.2221  0.4449 -1.1337
 8280SOL     OW36301   3.634   2.318   4.782  0.0898  0.7397  0.3916
 8280SOL    HW136302   3.712   2.275   4.817 -0.4404 -1.0612 -0.6371
 8280SOL    HW236303   3.623   2.267   4.701 -1.3340  1.3439  0.2024
 8281SOL     OW36304   0.997   0.852   7.871  0.8021 -0.2097  0.1349
 8281SOL    HW136305   1.000   0.823   7.962 -3.1368 -0.2161  0.2802
 8281SOL    HW236306   0.907   0.830   7.845  0.1847  0.6526  1.5237
 8282SOL     OW36307   0.315   0.515   7.592  0.6835  0.1030 -0.2638
 8282SOL    HW136308   0.230   0.472   7.593  1.4219 -1.4573 -1.9776
 8282SOL    HW236309   0.338   0.549   7.678 -0.3094  0.9169 -0.3230
 8283SOL     OW36310   3.934   2.118   7.800 -0.3495 -0.9948 -0.1805
 8283SOL    HW136311   3.921   2.123   7.705  0.1110 -0.8833 -0.2400
 8283SOL    HW236312   3.864   2.181   7.817  1.0256  0.5055 -0.1127
 8284SOL     OW36313   1.844   3.158   3.734 -0.2287  0.1347  0.0761
 8284SOL    HW136314   1.827   3.097   3.806  4.4122 -2.0914 -0.7396
 8284SOL    HW236315   1.853   3.240   3.784  1.0538  0.3407 -0.5001
 8285SOL     OW36316   2.703   2.257   9.707  0.2318 -0.2368 -0.2375
 8285SOL    HW136317   2.717   2.172   9.748 -1.0319 -0.6031 -0.5601
 8285SOL    HW236318   2.640   2.244   9.636  0.2525 -2.3219  0.1469
 8286SOL     OW36319   0.248   1.741   3.017 -0.0175 -0.3987 -0.1813
 8286SOL    HW136320   0.310   1.692   2.964 -0.5082  0.0954 -1.2064
 8286SOL    HW236321   0.220   1.804   2.951 -0.7172  1.6236  2.0212
 8287SOL     OW36322   0.685   1.315  16.305 -0.4458 -0.3437 -0.1078
 8287SOL    HW136323   0.661   1.276  16.221  0.0204  1.3514 -1.0173
 8287SOL    HW236324   0.675   1.407  16.284 -0.9272 -0.4131 -0.1996
 8288SOL     OW36325   3.571   2.644   0.428  0.1590  0.2725 -0.3305
 8288SOL    HW136326   3.500   2.705   0.443 -0.1324 -0.2624  0.4799
 8288SOL    HW236327   3.630   2.709   0.390 -1.0036  1.7227  0.3643
 8289SOL     OW36328   1.082   4.083   6.621  0.4075 -0.4208  0.2362
 8289SOL    HW136329   1.056   4.125   6.539 -1.1479  1.1756  1.5559
 8289SOL    HW236330   1.017   4.119   6.681  1.0999 -1.6547  1.7258
 8290SOL     OW36331   1.738   1.369  12.113  0.5860 -0.1220 -0.1805
 8290SOL    HW136332   1.748   1.398  12.204  0.3142 -1.5097  0.2966
 8290SOL    HW236333   1.810   1.305  12.117  1.0948  0.4103 -0.8616
 8291SOL     OW36334   4.415   4.165   8.082  0.0914 -0.4439 -0.4676
 8291SOL    HW136335   4.443   4.086   8.128 -0.7018 -0.2143  0.4022
 8291SOL    HW236336   4.466   4.236   8.122  0.8920 -1.9282  1.1329
 8292SOL     OW36337   2.134   3.893   8.115  0.0270 -0.1047 -0.1906
 8292SOL    HW136338   2.165   3.803   8.105  0.0921 -0.5056  3.5331
 8292SOL    HW236339   2.083   3.891   8.196  0.6260  0.9925  0.2169
 8293SOL     OW36340   4.363   2.955   4.432  0.2424  0.0502  0.3289
 8293SOL    HW136341   4.374   2.977   4.525  3.4788 -0.8237  0.1401
 8293SOL    HW236342   4.290   3.016   4.417 -1.7693 -2.8844 -1.7301
 8294SOL     OW36343   2.206   2.621   0.493 -0.5153 -0.2172  0.5126
 8294SOL    HW136344   2.195   2.537   0.538  1.7594  0.0285  1.4730
 8294SOL    HW236345   2.149   2.610   0.417  0.5801  1.3992 -0.5431
 8295SOL     OW36346   2.996   1.558   2.311  0.4359  0.1089  0.2630
 8295SOL    HW136347   2.966   1.478   2.354  2.7413  0.8597  3.2371
 8295SOL    HW236348   3.037   1.522   2.232  0.1147 -0.1325  0.2038
 8296SOL     OW36349   4.345   3.715  13.449  0.2845  0.0251 -0.2177
 8296SOL    HW136350   4.338   3.810  13.454  1.5048  0.1608 -1.0091
 8296SOL    HW236351   4.339   3.697  13.355  1.0235  2.0759 -0.6554
 8297SOL     OW36352   4.151   3.316  14.008 -0.3667 -0.6813 -0.4856
 8297SOL    HW136353   4.203   3.363  13.943  2.7100  1.2080  3.4051
 8297SOL    HW236354   4.088   3.383  14.036  2.4531  1.6985  0.1006
 8298SOL     OW36355   2.769   0.854   1.963  0.2683 -0.6213 -0.1884
 8298SOL    HW136356   2.711   0.784   1.991 -0.3385  0.4691  1.2848
 8298SOL    HW236357   2.798   0.825   1.876  0.4174  2.2919 -1.1369
 8299SOL     OW36358   2.894   4.068  13.729 -0.2033 -0.5420 -0.6809
 8299SOL    HW136359   2.801   4.046  13.732  0.3683 -2.3413  4.7905
 8299SOL    HW236360   2.936   3.991  13.767  1.2403  0.6280  0.0853
 8300SOL     OW36361   3.743   4.595   6.875 -0.4523 -0.1799 -0.1887
 8300SOL    HW136362   3.686   4.635   6.941  0.9095 -0.4824  1.1854
 8300SOL    HW236363   3.764   4.671   6.820 -3.4297  1.4176  0.9134
 8301SOL     OW36364   1.260   0.297  10.839 -0.2025  0.1450 -0.0599
 8301SOL    HW136365   1.215   0.233  10.895  0.8969 -1.3580 -0.8754
 8301SOL    HW236366   1.331   0.330  10.894 -0.0360 -0.5751  0.1669
 8302SOL     OW36367   1.819   4.393  17.665 -0.0383 -0.0894  0.1898
 8302SOL    HW136368   1.784   4.471  17.621 -0.2360 -0.5658 -0.5042
 8302SOL    HW236369   1.873   4.434   0.051  1.9706 -2.4620  0.0423
 8303SOL     OW36370   3.925   2.616   7.104 -0.0319  0.4173  0.4036
 8303SOL    HW136371   3.895   2.636   7.016 -0.7514  2.7383  1.2011
 8303SOL    HW236372   3.878   2.677   7.160 -1.2740 -0.5461  0.4044
 8304SOL     OW36373   2.267   1.513   6.700 -0.4491  0.7788 -0.0782
 8304SOL    HW136374   2.295   1.438   6.752  0.0349  1.8191  1.1472
 8304SOL    HW236375   2.349   1.553   6.671  1.0452 -2.2139 -0.0609
 8305SOL     OW36376   1.795   1.765  13.173  0.3408 -0.0340  0.3266
 8305SOL    HW136377   1.805   1.816  13.093  2.8684 -0.7470  0.1843
 8305SOL    HW236378   1.769   1.829  13.239 -1.4009  0.9061 -1.2644
 8306SOL     OW36379   4.414   0.330   1.491 -0.0563 -0.1201 -0.3589
 8306SOL    HW136380   4.360   0.360   1.418 -0.1616 -3.3064 -1.5483
 8306SOL    HW236381   4.400   0.394   1.562 -2.9265  0.4157 -1.4154
 8307SOL     OW36382   1.520   4.118  15.205 -0.1928 -0.6277  0.7231
 8307SOL    HW136383   1.487   4.071  15.129  0.5288 -0.2827  0.1915
 8307SOL    HW236384   1.486   4.065  15.276 -0.8226 -2.8701 -1.2558
 8308SOL     OW36385   3.530   3.459   4.624  0.1464  0.3825  0.1192
 8308SOL    HW136386   3.474   3.384   4.645  0.3707  0.2576  0.2610
 8308SOL    HW236387   3.463   3.526   4.610 -0.6620 -0.7480 -1.4207
 8309SOL     OW36388   2.593   3.094   9.260  0.0495  0.3041 -0.8400
 8309SOL    HW136389   2.614   3.035   9.332  0.5096  1.0743 -0.3459
 8309SOL    HW236390   2.544   3.044   9.195 -0.4587 -0.0236 -0.1932
 8310SOL     OW36391   0.930   1.555   5.458  0.3637  0.1773 -0.4613
 8310SOL    HW136392   0.902   1.491   5.393  1.6842 -0.5933 -0.2735
 8310SOL    HW236393   0.919   1.631   5.401  2.1402  0.0177 -1.0196
 8311SOL     OW36394   0.945   2.324   7.025 -0.0071 -0.8522  0.6868
 8311SOL    HW136395   0.879   2.283   6.967  1.0252 -0.8965 -0.4568
 8311SOL    HW236396   0.998   2.254   7.062  3.5301  0.6397 -1.5192
 8312SOL     OW36397   1.320   1.815   4.704 -0.6494 -0.1735 -0.2653
 8312SOL    HW136398   1.344   1.837   4.614 -0.1340  0.4943  0.0430
 8312SOL    HW236399   1.300   1.902   4.739 -0.2435  0.4961 -1.7026
 8313SOL     OW36400   2.291   1.807   5.128  0.5181 -0.5194 -0.2666
 8313SOL    HW136401   2.210   1.850   5.103  0.2744 -1.1550 -0.5667
 8313SOL    HW236402   2.345   1.885   5.143 -2.3199  1.0761  1.5903
 8314SOL     OW36403   2.799   2.828   1.887 -0.0097  0.1487 -0.2773
 8314SOL    HW136404   2.792   2.860   1.797 -0.4569 -3.1843 -1.4279
 8314SOL    HW236405   2.726   2.882   1.916 -1.4450 -2.5841  1.1448
 8315SOL     OW36406   1.481   3.874   9.133  0.3271 -0.7133 -0.1496
 8315SOL    HW136407   1.394   3.910   9.152  1.1416  0.5507  1.1386
 8315SOL    HW236408   1.500   3.913   9.048  2.6243  2.0510  1.6420
 8316SOL     OW36409   3.115   3.337  11.561 -0.1935  0.2705  0.2913
 8316SOL    HW136410   3.067   3.271  11.612  2.1177 -1.1052  0.7012
 8316SOL    HW236411   3.172   3.383  11.622  0.9844 -0.4230 -0.2845
 8317SOL     OW36412   2.619   1.722   2.614 -0.3057 -0.8772 -0.7617
 8317SOL    HW136413   2.529   1.728   2.582  0.1182  1.9509 -1.3430
 8317SOL    HW236414   2.622   1.626   2.620 -1.2101 -0.7468  1.9435
 8318SOL     OW36415   0.003   2.079   7.146 -0.2698 -0.0325  0.3687
 8318SOL    HW136416   4.675   2.037   7.217 -2.2249  0.2004 -0.8048
 8318SOL    HW236417   0.013   2.168   7.180  0.8001  0.3998 -1.0287
 8319SOL     OW36418   2.697   0.972   9.638 -0.2778  0.2610  0.2627
 8319SOL    HW136419   2.646   0.918   9.698  0.0387 -0.8145 -0.4248
 8319SOL    HW236420   2.717   0.912   9.566  0.4238 -0.0606  0.7248
 8320SOL     OW36421   3.749   2.046   7.070  0.5031  0.5656  0.2087
 8320SOL    HW136422   3.760   1.971   7.012 -1.5430  1.2933 -1.1177
 8320SOL    HW236423   3.684   2.099   7.024  0.0744  0.3641  0.5821
 8321SOL     OW36424   1.625   4.250   5.362  0.1169  0.3552  0.2097
 8321SOL    HW136425   1.536   4.236   5.395  1.2314 -2.7451  1.9236
 8321SOL    HW236426   1.654   4.311   5.430  0.9621  0.1528  0.0335
 8322SOL     OW36427   2.371   4.432   4.543 -0.1029 -0.4289 -0.3272
 8322SOL    HW136428   2.314   4.377   4.596 -0.8708  0.6286 -0.0656
 8322SOL    HW236429   2.432   4.372   4.499 -2.3598 -3.7391  1.1095
 8323SOL     OW36430   2.785   2.323   5.782 -0.3332 -0.3308  0.2935
 8323SOL    HW136431   2.878   2.298   5.777 -1.0656 -3.3361  2.1368
 8323SOL    HW236432   2.769   2.311   5.688 -0.3731  1.2560  0.0899
 8324SOL     OW36433   2.478   0.168   5.986  0.2854  0.0126  0.1646
 8324SOL    HW136434   2.521   0.219   6.055 -1.2534  3.3062 -1.3217
 8324SOL    HW236435   2.505   0.228   5.917 -1.7049 -0.9544 -1.4464
 8325SOL     OW36436   4.412   3.800   8.438 -0.2026 -0.9383  0.0190
 8325SOL    HW136437   4.460   3.813   8.519  0.2374 -1.5861 -0.1367
 8325SOL    HW236438   4.477   3.761   8.380 -2.1993 -1.1581 -2.1002
 8326SOL     OW36439   1.415   0.395  14.861  0.2221  0.5697  0.5218
 8326SOL    HW136440   1.502   0.428  14.839 -0.3301  1.0487 -0.9995
 8326SOL    HW236441   1.356   0.441  14.801  1.8192  0.3860 -1.1860
 8327SOL     OW36442   4.181   3.322   6.299  0.4146  0.1373 -0.2250
 8327SOL    HW136443   4.260   3.311   6.351  0.6356 -1.5645 -0.9221
 8327SOL    HW236444   4.151   3.233   6.280 -0.9614  0.5603 -0.0639
 8328SOL     OW36445   1.956   3.095  12.700  0.0571 -0.5810  0.3218
 8328SOL    HW136446   1.933   3.092  12.793  0.4801  0.4178  0.4664
 8328SOL    HW236447   2.049   3.072  12.703 -0.4253 -2.5990 -0.0485
 8329SOL     OW36448   1.252   4.350  12.761  0.7342 -0.1353  1.2876
 8329SOL    HW136449   1.198   4.415  12.716 -0.5130 -2.1355 -0.0462
 8329SOL    HW236450   1.188   4.291  12.801  0.7371 -1.4569 -0.6980
 8330SOL     OW36451   1.871   0.195   8.436 -0.5037 -0.3874  0.3049
 8330SOL    HW136452   1.824   0.141   8.500 -0.3667 -1.6403 -0.6535
 8330SOL    HW236453   1.898   0.130   8.370  0.1243  0.0400  0.1435
 8331SOL     OW36454   2.496   0.471  13.860 -0.0782 -0.5392  0.5773
 8331SOL    HW136455   2.426   0.461  13.925 -0.5640  0.7493  0.2713
 8331SOL    HW236456   2.502   0.567  13.855  2.0136 -0.8652 -3.2229
 8332SOL     OW36457   4.548   2.105  14.237  0.0426 -0.2959  0.4571
 8332SOL    HW136458   4.540   2.048  14.314  0.1097  0.7772  1.2679
 8332SOL    HW236459   4.473   2.075  14.186  0.1305 -0.5651  0.4872
 8333SOL     OW36460   0.318   3.923   2.056  0.6111  0.4411 -0.3803
 8333SOL    HW136461   0.245   3.882   2.103 -0.5947  1.0077 -1.7619
 8333SOL    HW236462   0.340   3.999   2.109  1.9468  0.5899 -1.1535
 8334SOL     OW36463   4.380   3.023   3.506  0.5242 -0.1627 -0.4163
 8334SOL    HW136464   4.389   3.105   3.555  0.3399 -1.4789  1.8439
 8334SOL    HW236465   4.304   2.980   3.546 -0.2317  0.9056 -0.7078
 8335SOL     OW36466   1.648   0.802   4.606 -0.2615  0.5965  0.0439
 8335SOL    HW136467   1.599   0.728   4.642  0.8759 -1.2880 -2.1926
 8335SOL    HW236468   1.641   0.862   4.680  1.6448  1.0538 -0.1371
 8336SOL     OW36469   4.560   1.083   2.142  0.2215  0.9520  0.0179
 8336SOL    HW136470   4.624   1.026   2.099 -1.0976 -0.7263  0.2914
 8336SOL    HW236471   4.584   1.095   2.234 -1.2867  0.0551  0.5369
 8337SOL     OW36472   0.949   0.048   0.926 -0.2824 -0.4709  0.2441
 8337SOL    HW136473   0.900   0.092   0.995  1.7662 -0.6213  1.7813
 8337SOL    HW236474   1.036   0.084   0.941  0.3180 -2.3932  1.4713
 8338SOL     OW36475   3.709   0.925  15.660  0.1856 -0.3974  0.2452
 8338SOL    HW136476   3.684   0.984  15.732 -1.6963  0.5067 -1.1195
 8338SOL    HW236477   3.761   0.853  15.694 -0.9028 -0.2947  2.1339
 8339SOL     OW36478   3.224   4.557  17.590  0.3397 -0.0113  0.5956
 8339SOL    HW136479   3.300   4.615  17.597 -0.6492  1.1838  1.4626
 8339SOL    HW236480   3.254   4.508  17.514  0.4196 -0.5925  1.0034
 8340SOL     OW36481   1.081   2.531   4.944  0.3992  0.9809 -0.3818
 8340SOL    HW136482   1.083   2.591   5.019 -0.1117 -0.2816  0.6470
 8340SOL    HW236483   0.985   2.528   4.936  0.7089 -2.1483 -2.7515
 8341SOL     OW36484   0.258   2.269   4.234 -0.0886  0.3953 -0.2646
 8341SOL    HW136485   0.192   2.293   4.299  0.1756  1.0181 -0.2285
 8341SOL    HW236486   0.343   2.290   4.272 -1.6937  1.2460  2.8324
 8342SOL     OW36487   0.599   2.340   9.984  0.5717  0.2309  0.1214
 8342SOL    HW136488   0.619   2.403  10.053  0.2516  2.1984 -1.5840
 8342SOL    HW236489   0.655   2.364   9.911 -2.4935  0.4397 -2.1820
 8343SOL     OW36490   0.508   0.785  15.278  0.2046 -0.1452  0.3963
 8343SOL    HW136491   0.515   0.708  15.222  0.9526 -0.6536  1.1858
 8343SOL    HW236492   0.467   0.748  15.357 -3.0170  0.2636 -1.0674
 8344SOL     OW36493   2.127   4.450   0.973  0.0876 -0.2035 -0.1176
 8344SOL    HW136494   2.042   4.482   1.005  0.5172  0.5802  0.2532
 8344SOL    HW236495   2.154   4.528   0.924 -1.8504  0.2883 -0.4012
 8345SOL     OW36496   1.100   2.057   3.250 -0.3043 -0.4986 -0.3396
 8345SOL    HW136497   1.150   2.000   3.307 -2.4044 -0.0074  1.9870
 8345SOL    HW236498   1.036   1.995   3.215  1.1429 -1.8848 -0.5032
 8346SOL     OW36499   3.070   3.747  14.716  0.3726  0.3059  1.1170
 8346SOL    HW136500   3.106   3.829  14.750  0.3267  0.0598  1.7590
 8346SOL    HW236501   3.128   3.679  14.752 -1.0871 -0.7411  1.4892
 8347SOL     OW36502   2.877   1.238   4.062  0.1517 -0.0628 -0.2771
 8347SOL    HW136503   2.934   1.237   3.985 -1.5592 -1.5262 -1.5350
 8347SOL    HW236504   2.931   1.181   4.117  0.7998 -0.6655 -1.5514
 8348SOL     OW36505   3.683   0.854   7.257  0.3672 -0.2121  0.2465
 8348SOL    HW136506   3.756   0.866   7.196  1.0017 -0.0357  1.0440
 8348SOL    HW236507   3.610   0.838   7.197 -0.0630  1.2867  0.3711
 8349SOL     OW36508   1.468   0.204   7.808 -0.1135 -0.4342  0.1217
 8349SOL    HW136509   1.468   0.172   7.718  0.4375 -1.8088  0.6098
 8349SOL    HW236510   1.529   0.278   7.799 -0.1398 -0.4406 -0.1100
 8350SOL     OW36511   2.243   4.673   5.757 -0.3880 -0.1164  0.3005
 8350SOL    HW136512   2.300   4.613   5.805 -0.7554 -1.0802 -0.4766
 8350SOL    HW236513   2.288   0.034   5.783  1.1312 -0.4453 -1.3332
 8351SOL     OW36514   0.192   1.649  10.179 -0.0100  0.2532  0.4664
 8351SOL    HW136515   0.230   1.726  10.222  1.6093  0.5977 -1.5575
 8351SOL    HW236516   0.114   1.677  10.132  0.6183 -1.8159 -1.7879
 8352SOL     OW36517   0.082   3.477   8.851 -0.5158  0.6816  0.3756
 8352SOL    HW136518   0.033   3.444   8.926 -0.0548 -0.1612  0.3085
 8352SOL    HW236519   0.075   3.403   8.792 -0.9658 -0.7262  2.2122
 8353SOL     OW36520   0.882   3.676   9.783  0.0958 -0.6039  0.1841
 8353SOL    HW136521   0.803   3.704   9.829  1.4212  0.8509  1.5773
 8353SOL    HW236522   0.847   3.612   9.721 -3.1846  0.8772  0.5022
 8354SOL     OW36523   1.925   1.881  13.610 -0.0630  0.0546  0.0986
 8354SOL    HW136524   1.886   1.838  13.686  1.0295 -1.2141 -0.0497
 8354SOL    HW236525   1.977   1.953  13.646  1.1930 -0.6770 -0.2395
 8355SOL     OW36526   3.781   2.935  11.293 -0.2201  0.2361  0.4890
 8355SOL    HW136527   3.756   2.894  11.211  1.5722 -1.4792  0.8100
 8355SOL    HW236528   3.826   2.862  11.334 -0.3065 -0.7506 -1.1682
 8356SOL     OW36529   4.620   4.644   7.002 -0.0064  0.0469 -0.4008
 8356SOL    HW136530   4.591   4.582   6.935  1.0530 -0.2662 -0.5674
 8356SOL    HW236531   4.714   4.631   6.994 -0.0692  0.3674 -1.6820
 8357SOL     OW36532   4.081   3.564  10.210  0.0316  0.6508 -0.1171
 8357SOL    HW136533   4.119   3.504  10.275  0.1799 -1.8149 -2.4525
 8357SOL    HW236534   3.991   3.540  10.230  0.3664  0.4460  1.1446
 8358SOL     OW36535   1.400   2.960   6.031 -0.3787  0.1781  0.5540
 8358SOL    HW136536   1.321   3.002   6.065 -0.0993  1.7774 -0.7654
 8358SOL    HW236537   1.411   3.025   5.961 -0.3319  0.2448  0.6230
 8359SOL     OW36538   4.288   1.004   0.008  0.4944  0.2013  0.6874
 8359SOL    HW136539   4.253   0.915  17.677  0.3733  0.2037  0.9978
 8359SOL    HW236540   4.243   1.031   0.089 -1.7694  2.3812 -1.3049
 8360SOL     OW36541   2.389   1.334   7.223  0.2909  0.0728 -0.3024
 8360SOL    HW136542   2.463   1.358   7.278 -1.6900 -1.2610  2.9480
 8360SOL    HW236543   2.354   1.254   7.263 -1.5039  0.5371 -0.9624
 8361SOL     OW36544   4.665   3.940  17.090  0.0178  0.2325 -0.3822
 8361SOL    HW136545   4.619   3.982  17.163  1.0587 -0.6118  0.7495
 8361SOL    HW236546   4.612   3.971  17.016  0.6515  0.1089 -0.8820
 8362SOL     OW36547   3.308   2.318  13.366  0.5853 -0.2699 -0.1484
 8362SOL    HW136548   3.311   2.387  13.432 -0.4076 -0.5934  0.2321
 8362SOL    HW236549   3.364   2.256  13.413  1.6601  0.0183 -1.0447
 8363SOL     OW36550   0.161   4.608   5.859 -0.6489  0.0516 -0.0284
 8363SOL    HW136551   0.145   4.545   5.790 -1.5011  0.4457 -0.1945
 8363SOL    HW236552   0.113   4.568   5.932 -1.1677 -0.4934 -0.6675
 8364SOL     OW36553   3.823   2.843   8.065 -0.2292 -0.1043 -0.6330
 8364SOL    HW136554   3.732   2.871   8.079  0.4682  1.7183  0.2041
 8364SOL    HW236555   3.811   2.749   8.083 -0.4458  0.0199 -0.1301
 8365SOL     OW36556   4.121   2.011  11.432  0.1979  0.4316 -0.1559
 8365SOL    HW136557   4.110   2.105  11.427 -3.3758  0.0981  1.7796
 8365SOL    HW236558   4.044   1.982  11.480  0.0765 -1.7036 -1.5823
 8366SOL     OW36559   3.685   1.950   1.289 -0.3497  0.5015 -0.0303
 8366SOL    HW136560   3.648   2.020   1.342  1.0985  0.1620  1.4489
 8366SOL    HW236561   3.694   1.992   1.204 -0.2009  1.4300  0.4478
 8367SOL     OW36562   4.437   4.716   8.967  0.0106  0.1212  0.2901
 8367SOL    HW136563   4.402   4.692   9.052 -1.7911 -1.3741 -0.8747
 8367SOL    HW236564   4.505   0.061   8.986 -1.2506  1.4022  0.4600
 8368SOL     OW36565   1.687   3.217   6.412 -0.1527  0.1565  0.6268
 8368SOL    HW136566   1.752   3.284   6.436  1.4427  0.0147 -3.3609
 8368SOL    HW236567   1.741   3.179   6.343 -0.8472  1.2384 -0.5196
 8369SOL     OW36568   0.909   0.649   5.751  0.3206 -0.9436  0.1580
 8369SOL    HW136569   0.938   0.610   5.833 -0.2581  1.2594  1.4049
 8369SOL    HW236570   0.911   0.576   5.690 -1.4452 -1.3616  0.5848
 8370SOL     OW36571   0.674   0.950   5.729  0.3425  0.1131 -0.6456
 8370SOL    HW136572   0.619   0.958   5.807  1.9292 -3.0098  0.8247
 8370SOL    HW236573   0.618   0.996   5.668  1.1326  0.3610 -1.1872
 8371SOL     OW36574   3.366   2.514  14.713  0.1426  1.2045  0.4278
 8371SOL    HW136575   3.385   2.590  14.767 -1.1149  0.0489  2.4937
 8371SOL    HW236576   3.277   2.547  14.696 -0.6776 -1.4828 -0.5291
 8372SOL     OW36577   1.724   1.172  12.538 -0.3187 -0.5688 -0.2140
 8372SOL    HW136578   1.780   1.094  12.532  0.1471 -0.3055  0.7411
 8372SOL    HW236579   1.642   1.145  12.495 -0.0023 -1.9861  0.0780
 8373SOL     OW36580   1.711   3.950   0.994  0.1300 -0.4372  0.4645
 8373SOL    HW136581   1.640   3.912   1.045 -1.2034  3.4933  1.5429
 8373SOL    HW236582   1.769   3.878   0.969 -1.4343 -0.9688 -1.6340
 8374SOL     OW36583   2.649   2.123  15.085 -0.2523  0.0313 -0.0029
 8374SOL    HW136584   2.578   2.092  15.142  0.5916  0.4823  1.2964
 8374SOL    HW236585   2.694   2.044  15.055 -0.4219 -0.3002  0.6180
 8375SOL     OW36586   4.184   2.861   4.695 -0.1998  0.1856  0.2942
 8375SOL    HW136587   4.142   2.842   4.779 -0.4955 -0.8619 -0.0901
 8375SOL    HW236588   4.206   2.954   4.699  2.5607 -0.4842  0.7606
 8376SOL     OW36589   3.659   1.167   3.138  0.1393  0.2687 -0.7143
 8376SOL    HW136590   3.595   1.197   3.203  1.4481  2.1925 -0.3354
 8376SOL    HW236591   3.670   1.239   3.076  0.2795  1.2744  0.4903
 8377SOL     OW36592   3.043   1.845   7.365 -0.1890 -0.1041 -0.3047
 8377SOL    HW136593   3.107   1.886   7.423  1.2058 -0.3522 -1.6943
 8377SOL    HW236594   2.977   1.814   7.427 -0.2119  3.1924  1.3514
 8378SOL     OW36595   0.158   0.255  14.094  0.0052 -0.3194 -0.3047
 8378SOL    HW136596   0.155   0.275  14.188  3.1917  1.1779 -0.4982
 8378SOL    HW236597   0.177   0.341  14.055  0.2318 -1.2161 -2.1348
 8379SOL     OW36598   3.717   4.595   9.083 -0.2323 -0.0524 -0.5597
 8379SOL    HW136599   3.705   4.505   9.112  0.1072  0.0737 -0.0457
 8379SOL    HW236600   3.642   4.595   9.023  0.0972  0.8051 -0.9757
 8380SOL     OW36601   1.377   1.087   5.753 -0.2910  0.7235  0.0754
 8380SOL    HW136602   1.403   1.041   5.674 -0.5132 -1.6869  1.4156
 8380SOL    HW236603   1.358   1.173   5.714 -2.5006  0.3629  0.3565
 8381SOL     OW36604   0.694   0.654   5.911 -0.1214  0.4885  0.1412
 8381SOL    HW136605   0.772   0.660   5.856 -0.2843  2.1645  0.1067
 8381SOL    HW236606   0.652   0.726   5.864 -0.9879  2.6490  4.1785
 8382SOL     OW36607   0.685   4.195   3.156 -0.2198 -0.2052 -0.3568
 8382SOL    HW136608   0.610   4.164   3.106 -0.4448  1.7194 -1.2130
 8382SOL    HW236609   0.664   4.245   3.235  0.0602 -1.1456  0.2997
 8383SOL     OW36610   0.459   4.394  11.688  0.5913 -0.1803  0.5396
 8383SOL    HW136611   0.462   4.412  11.782 -2.3385  1.1880  0.3549
 8383SOL    HW236612   0.421   4.475  11.656 -1.3054 -0.9622  0.8506
 8384SOL     OW36613   1.120   4.224   1.122  0.5562 -0.6324  0.1481
 8384SOL    HW136614   1.213   4.201   1.114  0.9702  1.6371 -1.5952
 8384SOL    HW236615   1.119   4.216   1.217  0.4976 -1.1247  0.1064
 8385SOL     OW36616   1.395   2.388   4.546 -0.0593 -0.0832  0.4849
 8385SOL    HW136617   1.405   2.451   4.474 -1.4618  0.6308  0.9222
 8385SOL    HW236618   1.305   2.405   4.573 -1.0386 -1.8678 -1.6488
 8386SOL     OW36619   3.189   1.047   8.380 -0.3037  0.4517 -0.3149
 8386SOL    HW136620   3.209   1.136   8.351  0.7504  0.2200 -0.2972
 8386SOL    HW236621   3.122   1.020   8.317 -1.8324  1.9278  0.6861
 8387SOL     OW36622   1.008   0.704   4.818  0.2669 -0.5700 -0.8210
 8387SOL    HW136623   0.913   0.707   4.825  0.1336  0.4218 -3.0751
 8387SOL    HW236624   1.024   0.609   4.819 -0.0966 -0.6233  0.1002
 8388SOL     OW36625   4.575   1.759   2.408 -0.1070  0.3188  0.1815
 8388SOL    HW136626   4.538   1.813   2.478 -1.8933  1.5891 -1.7769
 8388SOL    HW236627   4.667   1.784   2.425 -0.1514  0.7047 -0.1366
 8389SOL     OW36628   4.005   0.059   6.502  0.4206  0.1111  0.0444
 8389SOL    HW136629   3.925   0.021   6.466 -0.1477  0.0764  1.3378
 8389SOL    HW236630   3.977   0.141   6.544  1.7247  1.8292 -2.4792
 8390SOL     OW36631   2.093   2.639   1.655 -0.0746  0.3300  0.1938
 8390SOL    HW136632   2.094   2.567   1.591  2.6718 -1.7921  2.6219
 8390SOL    HW236633   2.037   2.594   1.719 -1.1128 -0.5559 -1.3368
 8391SOL     OW36634   4.303   2.345   8.403  0.2111  0.5764 -0.4739
 8391SOL    HW136635   4.240   2.402   8.358  1.2628  0.6343 -1.8853
 8391SOL    HW236636   4.328   2.395   8.481  1.1270  1.2270 -1.1820
 8392SOL     OW36637   0.912   2.178   2.989 -0.2200 -0.1007 -0.1631
 8392SOL    HW136638   0.824   2.215   2.997  0.0841  0.7201 -0.6065
 8392SOL    HW236639   0.951   2.194   3.075 -1.3752 -0.8040  0.4826
 8393SOL     OW36640   0.588   4.023  14.215  0.8615  0.2085 -0.3009
 8393SOL    HW136641   0.575   3.970  14.136 -2.5754  0.2767  0.2071
 8393SOL    HW236642   0.565   3.958  14.281  0.0889  0.1407 -0.6331
 8394SOL     OW36643   3.441   2.327   3.825  0.1292  0.0458 -0.0717
 8394SOL    HW136644   3.382   2.348   3.898  0.7747  0.8386  0.2200
 8394SOL    HW236645   3.383   2.275   3.770 -1.7089  0.4802  1.4231
 8395SOL     OW36646   3.481   0.299  17.417  0.2925  0.2293 -0.0161
 8395SOL    HW136647   3.506   0.228  17.475 -2.0448 -1.7352 -1.4642
 8395SOL    HW236648   3.408   0.340  17.462 -0.4252 -0.1355 -0.8465
 8396SOL     OW36649   2.250   1.419  16.232 -0.1540  0.2146 -0.1790
 8396SOL    HW136650   2.240   1.499  16.180 -0.3386 -1.3511 -2.5332
 8396SOL    HW236651   2.342   1.437  16.253  0.4859 -2.5477 -0.6864
 8397SOL     OW36652   0.719   2.420  13.902 -0.1304 -0.1944  0.0918
 8397SOL    HW136653   0.783   2.487  13.878 -0.6387 -0.8442 -3.0611
 8397SOL    HW236654   0.679   2.460  13.978  1.0180  0.1344  0.5186
 8398SOL     OW36655   0.965   2.157   6.666  0.4828 -0.1336  0.9453
 8398SOL    HW136656   1.058   2.168   6.646  0.4128 -0.5142  0.4123
 8398SOL    HW236657   0.921   2.226   6.617  2.8630  0.4385 -0.3757
 8399SOL     OW36658   4.548   3.203   1.203  0.3184 -0.2049  0.7037
 8399SOL    HW136659   4.491   3.274   1.232 -1.7449 -1.2961 -0.6661
 8399SOL    HW236660   4.561   3.219   1.110 -1.2737 -0.1186  0.5004
 8400SOL     OW36661   0.524   4.473   3.911  0.0502 -0.8989 -0.2045
 8400SOL    HW136662   0.603   4.421   3.922 -0.0085 -1.3360 -1.7353
 8400SOL    HW236663   0.512   4.506   4.000  1.4656 -0.6988 -0.0879
 8401SOL     OW36664   3.477   4.241   7.267  0.2407 -0.1190 -0.0791
 8401SOL    HW136665   3.427   4.189   7.330 -0.1646 -2.8804 -2.6804
 8401SOL    HW236666   3.545   4.268   7.328  1.0875  0.2404 -1.1983
 8402SOL     OW36667   2.163   3.748   4.304 -0.3862 -0.4911 -0.3569
 8402SOL    HW136668   2.135   3.834   4.335  0.0877  0.1939 -1.8789
 8402SOL    HW236669   2.164   3.762   4.210  1.4107 -1.9125 -0.5364
 8403SOL     OW36670   1.459   4.700   2.872  0.2030 -0.0298 -0.2542
 8403SOL    HW136671   1.545   4.700   2.831 -0.3389  0.1315 -1.3741
 8403SOL    HW236672   1.442   4.606   2.871  0.9579 -0.1602 -0.7853
 8404SOL     OW36673   0.752   1.448   5.691 -0.5005  0.0889 -0.6340
 8404SOL    HW136674   0.836   1.485   5.717 -0.5005  0.6063 -1.3973
 8404SOL    HW236675   0.707   1.522   5.650 -0.4883  2.2765  3.2784
 8405SOL     OW36676   3.461   4.680   7.696 -0.4630 -0.5285 -0.2217
 8405SOL    HW136677   3.500   4.630   7.769  0.0743  0.9156  0.4732
 8405SOL    HW236678   3.495   0.048   7.715  2.7694 -2.0776  1.3702
 8406SOL     OW36679   3.872   3.938   3.330  0.5314 -0.6870  0.1830
 8406SOL    HW136680   3.844   3.886   3.406 -1.2755  1.1723  0.7844
 8406SOL    HW236681   3.803   4.003   3.319  0.0289 -1.2657 -0.1032
 8407SOL     OW36682   1.805   0.457  10.977 -0.1199  0.0590 -0.0670
 8407SOL    HW136683   1.827   0.547  10.954 -0.3066 -0.2549 -1.5226
 8407SOL    HW236684   1.871   0.407  10.930  0.4302 -0.4081  1.2174
 8408SOL     OW36685   4.414   3.417   5.081 -0.1901 -0.2819  0.2733
 8408SOL    HW136686   4.457   3.336   5.054  0.9107  0.6990 -0.8853
 8408SOL    HW236687   4.333   3.422   5.029  0.3820 -0.2532 -0.6079
 8409SOL     OW36688   2.076   3.501  10.003 -0.0627  0.5635 -0.0244
 8409SOL    HW136689   2.058   3.547  10.085  1.6615  0.3350  0.4791
 8409SOL    HW236690   1.992   3.508   9.956  0.0033 -0.3171 -0.2749
 8410SOL     OW36691   2.771   4.705  16.786  0.1103  0.4444  0.2229
 8410SOL    HW136692   2.792   0.015  16.874  0.2200  1.5997 -0.1880
 8410SOL    HW236693   2.802   0.051  16.724  0.2581  1.3033  1.2134
 8411SOL     OW36694   1.642   1.759   4.030  0.2122  0.2919  0.2727
 8411SOL    HW136695   1.591   1.706   3.968 -3.3258  0.5232  2.9845
 8411SOL    HW236696   1.719   1.703   4.042 -2.4051 -3.1276  0.9262
 8412SOL     OW36697   3.551   0.613   4.331  0.2629 -0.1144  0.2583
 8412SOL    HW136698   3.550   0.666   4.251  1.0330  1.5271  1.3324
 8412SOL    HW236699   3.615   0.550   4.300 -1.0055 -1.1018 -0.3435
 8413SOL     OW36700   1.013   3.590   8.486 -0.3556 -1.2642 -0.2265
 8413SOL    HW136701   1.016   3.494   8.488 -0.4844 -1.2435  1.3451
 8413SOL    HW236702   0.944   3.616   8.546 -0.3197 -0.3114 -0.6075
 8414SOL     OW36703   0.731   0.750   7.776 -0.0716  0.1259  0.2271
 8414SOL    HW136704   0.669   0.756   7.704  0.6886  1.3485 -0.3133
 8414SOL    HW236705   0.759   0.660   7.759  0.9872  0.5110 -0.0807
 8415SOL     OW36706   2.672   2.237  15.358  0.1882 -0.0369  0.2894
 8415SOL    HW136707   2.718   2.216  15.277  0.0833 -1.6399  0.6538
 8415SOL    HW236708   2.728   2.310  15.384 -1.5498  1.3403  0.2004
 8416SOL     OW36709   2.492   1.302  13.541 -0.1805 -0.2841 -0.1744
 8416SOL    HW136710   2.416   1.305  13.599 -0.5261 -1.3996 -0.5796
 8416SOL    HW236711   2.458   1.296  13.452  0.2090 -0.7332 -0.2924
 8417SOL     OW36712   4.331   1.248   3.385 -0.6620 -0.1000 -0.4842
 8417SOL    HW136713   4.361   1.158   3.394  1.8499  0.7693 -0.1054
 8417SOL    HW236714   4.411   1.291   3.353 -0.9766  0.7290 -0.1703
 8418SOL     OW36715   1.174   2.057   5.801  0.5530 -0.1371 -0.2120
 8418SOL    HW136716   1.082   2.042   5.780 -0.0013  3.2283 -0.1634
 8418SOL    HW236717   1.193   1.982   5.857 -0.1694 -0.1353  0.0437
 8419SOL     OW36718   4.406   4.308   0.436  0.4841 -0.0483 -0.5881
 8419SOL    HW136719   4.332   4.335   0.489  0.5144 -1.9953  0.4323
 8419SOL    HW236720   4.485   4.356   0.463  0.3365  1.4593 -2.7757
 8420SOL     OW36721   1.580   4.371   6.948 -0.0223  0.1428  0.1236
 8420SOL    HW136722   1.660   4.403   6.907 -0.2906  1.4637  0.6641
 8420SOL    HW236723   1.540   4.325   6.873 -1.5003  0.5865  0.6280
 8421SOL     OW36724   3.789   0.109   9.204 -0.4994  0.3104  0.0624
 8421SOL    HW136725   3.779   0.015   9.189  0.0576  0.8670 -3.6933
 8421SOL    HW236726   3.709   0.139   9.161 -1.0216  1.5654  1.9056
 8422SOL     OW36727   0.708   2.359   3.069  0.2080 -0.3439  0.2530
 8422SOL    HW136728   0.615   2.366   3.051  0.5726 -0.2133 -1.5541
 8422SOL    HW236729   0.721   2.436   3.125  1.7359  1.0994 -2.0716
 8423SOL     OW36730   0.323   1.570   3.465 -0.1860  0.2400 -0.7772
 8423SOL    HW136731   0.273   1.529   3.395 -3.7032  0.8092  1.4309
 8423SOL    HW236732   0.287   1.658   3.459 -0.6560  0.1262  0.3262
 8424SOL     OW36733   0.686   1.734   9.335  0.0837 -0.0242 -0.0291
 8424SOL    HW136734   0.634   1.759   9.259 -0.6513 -0.2789  0.3935
 8424SOL    HW236735   0.661   1.807   9.392 -0.0706  0.5896 -0.8795
 8425SOL     OW36736   3.035   1.413   7.082 -0.2461  0.6298  0.1886
 8425SOL    HW136737   2.964   1.411   7.018 -0.1005 -2.3490  0.1522
 8425SOL    HW236738   2.994   1.460   7.155 -0.5805  0.8827 -0.1600
 8426SOL     OW36739   2.303   2.851  16.570  0.4426  0.6000 -0.0651
 8426SOL    HW136740   2.286   2.761  16.541  2.2257  0.3070 -0.1991
 8426SOL    HW236741   2.329   2.843  16.662  2.2561  2.0074 -0.4658
 8427SOL     OW36742   2.177   3.570   1.513  0.1840  0.5089  0.3256
 8427SOL    HW136743   2.170   3.611   1.599 -0.4760  0.4015  0.3166
 8427SOL    HW236744   2.212   3.645   1.464 -3.0658  2.2082  0.6573
 8428SOL     OW36745   0.834   2.254   4.785 -0.5839  0.2418  0.2919
 8428SOL    HW136746   0.775   2.181   4.801 -0.5808 -0.2992 -2.2443
 8428SOL    HW236747   0.922   2.215   4.778 -0.1237  1.7471 -2.3813
 8429SOL     OW36748   0.052   2.684  11.069 -0.3360  0.3260 -0.6269
 8429SOL    HW136749   0.056   2.674  10.973  0.2506  1.2457 -0.6958
 8429SOL    HW236750   0.064   2.779  11.071 -0.3248  0.3199 -0.4041
 8430SOL     OW36751   0.154   3.835   3.884  0.0182 -0.4893 -0.7345
 8430SOL    HW136752   0.092   3.816   3.814 -1.0722 -1.1994  0.4111
 8430SOL    HW236753   0.207   3.903   3.843 -1.1107  0.8399  0.0189
 8431SOL     OW36754   0.112   0.987   4.384  0.2934 -0.0133 -0.0491
 8431SOL    HW136755   0.189   0.959   4.334 -1.1363 -0.6361 -1.8786
 8431SOL    HW236756   0.086   1.067   4.339 -1.7713  0.6309  2.3334
 8432SOL     OW36757   2.248   3.691   0.279  0.3195 -0.6596 -0.0298
 8432SOL    HW136758   2.198   3.770   0.300  0.5170  0.1504 -2.5374
 8432SOL    HW236759   2.337   3.715   0.305 -0.5249  0.5057  1.7692
 8433SOL     OW36760   1.311   2.573   9.233 -0.2592 -0.0443 -0.4647
 8433SOL    HW136761   1.258   2.547   9.308 -0.5593  1.8123 -0.0359
 8433SOL    HW236762   1.243   2.584   9.167 -2.4620  0.7777  1.9579
 8434SOL     OW36763   1.207   2.923   9.338  0.0789 -0.0508 -0.1279
 8434SOL    HW136764   1.169   2.891   9.256 -2.7489  1.4151  0.5954
 8434SOL    HW236765   1.241   2.850   9.389 -1.0227  0.7585  1.7463
 8435SOL     OW36766   3.563   3.627   3.512 -0.4447  0.1863  0.0693
 8435SOL    HW136767   3.484   3.680   3.513 -0.0036  0.8444 -0.0493
 8435SOL    HW236768   3.519   3.550   3.549  0.3736 -0.2255  0.1896
 8436SOL     OW36769   1.720   3.499   1.955 -0.1232  0.1546  0.3699
 8436SOL    HW136770   1.802   3.506   2.003 -0.1829  0.6240  0.4033
 8436SOL    HW236771   1.761   3.511   1.869  0.1862 -0.9885  0.3522
 8437SOL     OW36772   1.450   3.483   5.784 -0.3098 -0.3202 -0.9911
 8437SOL    HW136773   1.532   3.462   5.739 -0.1714 -0.4753 -0.6716
 8437SOL    HW236774   1.392   3.445   5.718 -0.4779  0.6648 -1.3995
 8438SOL     OW36775   2.332   2.934  11.966 -0.9578  0.0757  0.0325
 8438SOL    HW136776   2.412   2.938  12.018 -0.0276  2.4488 -1.6136
 8438SOL    HW236777   2.335   3.012  11.911  1.4686  1.1969  1.7810
 8439SOL     OW36778   1.031   3.513   0.749  0.0750 -0.5176 -0.3424
 8439SOL    HW136779   0.982   3.573   0.805  0.9670 -1.6385  1.6431
 8439SOL    HW236780   1.027   3.557   0.664  1.4709  1.5930  0.6751
 8440SOL     OW36781   3.410   1.635  12.568 -0.0008 -0.0270  0.6588
 8440SOL    HW136782   3.412   1.540  12.562  0.1509  0.0899 -1.1670
 8440SOL    HW236783   3.501   1.662  12.579  0.5194 -2.1288  1.5453
 8441SOL     OW36784   3.781   3.040  16.424 -0.0840 -0.4609 -0.2817
 8441SOL    HW136785   3.749   3.128  16.404 -0.5406 -1.0274 -1.9925
 8441SOL    HW236786   3.796   3.042  16.519 -0.6232 -1.4243 -0.1814
 8442SOL     OW36787   1.229   0.702   5.553 -0.1512  0.0240  0.4366
 8442SOL    HW136788   1.318   0.708   5.517 -0.3192  0.0781  0.0320
 8442SOL    HW236789   1.236   0.688   5.647  0.1049 -2.1508  0.0875
 8443SOL     OW36790   4.271   1.276  14.195 -0.1059  0.0661  0.3424
 8443SOL    HW136791   4.205   1.213  14.166 -1.5757  0.9359  1.7409
 8443SOL    HW236792   4.325   1.226  14.257  0.6132 -0.4675 -0.7319
 8444SOL     OW36793   1.223   1.076  16.090  0.3775 -0.5647 -0.5474
 8444SOL    HW136794   1.152   1.101  16.149  1.2355  0.9464 -0.1446
 8444SOL    HW236795   1.297   1.107  16.142  1.3500 -2.9551 -0.4754
 8445SOL     OW36796   1.073   3.206  17.204 -0.6073 -0.7901  0.2976
 8445SOL    HW136797   1.000   3.237  17.150 -0.2732 -0.9816 -0.2645
 8445SOL    HW236798   1.084   3.120  17.164  1.7602  0.0679 -0.8811
 8446SOL     OW36799   4.519   3.573   3.789 -0.0581  0.3753 -0.3798
 8446SOL    HW136800   4.571   3.493   3.795  0.1634  0.4779 -0.9199
 8446SOL    HW236801   4.484   3.563   3.700  2.3419  1.0954 -1.3876
 8447SOL     OW36802   3.155   2.179   9.074  0.5483  0.3028  0.2412
 8447SOL    HW136803   3.235   2.127   9.073 -0.1768 -0.7611 -1.3102
 8447SOL    HW236804   3.099   2.143   9.005 -0.3227  1.6611  0.2307
 8448SOL     OW36805   4.166   1.225  17.565  0.3558  0.0957 -0.1387
 8448SOL    HW136806   4.218   1.171  17.624  1.9189 -0.2539 -1.8624
 8448SOL    HW236807   4.133   1.149  17.516 -0.4077  0.0876  0.3816
 8449SOL     OW36808   4.588   0.191  14.135  0.2059  0.0547  0.2903
 8449SOL    HW136809   4.575   0.285  14.142 -0.5598 -0.1990  2.4063
 8449SOL    HW236810   4.683   0.197  14.135  0.0883  1.7705 -0.4570
 8450SOL     OW36811   2.540   1.488   0.273  0.2830 -0.2216 -0.0346
 8450SOL    HW136812   2.549   1.448   0.360 -0.3024 -1.6225 -0.6058
 8450SOL    HW236813   2.577   1.421   0.215  1.3887 -0.0302  0.4592
 8451SOL     OW36814   2.142   3.481   5.317  0.5202 -0.0419  0.1374
 8451SOL    HW136815   2.191   3.555   5.282  0.2524 -0.1766 -0.5189
 8451SOL    HW236816   2.213   3.419   5.335  0.6897 -0.1773 -1.0385
 8452SOL     OW36817   4.331   0.235   7.902 -0.3670  0.7558 -0.1560
 8452SOL    HW136818   4.384   0.176   7.849  0.4306  0.1735  1.2911
 8452SOL    HW236819   4.246   0.211   7.865  0.1998  0.1501 -1.0494
 8453SOL     OW36820   4.360   3.897   2.924  0.0410  0.5395  0.5179
 8453SOL    HW136821   4.287   3.841   2.897  0.7488 -0.4440  0.6214
 8453SOL    HW236822   4.367   3.945   2.842  1.4244  0.1494  0.3985
 8454SOL     OW36823   0.332   4.315   4.779  0.0519  0.1939  0.5408
 8454SOL    HW136824   0.411   4.261   4.770 -2.8445 -4.1023  1.0435
 8454SOL    HW236825   0.260   4.262   4.745 -0.6267  2.1561 -1.0625
 8455SOL     OW36826   4.240   0.976   2.533 -0.2351 -0.3397  0.0157
 8455SOL    HW136827   4.281   0.927   2.462 -1.0165  0.8748 -1.2701
 8455SOL    HW236828   4.146   0.974   2.516 -1.0180  3.8995  4.0109
 8456SOL     OW36829   4.412   2.166   7.177 -0.1386 -0.7097 -0.2247
 8456SOL    HW136830   4.379   2.231   7.116 -0.1337 -0.6922 -0.2086
 8456SOL    HW236831   4.504   2.157   7.152 -0.1567  1.6159 -1.1181
 8457SOL     OW36832   4.281   3.402  15.630 -0.6119 -0.9421  0.0260
 8457SOL    HW136833   4.188   3.421  15.623 -0.1996  0.7270 -1.0756
 8457SOL    HW236834   4.322   3.488  15.621 -2.4695 -0.2832 -2.2044
 8458SOL     OW36835   4.415   4.274   4.987  0.2229 -0.1547 -0.5595
 8458SOL    HW136836   4.404   4.347   5.047 -0.2948 -0.4692 -0.2663
 8458SOL    HW236837   4.360   4.203   5.021 -0.8272  2.0247  2.2110
 8459SOL     OW36838   1.291   0.681   7.506  0.6314 -0.0367 -0.0294
 8459SOL    HW136839   1.339   0.639   7.578  0.4080 -3.3804 -1.7923
 8459SOL    HW236840   1.266   0.609   7.449  2.1029 -1.6058  1.2758
 8460SOL     OW36841   3.984   2.996   0.884  0.7581 -0.4791 -0.1556
 8460SOL    HW136842   4.038   2.996   0.806  0.5329  2.4670 -0.3124
 8460SOL    HW236843   3.917   2.939   0.847 -1.6684  2.2430  0.0115
 8461SOL     OW36844   0.136   1.514  13.019  0.3626 -0.1075  0.3153
 8461SOL    HW136845   0.224   1.547  12.998  1.4668 -4.1420 -1.3279
 8461SOL    HW236846   0.079   1.548  12.951  0.3555 -0.8428 -0.0430
 8462SOL     OW36847   0.329   4.156  11.830  0.3669  0.0876 -0.6307
 8462SOL    HW136848   0.361   4.243  11.806  0.5556  0.3558  0.5779
 8462SOL    HW236849   0.396   4.100  11.790  0.5544  0.4734 -0.8557
 8463SOL     OW36850   4.396   0.280   8.153  0.1610 -0.0269 -0.4119
 8463SOL    HW136851   4.382   0.271   8.058  1.9148  1.4608 -0.7942
 8463SOL    HW236852   4.491   0.284   8.157  0.0374  0.6781  1.7615
 8464SOL     OW36853   3.138   1.615   2.687 -0.1392  0.4018 -0.6853
 8464SOL    HW136854   3.050   1.621   2.650 -0.8379  2.3127  1.2883
 8464SOL    HW236855   3.172   1.534   2.649 -0.5300 -0.3742  0.6305
 8465SOL     OW36856   1.191   0.168   4.839 -0.4267 -0.3564 -0.6352
 8465SOL    HW136857   1.158   0.119   4.765 -0.5308 -0.7204 -0.3474
 8465SOL    HW236858   1.119   0.228   4.855  0.6612  1.2436 -1.6970
 8466SOL     OW36859   2.903   1.129   5.668 -0.1057 -0.3858  0.2499
 8466SOL    HW136860   2.957   1.104   5.593 -1.4073  0.7401 -1.0465
 8466SOL    HW236861   2.926   1.059   5.728 -0.6430 -0.1034  0.7816
 8467SOL     OW36862   0.251   2.615   4.993  0.3537 -0.1264  0.0605
 8467SOL    HW136863   0.196   2.693   4.999  2.4012  1.4791 -1.8933
 8467SOL    HW236864   0.232   2.573   4.910 -1.4059 -1.5071  1.1654
 8468SOL     OW36865   1.602   4.565   0.196 -0.1132 -0.1747  0.1019
 8468SOL    HW136866   1.642   4.582   0.111  1.2028 -1.4349  0.4726
 8468SOL    HW236867   1.674   4.539   0.254 -0.4226 -0.7268  0.2407
 8469SOL     OW36868   2.400   4.074  15.433 -0.4899  0.2859 -0.3453
 8469SOL    HW136869   2.305   4.063  15.426 -0.6335  0.4282  1.3742
 8469SOL    HW236870   2.424   4.015  15.504 -1.5471 -0.3273 -0.4965
 8470SOL     OW36871   1.853   1.736  10.325 -0.0463  0.3529 -0.1226
 8470SOL    HW136872   1.855   1.750  10.420  0.1827  0.1377 -0.0959
 8470SOL    HW236873   1.770   1.691  10.314  0.1617 -0.5124  1.7783
 8471SOL     OW36874   0.141   3.312   0.283 -0.0268  0.6754  0.1310
 8471SOL    HW136875   0.130   3.383   0.220  3.3855  1.9073  0.9485
 8471SOL    HW236876   0.215   3.268   0.241 -1.6024  0.5025 -2.4914
 8472SOL     OW36877   2.544   1.663   5.092  0.1449  0.0126 -0.0843
 8472SOL    HW136878   2.629   1.633   5.125  1.1185  3.1201  0.2389
 8472SOL    HW236879   2.544   1.757   5.110 -0.0662 -0.1618  0.8430
 8473SOL     OW36880   2.756   3.714  11.658  0.1457  0.2506 -0.4645
 8473SOL    HW136881   2.822   3.649  11.633 -0.5611 -0.0715 -1.5177
 8473SOL    HW236882   2.749   3.695  11.752  0.2403  2.1581 -0.0778
 8474SOL     OW36883   3.681   3.115   7.006 -0.0733  0.1829  0.0557
 8474SOL    HW136884   3.744   3.182   6.980 -0.1184  0.8471  1.6378
 8474SOL    HW236885   3.735   3.052   7.054 -0.7207 -0.6026 -0.2419
 8475SOL     OW36886   1.620   4.223   4.098 -0.5567 -0.0998  0.6032
 8475SOL    HW136887   1.619   4.133   4.065  2.6836 -0.0506  0.3786
 8475SOL    HW236888   1.530   4.236   4.128 -1.0258  0.9502 -1.2139
 8476SOL     OW36889   3.251   1.171   5.668  0.3185  0.2643  0.1658
 8476SOL    HW136890   3.322   1.118   5.631 -1.5267 -1.2925 -1.1962
 8476SOL    HW236891   3.176   1.112   5.676  0.2207  0.5612  1.5059
 8477SOL     OW36892   2.543   4.553  16.829  0.3120 -0.2396 -0.4233
 8477SOL    HW136893   2.637   4.560  16.810 -0.1244  0.9977 -2.0801
 8477SOL    HW236894   2.506   4.633  16.793  2.4474  0.7432 -0.4848
 8478SOL     OW36895   4.470   4.066   0.322 -0.3269 -0.0103 -0.3027
 8478SOL    HW136896   4.465   4.138   0.384  1.4016  1.1657 -1.5226
 8478SOL    HW236897   4.531   4.099   0.255 -0.1480  0.3275  0.0307
 8479SOL     OW36898   1.083   4.461   3.210  0.0377 -0.0142  0.1896
 8479SOL    HW136899   1.067   4.373   3.244 -0.5640  0.1432  0.3343
 8479SOL    HW236900   1.110   4.499   3.294 -1.1465 -0.2607  0.6861
 8480SOL     OW36901   2.344   3.484   2.707  0.5738 -0.3449  0.4361
 8480SOL    HW136902   2.329   3.568   2.664 -0.3616  0.4323  2.2710
 8480SOL    HW236903   2.401   3.450   2.638 -0.2480 -1.5031  0.3277
 8481SOL     OW36904   3.807   4.331   6.045 -0.6353 -0.2255  0.3059
 8481SOL    HW136905   3.753   4.377   5.982 -2.3508 -0.4681  1.6022
 8481SOL    HW236906   3.858   4.404   6.081 -0.6172 -0.3378  0.5074
 8482SOL     OW36907   1.880   0.835   8.247  0.5303  0.0370  0.2344
 8482SOL    HW136908   1.790   0.860   8.271  0.8576  2.2384 -0.8230
 8482SOL    HW236909   1.920   0.841   8.334 -1.5825 -1.7254  1.3359
 8483SOL     OW36910   0.857   1.271   4.823  0.0916 -0.3015 -0.3987
 8483SOL    HW136911   0.939   1.272   4.774  1.4517  2.3136  1.9067
 8483SOL    HW236912   0.823   1.357   4.799 -0.4801 -0.1958  0.7766
 8484SOL     OW36913   3.013   2.673  10.110  0.1277  0.7034  1.1395
 8484SOL    HW136914   3.051   2.629  10.187 -1.1919 -2.1108  0.1926
 8484SOL    HW236915   3.071   2.639  10.042  0.4555 -1.8174  2.6720
 8485SOL     OW36916   4.410   4.310   4.064  0.5394  0.0176 -0.1915
 8485SOL    HW136917   4.503   4.289   4.071  0.8630  1.1807 -1.1093
 8485SOL    HW236918   4.405   4.390   4.013 -1.9345  1.0413  1.6539
 8486SOL     OW36919   3.965   1.940   3.664 -0.8049  0.2456 -0.1149
 8486SOL    HW136920   4.013   2.022   3.655  1.5278 -0.9771  1.0397
 8486SOL    HW236921   3.964   1.920   3.758 -4.8752 -1.1141 -0.4537
 8487SOL     OW36922   0.566   2.448   4.990 -0.0047 -0.3198 -0.4967
 8487SOL    HW136923   0.552   2.366   4.942 -1.8856 -1.0041  1.2273
 8487SOL    HW236924   0.490   2.462   5.046  0.6248  1.2311 -0.0226
 8488SOL     OW36925   2.547   0.102   7.945 -0.0496 -0.5417  0.5107
 8488SOL    HW136926   2.460   0.119   7.983  0.2082  0.1122  0.8003
 8488SOL    HW236927   2.555   0.012   7.977 -0.0699 -0.6287  0.2724
 8489SOL     OW36928   1.701   0.905  14.351  0.4427 -0.0061  0.0574
 8489SOL    HW136929   1.700   0.921  14.445 -0.2968  1.5534 -0.2134
 8489SOL    HW236930   1.746   0.987  14.331 -0.2095 -0.1928 -2.1871
 8490SOL     OW36931   0.414   0.624   7.815  0.6268  0.4924 -0.2888
 8490SOL    HW136932   0.483   0.687   7.790 -0.5780  2.2585  0.8283
 8490SOL    HW236933   0.473   0.559   7.852  1.5803  0.3645 -2.0186
 8491SOL     OW36934   0.938   2.090   2.181  0.5906 -0.2605 -0.5500
 8491SOL    HW136935   0.976   2.066   2.096  1.4579  3.5696 -1.2152
 8491SOL    HW236936   0.939   2.185   2.177 -1.8510 -0.2465 -0.7320
 8492SOL     OW36937   1.531   0.407  10.977  0.1177  0.1455 -0.4810
 8492SOL    HW136938   1.496   0.450  11.055  0.2000 -0.1409 -0.2861
 8492SOL    HW236939   1.627   0.410  10.969  0.1202  1.0976 -0.1821
 8493SOL     OW36940   0.693   4.506   6.806  0.5258 -0.2972 -0.7716
 8493SOL    HW136941   0.730   4.585   6.846 -0.1116  0.0074 -0.7680
 8493SOL    HW236942   0.680   4.536   6.716 -0.9999 -1.9318 -1.0876
 8494SOL     OW36943   4.327   1.497   2.371 -0.4435  0.2231 -0.4528
 8494SOL    HW136944   4.355   1.574   2.420  0.3578  1.2127 -2.5114
 8494SOL    HW236945   4.307   1.531   2.284  2.2490 -0.5669 -1.3882
 8495SOL     OW36946   3.446   2.473   4.144  0.0989 -0.3391  0.0923
 8495SOL    HW136947   3.477   2.383   4.147  0.4499 -0.2398 -0.4285
 8495SOL    HW236948   3.460   2.495   4.236 -1.3839 -3.9651  1.1558
 8496SOL     OW36949   4.532   4.378   3.631  0.3504  0.2308  0.6388
 8496SOL    HW136950   4.589   4.446   3.667  1.8563  0.3658 -1.9645
 8496SOL    HW236951   4.449   4.425   3.630  0.8537  1.1093 -0.1551
 8497SOL     OW36952   3.470   3.221  10.650  0.2197 -0.2130 -0.5732
 8497SOL    HW136953   3.502   3.262  10.570  1.2584 -1.1715 -0.6655
 8497SOL    HW236954   3.458   3.127  10.633 -0.3031 -0.4965  1.3606
 8498SOL     OW36955   0.441   0.987   3.173  0.1889 -0.0497 -0.6458
 8498SOL    HW136956   0.395   1.018   3.251 -0.3505 -0.3371 -0.8555
 8498SOL    HW236957   0.418   0.894   3.172 -1.3088  0.3173  0.4964
 8499SOL     OW36958   2.148   1.944   8.544 -0.1171  0.3568  0.0818
 8499SOL    HW136959   2.086   1.992   8.598 -0.3418 -1.1146  1.1411
 8499SOL    HW236960   2.124   1.974   8.456  0.1936 -1.1690 -0.5291
 8500SOL     OW36961   3.553   2.434   6.787  0.1621 -0.1797 -0.2247
 8500SOL    HW136962   3.464   2.408   6.760 -0.5960 -0.0995  2.2334
 8500SOL    HW236963   3.535   2.516   6.833  0.2869  0.0350 -0.5569
 8501SOL     OW36964   0.936   2.657   2.804  0.2953 -0.2668  0.2246
 8501SOL    HW136965   0.987   2.600   2.862  0.4740  0.0846  0.4153
 8501SOL    HW236966   0.973   2.627   2.721  0.7903  1.1639 -0.0753
 8502SOL     OW36967   2.560   2.981  16.477  0.1030 -0.0989 -0.1183
 8502SOL    HW136968   2.603   3.055  16.434  0.2343  0.3786  0.8242
 8502SOL    HW236969   2.476   3.013  16.510  0.5036 -0.2866  1.0893
 8503SOL     OW36970   2.984   2.029   0.285 -0.2006 -0.7163  0.1092
 8503SOL    HW136971   2.904   1.999   0.329  0.6117 -0.7227  1.5745
 8503SOL    HW236972   2.967   2.018   0.191  0.9121 -0.5824 -0.1009
 8504SOL     OW36973   3.618   2.823   6.011  0.0484 -0.1878 -0.4345
 8504SOL    HW136974   3.570   2.754   5.963  1.6833 -0.9224 -1.0363
 8504SOL    HW236975   3.563   2.844   6.086  0.2909  3.2656 -1.2236
 8505SOL     OW36976   1.829   1.677   7.668 -0.1994  0.5653  0.0788
 8505SOL    HW136977   1.792   1.669   7.756  0.5308  0.5740  0.3898
 8505SOL    HW236978   1.813   1.590   7.632  0.0793  0.6691 -0.2924
 8506SOL     OW36979   0.384   0.146  14.528  0.4569  0.3064 -0.1332
 8506SOL    HW136980   0.450   0.078  14.539  1.2687  1.1184 -0.0163
 8506SOL    HW236981   0.373   0.176  14.618  1.8340 -1.3004  0.5598
 8507SOL     OW36982   0.790   0.568  11.404 -0.3777  0.3337 -0.1000
 8507SOL    HW136983   0.705   0.608  11.386  0.5178  2.4462  0.2519
 8507SOL    HW236984   0.851   0.616  11.348  0.6995 -0.4828  0.3698
 8508SOL     OW36985   2.336   3.051  17.050  0.1640  0.8185  1.0591
 8508SOL    HW136986   2.297   3.135  17.076 -1.8451  0.2474 -0.1235
 8508SOL    HW236987   2.257   3.000  17.035  1.4028 -0.4856 -1.0624
 8509SOL     OW36988   4.269   3.552   6.951  0.5507  0.3600  0.3269
 8509SOL    HW136989   4.350   3.602   6.966  1.6587 -1.9064  1.8711
 8509SOL    HW236990   4.289   3.516   6.865  1.6179  1.6339  0.0204
 8510SOL     OW36991   3.257   2.323   3.547 -0.1774 -0.4455 -0.2001
 8510SOL    HW136992   3.317   2.343   3.475 -1.5703 -3.3287 -2.1218
 8510SOL    HW236993   3.262   2.228   3.556  0.7471 -0.0597  3.4179
 8511SOL     OW36994   0.400   3.458  10.261 -0.0847 -0.1598 -0.1989
 8511SOL    HW136995   0.487   3.465  10.223 -0.5843  0.2107 -1.2864
 8511SOL    HW236996   0.386   3.364  10.270 -2.3220  0.0807 -0.9796
 8512SOL     OW36997   0.638   0.301  12.205 -0.3839  0.0927 -0.5572
 8512SOL    HW136998   0.594   0.355  12.270  2.0285  2.1592 -0.6153
 8512SOL    HW236999   0.698   0.367  12.168  1.3494 -1.3121 -0.2739
 8513SOL     OW37000   0.280   4.609  14.259 -0.0506  0.0682 -0.3734
 8513SOL    HW137001   0.359   4.652  14.225  0.9820 -0.4845  1.3379
 8513SOL    HW237002   0.227   4.688  14.266  0.3507  0.4931 -1.9877
 8514SOL     OW37003   1.265   1.307   4.350  0.1489 -0.0716 -0.0226
 8514SOL    HW137004   1.221   1.232   4.309 -1.6778  0.4492  1.0132
 8514SOL    HW237005   1.315   1.339   4.275 -0.1288  1.0914  0.2939
 8515SOL     OW37006   1.115   1.175   3.402  0.2731 -0.2010 -0.0582
 8515SOL    HW137007   1.126   1.246   3.339 -0.6779 -1.0110 -1.1425
 8515SOL    HW237008   1.184   1.116   3.370  2.4101  2.7636 -0.9543
 8516SOL     OW37009   2.236   1.874   8.257 -0.5452  0.0926 -0.0644
 8516SOL    HW137010   2.175   1.819   8.207 -0.2547 -1.2826  1.1041
 8516SOL    HW237011   2.272   1.817   8.325  0.7528 -1.0544 -1.7029
 8517SOL     OW37012   1.180   4.249   8.527  0.0967  0.4402  0.1283
 8517SOL    HW137013   1.199   4.171   8.579 -0.2287 -0.0722 -0.5202
 8517SOL    HW237014   1.084   4.249   8.533 -0.0098 -0.1747 -1.4433
 8518SOL     OW37015   0.623   4.092   4.037 -0.4929  0.4405 -0.2806
 8518SOL    HW137016   0.597   4.014   4.087  0.3158 -0.2464 -0.9335
 8518SOL    HW237017   0.647   4.152   4.107 -0.2052 -1.2032  1.0489
 8519SOL     OW37018   2.221   2.367   7.087  0.3567  0.1238  0.0207
 8519SOL    HW137019   2.168   2.421   7.029  2.6273  0.4124 -1.7964
 8519SOL    HW237020   2.190   2.281   7.057  1.4286 -0.7003  1.2159
 8520SOL     OW37021   3.067   3.539   6.359  0.3703 -0.2410 -0.2535
 8520SOL    HW137022   3.070   3.588   6.277  0.4098 -2.4343 -1.5489
 8520SOL    HW237023   3.154   3.499   6.368  1.2032  1.7079  0.2715
 8521SOL     OW37024   0.567   3.507  10.911  0.5404 -0.7594  0.0313
 8521SOL    HW137025   0.564   3.567  10.836  2.5835 -1.4720 -0.6198
 8521SOL    HW237026   0.471   3.510  10.919  0.4429 -1.8013 -0.7527
 8522SOL     OW37027   4.308   0.320  14.200 -0.1677 -0.5108  0.4309
 8522SOL    HW137028   4.376   0.352  14.140 -0.8112 -0.5817 -0.3392
 8522SOL    HW237029   4.254   0.397  14.182 -0.4527 -0.7632  0.2042
 8523SOL     OW37030   2.975   3.351   4.866  0.4056  0.6192  0.6187
 8523SOL    HW137031   2.929   3.272   4.895 -1.0713  1.9115  1.7765
 8523SOL    HW237032   3.066   3.337   4.893  0.2073  0.4753  1.2170
 8524SOL     OW37033   2.793   2.766  12.966  0.6303 -0.2239 -0.7904
 8524SOL    HW137034   2.881   2.789  12.936 -0.2252  3.7253 -0.3649
 8524SOL    HW237035   2.793   2.674  12.993 -0.0562 -0.2081 -0.7270
 8525SOL     OW37036   4.228   0.728   0.009 -0.8352 -0.4927 -0.1279
 8525SOL    HW137037   4.257   0.678  17.614 -0.1081  1.6992 -1.2952
 8525SOL    HW237038   4.267   0.691   0.088 -1.6094 -0.4410  0.2723
 8526SOL     OW37039   2.356   2.212   8.041 -0.0778  0.5140  0.1979
 8526SOL    HW137040   2.410   2.144   8.080  0.3518  0.3178 -0.7173
 8526SOL    HW237041   2.391   2.295   8.074  0.2677  0.7316 -0.7045
 8527SOL     OW37042   0.327   1.414   9.351  0.0641 -0.4340 -0.4239
 8527SOL    HW137043   0.365   1.327   9.346  3.1617  0.9725 -1.6258
 8527SOL    HW237044   0.400   1.458   9.395 -0.4943  0.0401  0.0312
 8528SOL     OW37045   3.938   1.936   2.525 -0.5236  0.0088  0.1558
 8528SOL    HW137046   4.023   1.918   2.485 -0.4762 -1.4787  0.9305
 8528SOL    HW237047   3.913   1.850   2.560  0.3374 -0.7830 -1.1657
 8529SOL     OW37048   1.226   3.364  11.012 -0.0761  0.4636 -0.3758
 8529SOL    HW137049   1.297   3.419  10.981 -0.2590  0.0648 -1.5007
 8529SOL    HW237050   1.194   3.342  10.924  1.1517 -0.5008 -0.5733
 8530SOL     OW37051   0.665   3.635   0.874 -0.1386  0.0325 -0.1650
 8530SOL    HW137052   0.723   3.710   0.857 -1.6783  1.3870  0.5110
 8530SOL    HW237053   0.732   3.580   0.914  1.1314  0.1271 -2.1928
 8531SOL     OW37054   1.687   4.005   3.200  0.0651  0.6637 -0.4284
 8531SOL    HW137055   1.689   3.910   3.187  2.4519  1.3036 -4.5839
 8531SOL    HW237056   1.685   4.038   3.111 -1.7079 -0.0151 -0.6193
 8532SOL     OW37057   4.181   3.777   2.748  0.0089 -0.0668  0.3705
 8532SOL    HW137058   4.108   3.796   2.689  0.3272  0.6211  0.1895
 8532SOL    HW237059   4.253   3.743   2.695 -0.7848 -0.2586 -0.5849
 8533SOL     OW37060   4.225   1.950  13.083 -0.7286  0.0987 -0.0847
 8533SOL    HW137061   4.232   1.866  13.128  1.3528  0.7411  0.7892
 8533SOL    HW237062   4.171   1.927  13.008 -1.6766  0.1063  0.5816
 8534SOL     OW37063   2.180   3.148   2.826 -0.1289 -0.1046  0.6937
 8534SOL    HW137064   2.198   3.182   2.914 -2.4798  1.0258  0.7484
 8534SOL    HW237065   2.259   3.153   2.773  0.2759 -0.4469  1.2537
 8535SOL     OW37066   0.419   2.798  16.921 -0.2912  0.4816 -0.0245
 8535SOL    HW137067   0.351   2.755  16.869  0.4219 -0.1072 -0.4680
 8535SOL    HW237068   0.472   2.846  16.857 -0.2077 -2.6691 -2.3724
 8536SOL     OW37069   1.743   3.764  11.799 -0.0767 -0.3585 -0.2073
 8536SOL    HW137070   1.798   3.764  11.720 -0.7771  1.1130 -0.6933
 8536SOL    HW237071   1.769   3.681  11.839  1.0626  0.4497  0.7176
 8537SOL     OW37072   2.362   2.462  13.599 -0.1456 -0.5966  0.0174
 8537SOL    HW137073   2.288   2.416  13.559  0.3333 -0.9459 -0.4652
 8537SOL    HW237074   2.414   2.489  13.523 -0.6412 -1.1569 -0.5244
 8538SOL     OW37075   1.473   4.676   3.205  0.4101 -0.1222 -0.2864
 8538SOL    HW137076   1.481   4.582   3.187  1.7032 -0.5984  2.8345
 8538SOL    HW237077   1.430   4.705   3.124 -2.8096  0.0024  1.4672
 8539SOL     OW37078   4.425   0.231  10.368 -0.0863 -0.3887 -0.0919
 8539SOL    HW137079   4.446   0.250  10.460 -0.5840 -0.5043  0.0423
 8539SOL    HW237080   4.385   0.310  10.331 -2.4298 -0.9495  1.2465
 8540SOL     OW37081   4.196   2.734   2.454  0.7762  0.1868 -0.2261
 8540SOL    HW137082   4.165   2.645   2.470 -0.7079  0.3762 -2.1091
 8540SOL    HW237083   4.173   2.737   2.361 -2.3779 -1.4931  0.4910
 8541SOL     OW37084   3.015   1.772   9.630 -0.0803  0.3142  0.8460
 8541SOL    HW137085   2.940   1.825   9.658 -0.2711  0.5171 -0.0486
 8541SOL    HW237086   3.016   1.703   9.696 -1.3068 -1.1261 -0.6385
 8542SOL     OW37087   0.205   1.368   9.096  0.4166 -0.1422  0.4066
 8542SOL    HW137088   0.262   1.394   9.168  0.8954  0.0975 -0.0540
 8542SOL    HW237089   0.274   1.341   9.035  0.6441  0.4720  0.3928
 8543SOL     OW37090   2.068   2.989   3.557  0.5144  0.0368 -0.0949
 8543SOL    HW137091   2.118   3.063   3.591  0.3627  0.7779 -1.5345
 8543SOL    HW237092   1.975   3.013   3.558  0.3729 -0.5233  1.6034
 8544SOL     OW37093   3.209   2.893   3.255  0.4683 -0.0036 -0.3663
 8544SOL    HW137094   3.276   2.833   3.287  0.1549 -0.2135 -0.0924
 8544SOL    HW237095   3.186   2.850   3.173  0.9914  0.0348 -0.5283
 8545SOL     OW37096   0.468   3.304   8.047  0.6331  0.0970 -0.1009
 8545SOL    HW137097   0.419   3.297   7.965 -1.8993  0.3231  1.3583
 8545SOL    HW237098   0.423   3.381   8.082  1.5192 -0.5055  2.3574
 8546SOL     OW37099   0.440   2.308   0.003 -0.8389  0.4837  0.0527
 8546SOL    HW137100   0.468   2.397   0.022  0.9101 -0.3780  1.5285
 8546SOL    HW237101   0.416   2.314  17.592 -1.0360 -1.0920 -0.0069
 8547SOL     OW37102   1.953   4.653   7.582 -0.6010 -0.4009  0.3569
 8547SOL    HW137103   1.987   4.590   7.519 -0.0750 -0.7841  1.0312
 8547SOL    HW237104   2.032   4.676   7.632 -1.6124 -0.6151  2.0577
 8548SOL     OW37105   2.255   2.230   1.359 -0.2322 -0.2067 -0.2062
 8548SOL    HW137106   2.161   2.249   1.359 -0.4803 -1.4211 -1.4045
 8548SOL    HW237107   2.268   2.237   1.454  1.8485 -0.1865 -0.5040
 8549SOL     OW37108   3.544   2.579   4.693 -0.0427 -0.0542 -0.0554
 8549SOL    HW137109   3.559   2.499   4.744  2.4223 -0.1179 -0.8879
 8549SOL    HW237110   3.496   2.635   4.753  0.5442  1.5884 -1.1349
 8550SOL     OW37111   1.932   1.416  13.929  0.2677 -0.1125 -0.0424
 8550SOL    HW137112   1.843   1.394  13.900  0.4053 -0.2825 -0.3349
 8550SOL    HW237113   1.983   1.336  13.915 -0.2136 -0.7325  1.7630
 8551SOL     OW37114   1.670   0.572   3.194 -0.5921 -0.3020 -0.1788
 8551SOL    HW137115   1.607   0.561   3.266  0.4948  0.1571  0.8605
 8551SOL    HW237116   1.738   0.523   3.239  0.0663 -0.5076 -1.4281
 8552SOL     OW37117   0.064   3.129   3.456 -0.3853  0.1395 -0.4730
 8552SOL    HW137118   0.159   3.118   3.449 -0.5504 -2.7458  1.7674
 8552SOL    HW237119   0.046   3.057   3.517  0.5902  1.2367  1.1243
 8553SOL     OW37120   0.403   2.262   7.180  0.2026  0.0049 -0.6667
 8553SOL    HW137121   0.409   2.347   7.224 -1.2256 -1.1850  1.8320
 8553SOL    HW237122   0.383   2.286   7.090 -1.6898  0.3832 -0.1409
 8554SOL     OW37123   1.237   0.757   7.819 -0.4486 -0.6863  0.7747
 8554SOL    HW137124   1.216   0.684   7.877  0.7451 -1.1535  0.6300
 8554SOL    HW237125   1.155   0.804   7.828  0.3422  1.0365 -1.1148
 8555SOL     OW37126   4.294   0.325   1.965  0.0157  0.7240  0.5921
 8555SOL    HW137127   4.360   0.269   1.925 -0.7583 -0.4826  0.9656
 8555SOL    HW237128   4.278   0.282   2.049  1.6553  1.5774  1.3430
 8556SOL     OW37129   2.641   2.357   8.687  0.3221  0.4684  0.5263
 8556SOL    HW137130   2.653   2.313   8.604  1.8347  1.8351  0.0215
 8556SOL    HW237131   2.610   2.284   8.742 -0.2366  1.3170  1.3416
 8557SOL     OW37132   3.085   4.397   6.000  0.0841  0.2188  0.5214
 8557SOL    HW137133   3.039   4.387   5.917  0.6165  0.8482  0.1486
 8557SOL    HW237134   3.173   4.393   5.962 -0.5602  1.0170 -1.0620
 8558SOL     OW37135   4.667   2.730   5.167 -0.2485  0.0602  0.6098
 8558SOL    HW137136   4.624   2.809   5.198 -0.4963  0.7211 -1.4815
 8558SOL    HW237137   4.669   2.753   5.075  0.4872  1.7195  1.0420
 8559SOL     OW37138   4.517   2.139   9.580 -0.0247  0.1797 -0.0256
 8559SOL    HW137139   4.486   2.223   9.614 -3.1239 -1.3867  0.9377
 8559SOL    HW237140   4.464   2.073   9.624 -0.4093  0.7963  0.4377
 8560SOL     OW37141   1.098   2.265   7.465  0.4559 -0.4255  0.6833
 8560SOL    HW137142   1.130   2.296   7.550 -0.0538 -0.2875  0.8244
 8560SOL    HW237143   1.175   2.233   7.417  0.5050  0.5732  0.1019
 8561SOL     OW37144   4.102   2.494   3.821  0.1001 -0.3076 -0.2822
 8561SOL    HW137145   4.148   2.423   3.775 -2.2246 -1.2310 -1.1903
 8561SOL    HW237146   4.131   2.576   3.781  1.8639 -1.0742 -0.5769
 8562SOL     OW37147   0.869   2.228   5.080  0.1223 -0.7298 -0.7306
 8562SOL    HW137148   0.849   2.264   4.994 -0.4057  0.3354 -0.1583
 8562SOL    HW237149   0.903   2.301   5.132 -2.1560  0.8660 -1.5096
 8563SOL     OW37150   0.564   1.037  16.229  0.2565  0.2936 -0.3871
 8563SOL    HW137151   0.597   1.006  16.145  1.4834 -0.2391  0.2952
 8563SOL    HW237152   0.622   1.012  16.301  0.0313 -3.6748 -1.5747
 8564SOL     OW37153   2.248   1.351  17.243 -0.2922  0.0812  0.1282
 8564SOL    HW137154   2.265   1.275  17.187  0.1582  1.3286 -1.4560
 8564SOL    HW237155   2.272   1.321  17.330  1.0487 -1.0621 -0.6289
 8565SOL     OW37156   4.654   2.181   2.162  0.3318  0.0475 -0.0527
 8565SOL    HW137157   4.702   2.244   2.214 -0.9449  1.3484 -0.4582
 8565SOL    HW237158   4.630   2.248   2.098  0.2991 -1.6586 -1.8470
 8566SOL     OW37159   1.735   3.023   1.517  0.6489  0.3822  0.2404
 8566SOL    HW137160   1.723   2.988   1.428 -2.5785  0.2871  0.7321
 8566SOL    HW237161   1.829   3.040   1.517  0.7999 -0.4171 -0.8401
 8567SOL     OW37162   0.998   3.145   3.626  0.0237 -0.1631 -0.9108
 8567SOL    HW137163   1.049   3.217   3.662 -1.1675  0.4722 -0.5279
 8567SOL    HW237164   0.935   3.189   3.570 -0.6111  0.2515  0.1218
 8568SOL     OW37165   0.595   3.120   3.042 -0.0794 -0.0745 -0.3804
 8568SOL    HW137166   0.515   3.172   3.032 -1.0200 -1.5599 -0.5658
 8568SOL    HW237167   0.649   3.181   2.992 -1.5059  0.0672 -1.7756
 8569SOL     OW37168   4.519   0.516  13.554 -1.0921  0.0925  0.2352
 8569SOL    HW137169   4.587   0.531  13.619 -0.4498 -3.1843  0.3133
 8569SOL    HW237170   4.513   0.420  13.561 -1.2969 -0.0083 -1.4474
 8570SOL     OW37171   4.411   0.747   1.761 -0.2131 -0.1846  0.5482
 8570SOL    HW137172   4.416   0.667   1.709 -0.6464  0.2201 -0.1225
 8570SOL    HW237173   4.502   0.773   1.767 -0.4515  1.0596 -1.2716
 8571SOL     OW37174   0.554   3.194   3.773 -0.0858  0.5674  0.2646
 8571SOL    HW137175   0.496   3.203   3.697 -0.6148  0.4801  0.6612
 8571SOL    HW237176   0.504   3.153   3.843  1.6522 -0.3661  0.9742
 8572SOL     OW37177   3.044   1.876  10.939  0.5050 -0.1929  0.1589
 8572SOL    HW137178   2.984   1.949  10.954 -0.7247 -1.5816  1.9332
 8572SOL    HW237179   2.999   1.796  10.965  1.9512 -1.6549 -1.8105
 8573SOL     OW37180   0.105   1.045   1.430  0.4046 -0.0457  0.0934
 8573SOL    HW137181   0.155   1.017   1.353 -1.4238  1.7642 -1.7439
 8573SOL    HW237182   0.119   0.971   1.489 -1.7273  0.9786  1.8600
 8574SOL     OW37183   2.996   1.367   8.577 -0.1280  0.3955  0.3065
 8574SOL    HW137184   2.923   1.328   8.528  0.7852 -0.4788 -0.3545
 8574SOL    HW237185   2.992   1.308   8.653 -0.4514 -0.8631 -0.6746
 8575SOL     OW37186   3.761   0.963   8.651  0.3401  0.1391  0.6170
 8575SOL    HW137187   3.823   0.923   8.590  2.3711 -1.3740  3.6177
 8575SOL    HW237188   3.687   0.985   8.596  0.4463 -0.8488  0.0803
 8576SOL     OW37189   0.464   2.992  17.655  0.4177  0.2866  0.3159
 8576SOL    HW137190   0.537   2.937  17.624  0.7112  0.6139  0.4233
 8576SOL    HW237191   0.508   3.064   0.019  0.3218 -0.3503  1.4205
 8577SOL     OW37192   1.461   1.248   2.540 -0.3920  0.4382 -0.2042
 8577SOL    HW137193   1.367   1.261   2.525 -0.7540 -0.0949  1.6347
 8577SOL    HW237194   1.471   1.273   2.631  2.7014 -1.2031 -0.0943
 8578SOL     OW37195   3.145   3.905  11.704 -1.1736 -0.6868  0.1676
 8578SOL    HW137196   3.102   3.939  11.625  0.3485 -0.0122 -0.3704
 8578SOL    HW237197   3.104   3.963  11.768  0.3291 -0.0638  0.5723
 8579SOL     OW37198   2.082   2.531   0.254  0.0192  0.5530  0.2887
 8579SOL    HW137199   2.055   2.551   0.164 -1.0458 -1.4984  0.1453
 8579SOL    HW237200   2.006   2.480   0.282 -1.5380  2.5399 -0.3273
 8580SOL     OW37201   2.562   3.376  11.592 -0.4164 -0.1911 -0.5244
 8580SOL    HW137202   2.545   3.464  11.558 -2.9605 -0.6428 -0.4003
 8580SOL    HW237203   2.595   3.389  11.681  1.8930 -4.0308 -0.8201
 8581SOL     OW37204   4.686   0.348   9.727  0.1696 -0.3358 -0.1985
 8581SOL    HW137205   4.679   0.342   9.822 -0.1505  1.5743 -0.1030
 8581SOL    HW237206   0.041   0.406   9.712  0.7968 -0.9658  0.4982
 8582SOL     OW37207   3.608   4.276   7.795 -0.2208 -0.5537 -0.1111
 8582SOL    HW137208   3.702   4.294   7.797 -0.1629 -0.5975 -2.5446
 8582SOL    HW237209   3.567   4.356   7.828 -1.0324 -1.5042  1.1877
 8583SOL     OW37210   1.521   4.343  13.809 -0.0046 -0.7559  0.2164
 8583SOL    HW137211   1.468   4.420  13.829 -0.1832 -0.6734 -0.5622
 8583SOL    HW237212   1.571   4.330  13.890 -1.9876 -1.0621  1.4036
 8584SOL     OW37213   0.823   3.278   3.218  0.1930 -0.6123  0.3938
 8584SOL    HW137214   0.878   3.355   3.205  0.9977 -1.0605  1.1650
 8584SOL    HW237215   0.811   3.254   3.126 -0.1555 -0.5964  0.4337
 8585SOL     OW37216   2.948   0.494   3.221  0.1882 -0.5702  0.3140
 8585SOL    HW137217   2.973   0.444   3.144 -0.6479  0.5988 -0.7218
 8585SOL    HW237218   2.975   0.583   3.199 -1.7538  0.1174  0.6933
 8586SOL     OW37219   1.277   3.390  16.569 -0.2090  0.1446  0.1744
 8586SOL    HW137220   1.336   3.465  16.583 -2.3290  1.6322  1.1028
 8586SOL    HW237221   1.257   3.354  16.655 -1.0633 -1.4202 -0.6797
 8587SOL     OW37222   1.208   4.535   2.577  0.2030  0.4876 -0.1366
 8587SOL    HW137223   1.113   4.536   2.569  0.3898  2.1659 -2.0184
 8587SOL    HW237224   1.230   4.612   2.525 -3.1035  0.6415 -1.2620
 8588SOL     OW37225   3.558   2.493  12.604  0.1704 -0.0928 -0.2416
 8588SOL    HW137226   3.601   2.578  12.610  1.3045 -0.6297 -0.8168
 8588SOL    HW237227   3.502   2.507  12.680 -0.4420 -0.9170 -0.5328
 8589SOL     OW37228   4.420   3.503   7.325  0.5081  0.9086 -0.0486
 8589SOL    HW137229   4.333   3.502   7.286 -0.1868  1.0670  1.5358
 8589SOL    HW237230   4.441   3.596   7.314 -1.1488  1.2222 -0.5098
 8590SOL     OW37231   1.636   3.058   4.957 -0.2428 -0.2222 -0.3216
 8590SOL    HW137232   1.542   3.060   4.938 -0.2000 -0.9085 -0.6138
 8590SOL    HW237233   1.641   3.034   5.050 -0.7830  2.0018  0.2922
 8591SOL     OW37234   4.317   3.433   6.727  0.0498 -0.3295 -0.3360
 8591SOL    HW137235   4.379   3.364   6.751  2.1734  0.8516 -2.4594
 8591SOL    HW237236   4.248   3.376   6.694 -0.6042  0.2938 -0.0553
 8592SOL     OW37237   0.703   1.738  12.490  0.2450 -0.3813  0.7118
 8592SOL    HW137238   0.672   1.824  12.518  0.6495 -0.6034  1.8381
 8592SOL    HW237239   0.747   1.707  12.569  1.2909  0.1783  0.3485
 8593SOL     OW37240   3.891   2.786   8.825  0.0086  0.3873 -0.6757
 8593SOL    HW137241   3.881   2.865   8.878 -0.9452 -0.4693  0.3953
 8593SOL    HW237242   3.842   2.718   8.870  0.7741  0.2048 -0.1220
 8594SOL     OW37243   1.619   4.126   0.355  0.4241 -0.2513 -0.9991
 8594SOL    HW137244   1.579   4.099   0.273  0.4986 -1.9522 -0.4827
 8594SOL    HW237245   1.549   4.164   0.409 -0.5525  1.6923 -3.6102
 8595SOL     OW37246   0.948   2.077  11.647 -0.2739 -0.2179  0.5505
 8595SOL    HW137247   0.895   2.000  11.666  0.1664 -0.5543  0.4205
 8595SOL    HW237248   0.969   2.050  11.557  0.2317 -1.3612  1.0033
 8596SOL     OW37249   3.625   1.636   4.559  0.3712 -0.2993  0.2353
 8596SOL    HW137250   3.639   1.578   4.634  0.3546 -1.0275 -0.3243
 8596SOL    HW237251   3.560   1.703   4.580 -0.7041 -0.9010 -1.2047
 8597SOL     OW37252   2.583   3.632  15.546  0.2235  0.6282 -0.1843
 8597SOL    HW137253   2.542   3.674  15.471 -1.5393 -1.4541 -0.3890
 8597SOL    HW237254   2.513   3.616  15.609 -0.3786  2.6919 -0.3103
 8598SOL     OW37255   2.865   1.516   4.100  0.5114 -0.0875  0.2918
 8598SOL    HW137256   2.894   1.427   4.116  0.5586 -0.0354  0.5017
 8598SOL    HW237257   2.779   1.495   4.063 -1.0575  1.5067  3.0387
 8599SOL     OW37258   2.397   2.868  16.838  0.5722  0.6420  0.2440
 8599SOL    HW137259   2.490   2.891  16.832  0.9762 -1.2773 -0.7876
 8599SOL    HW237260   2.360   2.941  16.888 -0.0292  0.5836 -0.1150
 8600SOL     OW37261   2.898   4.311   9.720  0.3698  0.2450  0.7579
 8600SOL    HW137262   2.988   4.317   9.689  0.1806  1.1711  0.3820
 8600SOL    HW237263   2.862   4.284   9.636 -0.6105  2.1374  0.5622
 8601SOL     OW37264   0.734   1.423   7.914 -0.0144 -0.2922  0.0480
 8601SOL    HW137265   0.819   1.391   7.944  0.0085  0.7051  1.0619
 8601SOL    HW237266   0.687   1.430   7.996  0.9997  3.3746  0.3345
 8602SOL     OW37267   1.528   3.978  10.215  0.3779  0.2557 -0.4657
 8602SOL    HW137268   1.464   4.005  10.148  0.1247  0.1927 -0.2489
 8602SOL    HW237269   1.483   3.903  10.254  0.1435  2.3903  3.4367
 8603SOL     OW37270   4.516   0.464  16.469  0.2714  0.3841 -0.2753
 8603SOL    HW137271   4.533   0.545  16.516  2.7774 -0.5421  0.4023
 8603SOL    HW237272   4.504   0.492  16.378 -0.0044 -1.0113 -0.6785
 8604SOL     OW37273   0.664   0.660   2.570  0.2774  0.3495 -0.1892
 8604SOL    HW137274   0.677   0.663   2.665 -0.6317  1.3601 -0.1024
 8604SOL    HW237275   0.698   0.576   2.542 -0.9677 -0.3087  0.2886
 8605SOL     OW37276   4.514   3.122   2.808 -0.4717  0.1994  0.6987
 8605SOL    HW137277   4.428   3.153   2.781  0.6277 -0.5285 -3.5140
 8605SOL    HW237278   4.484   3.083   2.890  2.8924  0.1476  1.9255
 8606SOL     OW37279   0.652   2.178   9.697 -1.0845 -0.3302  0.2327
 8606SOL    HW137280   0.669   2.273   9.691 -1.6743 -0.2480 -0.0660
 8606SOL    HW237281   0.566   2.185   9.655 -1.0222  2.3753  0.5321
 8607SOL     OW37282   4.141   0.061   7.299  0.3196  0.5808  0.3313
 8607SOL    HW137283   4.147   0.151   7.331  1.2739  1.2583 -1.7438
 8607SOL    HW237284   4.207   0.025   7.358  1.8542  1.4621 -0.8472
 8608SOL     OW37285   0.962   2.523   3.637  0.1459  0.4120  0.7624
 8608SOL    HW137286   0.939   2.448   3.583  0.8602 -0.2475  1.3811
 8608SOL    HW237287   1.052   2.542   3.608 -0.8107  2.2330 -1.0561
 8609SOL     OW37288   0.138   1.012   4.668 -0.2513  0.3480  0.4836
 8609SOL    HW137289   0.180   1.098   4.662  0.0428  0.2326  1.0018
 8609SOL    HW237290   0.100   1.003   4.580 -1.3817 -2.6536  1.2762
 8610SOL     OW37291   3.683   3.403   6.031  0.2102 -0.1680 -0.0967
 8610SOL    HW137292   3.702   3.370   5.943 -0.9525  1.1545 -0.8553
 8610SOL    HW237293   3.688   3.326   6.088 -0.8793  1.3058  1.9992
 8611SOL     OW37294   1.229   0.632   6.267  0.2193  0.2343 -0.1604
 8611SOL    HW137295   1.185   0.558   6.307  1.3780  0.2915  1.2296
 8611SOL    HW237296   1.207   0.696   6.335 -2.7835  0.0650 -0.9543
 8612SOL     OW37297   1.430   2.180   1.314  0.0380  0.3274 -0.2628
 8612SOL    HW137298   1.510   2.181   1.367  1.2229 -0.7200 -2.0236
 8612SOL    HW237299   1.466   2.151   1.231  2.1031  1.2989  0.3044
 8613SOL     OW37300   1.080   3.521   7.763  0.3445  0.0425 -0.5501
 8613SOL    HW137301   1.027   3.599   7.749  0.5564  0.3263  0.2100
 8613SOL    HW237302   1.052   3.509   7.854  0.9830  0.9578 -0.2245
 8614SOL     OW37303   0.201   0.790   9.820 -0.5597  0.0184 -0.3646
 8614SOL    HW137304   0.208   0.848   9.896  3.9480 -0.6903 -0.2250
 8614SOL    HW237305   0.284   0.803   9.773  0.7988 -1.9981  1.4635
 8615SOL     OW37306   1.644   3.241  17.395 -0.6645  0.4252 -0.3604
 8615SOL    HW137307   1.733   3.230  17.428 -0.4754 -0.9378 -1.3161
 8615SOL    HW237308   1.639   3.336  17.405  2.2102  0.4909  0.4410
 8616SOL     OW37309   1.762   3.527   1.667  0.0040 -0.0742 -0.8152
 8616SOL    HW137310   1.771   3.499   1.576  0.7292 -0.4404 -0.6257
 8616SOL    HW237311   1.688   3.587   1.661 -0.0468 -0.0172  0.3480
 8617SOL     OW37312   1.116   1.183   5.449 -0.5178  0.5111 -0.0344
 8617SOL    HW137313   1.072   1.099   5.438  0.2040 -0.0543  1.3284
 8617SOL    HW237314   1.204   1.155   5.476 -1.3763 -0.6906  1.5212
 8618SOL     OW37315   3.882   0.713  13.375  0.6076  0.6371 -0.1312
 8618SOL    HW137316   3.811   0.727  13.313 -0.6404  2.4878  1.7144
 8618SOL    HW237317   3.952   0.672  13.325 -0.2954 -1.9712  0.7115
 8619SOL     OW37318   0.941   4.301  12.995  0.5640 -0.4697  0.1948
 8619SOL    HW137319   0.940   4.362  13.070 -1.1666 -0.5482  0.2461
 8619SOL    HW237320   0.887   4.230  13.029  0.3036  0.1505  1.0689
 8620SOL     OW37321   2.951   3.561  14.321 -0.2098 -0.1071  0.3148
 8620SOL    HW137322   3.042   3.546  14.345 -0.1318 -2.5582 -1.5012
 8620SOL    HW237323   2.922   3.597  14.405  1.3925 -2.1742  1.7349
 8621SOL     OW37324   4.076   2.498   8.299  0.0786 -0.2753  0.2356
 8621SOL    HW137325   4.016   2.442   8.347  0.6804 -1.5721 -0.5412
 8621SOL    HW237326   4.078   2.588   8.333  1.8591  0.2290 -1.1621
 8622SOL     OW37327   2.292   0.938   4.363 -0.1613  0.1788 -0.1216
 8622SOL    HW137328   2.341   0.893   4.433 -1.1939 -1.8194 -0.6897
 8622SOL    HW237329   2.247   1.003   4.416 -1.1738  0.3480 -1.1969
 8623SOL     OW37330   2.855   1.796   9.942 -0.9626 -0.1388  0.3286
 8623SOL    HW137331   2.941   1.754   9.934 -0.6305  0.6032  0.0115
 8623SOL    HW237332   2.817   1.744  10.012 -0.9249 -0.9023 -0.2117
 8624SOL     OW37333   1.504   4.307   7.201  0.6042  0.1644 -0.0867
 8624SOL    HW137334   1.415   4.275   7.189  1.0461 -1.0847 -0.0656
 8624SOL    HW237335   1.536   4.338   7.116  2.7839  2.8091  1.6852
 8625SOL     OW37336   4.281   2.789   8.358  0.3739  0.3672 -0.0479
 8625SOL    HW137337   4.186   2.791   8.344  0.4511  1.4384 -0.4211
 8625SOL    HW237338   4.314   2.736   8.286 -0.3593 -0.6622  0.3780
 8626SOL     OW37339   1.148   1.167   7.771 -0.0050 -0.1367 -0.2969
 8626SOL    HW137340   1.228   1.199   7.813  0.6577 -0.2033 -1.4958
 8626SOL    HW237341   1.097   1.145   7.849  2.9381 -1.6590  1.2131
 8627SOL     OW37342   4.715   4.631   7.692  0.8727  0.1500  0.1710
 8627SOL    HW137343   4.706   4.548   7.645 -0.1345 -0.4764  1.4698
 8627SOL    HW237344   0.041   4.683   7.626 -1.2266 -0.1236 -1.5087
 8628SOL     OW37345   1.364   1.088   5.463  0.2693  0.2497  0.3771
 8628SOL    HW137346   1.458   1.106   5.462  0.2454  0.3398 -0.3542
 8628SOL    HW237347   1.369   1.054   5.373  0.0640  1.3045 -0.0282
 8629SOL     OW37348   0.611   3.015   7.110 -1.1178  0.1038  0.2350
 8629SOL    HW137349   0.537   3.077   7.115 -0.4640  0.6434  2.7669
 8629SOL    HW237350   0.640   3.034   7.021 -0.9680  1.3384  0.5515
 8630SOL     OW37351   2.252   4.690   5.496 -0.0054  0.3661 -0.2375
 8630SOL    HW137352   2.205   0.054   5.498  0.2362  0.4912  0.1844
 8630SOL    HW237353   2.258   4.671   5.590  1.4940  0.2825 -0.3532
 8631SOL     OW37354   0.145   2.592   2.500 -0.2641 -0.0250  0.2673
 8631SOL    HW137355   0.074   2.631   2.449 -0.4464  2.7637  2.6559
 8631SOL    HW237356   0.097   2.573   2.580 -2.6887 -2.1096 -1.6777
 8632SOL     OW37357   0.456   2.322   3.011  0.3936 -0.3492 -0.3203
 8632SOL    HW137358   0.396   2.368   2.952 -0.5528  0.6521  1.4173
 8632SOL    HW237359   0.398   2.250   3.035 -1.5449  1.3576  0.0447
 8633SOL     OW37360   3.474   2.726   4.053 -0.2599  0.3259 -0.3882
 8633SOL    HW137361   3.422   2.761   4.126  0.1138  1.9578 -0.9085
 8633SOL    HW237362   3.451   2.633   4.063  0.2153  0.1515 -0.9516
 8634SOL     OW37363   4.010   1.911   4.361 -0.3510 -0.2986  0.4226
 8634SOL    HW137364   3.930   1.859   4.367  0.3398 -1.6786 -2.4094
 8634SOL    HW237365   4.066   1.851   4.411  0.2628  0.5879  0.7889
 8635SOL     OW37366   4.199   1.988  11.155  0.2424  0.0917 -0.0481
 8635SOL    HW137367   4.160   2.075  11.143  0.0016  0.0573  0.4604
 8635SOL    HW237368   4.179   1.973  11.248 -2.6328 -0.7811 -0.8406
 8636SOL     OW37369   2.516   0.796   6.975  0.1598  0.3340  0.4457
 8636SOL    HW137370   2.569   0.727   7.015  0.9293 -0.0978 -1.3190
 8636SOL    HW237371   2.461   0.750   6.911 -2.7571  2.1065  1.6728
 8637SOL     OW37372   2.378   1.887  13.651  0.1856 -1.1411  0.0555
 8637SOL    HW137373   2.291   1.850  13.636 -0.0173 -0.3373 -0.7349
 8637SOL    HW237374   2.359   1.978  13.628 -2.5496 -1.2426  1.8119
 8638SOL     OW37375   3.769   4.057   2.882 -0.0802 -0.1537  0.3561
 8638SOL    HW137376   3.794   4.037   2.792 -0.0793  0.2667  0.2608
 8638SOL    HW237377   3.793   3.975   2.926  0.1786 -1.4669 -2.2258
 8639SOL     OW37378   3.452   0.639   7.430  0.2421 -0.4847 -0.6006
 8639SOL    HW137379   3.412   0.661   7.514  2.5369 -0.2327  0.3952
 8639SOL    HW237380   3.421   0.714   7.379  0.9501 -0.0603 -0.3983
 8640SOL     OW37381   2.741   2.266  12.496 -0.0528 -0.1608  0.2398
 8640SOL    HW137382   2.796   2.192  12.469 -1.9827 -1.7889  0.8375
 8640SOL    HW237383   2.701   2.282  12.410  0.3293  2.3901  0.5285
 8641SOL     OW37384   4.171   1.302   1.991 -0.3049 -0.9690 -0.5200
 8641SOL    HW137385   4.202   1.255   2.068  0.2659 -1.7497 -1.2184
 8641SOL    HW237386   4.087   1.260   1.971 -0.2660 -1.4723  0.3966
 8642SOL     OW37387   3.857   1.367   7.427 -0.2328  0.4071  0.1928
 8642SOL    HW137388   3.765   1.379   7.404 -0.5655  2.0321  2.3918
 8642SOL    HW237389   3.871   1.281   7.388  0.9322  0.4779  0.4698
 8643SOL     OW37390   1.758   0.636   8.572 -0.4290  0.6208  0.3309
 8643SOL    HW137391   1.722   0.724   8.575  1.6640  1.4905  0.4622
 8643SOL    HW237392   1.727   0.610   8.658  2.5099  1.4877  1.6576
 8644SOL     OW37393   1.591   4.574   8.973  0.6260  0.1118  0.1845
 8644SOL    HW137394   1.502   4.558   9.005  0.3252  0.4359 -0.4816
 8644SOL    HW237395   1.616   4.490   8.934 -1.2576 -1.1290  1.6702
 8645SOL     OW37396   0.940   0.305   1.539 -0.0767  0.1537 -0.2474
 8645SOL    HW137397   0.916   0.398   1.536 -2.7668 -0.5392  0.5500
 8645SOL    HW237398   0.860   0.260   1.514 -0.8196  0.5860  1.3632
 8646SOL     OW37399   4.299   3.840  14.104 -0.4777 -0.0159  0.2008
 8646SOL    HW137400   4.262   3.837  14.016 -0.9928  1.4148  0.3691
 8646SOL    HW237401   4.354   3.762  14.109 -0.1899  0.2752  1.6565
 8647SOL     OW37402   2.772   4.020   0.706  0.4370  0.1408 -0.0679
 8647SOL    HW137403   2.731   3.934   0.694  1.7456 -0.8044  2.1995
 8647SOL    HW237404   2.857   4.011   0.664  1.2149  0.5718  1.4182
 8648SOL     OW37405   0.005   1.049   2.396 -0.1619  0.5473 -0.0394
 8648SOL    HW137406   0.076   1.105   2.426  1.5456 -0.8906 -1.3949
 8648SOL    HW237407   0.006   0.998   2.476  0.0073 -1.3750 -1.2572
 8649SOL     OW37408   0.457   3.619   6.123  0.4903 -0.1451  0.3084
 8649SOL    HW137409   0.468   3.705   6.081 -0.3932  0.7715  1.9448
 8649SOL    HW237410   0.406   3.642   6.200  0.4233 -1.1101  0.5445
 8650SOL     OW37411   4.648   4.342   4.843  0.3149  0.3836  0.0010
 8650SOL    HW137412   4.577   4.402   4.824 -0.1787 -0.1673  0.1140
 8650SOL    HW237413   4.598   4.275   4.890  0.5166  1.7989  2.2353
 8651SOL     OW37414   1.678   1.847   2.410  0.0574  0.1260 -0.0135
 8651SOL    HW137415   1.623   1.900   2.352  0.2963  1.0188  0.5805
 8651SOL    HW237416   1.725   1.922   2.447 -0.3760  1.4217 -2.0846
 8652SOL     OW37417   2.731   0.310   3.182 -0.0158 -0.0802  0.2004
 8652SOL    HW137418   2.700   0.298   3.272 -0.3616 -1.5460 -0.1037
 8652SOL    HW237419   2.723   0.405   3.185  1.5494  0.0639 -0.2955
 8653SOL     OW37420   3.191   4.587  12.348 -0.0602  0.5265 -0.3794
 8653SOL    HW137421   3.183   4.629  12.434 -0.8082 -0.5934  0.0863
 8653SOL    HW237422   3.233   4.504  12.372 -1.2890 -0.0871 -0.3796
 8654SOL     OW37423   0.815   2.361   6.548 -0.2472  0.0484 -0.6792
 8654SOL    HW137424   0.865   2.442   6.545  0.2659 -0.3001 -1.4204
 8654SOL    HW237425   0.724   2.390   6.558  0.4293  2.7953 -2.3794
 8655SOL     OW37426   2.755   1.554   5.245  0.2016 -0.0772 -1.1731
 8655SOL    HW137427   2.744   1.472   5.294 -1.8230 -0.6736 -2.6125
 8655SOL    HW237428   2.847   1.575   5.261  0.3080 -1.0900 -0.4320
 8656SOL     OW37429   1.736   4.164  13.488 -0.0693 -0.0183 -0.1821
 8656SOL    HW137430   1.794   4.183  13.562 -0.4201  0.9733 -0.1723
 8656SOL    HW237431   1.793   4.188  13.416 -0.5201 -0.9805 -0.8661
 8657SOL     OW37432   1.613   1.208  16.409  0.1450  0.1442  0.8495
 8657SOL    HW137433   1.651   1.144  16.469 -0.4364  0.2592  1.3354
 8657SOL    HW237434   1.603   1.287  16.461 -0.1422  0.6531  0.0217
 8658SOL     OW37435   4.111   1.320   5.974  0.7646  0.5202  0.3705
 8658SOL    HW137436   4.193   1.368   5.963  1.0080 -0.1428 -0.6641
 8658SOL    HW237437   4.148   1.237   6.003  1.6477  0.5012 -0.8152
 8659SOL     OW37438   3.622   0.022   3.046  0.1772  0.1275 -0.0195
 8659SOL    HW137439   3.552   4.698   2.996 -1.9772  2.5439  0.8796
 8659SOL    HW237440   3.594   0.112   3.028 -0.8387 -0.9810 -4.1710
 8660SOL     OW37441   1.504   3.802  12.447 -0.6772  0.3510  0.3273
 8660SOL    HW137442   1.467   3.792  12.534  1.9853  2.2483  1.6944
 8660SOL    HW237443   1.589   3.833  12.480  0.3006 -0.8130 -1.0890
 8661SOL     OW37444   3.401   4.440   2.504 -0.1596 -0.1189 -0.1549
 8661SOL    HW137445   3.480   4.440   2.557  0.9394  0.1701 -1.7985
 8661SOL    HW237446   3.352   4.377   2.558 -0.7526 -0.8953 -1.5850
 8662SOL     OW37447   1.458   3.627   5.181 -0.1804  1.2274 -0.2043
 8662SOL    HW137448   1.544   3.586   5.185 -0.7708 -0.2024 -1.9321
 8662SOL    HW237449   1.438   3.609   5.088  1.6101  0.1626 -0.3759
 8663SOL     OW37450   1.346   0.717   0.806 -0.1283  0.9915 -0.5567
 8663SOL    HW137451   1.352   0.806   0.843  0.6138  0.4990  0.5115
 8663SOL    HW237452   1.253   0.706   0.785  0.1544 -1.1957 -0.6471
 8664SOL     OW37453   1.311   3.491   8.195  0.3554  0.1447 -0.4391
 8664SOL    HW137454   1.237   3.523   8.144 -0.6763 -0.7101  0.5125
 8664SOL    HW237455   1.362   3.572   8.199  0.8375 -0.1594 -0.4049
 8665SOL     OW37456   3.787   4.113  12.086  0.8056  0.0139 -0.3009
 8665SOL    HW137457   3.711   4.128  12.029 -0.0317 -0.4834  0.6826
 8665SOL    HW237458   3.809   4.030  12.044 -0.0788 -1.6593  2.5301
 8666SOL     OW37459   2.321   1.188   4.968  0.0513  0.0582  0.6450
 8666SOL    HW137460   2.406   1.171   5.008  0.6716  0.9137 -0.3341
 8666SOL    HW237461   2.289   1.251   5.033  0.1419  2.3046 -1.4795
 8667SOL     OW37462   2.429   4.598   3.041 -0.5847  0.3658  0.4546
 8667SOL    HW137463   2.462   4.550   3.117  0.5075 -0.4555 -0.5307
 8667SOL    HW237464   2.470   4.683   3.053  0.7245 -0.3178  0.8145
 8668SOL     OW37465   3.869   0.452  11.846 -0.2974  0.0564 -0.4170
 8668SOL    HW137466   3.904   0.535  11.880  1.3224 -0.8705  0.1372
 8668SOL    HW237467   3.868   0.464  11.751 -0.1066 -0.4206 -0.4778
 8669SOL     OW37468   3.803   3.082   5.601  0.3179  0.0892 -0.4502
 8669SOL    HW137469   3.874   3.127   5.555  0.1101 -0.4561 -1.2960
 8669SOL    HW237470   3.745   3.059   5.529 -1.0210 -1.0239  0.9794
 8670SOL     OW37471   3.555   1.628   4.237 -0.0120 -0.3512 -0.4170
 8670SOL    HW137472   3.554   1.623   4.332 -1.2484  1.4100 -0.3437
 8670SOL    HW237473   3.572   1.538   4.207  1.5833  0.0954 -0.8718
 8671SOL     OW37474   2.351   3.371  14.571  0.5367 -0.0846 -0.0402
 8671SOL    HW137475   2.272   3.409  14.534  0.2416 -1.7807 -1.1820
 8671SOL    HW237476   2.422   3.426  14.537  1.2234 -0.4110  0.8493
 8672SOL     OW37477   4.665   3.015  11.242  0.0421 -0.2529  0.2539
 8672SOL    HW137478   4.691   2.943  11.300  0.3015 -0.6798 -0.3846
 8672SOL    HW237479   4.678   3.085  11.305 -0.2801 -1.2103  1.3929
 8673SOL     OW37480   1.396   1.286   9.967 -0.3249 -0.7197 -0.1596
 8673SOL    HW137481   1.371   1.350   9.901  0.0923 -0.9216 -0.5161
 8673SOL    HW237482   1.425   1.213   9.912  0.1283 -0.6543 -0.0068
 8674SOL     OW37483   1.651   0.564  12.422 -0.4394  0.0880 -0.3617
 8674SOL    HW137484   1.603   0.611  12.490 -1.6562 -1.5292 -0.0837
 8674SOL    HW237485   1.584   0.571  12.354 -0.8020  1.5201  0.1418
 8675SOL     OW37486   3.948   0.863  13.597 -0.2722  0.1610 -0.3824
 8675SOL    HW137487   3.951   0.837  13.505  2.0096 -0.8157 -0.0319
 8675SOL    HW237488   3.896   0.788  13.628 -0.4805 -0.1385 -1.4345
 8676SOL     OW37489   3.872   2.014   3.006 -0.4546  0.1430  0.3254
 8676SOL    HW137490   3.842   2.105   3.015  1.3269  0.5727  1.9646
 8676SOL    HW237491   3.931   2.031   2.933  1.1760  0.5273  1.7193
 8677SOL     OW37492   0.484   3.320   5.854  0.0910 -0.9002 -0.3371
 8677SOL    HW137493   0.552   3.261   5.885 -0.8782 -1.9480 -0.2222
 8677SOL    HW237494   0.427   3.334   5.930  0.8019  1.8035 -0.2961
 8678SOL     OW37495   0.930   2.852  12.419  0.3277 -0.1849 -0.3032
 8678SOL    HW137496   0.942   2.916  12.349 -0.1326  1.3989  1.0595
 8678SOL    HW237497   1.013   2.868  12.464 -1.6761 -1.6995  3.9656
 8679SOL     OW37498   1.757   0.781   8.972  0.1968 -0.0569  0.7034
 8679SOL    HW137499   1.734   0.691   8.948  0.0371  0.5631 -1.4654
 8679SOL    HW237500   1.685   0.801   9.031 -1.4778  1.6883 -1.9331
 8680SOL     OW37501   4.707   3.090   6.303 -0.9560  0.0402  0.4894
 8680SOL    HW137502   0.034   3.022   6.351  0.0331  0.3835  0.0081
 8680SOL    HW237503   4.624   3.043   6.293 -1.7714  1.7821 -1.0864
 8681SOL     OW37504   1.596   1.654  12.427 -0.0060 -0.0953  0.5540
 8681SOL    HW137505   1.602   1.748  12.410 -0.7035  0.0428  1.0834
 8681SOL    HW237506   1.573   1.611  12.344 -3.0617  2.1957  0.2028
 8682SOL     OW37507   0.719   3.421  11.837  0.2829  0.1104  0.1772
 8682SOL    HW137508   0.753   3.360  11.902  0.6830  0.2594  0.1021
 8682SOL    HW237509   0.663   3.358  11.792  1.4466 -2.0450  1.8071
 8683SOL     OW37510   2.001   2.349  12.506 -0.0945  0.7042 -0.1074
 8683SOL    HW137511   1.948   2.429  12.512 -0.3647  0.3336  2.4618
 8683SOL    HW237512   2.012   2.328  12.598  1.1656  0.4129 -0.3172
 8684SOL     OW37513   3.592   0.401   6.263 -0.2007 -0.0172  0.4174
 8684SOL    HW137514   3.639   0.473   6.307  0.8395 -0.6233  0.3069
 8684SOL    HW237515   3.662   0.337   6.272  0.4138  0.2546 -2.6263
 8685SOL     OW37516   4.214   1.767   7.823 -0.3501  0.0271  0.7267
 8685SOL    HW137517   4.171   1.825   7.886 -2.6428  0.9411 -1.6792
 8685SOL    HW237518   4.237   1.816   7.744 -0.1000 -0.6352  0.3835
 8686SOL     OW37519   4.069   4.269   2.242  0.0557  0.1215 -0.3108
 8686SOL    HW137520   4.125   4.347   2.251 -0.1087  0.1259  0.6779
 8686SOL    HW237521   4.038   4.287   2.154 -0.5112  1.1506  0.0961
 8687SOL     OW37522   1.464   1.800   5.246 -0.3950  0.2316 -0.2404
 8687SOL    HW137523   1.417   1.831   5.323 -0.3708  1.7493 -0.8509
 8687SOL    HW237524   1.545   1.775   5.291 -1.2331 -1.4650  0.3570
 8688SOL     OW37525   2.390   2.825   8.021  0.4445  0.4391 -0.1509
 8688SOL    HW137526   2.421   2.801   8.109  2.3450  0.2250 -0.8707
 8688SOL    HW237527   2.440   2.771   7.960 -4.2214 -0.1213 -3.4928
 8689SOL     OW37528   1.278   1.545   2.983  0.2294  0.3455  0.3475
 8689SOL    HW137529   1.323   1.478   2.932  0.4387 -0.8399  2.0991
 8689SOL    HW237530   1.196   1.555   2.934 -0.4157 -2.2507  0.9272
 8690SOL     OW37531   1.139   2.876   6.888 -0.2731  0.3301 -0.5294
 8690SOL    HW137532   1.124   2.902   6.978  0.4447 -0.3886 -0.1991
 8690SOL    HW237533   1.059   2.898   6.840 -0.4640  0.5597 -0.1002
 8691SOL     OW37534   1.659   4.077   6.831  0.4711 -0.3931 -0.1576
 8691SOL    HW137535   1.699   4.037   6.754  0.9124  2.0053 -1.1733
 8691SOL    HW237536   1.572   4.099   6.798 -0.5214 -2.7656  0.8395
 8692SOL     OW37537   4.282   4.390   6.967 -0.2432  0.3008 -0.2088
 8692SOL    HW137538   4.330   4.473   6.975  0.7448 -0.0829 -1.9751
 8692SOL    HW237539   4.195   4.431   6.959  0.1395  0.9113 -1.3054
 8693SOL     OW37540   3.572   0.789   0.311  0.0768  0.0527  0.4461
 8693SOL    HW137541   3.563   0.788   0.406 -2.6688 -2.3650  0.1702
 8693SOL    HW237542   3.520   0.711   0.292  0.3335 -0.0617  0.2098
 8694SOL     OW37543   4.697   1.913   2.163  0.0826  0.4901 -0.6046
 8694SOL    HW137544   4.607   1.895   2.135  0.0451 -0.8073  0.3108
 8694SOL    HW237545   4.689   2.008   2.167 -1.2165  0.4212 -1.5702
 8695SOL     OW37546   2.422   2.234   5.736  0.7842 -0.7282 -0.1566
 8695SOL    HW137547   2.431   2.269   5.648 -1.9100  1.2692  0.3749
 8695SOL    HW237548   2.369   2.305   5.772 -1.2760 -2.1497 -0.3869
 8696SOL     OW37549   2.224   3.295  15.132  0.0271  0.0210  0.1177
 8696SOL    HW137550   2.255   3.344  15.207 -2.2310 -0.1891  1.1843
 8696SOL    HW237551   2.290   3.321  15.068 -0.8243  0.8091 -0.4304
 8697SOL     OW37552   1.362   0.236  10.610 -0.1899  0.0688 -0.1250
 8697SOL    HW137553   1.329   0.261  10.696  0.7509  1.9984 -0.3403
 8697SOL    HW237554   1.316   0.289  10.545 -0.3712  1.7498  1.4030
 8698SOL     OW37555   2.846   0.887   4.215  0.1294  0.2808  0.1178
 8698SOL    HW137556   2.935   0.914   4.237 -0.7091  0.9520  2.6708
 8698SOL    HW237557   2.852   0.877   4.120 -5.0287  0.4606 -0.2223
 8699SOL     OW37558   4.290   3.562  13.917  0.0075  0.0690  0.0566
 8699SOL    HW137559   4.355   3.542  13.984 -0.2382 -2.3353 -0.4298
 8699SOL    HW237560   4.346   3.573  13.840  0.0727  1.2183  0.2613
 8700SOL     OW37561   1.684   3.167   2.061  0.4848 -0.7925  0.0652
 8700SOL    HW137562   1.711   3.236   2.002 -0.3659 -0.3967  0.1425
 8700SOL    HW237563   1.650   3.097   2.005 -0.2655 -0.0467 -0.4064
 8701SOL     OW37564   0.170   4.368  14.151  0.7473  0.2232  0.6310
 8701SOL    HW137565   0.229   4.294  14.168  1.3518  0.7254  0.7331
 8701SOL    HW237566   0.223   4.447  14.161  1.9009 -0.1492 -2.5752
 8702SOL     OW37567   3.496   1.284  16.123  0.3857 -0.3702  0.1230
 8702SOL    HW137568   3.570   1.223  16.122 -0.9662 -2.0298  0.9193
 8702SOL    HW237569   3.534   1.367  16.150  1.1213 -0.2099 -1.3997
 8703SOL     OW37570   1.764   3.870  12.497  0.4899 -0.1209  0.0800
 8703SOL    HW137571   1.815   3.805  12.448 -1.0203 -0.5633 -0.8967
 8703SOL    HW237572   1.808   3.851  12.580  1.6386 -0.0186 -0.4905
 8704SOL     OW37573   0.655   2.686   8.305 -0.0772  0.1490  0.5207
 8704SOL    HW137574   0.611   2.700   8.389  1.1810  1.7325  0.9066
 8704SOL    HW237575   0.688   2.774   8.286  0.7798 -0.4780 -0.8043
 8705SOL     OW37576   2.858   0.660   6.273 -0.4814 -0.1631 -0.5839
 8705SOL    HW137577   2.941   0.628   6.308 -0.0709 -0.1167 -1.5169
 8705SOL    HW237578   2.843   0.603   6.197 -0.4963 -0.3995 -0.4028
 8706SOL     OW37579   3.661   1.945   7.380  0.5974  0.6652 -0.1367
 8706SOL    HW137580   3.576   1.913   7.350  0.6672  1.9140 -1.7038
 8706SOL    HW237581   3.697   1.994   7.306  0.7308 -0.7960 -1.0462
 8707SOL     OW37582   3.246   3.561   4.401  0.1639 -0.0388  0.0578
 8707SOL    HW137583   3.289   3.482   4.368 -2.5799 -1.3504 -0.3102
 8707SOL    HW237584   3.157   3.539   4.429 -0.3764  1.3879 -0.5121
 8708SOL     OW37585   2.257   4.111   6.769  0.0088 -0.4462 -0.0828
 8708SOL    HW137586   2.238   4.182   6.831 -0.9030 -0.1613 -0.6879
 8708SOL    HW237587   2.303   4.158   6.699  1.8398 -1.1516  0.6603
 8709SOL     OW37588   1.284   4.160   5.178 -0.1369  0.3698  0.5954
 8709SOL    HW137589   1.320   4.077   5.146  4.1582  1.3436  2.7945
 8709SOL    HW237590   1.197   4.166   5.140 -0.7265  1.0828  2.0872
 8710SOL     OW37591   2.897   3.331  11.857  0.2074 -0.2583  0.3893
 8710SOL    HW137592   2.940   3.416  11.865  0.4099 -0.2040 -1.3026
 8710SOL    HW237593   2.973   3.276  11.837  1.0423  1.3339 -0.8373
 8711SOL     OW37594   0.586   4.255   2.311  0.0879 -0.2806  0.1576
 8711SOL    HW137595   0.536   4.336   2.326 -0.5453 -0.2290 -2.2077
 8711SOL    HW237596   0.674   4.289   2.321 -0.9315  1.9439  1.6815
 8712SOL     OW37597   1.585   2.448  10.195  0.2035 -0.4092 -0.2109
 8712SOL    HW137598   1.523   2.499  10.144 -1.4251 -1.2596  0.9068
 8712SOL    HW237599   1.517   2.417  10.255  1.7893 -0.8700  1.3642
 8713SOL     OW37600   4.544   3.270   3.556  0.3248 -0.6543  0.0134
 8713SOL    HW137601   4.620   3.215   3.536  0.1654 -0.0319 -2.2814
 8713SOL    HW237602   4.573   3.315   3.636 -1.1819  1.1438 -0.4404
 8714SOL     OW37603   1.911   2.863   1.827 -0.9488  0.4303 -0.1127
 8714SOL    HW137604   1.926   2.887   1.736 -1.2947 -0.5824 -0.4446
 8714SOL    HW237605   1.942   2.773   1.830 -0.9607  0.4641  1.0558
 8715SOL     OW37606   3.260   3.001   9.345 -0.5301 -0.0859 -0.3729
 8715SOL    HW137607   3.211   2.924   9.375 -1.4503 -0.2016 -2.1852
 8715SOL    HW237608   3.321   3.025   9.415 -0.6125  0.0283 -0.3390
 8716SOL     OW37609   3.948   0.471   7.975 -0.0944 -0.1398  0.3325
 8716SOL    HW137610   3.885   0.483   8.046 -2.5542 -2.1300 -1.4884
 8716SOL    HW237611   4.025   0.446   8.025 -0.1392  3.4734  2.1597
 8717SOL     OW37612   1.296   1.988   1.715 -0.5425  0.2143 -0.1757
 8717SOL    HW137613   1.254   2.002   1.800  2.5359 -1.5222  1.6293
 8717SOL    HW237614   1.324   1.897   1.726 -0.0250  0.4698  0.6092
 8718SOL     OW37615   0.230   2.010   9.243  0.6796  0.5727  0.0604
 8718SOL    HW137616   0.140   1.986   9.265 -0.0027  1.8448 -1.3369
 8718SOL    HW237617   0.272   1.978   9.323  0.9973 -0.1097 -0.3763
 8719SOL     OW37618   1.278   2.543  11.925  0.0694 -0.5736  0.1672
 8719SOL    HW137619   1.367   2.525  11.954  0.0102  1.2310  1.4985
 8719SOL    HW237620   1.256   2.485  11.852  2.8388 -0.3462 -0.8412
 8720SOL     OW37621   4.170   4.141   3.806 -0.5216  0.0223  0.0495
 8720SOL    HW137622   4.181   4.115   3.714 -0.4783  2.5741 -0.6608
 8720SOL    HW237623   4.252   4.182   3.833 -1.3853  1.1635  0.9632
 8721SOL     OW37624   0.388   1.983   9.491  0.6426 -0.2419  0.0249
 8721SOL    HW137625   0.468   2.034   9.481  0.4466 -0.0145 -0.3907
 8721SOL    HW237626   0.358   2.014   9.576 -0.3064 -0.4916 -0.2192
 8722SOL     OW37627   4.603   0.194  11.662  0.1045 -0.2519 -0.4585
 8722SOL    HW137628   4.512   0.197  11.692 -0.0503 -4.5718 -0.3735
 8722SOL    HW237629   4.587   0.128  11.595 -2.9103  1.7947 -1.7369
 8723SOL     OW37630   1.645   0.790  11.509  0.0139  0.1147 -0.2562
 8723SOL    HW137631   1.733   0.804  11.545  0.4163 -3.7892  0.3370
 8723SOL    HW237632   1.671   0.714  11.457  1.5712  0.3154  0.2306
 8724SOL     OW37633   0.767   3.216   2.390  0.1283  0.1854  0.0038
 8724SOL    HW137634   0.804   3.144   2.440 -0.7221  1.1845  2.0589
 8724SOL    HW237635   0.803   3.290   2.439  2.8677  0.3574 -2.3159
 8725SOL     OW37636   3.249   2.553   5.344  0.1543  0.1563  0.3517
 8725SOL    HW137637   3.203   2.506   5.414 -1.4002  2.9374  1.2089
 8725SOL    HW237638   3.327   2.500   5.330 -0.3900 -1.3394  3.1575
 8726SOL     OW37639   2.967   3.380   5.457 -0.0451 -0.5825  0.3714
 8726SOL    HW137640   2.995   3.305   5.405 -0.3373 -0.2827 -0.2188
 8726SOL    HW237641   2.874   3.380   5.432 -0.4005  0.3905  1.6974
 8727SOL     OW37642   1.705   2.205  13.408 -0.0678 -0.0221 -0.0497
 8727SOL    HW137643   1.760   2.135  13.372  0.5948 -0.0895  1.1038
 8727SOL    HW237644   1.616   2.170  13.398 -0.1127 -0.1089  0.6341
 8728SOL     OW37645   3.449   4.557   8.644 -0.1346 -0.1672  0.5435
 8728SOL    HW137646   3.432   4.612   8.568 -1.8475  1.9119  2.4314
 8728SOL    HW237647   3.367   4.508   8.634  1.7515 -3.0832 -0.7569
 8729SOL     OW37648   1.891   1.374   4.174 -0.0125  0.7394 -0.1898
 8729SOL    HW137649   1.983   1.368   4.149 -0.1952  1.3053 -0.9993
 8729SOL    HW237650   1.909   1.399   4.265  0.7433 -1.7486  0.3432
 8730SOL     OW37651   2.206   2.138   6.952  0.0791  0.0023  0.1284
 8730SOL    HW137652   2.127   2.183   6.921  0.1328  0.8393  1.1727
 8730SOL    HW237653   2.171   2.056   6.985 -2.7390  0.6432 -1.3163
 8731SOL     OW37654   2.817   2.151   3.890 -0.7124 -0.0449  0.4236
 8731SOL    HW137655   2.762   2.104   3.827 -2.2922  1.8184  0.4036
 8731SOL    HW237656   2.760   2.155   3.967 -1.8508 -0.2722 -0.4064
 8732SOL     OW37657   4.347   1.285   6.235 -0.3960  0.1073 -0.0532
 8732SOL    HW137658   4.371   1.202   6.194 -1.7086 -0.7643  0.9280
 8732SOL    HW237659   4.315   1.250   6.318  1.1320  2.3496  1.4771
 8733SOL     OW37660   1.810   0.654   1.418 -0.0992  0.3571  0.1970
 8733SOL    HW137661   1.817   0.580   1.479 -0.1969  0.2823  0.1176
 8733SOL    HW237662   1.727   0.688   1.451  0.5582  2.3896 -0.2982
 8734SOL     OW37663   4.659   2.577   3.695 -0.0744  0.1291  1.2690
 8734SOL    HW137664   0.025   2.615   3.715  1.2480 -1.9694 -0.4856
 8734SOL    HW237665   4.642   2.625   3.613 -2.0901 -0.1128  1.5340
 8735SOL     OW37666   1.426   4.418   9.559  0.4097 -0.1200  0.5626
 8735SOL    HW137667   1.442   4.444   9.468 -0.3286  0.3339  0.5588
 8735SOL    HW237668   1.334   4.394   9.551 -0.1734  2.3848 -0.2153
 8736SOL     OW37669   0.917   1.233  17.397 -0.0424 -0.3197 -0.0587
 8736SOL    HW137670   0.964   1.295  17.452 -1.0521 -0.5804  1.1056
 8736SOL    HW237671   0.949   1.154  17.441 -0.3832 -0.8439 -0.7475
 8737SOL     OW37672   0.429   1.524  10.106 -0.3723 -0.3005  0.4300
 8737SOL    HW137673   0.461   1.553  10.020 -1.3672 -1.1079 -0.2063
 8737SOL    HW237674   0.351   1.579  10.102  1.7367  2.4687 -2.2370
 8738SOL     OW37675   3.428   3.298  11.438 -0.2724 -0.6617 -0.4737
 8738SOL    HW137676   3.475   3.275  11.358 -1.3408  1.6199 -1.7824
 8738SOL    HW237677   3.443   3.221  11.493 -0.4717  0.3306  0.9938
 8739SOL     OW37678   0.974   2.735   0.952  0.0169 -0.0489  0.2022
 8739SOL    HW137679   1.060   2.748   0.993 -0.2561 -1.4569  1.2538
 8739SOL    HW237680   0.944   2.825   0.958 -0.5151 -0.1979 -0.2753
 8740SOL     OW37681   0.551   0.691  11.409  0.1296 -0.1491  0.2904
 8740SOL    HW137682   0.467   0.672  11.450  0.7451 -1.1824  1.0643
 8740SOL    HW237683   0.531   0.777  11.370  1.3739  1.1108  2.4475
 8741SOL     OW37684   1.628   1.144   5.411 -0.0026  0.2293 -0.1865
 8741SOL    HW137685   1.697   1.109   5.468 -0.8593 -1.2070 -0.0059
 8741SOL    HW237686   1.642   1.084   5.338 -1.1404 -1.0355  0.6149
 8742SOL     OW37687   1.431   3.604   4.104  0.2502  0.0464 -0.2917
 8742SOL    HW137688   1.493   3.571   4.039  1.1691  1.3133 -0.0635
 8742SOL    HW237689   1.357   3.634   4.052 -0.6729  0.5841  1.3264
 8743SOL     OW37690   2.210   0.190   4.845 -0.5957  0.2108 -0.0530
 8743SOL    HW137691   2.245   0.103   4.864  0.2890  0.4108 -0.7185
 8743SOL    HW237692   2.155   0.202   4.922  1.1092  2.0668  0.8789
 8744SOL     OW37693   0.525   3.912  10.972  0.2674  0.2311 -0.5183
 8744SOL    HW137694   0.570   3.887  10.891  3.5797  2.2202  0.6782
 8744SOL    HW237695   0.450   3.956  10.933 -0.3506 -0.2847  0.0837
 8745SOL     OW37696   3.421   1.513   6.346 -0.0328  0.3602  0.3447
 8745SOL    HW137697   3.490   1.464   6.300 -2.1415 -0.3624 -2.0159
 8745SOL    HW237698   3.453   1.603   6.339 -1.2427  0.8572  1.2873
 8746SOL     OW37699   2.908   2.314  12.953  0.5326 -0.1157  0.0436
 8746SOL    HW137700   2.881   2.234  12.908 -2.2933  0.7759  0.1260
 8746SOL    HW237701   2.950   2.367  12.885 -2.7859  1.5331 -0.7306
 8747SOL     OW37702   3.080   4.616   5.676  0.3821 -0.0555  0.3975
 8747SOL    HW137703   3.108   4.701   5.710  0.2681 -0.0665  0.5178
 8747SOL    HW237704   3.150   4.604   5.612 -1.4921 -1.8372 -1.3283
 8748SOL     OW37705   4.198   0.213   2.931  0.5083 -0.2001 -0.1832
 8748SOL    HW137706   4.185   0.227   2.837 -2.5673  0.4339  0.3530
 8748SOL    HW237707   4.166   0.296   2.966  1.2222 -0.1809  0.4198
 8749SOL     OW37708   2.169   4.141   2.554  0.1954  0.2474  0.4388
 8749SOL    HW137709   2.130   4.195   2.623 -0.3635 -0.0295  0.3454
 8749SOL    HW237710   2.262   4.161   2.550 -0.0891  1.9191  2.5314
 8750SOL     OW37711   0.360   4.081   5.029  0.8201 -0.0685  0.4042
 8750SOL    HW137712   0.339   4.014   5.093  0.1057  0.4203  0.6853
 8750SOL    HW237713   0.364   4.164   5.078 -0.1997  0.9139 -1.1909
 8751SOL     OW37714   0.644   2.257   3.712 -0.4361  0.1338  1.1081
 8751SOL    HW137715   0.567   2.207   3.739 -0.3760 -1.0718 -0.9242
 8751SOL    HW237716   0.623   2.273   3.620 -0.5590  0.2819  1.1619
 8752SOL     OW37717   0.370   3.239   6.270 -0.2856 -0.2141 -0.5222
 8752SOL    HW137718   0.340   3.297   6.201  0.2579 -0.1673 -0.7249
 8752SOL    HW237719   0.324   3.159   6.244  3.1993 -2.7683  1.1102
 8753SOL     OW37720   1.793   1.320   5.642  0.1478 -0.2418 -0.1365
 8753SOL    HW137721   1.759   1.398   5.598  2.2675  1.3319  1.0201
 8753SOL    HW237722   1.758   1.327   5.731  1.1091  2.2907  0.0460
 8754SOL     OW37723   0.400   3.410   8.607  0.6379 -0.2071  0.0318
 8754SOL    HW137724   0.369   3.378   8.523 -1.0720 -2.4592  1.5143
 8754SOL    HW237725   0.370   3.343   8.668  1.5728 -0.2673  0.4223
 8755SOL     OW37726   1.025   4.551   5.145  0.2877 -0.0136  0.1758
 8755SOL    HW137727   1.054   4.505   5.224 -0.6890 -2.4769 -0.9111
 8755SOL    HW237728   1.056   4.640   5.163  2.2332 -0.4773 -0.9413
 8756SOL     OW37729   3.858   1.053   3.794  0.2098 -0.3233 -0.2186
 8756SOL    HW137730   3.938   1.002   3.780  2.0665  1.5580  3.6194
 8756SOL    HW237731   3.872   1.129   3.737 -0.3579 -0.1766 -0.1615
 8757SOL     OW37732   3.420   1.227   6.076 -0.3263 -0.0418 -0.0731
 8757SOL    HW137733   3.381   1.140   6.074  1.7369 -0.9435 -0.1211
 8757SOL    HW237734   3.482   1.221   6.004 -0.3206  1.6079 -0.2180
 8758SOL     OW37735   1.276   2.134   4.490 -0.2238  0.0805  0.6782
 8758SOL    HW137736   1.303   2.184   4.566  0.0785  1.2407 -0.1935
 8758SOL    HW237737   1.303   2.197   4.423 -0.0677  1.0487  1.6729
 8759SOL     OW37738   0.961   3.293   7.350  0.0238 -0.1972 -0.5910
 8759SOL    HW137739   1.045   3.273   7.309  0.3249  2.0171 -1.0701
 8759SOL    HW237740   0.978   3.261   7.439  0.1126 -0.2762 -0.6368
 8760SOL     OW37741   3.074   2.353   0.593 -0.4279 -0.4615  0.4084
 8760SOL    HW137742   3.111   2.375   0.508  3.8568 -0.1400  2.3340
 8760SOL    HW237743   3.025   2.275   0.567  0.6555 -0.9522 -0.1473
 8761SOL     OW37744   4.117   0.799   3.946 -0.5502 -0.6769 -0.4570
 8761SOL    HW137745   4.189   0.743   3.975 -1.7963 -2.1995 -0.2991
 8761SOL    HW237746   4.120   0.781   3.852 -0.2049  1.0846 -0.7914
 8762SOL     OW37747   0.153   3.785   5.607  0.4949  0.4228  0.7229
 8762SOL    HW137748   0.101   3.861   5.634  0.5087 -0.4433  3.2483
 8762SOL    HW237749   0.087   3.734   5.560 -0.0924  2.5151 -0.6811
 8763SOL     OW37750   3.688   2.087   3.975 -0.0875 -0.9202 -0.4868
 8763SOL    HW137751   3.679   2.065   3.883  1.7815 -0.9355 -0.6451
 8763SOL    HW237752   3.673   2.001   4.015 -1.0138  1.0168  3.4256
 8764SOL     OW37753   4.409   1.139   1.923 -0.5395  0.2316  0.5127
 8764SOL    HW137754   4.352   1.216   1.932  1.1283  1.6108 -0.8293
 8764SOL    HW237755   4.431   1.123   2.015 -0.9688  1.3381  0.8109
 8765SOL     OW37756   0.302   3.235   2.507  0.3256 -0.3863 -0.5963
 8765SOL    HW137757   0.392   3.241   2.538  0.0211  1.3225 -0.0594
 8765SOL    HW237758   0.284   3.141   2.504 -0.7381 -0.2031 -0.1328
 8766SOL     OW37759   3.885   0.186   4.128  0.3522 -0.4570 -0.0832
 8766SOL    HW137760   3.826   0.227   4.191 -0.8617 -2.1813 -0.1016
 8766SOL    HW237761   3.827   0.167   4.055  2.9627  1.2665 -2.5869
 8767SOL     OW37762   0.565   4.334  11.369  0.2280  0.1707  0.6712
 8767SOL    HW137763   0.601   4.422  11.360 -2.2034  1.0007 -0.9422
 8767SOL    HW237764   0.649   4.301  11.401  0.6672 -0.2978 -0.9813
 8768SOL     OW37765   0.377   2.609  16.703  1.2354  0.1309  0.3627
 8768SOL    HW137766   0.304   2.558  16.668  1.6545  0.7588 -1.4069
 8768SOL    HW237767   0.398   2.646  16.618  0.0699 -0.0015  0.0154
 8769SOL     OW37768   1.106   0.455   6.393  0.8340  0.5303  0.0733
 8769SOL    HW137769   1.171   0.405   6.442 -0.6946 -0.3812  1.1917
 8769SOL    HW237770   1.040   0.389   6.372  1.5397 -0.3174  0.5162
 8770SOL     OW37771   2.894   2.525   0.855  0.0206 -0.1707  0.1435
 8770SOL    HW137772   2.841   2.520   0.775 -0.0883 -0.8269  0.2538
 8770SOL    HW237773   2.934   2.611   0.851 -0.5785  0.0312 -1.6605
 8771SOL     OW37774   1.664   0.474   6.762 -0.0666  0.6314  0.4775
 8771SOL    HW137775   1.671   0.562   6.726  1.9169  0.7043  1.0142
 8771SOL    HW237776   1.692   0.471   6.854  0.5097 -3.3415  0.1801
 8772SOL     OW37777   3.445   4.642   6.382 -0.4073 -0.3405  0.1613
 8772SOL    HW137778   3.467   4.616   6.471 -0.4774  0.7119  0.4831
 8772SOL    HW237779   3.352   4.656   6.399 -0.7616 -1.8441 -0.5148
 8773SOL     OW37780   2.847   3.372  10.156  0.0618 -0.3856 -0.4219
 8773SOL    HW137781   2.779   3.400  10.095 -0.7003 -1.6961 -0.1786
 8773SOL    HW237782   2.805   3.291  10.185  0.8106 -0.8510 -0.6390
 8774SOL     OW37783   0.814   0.548   6.218  0.6280  0.5802 -0.5935
 8774SOL    HW137784   0.824   0.576   6.309  0.9613 -2.3528  0.2692
 8774SOL    HW237785   0.789   0.457   6.228 -0.5452  1.1084  1.3229
 8775SOL     OW37786   2.762   3.132  14.272  0.9491  0.2345  0.3266
 8775SOL    HW137787   2.803   3.047  14.258  1.2861  0.4420  0.0699
 8775SOL    HW237788   2.672   3.118  14.301  0.5998  1.7642  0.0007
 8776SOL     OW37789   2.332   0.629  13.051 -0.8785  0.2162  0.0922
 8776SOL    HW137790   2.282   0.704  13.018 -0.0242 -0.1183 -1.9932
 8776SOL    HW237791   2.423   0.656  13.041  0.1875 -4.1029 -1.7098
 8777SOL     OW37792   3.344   0.885   4.027  0.5500 -0.0901  0.6944
 8777SOL    HW137793   3.275   0.915   3.969  0.2986 -1.0880  0.4798
 8777SOL    HW237794   3.419   0.876   3.967 -0.6349 -1.8988 -0.5145
 8778SOL     OW37795   3.326   1.849   5.376 -0.4770 -0.4978  0.6110
 8778SOL    HW137796   3.420   1.857   5.359 -0.5528 -0.5092  0.1848
 8778SOL    HW237797   3.330   1.754   5.371 -0.8477 -0.4317 -0.9774
 8779SOL     OW37798   0.495   0.905   1.829 -0.3439 -0.4395 -0.1145
 8779SOL    HW137799   0.555   0.853   1.776 -0.3282  2.3981 -2.9118
 8779SOL    HW237800   0.475   0.835   1.891 -0.5111 -0.4349 -0.1633
 8780SOL     OW37801   3.953   1.998  14.839  0.3215 -0.0253 -0.3707
 8780SOL    HW137802   4.042   1.963  14.847 -0.4052 -2.1697 -1.3892
 8780SOL    HW237803   3.960   2.063  14.909 -2.0922 -0.8848  0.6824
 8781SOL     OW37804   3.126   0.039   9.217 -0.2200 -0.4289  0.2622
 8781SOL    HW137805   3.186   0.113   9.208  0.2455 -0.5767  2.3176
 8781SOL    HW237806   3.064   0.063   9.149 -1.4904 -1.9064  0.9055
 8782SOL     OW37807   2.194   2.621  11.889  0.8019  0.1683  0.1394
 8782SOL    HW137808   2.280   2.654  11.864  0.5080  0.9482  0.1376
 8782SOL    HW237809   2.146   2.704  11.896  1.5874  0.5255  1.2610
 8783SOL     OW37810   0.706   0.465   7.744  0.2885  0.0051  0.3593
 8783SOL    HW137811   0.651   0.386   7.744  0.5736 -0.1952  0.3372
 8783SOL    HW237812   0.754   0.464   7.661 -2.4144 -0.3964 -1.1934
 8784SOL     OW37813   0.030   0.783   3.938  0.0106  0.4769  0.0040
 8784SOL    HW137814   4.712   0.827   4.014  2.8392  1.7274  0.6814
 8784SOL    HW237815   4.710   0.697   3.935  0.6730  0.2371 -1.9461
 8785SOL     OW37816   1.488   3.222  10.620  0.9336 -0.3000  0.0361
 8785SOL    HW137817   1.543   3.153  10.582 -0.2731 -0.5800 -1.1925
 8785SOL    HW237818   1.506   3.299  10.566  1.9971 -0.0191  0.7897
 8786SOL     OW37819   4.082   2.224   3.137  0.0497  0.2373  0.5855
 8786SOL    HW137820   4.122   2.252   3.055  0.2223  0.2217  0.6647
 8786SOL    HW237821   4.004   2.279   3.137  1.0610  1.6832  0.3408
 8787SOL     OW37822   1.862   2.556  13.945  0.0467  0.4806 -0.2424
 8787SOL    HW137823   1.911   2.637  13.955 -0.9245  1.5772 -4.3163
 8787SOL    HW237824   1.886   2.506  14.023 -0.8975 -2.5649 -1.8829
 8788SOL     OW37825   1.840   0.430   1.611 -0.0712 -0.0289 -0.1266
 8788SOL    HW137826   1.780   0.414   1.683 -2.4294  1.1690 -1.8275
 8788SOL    HW237827   1.906   0.362   1.623  0.8170  0.4112 -2.4025
 8789SOL     OW37828   3.408   3.546   5.400 -0.0966 -0.5358  0.2426
 8789SOL    HW137829   3.468   3.476   5.373 -0.2471 -0.2819 -0.7693
 8789SOL    HW237830   3.411   3.539   5.495  1.5858  1.6740  0.3438
 8790SOL     OW37831   4.346   3.629   6.146 -0.0434 -0.2037  0.3348
 8790SOL    HW137832   4.332   3.535   6.134 -0.8128  0.0166 -0.4713
 8790SOL    HW237833   4.393   3.618   6.229 -0.6942  1.0043  0.8554
 8791SOL     OW37834   0.854   2.036   2.424  0.1004  0.0113 -0.2506
 8791SOL    HW137835   0.850   2.132   2.426  0.8684  0.0460 -0.4995
 8791SOL    HW237836   0.866   2.031   2.329  0.5529  0.0141 -0.1903
 8792SOL     OW37837   0.012   3.854   3.657 -0.2374  0.0932 -0.2600
 8792SOL    HW137838   4.670   3.787   3.627  0.1062  0.0181 -0.7945
 8792SOL    HW237839   4.685   3.931   3.689 -0.3574 -0.0428 -0.1044
 8793SOL     OW37840   3.062   4.281   3.373  0.3473 -0.3336  0.5435
 8793SOL    HW137841   3.031   4.196   3.405  0.3180 -0.9721 -1.1743
 8793SOL    HW237842   3.133   4.260   3.313 -0.2395 -2.2673  0.5320
 8794SOL     OW37843   3.726   4.189   1.698  0.0840 -0.0889  0.4057
 8794SOL    HW137844   3.709   4.239   1.778 -1.8652 -0.4986  0.2649
 8794SOL    HW237845   3.646   4.202   1.646  0.7877 -0.7058 -0.8425
 8795SOL     OW37846   1.769   2.662   3.733 -0.3117  0.0018  0.5861
 8795SOL    HW137847   1.831   2.713   3.681 -2.0408  1.2277 -0.2778
 8795SOL    HW237848   1.808   2.575   3.727 -0.9225 -0.4391  2.9506
 8796SOL     OW37849   2.380   3.319  13.541  0.3167 -0.2638  0.0581
 8796SOL    HW137850   2.384   3.334  13.635  0.8470  1.5291 -0.2473
 8796SOL    HW237851   2.437   3.243  13.537 -2.4284 -2.3462  0.8121
 8797SOL     OW37852   1.046   0.289   2.828 -0.1754  0.2882  0.2685
 8797SOL    HW137853   1.113   0.229   2.794 -0.0185  1.7267 -1.9851
 8797SOL    HW237854   1.089   0.330   2.903  0.2315  0.6063 -0.1367
 8798SOL     OW37855   2.589   2.218   7.706 -0.0535 -0.0666  0.4914
 8798SOL    HW137856   2.499   2.245   7.689  0.1310  0.6628  0.6526
 8798SOL    HW237857   2.628   2.234   7.620 -0.0841  0.1083  0.5102
 8799SOL     OW37858   1.201   2.779   4.648 -0.2443 -0.1218 -0.7716
 8799SOL    HW137859   1.291   2.786   4.614  0.2288  2.9329  1.0199
 8799SOL    HW237860   1.203   2.684   4.646  0.9791 -0.1667  1.6066
 8800SOL     OW37861   0.092   0.534  12.256  0.2222  0.0082 -0.3812
 8800SOL    HW137862   0.132   0.620  12.251 -1.1954  0.7431  0.7905
 8800SOL    HW237863   0.005   0.548  12.293  0.6171  0.0688  0.5447
 8801SOL     OW37864   4.632   4.144  17.264  0.7159 -0.3361  0.2651
 8801SOL    HW137865   4.596   4.157  17.352  0.5549 -0.4754  0.2195
 8801SOL    HW237866   4.662   4.234  17.248 -1.7404  0.4596  0.1528
 8802SOL     OW37867   4.115   3.069   7.183 -0.1027  0.1381 -0.0463
 8802SOL    HW137868   4.181   3.106   7.241  0.5988 -0.1052 -0.6840
 8802SOL    HW237869   4.163   3.100   7.106  0.8747 -1.3029 -0.0117
 8803SOL     OW37870   1.286   1.898   9.626 -0.0604 -0.1610  0.6876
 8803SOL    HW137871   1.248   1.883   9.540 -1.8181 -2.4407  1.8545
 8803SOL    HW237872   1.376   1.923   9.606 -0.4964  1.8759  1.3060
 8804SOL     OW37873   2.215   1.070   3.683 -0.2851  0.0318 -0.9283
 8804SOL    HW137874   2.267   0.993   3.706 -0.6114 -0.8250 -3.0125
 8804SOL    HW237875   2.281   1.129   3.646 -2.3438  3.0781  0.2311
 8805SOL     OW37876   2.500   3.430   9.516  0.4494 -0.4464 -0.2738
 8805SOL    HW137877   2.528   3.398   9.602  2.9052  0.8139 -0.6045
 8805SOL    HW237878   2.418   3.381   9.511  0.0532  0.1350  0.3974
 8806SOL     OW37879   3.055   2.591  15.572  0.4992 -0.2128 -0.1101
 8806SOL    HW137880   3.027   2.521  15.512 -2.0340  1.7224 -1.2062
 8806SOL    HW237881   3.043   2.546  15.656  1.3036 -0.2408 -0.0079
 8807SOL     OW37882   3.248   1.688   5.610 -0.2978 -0.0348 -0.1716
 8807SOL    HW137883   3.312   1.630   5.651 -1.8040 -3.5402 -2.8501
 8807SOL    HW237884   3.290   1.702   5.525 -0.8337  0.0466 -0.4206
 8808SOL     OW37885   2.413   4.276  14.549  0.4054 -0.1721 -0.3740
 8808SOL    HW137886   2.377   4.227  14.475 -1.4650  2.0956 -0.9529
 8808SOL    HW237887   2.379   4.362  14.526 -0.1265 -0.0125  0.9933
 8809SOL     OW37888   4.470   0.552  16.218 -0.4547 -0.6846  0.6271
 8809SOL    HW137889   4.394   0.609  16.204  1.5900  2.2911  1.6994
 8809SOL    HW237890   4.441   0.486  16.155  0.2751 -1.9139  1.5806
 8810SOL     OW37891   0.944   3.700   5.532 -0.3303  0.3230  0.5047
 8810SOL    HW137892   0.912   3.642   5.463  0.3574  0.1115  0.3713
 8810SOL    HW237893   0.996   3.761   5.480  1.2750  0.0410  1.7636
 8811SOL     OW37894   1.101   4.227  12.520  0.0163 -0.2708 -0.1781
 8811SOL    HW137895   1.180   4.243  12.573  0.8998  2.1634 -2.2280
 8811SOL    HW237896   1.140   4.263  12.441  0.9381 -0.2771  0.2630
 8812SOL     OW37897   0.078   1.287   2.907  0.5377  0.1473 -0.1294
 8812SOL    HW137898   0.141   1.337   2.959  0.5698  1.6212 -1.5569
 8812SOL    HW237899   0.035   1.362   2.865 -1.1672  0.1511  1.6220
 8813SOL     OW37900   2.433   0.762   8.530 -0.6779 -0.0440  0.1435
 8813SOL    HW137901   2.376   0.782   8.603 -0.0737 -0.7514  0.8085
 8813SOL    HW237902   2.384   0.801   8.457  1.7560 -0.5085 -1.7524
 8814SOL     OW37903   1.584   0.804  13.793  0.7282  0.4360  0.0887
 8814SOL    HW137904   1.676   0.789  13.815  0.0451 -0.0635  2.6129
 8814SOL    HW237905   1.585   0.899  13.796  1.2065  0.4241  0.3390
 8815SOL     OW37906   3.551   2.365  13.523 -0.0801  0.1133  0.1271
 8815SOL    HW137907   3.572   2.350  13.431 -1.2026 -1.4030  0.1261
 8815SOL    HW237908   3.524   2.280  13.557  0.1622  0.1278  0.3534
 8816SOL     OW37909   1.775   4.457   7.679  0.0735  0.0733 -0.3005
 8816SOL    HW137910   1.802   4.375   7.637 -1.0933  0.3078 -1.5109
 8816SOL    HW237911   1.836   4.523   7.647 -0.3238  0.1443 -0.9086
 8817SOL     OW37912   3.497   2.550   1.782  0.0503  0.1962  0.3728
 8817SOL    HW137913   3.529   2.569   1.694  0.3161  1.2670  0.7064
 8817SOL    HW237914   3.415   2.600   1.782 -0.4327 -0.5938  2.2493
 8818SOL     OW37915   1.559   4.636   8.333 -0.1919  0.2952 -0.5766
 8818SOL    HW137916   1.601   4.703   8.279  0.4354 -0.2710 -0.7867
 8818SOL    HW237917   1.631   4.574   8.344 -1.7518 -1.4259 -0.0075
 8819SOL     OW37918   3.309   4.085   7.671 -0.2817 -0.0249  0.0293
 8819SOL    HW137919   3.226   4.054   7.707 -0.8235 -1.7502 -2.6764
 8819SOL    HW237920   3.369   4.051   7.738 -0.8192 -0.5224  0.2585
 8820SOL     OW37921   2.901   2.513   6.930  0.2374 -0.0144  0.1768
 8820SOL    HW137922   2.850   2.589   6.959  2.2282  0.5778  2.1003
 8820SOL    HW237923   2.875   2.449   6.996 -0.6939 -1.8431 -1.9784
 8821SOL     OW37924   3.938   2.019  12.682  0.1623 -0.4354  0.6171
 8821SOL    HW137925   3.858   2.072  12.692  1.3464  1.4460  0.2012
 8821SOL    HW237926   4.003   2.089  12.674  0.3903 -0.7673 -0.5409
 8822SOL     OW37927   3.016   1.224   3.340  0.0911  0.0112 -0.7781
 8822SOL    HW137928   2.965   1.232   3.259 -0.9480  3.3427  0.1931
 8822SOL    HW237929   3.034   1.314   3.365 -1.5463 -0.2711  1.4421
 8823SOL     OW37930   3.863   3.639   8.781  0.9091 -0.0157 -0.4682
 8823SOL    HW137931   3.817   3.564   8.819 -0.4171  1.4650  0.8852
 8823SOL    HW237932   3.946   3.595   8.767  1.6046  1.0907  0.1453
 8824SOL     OW37933   0.698   2.716  13.217  0.2012  0.1819  0.0388
 8824SOL    HW137934   0.764   2.779  13.247  2.5316 -2.3613  0.1775
 8824SOL    HW237935   0.634   2.757  13.158 -0.3948 -0.2989  0.3564
 8825SOL     OW37936   1.968   0.562   7.511  0.2815 -0.1340 -0.3367
 8825SOL    HW137937   1.951   0.656   7.510  1.0060  0.0111  1.2954
 8825SOL    HW237938   2.059   0.567   7.484  0.7186  1.5633  1.4399
 8826SOL     OW37939   3.442   3.193   0.443  0.0097  0.1436  0.0249
 8826SOL    HW137940   3.378   3.128   0.474  1.7183 -2.0411 -1.0422
 8826SOL    HW237941   3.523   3.151   0.472 -0.6923 -0.1289  1.5819
 8827SOL     OW37942   0.237   0.881   0.458 -0.0777  0.0350 -0.0529
 8827SOL    HW137943   0.259   0.972   0.477  0.6081 -0.0715 -0.3315
 8827SOL    HW237944   0.319   0.840   0.488  1.1979  2.6719  0.0850
 8828SOL     OW37945   0.793   1.252  10.040 -0.3314  0.0569 -0.4492
 8828SOL    HW137946   0.799   1.165  10.079 -0.3948  0.4796  0.5045
 8828SOL    HW237947   0.700   1.268  10.052 -0.4707 -0.3899 -0.9213
 8829SOL     OW37948   2.767   0.613  12.180 -1.0898 -0.0406  0.2197
 8829SOL    HW137949   2.752   0.535  12.126  2.8889 -0.0654 -0.8469
 8829SOL    HW237950   2.712   0.601  12.257 -0.8991  1.2244  0.5601
 8830SOL     OW37951   0.281   0.466   7.200  0.0112 -0.4114 -0.4006
 8830SOL    HW137952   0.341   0.514   7.258 -0.1009 -0.6557 -0.0873
 8830SOL    HW237953   0.204   0.522   7.204 -0.6077 -1.3097  0.0076
 8831SOL     OW37954   1.748   1.425  17.673 -0.7105 -1.0635 -0.2120
 8831SOL    HW137955   1.699   1.400   0.070  0.0018  0.7137  0.7790
 8831SOL    HW237956   1.831   1.380   0.005 -0.9661 -0.7642  2.1799
 8832SOL     OW37957   4.706   2.656   6.968 -0.2116 -0.2399  0.5555
 8832SOL    HW137958   0.023   2.609   7.044 -1.5980  2.4591  2.8871
 8832SOL    HW237959   4.628   2.696   7.007  1.2703  2.3218  0.9164
 8833SOL     OW37960   0.572   1.919  16.409  0.2251  0.3082  0.2833
 8833SOL    HW137961   0.647   1.958  16.453 -1.2556  1.4208  1.8264
 8833SOL    HW237962   0.575   1.976  16.332  0.2668 -1.5004 -1.0626
 8834SOL     OW37963   2.171   1.439   6.356  0.0094 -0.0762 -0.4543
 8834SOL    HW137964   2.247   1.497   6.345 -0.1185 -0.1678 -1.8738
 8834SOL    HW237965   2.154   1.436   6.450 -0.5268 -0.4135 -0.5676
 8835SOL     OW37966   1.565   3.080  15.154 -0.0306 -0.1491  1.1130
 8835SOL    HW137967   1.474   3.069  15.182  0.0812  1.0156  1.9217
 8835SOL    HW237968   1.605   3.019  15.215  0.1214 -1.2533 -0.1051
 8836SOL     OW37969   4.669   1.111   8.301 -0.4610 -0.7789 -0.3492
 8836SOL    HW137970   4.661   1.178   8.370  0.3073 -1.5358  0.4811
 8836SOL    HW237971   4.662   1.029   8.349  2.7117 -0.9239 -0.1251
 8837SOL     OW37972   4.271   2.651   3.633  1.0911 -0.3466 -0.0719
 8837SOL    HW137973   4.298   2.743   3.622 -2.6027  0.8673  0.9376
 8837SOL    HW237974   4.330   2.597   3.581 -0.4299 -3.1444  1.1184
 8838SOL     OW37975   2.561   3.801   4.151 -0.1736  0.5843 -0.1681
 8838SOL    HW137976   2.537   3.710   4.133  1.6731  0.0899 -0.2120
 8838SOL    HW237977   2.563   3.800   4.247  0.1215 -1.8071 -0.1899
 8839SOL     OW37978   0.642   1.125   8.675  0.5747  0.3468 -0.1047
 8839SOL    HW137979   0.736   1.109   8.681 -0.0182 -3.5862 -1.5116
 8839SOL    HW237980   0.624   1.185   8.748 -0.6837  0.8889 -0.8605
 8840SOL     OW37981   4.439   3.405  16.607 -0.2624  0.1402 -0.2552
 8840SOL    HW137982   4.418   3.406  16.514 -0.6862 -0.3704 -0.1672
 8840SOL    HW237983   4.526   3.439  16.589 -0.2062 -0.1776 -0.5774
 8841SOL     OW37984   2.593   2.574   6.930  0.2055 -0.0835 -0.1557
 8841SOL    HW137985   2.597   2.520   6.851 -0.6841 -0.9950  0.4240
 8841SOL    HW237986   2.531   2.526   6.984 -0.1966 -0.6324 -1.1123
 8842SOL     OW37987   4.549   0.231  13.613 -0.3207  0.1362  0.3135
 8842SOL    HW137988   4.511   0.194  13.692 -2.1204 -0.5493 -0.8623
 8842SOL    HW237989   4.496   0.190  13.545  1.4553  0.6983 -1.4247
 8843SOL     OW37990   3.120   2.594  15.984 -0.1795  0.1757  0.2140
 8843SOL    HW137991   3.131   2.499  15.986 -0.7144  0.0853 -0.9784
 8843SOL    HW237992   3.025   2.596  15.998 -0.3462  0.8355 -1.0320
 8844SOL     OW37993   1.237   1.307   0.476 -0.1809  0.4198  0.8960
 8844SOL    HW137994   1.324   1.266   0.479 -0.6571 -0.6064  0.5645
 8844SOL    HW237995   1.264   1.398   0.492  1.6750  0.2162 -0.9667
 8845SOL     OW37996   4.039   0.646   4.346 -0.4790 -0.1530 -0.0709
 8845SOL    HW137997   4.013   0.666   4.256  2.0622 -1.1537 -1.0154
 8845SOL    HW237998   4.042   0.550   4.342 -0.2124 -0.0574 -2.0984
 8846SOL     OW37999   1.915   3.879   7.342 -0.7106 -0.5961 -0.7243
 8846SOL    HW138000   1.999   3.924   7.344 -0.6694 -0.8200  2.5249
 8846SOL    HW238001   1.906   3.857   7.250 -1.0957 -1.2499 -0.5323
 8847SOL     OW38002   1.406   2.717  10.548 -0.1572  0.3399  0.2655
 8847SOL    HW138003   1.333   2.751  10.601 -0.1144  1.6899 -0.5789
 8847SOL    HW238004   1.448   2.660  10.613 -0.8275 -1.2571 -0.6823
 8848SOL     OW38005   4.571   2.079   4.538 -0.5153 -0.0410 -0.1997
 8848SOL    HW138006   4.647   2.104   4.590  1.6156 -1.3156 -2.7023
 8848SOL    HW238007   4.597   2.121   4.456 -1.1635  1.7498  0.5275
 8849SOL     OW38008   1.114   1.946   3.906 -0.0768  0.3869 -0.1873
 8849SOL    HW138009   1.033   1.941   3.855 -0.2355 -0.6546  0.1697
 8849SOL    HW238010   1.124   1.855   3.936  0.0955  0.1353 -1.0032
 8850SOL     OW38011   0.822   2.389   0.522  0.7595  0.2420 -0.2070
 8850SOL    HW138012   0.740   2.355   0.485  1.5397 -0.5231 -1.2226
 8850SOL    HW238013   0.801   2.479   0.549  0.0442 -0.4708  1.6093
 8851SOL     OW38014   4.396   0.072   5.997  0.2122 -1.1638 -0.1801
 8851SOL    HW138015   4.470   0.134   5.999 -0.4513 -0.4212  1.8760
 8851SOL    HW238016   4.429   4.713   5.954 -2.3452 -1.9538 -0.6839
 8852SOL     OW38017   3.403   1.926   6.435 -0.5386  0.0554  0.4064
 8852SOL    HW138018   3.460   1.879   6.374 -2.9367 -0.8864 -1.0959
 8852SOL    HW238019   3.400   1.863   6.508 -0.4438  1.3189  1.5136
 8853SOL     OW38020   4.307   0.041  11.968  0.4571  0.0503 -0.2914
 8853SOL    HW138021   4.353   4.710  12.035  1.2568  1.8037  0.4818
 8853SOL    HW238022   4.265   0.113  12.014  0.9212 -0.0580  0.3027
 8854SOL     OW38023   1.610   3.547   4.669  0.0249 -0.0360 -0.0167
 8854SOL    HW138024   1.627   3.553   4.763  0.3523 -0.8580 -0.0207
 8854SOL    HW238025   1.699   3.552   4.634  0.2725  1.7404  0.8894
 8855SOL     OW38026   3.327   0.428   8.365 -0.4027 -0.1102  0.3245
 8855SOL    HW138027   3.235   0.421   8.338 -0.8182 -1.0130  1.9170
 8855SOL    HW238028   3.379   0.420   8.286 -1.7590  3.0341 -0.8976
 8856SOL     OW38029   0.954   3.076   9.143 -0.1955  0.2366 -0.0960
 8856SOL    HW138030   0.943   3.154   9.089 -0.0723 -1.5267 -2.6220
 8856SOL    HW238031   1.031   3.045   9.096  0.6201  0.3521  1.1563
 8857SOL     OW38032   1.824   2.246   2.050  1.0043 -0.0698 -0.2633
 8857SOL    HW138033   1.761   2.187   2.008 -0.0034 -0.9259  2.4383
 8857SOL    HW238034   1.902   2.201   2.019  0.0733 -0.0832 -2.5781
 8858SOL     OW38035   3.574   0.377   9.472 -0.5705  0.0286 -0.5421
 8858SOL    HW138036   3.654   0.326   9.462 -0.6827 -0.1429 -0.5712
 8858SOL    HW238037   3.543   0.363   9.382  1.4285 -1.3156 -1.0091
 8859SOL     OW38038   2.468   0.155   5.653 -0.0411 -0.2619  0.5022
 8859SOL    HW138039   2.518   0.215   5.709  0.8453  1.2760 -1.9022
 8859SOL    HW238040   2.381   0.195   5.648 -0.3728 -0.9313  0.9570
 8860SOL     OW38041   4.345   2.709   5.734  0.6274  0.1940 -0.2560
 8860SOL    HW138042   4.275   2.747   5.681 -0.4855 -0.7564  0.5065
 8860SOL    HW238043   4.299   2.626   5.752 -0.8964  1.1629  0.3046
 8861SOL     OW38044   0.466   4.705   7.083  0.0895 -0.5622 -0.5618
 8861SOL    HW138045   0.449   0.003   6.990 -0.3765 -0.9076 -0.5476
 8861SOL    HW238046   0.478   0.077   7.108  0.8645 -1.0671  0.9076
 8862SOL     OW38047   3.895   0.711   4.562  0.0924 -0.1721  0.1949
 8862SOL    HW138048   3.807   0.692   4.531 -0.2449 -1.5816  1.9578
 8862SOL    HW238049   3.949   0.714   4.483 -3.1437 -2.5121 -2.0994
 8863SOL     OW38050   1.856   0.200   9.075 -0.3412 -0.3615 -0.0296
 8863SOL    HW138051   1.781   0.160   9.031 -0.0277  0.3519 -1.1900
 8863SOL    HW238052   1.854   0.166   9.165  0.1365  4.4385  1.7877
 8864SOL     OW38053   4.291   4.503   3.683  1.1623 -0.4204 -0.0836
 8864SOL    HW138054   4.311   4.569   3.616  0.1705  2.0782  2.0838
 8864SOL    HW238055   4.204   4.474   3.655  2.9367 -3.4264 -2.4063
 8865SOL     OW38056   3.208   0.935  17.610  0.1903  0.4651  0.2514
 8865SOL    HW138057   3.287   0.888  17.582 -0.0204  2.0830 -2.9921
 8865SOL    HW238058   3.259   0.997  17.662  0.1317  0.8410 -0.1418
 8866SOL     OW38059   2.441   0.433  13.482 -0.0942  0.7656  0.6578
 8866SOL    HW138060   2.437   0.455  13.389 -0.2133 -2.8744 -0.2252
 8866SOL    HW238061   2.439   0.337  13.486 -2.2068  0.7653 -0.7561
 8867SOL     OW38062   1.901   3.271  17.495 -0.0912 -0.0371 -0.1159
 8867SOL    HW138063   1.968   3.215  17.455 -0.4607  0.1859 -1.0622
 8867SOL    HW238064   1.886   3.218  17.574  0.1276 -1.4271 -0.9933
 8868SOL     OW38065   4.571   0.843   4.658 -0.2251 -0.0707 -0.2531
 8868SOL    HW138066   4.616   0.823   4.576  1.3470 -0.2373  0.6510
 8868SOL    HW238067   4.533   0.756   4.672 -0.8922 -0.0159 -1.7249
 8869SOL     OW38068   0.154   1.909   4.783 -0.0133  0.2429  0.4396
 8869SOL    HW138069   0.146   1.993   4.739 -1.5798  0.9603  2.1075
 8869SOL    HW238070   0.089   1.856   4.736  2.2562 -2.7601  0.6615
 8870SOL     OW38071   3.753   0.137   7.880  0.2926 -0.4467 -0.5483
 8870SOL    HW138072   3.796   0.065   7.834  1.1089  0.1083 -0.6652
 8870SOL    HW238073   3.824   0.202   7.882 -0.9880  0.8699  2.4635
 8871SOL     OW38074   1.762   2.847   9.070  0.0470 -0.1656  0.4149
 8871SOL    HW138075   1.688   2.820   9.015  0.5388 -1.6873  0.5046
 8871SOL    HW238076   1.719   2.878   9.150 -1.0494 -1.1214  0.1957
 8872SOL     OW38077   1.747   1.529   8.412 -0.4731  0.1492  0.2756
 8872SOL    HW138078   1.693   1.493   8.482  1.8524 -0.7001  1.6362
 8872SOL    HW238079   1.812   1.578   8.463 -1.7304  1.7525  0.3093
 8873SOL     OW38080   0.651   3.649   7.553 -0.6536 -0.5336  0.4546
 8873SOL    HW138081   0.746   3.652   7.540 -0.1824 -1.5718  3.6475
 8873SOL    HW238082   0.639   3.578   7.616 -0.3953 -0.7217  0.2931
 8874SOL     OW38083   2.087   2.482   4.905 -0.0664  0.6457 -0.0153
 8874SOL    HW138084   2.069   2.450   4.817  1.4991  2.5906 -1.0493
 8874SOL    HW238085   2.021   2.423   4.942 -0.2124  0.8202  0.0021
 8875SOL     OW38086   0.560   4.256   7.086  0.1226  0.1379  0.1764
 8875SOL    HW138087   0.593   4.337   7.127 -1.1833 -0.5058  2.4840
 8875SOL    HW238088   0.573   4.193   7.157  1.3006 -0.7461 -0.8245
 8876SOL     OW38089   2.009   0.738   9.084  0.2911  0.7261  0.1100
 8876SOL    HW138090   1.922   0.762   9.053 -0.5163 -0.0576  1.7974
 8876SOL    HW238091   1.991   0.666   9.144  0.6977 -1.6618 -2.6627
 8877SOL     OW38092   1.003   1.158   2.588  0.1941  0.1857 -0.3696
 8877SOL    HW138093   1.079   1.209   2.559  0.5419 -0.5857 -0.8035
 8877SOL    HW238094   0.958   1.156   2.504 -0.0250  0.3292 -0.2564
 8878SOL     OW38095   3.529   1.368   2.787 -0.2233 -0.0594  0.3799
 8878SOL    HW138096   3.482   1.290   2.760 -1.4480  0.2274  1.7463
 8878SOL    HW238097   3.545   1.406   2.700  2.4350  0.3194  1.0257
 8879SOL     OW38098   3.446   2.086   4.876 -0.3746 -0.3934  0.1377
 8879SOL    HW138099   3.525   2.033   4.887  0.8237  1.1341 -1.0196
 8879SOL    HW238100   3.382   2.027   4.915 -1.1803  0.3358 -0.0767
 8880SOL     OW38101   2.279   3.045   9.041  0.0824  0.1121  0.3252
 8880SOL    HW138102   2.292   2.951   9.027  0.8637  0.1602  0.6941
 8880SOL    HW238103   2.349   3.090   8.993  0.8812 -0.8433  0.5832
 8881SOL     OW38104   2.471   3.706   9.501 -0.1723 -0.3022  0.9806
 8881SOL    HW138105   2.480   3.612   9.484  1.7262  0.2082 -0.9116
 8881SOL    HW238106   2.495   3.697   9.593 -4.4614 -0.3022  2.0838
 8882SOL     OW38107   4.317   1.780   3.577 -0.2629 -0.2413 -0.5834
 8882SOL    HW138108   4.247   1.786   3.512 -1.4213  2.8063  0.9633
 8882SOL    HW238109   4.266   1.728   3.640 -0.0873  0.7059  0.3403
 8883SOL     OW38110   1.662   4.227   9.486  0.2968 -0.0276  0.3774
 8883SOL    HW138111   1.659   4.234   9.391 -0.8630  1.8539  0.5601
 8883SOL    HW238112   1.722   4.296   9.512 -0.7285  0.7151  0.7655
 8884SOL     OW38113   2.447   2.347   5.490 -0.3268  0.5880 -0.2271
 8884SOL    HW138114   2.452   2.442   5.479 -2.1219  0.2921 -3.4967
 8884SOL    HW238115   2.541   2.326   5.494 -0.5977 -0.4177  0.9852
 8885SOL     OW38116   1.945   0.399   6.709  0.1488 -0.0686  0.1602
 8885SOL    HW138117   1.856   0.374   6.730 -0.7317  1.5830 -1.5287
 8885SOL    HW238118   1.956   0.460   6.782 -0.7519  0.0191  0.2155
 8886SOL     OW38119   0.319   3.222   8.792 -0.0847  0.3486  0.0429
 8886SOL    HW138120   0.361   3.234   8.878  0.2779  1.8412 -0.3363
 8886SOL    HW238121   0.227   3.219   8.817  0.4621  1.7272  2.3196
 8887SOL     OW38122   4.111   2.395  13.747  0.0074 -0.0864 -0.0469
 8887SOL    HW138123   4.183   2.349  13.789 -1.3767 -0.6382  1.7032
 8887SOL    HW238124   4.170   2.452  13.696  1.1370 -0.7114  0.5675
 8888SOL     OW38125   1.364   3.110   7.683  0.4317  0.3960  0.2564
 8888SOL    HW138126   1.415   3.087   7.606  1.2797  1.3719  0.5250
 8888SOL    HW238127   1.297   3.172   7.653 -0.4306 -0.0960  1.1611
 8889SOL     OW38128   1.410   3.598   3.061  0.6565  0.4736 -0.3125
 8889SOL    HW138129   1.452   3.682   3.043  0.9640  0.2489 -0.6326
 8889SOL    HW238130   1.369   3.574   2.979 -0.0079 -2.4195  0.8813
 8890SOL     OW38131   1.480   3.869   1.128  0.1164  0.5384 -0.5435
 8890SOL    HW138132   1.435   3.835   1.051  1.6843 -1.8038 -0.4234
 8890SOL    HW238133   1.463   3.801   1.193  1.7170  0.6167 -0.0588
 8891SOL     OW38134   2.315   0.870   7.587  0.0098 -0.1143 -0.4579
 8891SOL    HW138135   2.364   0.935   7.537 -1.1757  0.7953 -0.4273
 8891SOL    HW238136   2.223   0.882   7.564 -0.4190 -0.1698  1.1852
 8892SOL     OW38137   1.392   2.204   1.582 -0.1698 -0.2332  0.5744
 8892SOL    HW138138   1.359   2.129   1.633  2.3970 -2.0983 -0.5157
 8892SOL    HW238139   1.392   2.165   1.495  1.7463 -0.6739  0.7785
 8893SOL     OW38140   1.876   0.534   4.686  0.4441 -0.3997 -0.1566
 8893SOL    HW138141   1.880   0.589   4.608  0.7299 -1.2241 -0.7154
 8893SOL    HW238142   1.860   0.447   4.651 -1.0829  0.9790 -2.8863
 8894SOL     OW38143   4.030   4.580   2.423 -0.0299 -0.2280  0.1730
 8894SOL    HW138144   4.092   4.555   2.354 -0.3103 -1.2437  0.2892
 8894SOL    HW238145   4.046   4.673   2.441 -0.7612 -0.1485  0.3724
 8895SOL     OW38146   1.653   4.404   7.938  0.7477 -1.3229  0.3195
 8895SOL    HW138147   1.696   4.438   7.859  0.3089  0.5055  0.8714
 8895SOL    HW238148   1.576   4.461   7.936  0.3931 -1.8448 -0.8014
 8896SOL     OW38149   0.262   1.664  16.195 -0.3489  0.8689 -0.2149
 8896SOL    HW138150   0.303   1.693  16.276 -0.0543 -0.9040  0.2782
 8896SOL    HW238151   0.172   1.691  16.214 -1.1248 -1.8694  0.0579
 8897SOL     OW38152   0.074   3.344   7.919 -0.5416 -0.3052  0.5883
 8897SOL    HW138153   0.035   3.407   7.979  1.2973 -0.0835  1.5657
 8897SOL    HW238154   0.004   3.346   7.854 -0.5201 -1.0564  0.5392
 8898SOL     OW38155   2.709   2.132  14.790 -0.1016  0.3580  0.5444
 8898SOL    HW138156   2.803   2.148  14.799  0.2799 -2.0155  0.8294
 8898SOL    HW238157   2.672   2.183  14.861  0.5809 -0.1319  1.2504
 8899SOL     OW38158   1.810   2.165   7.605 -0.1075 -0.7386 -0.5188
 8899SOL    HW138159   1.813   2.096   7.672  1.9277 -1.9921 -1.8894
 8899SOL    HW238160   1.877   2.228   7.630 -0.4899  0.9202 -3.6953
 8900SOL     OW38161   0.855   1.409   2.335  0.4586 -0.3964  0.4257
 8900SOL    HW138162   0.884   1.397   2.245 -1.2637  0.5433 -0.2525
 8900SOL    HW238163   0.801   1.330   2.344  0.7199 -0.5876  0.3361
 8901SOL     OW38164   1.009   1.058  12.096  0.2887  0.0988 -0.1582
 8901SOL    HW138165   0.968   1.065  12.183  1.0943  1.6527  0.0884
 8901SOL    HW238166   1.018   1.151  12.076  0.9793  0.5265  2.0582
 8902SOL     OW38167   0.742   4.541  15.727  0.0684 -0.2160 -0.0924
 8902SOL    HW138168   0.741   4.584  15.641 -0.3567  0.5841  0.3103
 8902SOL    HW238169   0.648   4.536  15.744 -0.0970  0.3428 -0.8267
 8903SOL     OW38170   4.221   1.837   7.029 -0.2248  0.0175  0.4436
 8903SOL    HW138171   4.148   1.898   7.030 -1.5201 -1.5090 -0.6311
 8903SOL    HW238172   4.240   1.826   7.123 -0.0784  1.8331  0.6125
 8904SOL     OW38173   4.201   1.938   2.199  0.2513 -0.8646 -0.1547
 8904SOL    HW138174   4.118   1.986   2.192 -1.0817 -3.0900  0.1645
 8904SOL    HW238175   4.208   1.904   2.288 -1.6674 -0.1000  0.3000
 8905SOL     OW38176   4.474   1.522   5.224  0.0556 -0.5889 -0.0910
 8905SOL    HW138177   4.467   1.592   5.159  0.6628 -1.3068 -0.9302
 8905SOL    HW238178   4.446   1.444   5.175  0.5827 -0.7474 -0.1358
 8906SOL     OW38179   1.646   2.910  16.205  0.3089 -0.0506  0.6057
 8906SOL    HW138180   1.634   2.993  16.158  0.1752 -0.7452 -0.5958
 8906SOL    HW238181   1.578   2.921  16.272 -0.3589  1.9679 -0.4044
 8907SOL     OW38182   1.211   3.640   9.655 -0.3204  0.8213 -0.3265
 8907SOL    HW138183   1.197   3.571   9.590 -1.4820  1.6323 -0.9427
 8907SOL    HW238184   1.256   3.710   9.607  1.9917 -2.0540 -2.3754
 8908SOL     OW38185   3.012   0.791  15.044  0.2652 -0.2414 -0.5582
 8908SOL    HW138186   2.964   0.712  15.018  0.5941 -1.1502  1.5966
 8908SOL    HW238187   2.986   0.848  14.972  1.2637  1.0810  0.1408
 8909SOL     OW38188   0.390   0.431   9.098  0.3496  0.2691 -0.9824
 8909SOL    HW138189   0.340   0.412   9.177  0.4918  1.9005 -0.5025
 8909SOL    HW238190   0.329   0.492   9.055  2.1235  3.3291  0.8010
 8910SOL     OW38191   4.257   1.638   8.707 -0.1867  0.0140 -0.6036
 8910SOL    HW138192   4.172   1.594   8.696 -0.4765  0.4371 -0.0956
 8910SOL    HW238193   4.280   1.654   8.616 -1.4429 -0.1699 -0.9607
 8911SOL     OW38194   1.973   2.690  12.711  0.2722  0.0971 -0.5800
 8911SOL    HW138195   1.908   2.754  12.684 -1.9483 -1.8970  0.0721
 8911SOL    HW238196   1.927   2.623  12.661  0.5053 -0.4961 -0.0010
 8912SOL     OW38197   0.288   3.906   2.726  0.5118 -0.0676  0.3907
 8912SOL    HW138198   0.230   3.934   2.797 -0.6502 -2.2090  0.2565
 8912SOL    HW238199   0.233   3.941   2.656  0.6063  0.2042  0.4507
 8913SOL     OW38200   4.250   3.877   4.939 -0.0566 -0.2698 -0.4250
 8913SOL    HW138201   4.170   3.929   4.941  1.5103  2.0785  0.7469
 8913SOL    HW238202   4.267   3.844   4.850 -1.1981  0.3280 -0.8649
 8914SOL     OW38203   0.402   3.732   6.397 -0.5749 -0.3022 -0.3493
 8914SOL    HW138204   0.492   3.765   6.391  0.0163 -1.7481  0.3100
 8914SOL    HW238205   0.424   3.655   6.450  0.2673  0.2132  0.0685
 8915SOL     OW38206   2.117   1.785   4.044  0.2785 -0.3459  0.7658
 8915SOL    HW138207   2.097   1.811   4.134  1.7469 -0.9059  1.2593
 8915SOL    HW238208   2.082   1.855   3.988 -0.7099 -2.1473 -0.8629
 8916SOL     OW38209   3.626   3.173   1.780 -0.0254 -0.4473  0.1037
 8916SOL    HW138210   3.714   3.189   1.815 -1.2142  3.8863  0.9999
 8916SOL    HW238211   3.596   3.256   1.743  1.7722  1.1220  2.1817
 8917SOL     OW38212   0.553   1.839  14.368 -0.0885  1.1780  0.6665
 8917SOL    HW138213   0.516   1.869  14.451 -2.3246  0.0652  0.0755
 8917SOL    HW238214   0.482   1.791  14.324  0.6360  1.3323 -0.6803
 8918SOL     OW38215   1.487   2.231   8.078 -0.2025  0.2025  0.0908
 8918SOL    HW138216   1.514   2.143   8.104  1.0513  0.5495 -0.0296
 8918SOL    HW238217   1.398   2.215   8.047 -0.5337  0.5379  0.8599
 8919SOL     OW38218   1.444   0.822   8.017 -0.2890  0.2029  0.2660
 8919SOL    HW138219   1.375   0.766   8.052  1.0523 -0.6060  1.6206
 8919SOL    HW238220   1.409   0.823   7.928  1.3295  1.9103 -0.3577
 8920SOL     OW38221   1.156   0.902   7.545 -0.5826 -0.1569  0.1808
 8920SOL    HW138222   1.171   0.916   7.639  3.9524  0.8076 -0.6426
 8920SOL    HW238223   1.178   0.810   7.530 -0.2477 -0.1200  0.4356
 8921SOL     OW38224   3.604   2.442   1.095 -0.0256 -0.0638 -0.2105
 8921SOL    HW138225   3.618   2.530   1.060 -0.4921  0.6650  1.4286
 8921SOL    HW238226   3.515   2.418   1.067  0.2095 -1.3563  0.1461
 8922SOL     OW38227   2.892   4.033   7.420  0.0606 -0.9106  0.3735
 8922SOL    HW138228   2.870   3.988   7.338  1.7083 -0.1457 -0.4952
 8922SOL    HW238229   2.987   4.035   7.414 -0.0019 -0.2125 -0.3624
 8923SOL     OW38230   2.986   2.892  14.053 -0.4984  0.3663 -0.2011
 8923SOL    HW138231   2.925   2.931  13.992  3.3300  0.9345 -3.6925
 8923SOL    HW238232   2.948   2.902  14.141  0.1433  1.2376 -0.0186
 8924SOL     OW38233   4.045   4.405   3.565 -0.1043  0.0582 -0.2241
 8924SOL    HW138234   4.078   4.323   3.602  0.5368  0.5779  0.3607
 8924SOL    HW238235   4.000   4.375   3.486  0.8331 -1.6875 -0.1047
 8925SOL     OW38236   4.009   3.697   2.106 -0.0704 -0.1931 -0.0053
 8925SOL    HW138237   4.073   3.767   2.096  0.7539 -1.3522 -2.9437
 8925SOL    HW238238   4.051   3.618   2.072  0.1578  1.0444 -2.5530
 8926SOL     OW38239   2.655   1.380  14.293 -0.0945  0.2279  0.3834
 8926SOL    HW138240   2.714   1.373  14.218 -0.8568 -0.0460 -0.1945
 8926SOL    HW238241   2.574   1.359  14.246  0.1400 -3.6812  1.7093
 8927SOL     OW38242   1.184   0.332  10.376 -0.4514 -0.3479 -0.0733
 8927SOL    HW138243   1.177   0.254  10.320  0.5354  0.4268 -1.2894
 8927SOL    HW238244   1.218   0.396  10.313  0.6879  1.7090  2.6455
 8928SOL     OW38245   0.649   0.729  10.565  0.3360  0.6377  0.4642
 8928SOL    HW138246   0.670   0.813  10.606  0.7703  1.1665 -0.8476
 8928SOL    HW238247   0.555   0.717  10.578  0.1845  0.1339 -1.0730
 8929SOL     OW38248   2.423   2.661  11.512  0.3680  0.5611 -0.2945
 8929SOL    HW138249   2.443   2.673  11.420 -0.1142  1.9173 -0.2266
 8929SOL    HW238250   2.348   2.603  11.500 -0.0322  1.2543 -1.0903
 8930SOL     OW38251   2.396   4.245   7.832  0.2896  0.4133 -0.0441
 8930SOL    HW138252   2.352   4.168   7.867  0.2117  0.4818  0.0056
 8930SOL    HW238253   2.426   4.283   7.914 -2.5340  1.4966  0.4880
 8931SOL     OW38254   4.635   2.429  14.952  0.7768  0.2702 -0.4289
 8931SOL    HW138255   4.661   2.409  14.863  1.8420  1.1092 -0.3069
 8931SOL    HW238256   4.698   2.495  14.982 -0.0224 -0.0153  1.9286
 8932SOL     OW38257   3.350   2.300   1.625  0.0557 -0.2420 -0.4467
 8932SOL    HW138258   3.393   2.217   1.605 -1.2078 -0.9455 -0.2912
 8932SOL    HW238259   3.318   2.277   1.712 -0.2682  1.7603 -0.0435
 8933SOL     OW38260   2.946   1.532  10.766  0.6362  0.4635  0.2521
 8933SOL    HW138261   2.881   1.466  10.790 -0.1751  1.0681 -0.2748
 8933SOL    HW238262   2.908   1.541  10.679 -0.2082 -0.5395  0.5130
 8934SOL     OW38263   4.493   2.100   2.713  0.3974 -0.6097  0.4161
 8934SOL    HW138264   4.472   2.018   2.758  1.2011  0.0567  1.9986
 8934SOL    HW238265   4.588   2.109   2.723  0.3822 -0.4887  0.4491
 8935SOL     OW38266   4.666   4.298  10.711 -0.7448  0.2043 -0.0493
 8935SOL    HW138267   4.696   4.369  10.767 -3.7753  0.8722  0.7425
 8935SOL    HW238268   4.635   4.235  10.776  0.3868  0.6589  0.9262
 8936SOL     OW38269   2.699   1.827  14.690 -0.6896 -0.1810  0.0456
 8936SOL    HW138270   2.632   1.779  14.738 -2.7060  2.8914  0.2977
 8936SOL    HW238271   2.707   1.908  14.741 -0.4480 -1.6693  2.3633
 8937SOL     OW38272   2.030   1.251   8.416 -0.5397 -0.0690  0.0309
 8937SOL    HW138273   2.061   1.339   8.395  1.2776 -1.4132 -2.8544
 8937SOL    HW238274   2.066   1.242   8.504 -1.1675  0.0162  0.2954
 8938SOL     OW38275   3.339   4.388   6.794 -0.2000 -0.2999  0.2722
 8938SOL    HW138276   3.245   4.383   6.812 -0.3737  2.4657  0.0470
 8938SOL    HW238277   3.366   4.297   6.808  0.3074 -0.1217  0.4608
 8939SOL     OW38278   0.353   0.085  11.750  0.1784  0.8697 -0.3258
 8939SOL    HW138279   0.272   0.129  11.776 -0.9911  0.0098 -2.5790
 8939SOL    HW238280   0.329   0.025  11.680  1.1248 -0.6755  0.6696
 8940SOL     OW38281   3.933   0.619   9.301  0.7006 -0.1613  0.2036
 8940SOL    HW138282   3.947   0.613   9.396  0.9540  1.4411  0.2820
 8940SOL    HW238283   3.999   0.557   9.270 -0.2540 -1.1314  0.1108
 8941SOL     OW38284   3.593   0.662   8.717  0.2787 -0.2068  0.0494
 8941SOL    HW138285   3.575   0.695   8.806  1.3951 -2.1577  0.9927
 8941SOL    HW238286   3.684   0.640   8.734 -0.1135 -0.4456  1.8880
 8942SOL     OW38287   0.565   1.989   1.717  0.9702 -0.2908  0.7504
 8942SOL    HW138288   0.640   1.995   1.777  1.1531  0.9595  0.4008
 8942SOL    HW238289   0.601   1.994   1.628 -1.0343  0.4940 -0.0062
 8943SOL     OW38290   3.714   3.156   7.705 -0.4431  0.2700 -0.6340
 8943SOL    HW138291   3.775   3.109   7.763 -1.5471 -0.0243  0.2753
 8943SOL    HW238292   3.756   3.145   7.619  2.0911 -2.4554  0.9516
 8944SOL     OW38293   1.172   0.389   3.052  0.1196  0.8239 -0.2713
 8944SOL    HW138294   1.083   0.416   3.075 -0.1904 -1.2455  0.8811
 8944SOL    HW238295   1.201   0.480   3.039  1.1250  0.6599  0.8407
 8945SOL     OW38296   4.357   0.039  15.773 -0.4935 -0.4238  0.7482
 8945SOL    HW138297   4.372   0.072  15.685  0.6528  0.1576  1.1585
 8945SOL    HW238298   4.298   0.107  15.807  0.9592  0.9602  0.5215
 8946SOL     OW38299   4.434   2.568   5.296 -0.2629 -0.6956  0.0866
 8946SOL    HW138300   4.443   2.485   5.343  1.5695 -0.7641 -0.3740
 8946SOL    HW238301   4.455   2.549   5.205  0.4403  1.2087 -0.1503
 8947SOL     OW38302   2.841   2.348   0.024 -0.0765 -0.3682 -0.3194
 8947SOL    HW138303   2.933   2.372   0.034 -0.1735  0.1612 -0.6977
 8947SOL    HW238304   2.854   2.253   0.030  1.9279 -0.0506  0.2550
 8948SOL     OW38305   1.341   2.894   5.153 -0.4842  0.2026 -0.0646
 8948SOL    HW138306   1.396   2.817   5.138 -1.5694 -0.9216  1.6684
 8948SOL    HW238307   1.288   2.894   5.073 -0.1329 -0.3508 -0.2961
 8949SOL     OW38308   0.006   0.765   7.506 -0.0153 -0.0064  0.7319
 8949SOL    HW138309   4.690   0.695   7.560 -0.3891 -0.2128  0.2176
 8949SOL    HW238310   4.646   0.786   7.457 -0.1892 -0.5129  0.8009
 8950SOL     OW38311   4.339   3.908   3.207  0.2728  0.0065 -0.0385
 8950SOL    HW138312   4.378   3.943   3.126 -1.1749  2.1138  0.1629
 8950SOL    HW238313   4.265   3.859   3.170 -1.3724  2.7556 -0.4312
 8951SOL     OW38314   3.795   3.275   0.781  0.2262  0.0095 -0.3883
 8951SOL    HW138315   3.839   3.279   0.866  0.4882 -0.7939 -0.4927
 8951SOL    HW238316   3.737   3.199   0.775 -0.5977  0.3928  2.8563
 8952SOL     OW38317   1.224   2.383   1.704  0.2325 -0.2210  0.4912
 8952SOL    HW138318   1.168   2.305   1.704  1.2263 -0.9234  0.7352
 8952SOL    HW238319   1.300   2.349   1.657  0.3923 -1.1129  1.4172
 8953SOL     OW38320   4.117   3.695   6.615  0.2059 -0.2862  0.3713
 8953SOL    HW138321   4.034   3.653   6.592 -0.4807  1.7733 -0.8381
 8953SOL    HW238322   4.100   3.745   6.694  0.4775 -0.6287  0.6465
 8954SOL     OW38323   1.669   3.429   5.626 -0.3796 -0.2669 -0.4420
 8954SOL    HW138324   1.743   3.482   5.653 -2.1614  1.3979  1.1510
 8954SOL    HW238325   1.619   3.472   5.557 -0.0459  0.9510  0.0749
 8955SOL     OW38326   3.076   3.637   2.838  0.2407  0.5173  0.6437
 8955SOL    HW138327   3.045   3.727   2.844  0.7711  0.8375 -1.4868
 8955SOL    HW238328   3.000   3.583   2.816 -1.5092  2.8815  0.8162
 8956SOL     OW38329   2.100   3.991   0.827 -0.1719  0.1682 -0.1440
 8956SOL    HW138330   2.174   4.051   0.824  0.4736 -0.5442  1.5406
 8956SOL    HW238331   2.148   3.917   0.790 -0.7954  0.0422 -0.7121
 8957SOL     OW38332   3.380   3.347   9.235 -0.4151 -0.1090  0.3705
 8957SOL    HW138333   3.358   3.348   9.328 -0.4546 -0.0966  0.3612
 8957SOL    HW238334   3.295   3.381   9.209 -1.7024 -1.7531  2.5049
 8958SOL     OW38335   1.118   2.873   4.041 -0.4582  0.7889 -0.2326
 8958SOL    HW138336   1.063   2.856   4.117 -1.3531 -2.4239 -1.6133
 8958SOL    HW238337   1.075   2.951   4.007 -0.4174  0.0262 -2.0162
 8959SOL     OW38338   4.464   3.178   4.277  0.0536 -0.2114  0.3006
 8959SOL    HW138339   4.471   3.084   4.293  3.5880  0.2883  1.7419
 8959SOL    HW238340   4.424   3.184   4.190 -1.2112 -2.0597  0.7416
 8960SOL     OW38341   4.658   0.823   3.002  0.6303 -0.9274 -0.4017
 8960SOL    HW138342   4.659   0.763   2.927  0.0379 -1.6442  0.1574
 8960SOL    HW238343   4.611   0.899   2.969 -1.9028 -2.1117  0.4280
 8961SOL     OW38344   2.113   2.817  10.633  0.4003  0.3537 -0.4734
 8961SOL    HW138345   2.083   2.889  10.689  0.9540 -0.6489  1.0984
 8961SOL    HW238346   2.038   2.794  10.577 -1.4044  1.7329  1.3574
 8962SOL     OW38347   4.174   1.280   2.484 -0.7545 -0.5995 -0.3950
 8962SOL    HW138348   4.180   1.189   2.455  0.0188 -0.8346  0.5084
 8962SOL    HW238349   4.224   1.335   2.424 -0.7358 -0.9826 -0.7275
 8963SOL     OW38350   4.323   1.313   5.611 -0.0662 -0.5014  0.1582
 8963SOL    HW138351   4.370   1.312   5.528 -1.4324  0.5414 -0.6121
 8963SOL    HW238352   4.256   1.252   5.581  0.9289 -0.7422 -1.5603
 8964SOL     OW38353   0.904   4.414  12.297  0.1255  0.2895  0.4709
 8964SOL    HW138354   0.840   4.474  12.260 -1.3335 -2.4365 -1.3875
 8964SOL    HW238355   0.989   4.450  12.270  0.6292 -1.7020 -0.5641
 8965SOL     OW38356   3.802   0.460   5.591  0.1696 -0.1645 -0.1722
 8965SOL    HW138357   3.873   0.511   5.630  0.3702  0.3587 -1.2471
 8965SOL    HW238358   3.759   0.519   5.530  1.3574  1.1759  0.2959
 8966SOL     OW38359   0.914   4.554   2.529  0.2642  0.1752 -0.5180
 8966SOL    HW138360   0.850   4.622   2.509 -1.5472 -0.7450  2.1168
 8966SOL    HW238361   0.900   4.502   2.450 -0.3028 -1.5829  0.7386
 8967SOL     OW38362   3.954   1.283  16.854 -0.9716 -0.2366 -0.3508
 8967SOL    HW138363   3.948   1.197  16.813  0.9360  0.2854 -1.7430
 8967SOL    HW238364   3.957   1.337  16.775 -1.7397  0.8816  0.3818
 8968SOL     OW38365   0.441   3.758   2.329  0.1822  0.4599  0.4029
 8968SOL    HW138366   0.369   3.822   2.319 -0.0782 -0.5309 -4.1325
 8968SOL    HW238367   0.395   3.678   2.305  1.9459 -0.7970  1.2722
 8969SOL     OW38368   3.138   4.185   2.052  0.3338 -0.9730  0.3943
 8969SOL    HW138369   3.211   4.207   2.110  1.9164  2.0460 -2.7245
 8969SOL    HW238370   3.184   4.200   1.969 -0.2638  1.2846  0.4734
 8970SOL     OW38371   4.303   3.018   5.331 -0.0143  0.3382 -0.6480
 8970SOL    HW138372   4.287   3.012   5.426  1.4843 -0.1432 -0.4315
 8970SOL    HW238373   4.279   3.110   5.318  2.1413  1.1378  1.0678
 8971SOL     OW38374   2.786   1.123   1.962 -0.7418 -0.5557  0.1110
 8971SOL    HW138375   2.714   1.131   1.899 -0.3466 -0.6041 -0.3397
 8971SOL    HW238376   2.801   1.029   1.952  1.6981 -0.2126  0.7514
 8972SOL     OW38377   1.548   1.966   8.094 -0.0663  0.1071 -0.3202
 8972SOL    HW138378   1.569   1.885   8.140 -1.5883 -0.4293 -0.5622
 8972SOL    HW238379   1.498   1.931   8.020  0.8174 -1.1399 -0.3370
 8973SOL     OW38380   1.665   3.956   4.057  0.4169  0.5873 -0.0750
 8973SOL    HW138381   1.708   3.888   4.109  1.1656  1.0578 -0.0829
 8973SOL    HW238382   1.609   3.915   3.990 -1.4908  0.1176  1.8112
 8974SOL     OW38383   1.115   3.831   1.277 -0.0425  0.0108 -0.5415
 8974SOL    HW138384   1.072   3.863   1.357 -0.1616  0.8837 -0.9620
 8974SOL    HW238385   1.203   3.816   1.313 -0.0883  1.3551  0.1027
 8975SOL     OW38386   4.580   1.349  14.400 -0.1328  0.0248 -0.4270
 8975SOL    HW138387   4.492   1.386  14.397  0.4518  1.2527 -1.9966
 8975SOL    HW238388   4.630   1.419  14.359  1.1107  0.7863  2.3407
 8976SOL     OW38389   3.554   3.742  16.201  0.2967 -0.7381  0.2536
 8976SOL    HW138390   3.629   3.684  16.184  1.8269  1.3747 -0.1626
 8976SOL    HW238391   3.479   3.684  16.190 -0.2559  0.0557 -0.1744
 8977SOL     OW38392   1.948   0.547  16.676 -0.1117  0.3025 -0.4187
 8977SOL    HW138393   1.995   0.509  16.601 -0.1653 -0.7966  0.1129
 8977SOL    HW238394   1.938   0.478  16.741  0.5645 -0.1821 -0.8233
 8978SOL     OW38395   3.816   0.730   1.715 -0.2763  0.0509  0.1822
 8978SOL    HW138396   3.761   0.742   1.792 -0.3739 -1.6676  0.3875
 8978SOL    HW238397   3.896   0.773   1.745 -0.8612  0.4299  1.1708
 8979SOL     OW38398   1.735   0.078   3.813  0.3475  0.1737 -0.2354
 8979SOL    HW138399   1.740   0.138   3.888  1.5266 -0.4387  0.1720
 8979SOL    HW238400   1.821   0.087   3.771 -0.3173  0.7356 -1.4809
 8980SOL     OW38401   0.544   2.409   9.193 -0.7500  0.0655 -0.2518
 8980SOL    HW138402   0.597   2.460   9.132  0.5357 -0.3287  0.5462
 8980SOL    HW238403   0.610   2.371   9.250  0.4072 -0.8335 -2.1713
 8981SOL     OW38404   1.229   2.805   1.056 -0.3978  0.4501  0.4237
 8981SOL    HW138405   1.281   2.818   1.136  0.7433 -1.0661 -0.0531
 8981SOL    HW238406   1.228   2.896   1.028  1.7316  0.1160 -0.7723
 8982SOL     OW38407   0.649   2.765   2.794  0.0798 -0.2401  0.4860
 8982SOL    HW138408   0.744   2.750   2.789 -0.3276 -2.5702 -0.2496
 8982SOL    HW238409   0.635   2.772   2.889 -0.1590 -1.9054  0.5723
 8983SOL     OW38410   1.393   0.534   8.872 -0.0972 -0.4808 -0.3772
 8983SOL    HW138411   1.435   0.614   8.904 -1.4436  0.1268 -0.1193
 8983SOL    HW238412   1.341   0.497   8.944 -0.3753  2.8978  1.1499
 8984SOL     OW38413   4.637   3.921  14.980 -0.0018 -0.2633 -0.4311
 8984SOL    HW138414   4.607   4.007  15.010 -0.2057  0.2827 -2.2023
 8984SOL    HW238415   4.657   3.876  15.062 -0.5371  1.0624  0.4315
 8985SOL     OW38416   0.647   1.878   9.717 -0.0542  0.4954  0.3579
 8985SOL    HW138417   0.553   1.868   9.732  0.5842 -2.1227  2.5917
 8985SOL    HW238418   0.654   1.966   9.678  0.4754 -0.3151 -1.4087
 8986SOL     OW38419   0.312   4.121   7.581 -0.1924  0.0180 -0.5586
 8986SOL    HW138420   0.257   4.172   7.522  1.6535 -1.6030 -3.6519
 8986SOL    HW238421   0.397   4.144   7.544  1.2435 -0.3724  2.4345
 8987SOL     OW38422   2.456   4.521  15.344  0.3913  0.1977 -0.2004
 8987SOL    HW138423   2.521   4.553  15.281  0.4615 -1.0161 -0.7281
 8987SOL    HW238424   2.405   4.483  15.273 -0.6947  0.5584  0.3891
 8988SOL     OW38425   3.229   1.676   1.895 -0.4759  0.7568  0.1852
 8988SOL    HW138426   3.267   1.599   1.853  1.5700  1.1081  1.3875
 8988SOL    HW238427   3.215   1.734   1.821  0.7430  0.1862 -0.4777
 8989SOL     OW38428   2.807   2.711   5.183 -0.0651 -0.5263  0.9550
 8989SOL    HW138429   2.869   2.721   5.111  1.2715 -1.3065  1.9884
 8989SOL    HW238430   2.748   2.643   5.151  1.0463 -0.6485 -0.8282
 8990SOL     OW38431   1.805   2.030   3.148 -0.0362  0.2959 -0.0223
 8990SOL    HW138432   1.794   2.064   3.059  0.7051  3.7830  1.2200
 8990SOL    HW238433   1.723   2.067   3.182 -0.1066  0.4878 -0.3989
 8991SOL     OW38434   3.159   2.171   8.357  0.1227 -0.1208 -0.5801
 8991SOL    HW138435   3.236   2.124   8.389 -0.5931 -0.5677  0.4562
 8991SOL    HW238436   3.094   2.101   8.355 -2.2699  2.0964 -0.2442
 8992SOL     OW38437   1.499   4.209   6.407  0.4563 -0.7592 -0.2270
 8992SOL    HW138438   1.522   4.122   6.441  1.9464 -0.4538 -0.4797
 8992SOL    HW238439   1.565   4.212   6.338  0.1550  3.1060 -0.3182
 8993SOL     OW38440   3.792   4.575  15.442  0.0764  0.1395  0.1851
 8993SOL    HW138441   3.750   4.509  15.498 -0.0421  1.0551  1.1760
 8993SOL    HW238442   3.872   4.526  15.426  0.1355  0.7160 -1.2926
 8994SOL     OW38443   3.131   4.072   6.767  0.0090  0.1826  0.1914
 8994SOL    HW138444   3.050   4.021   6.778 -0.4739  0.4984 -1.8585
 8994SOL    HW238445   3.133   4.089   6.673 -0.6440 -0.5355  0.0440
 8995SOL     OW38446   3.011   1.332   6.672  0.0863 -0.5647 -0.0422
 8995SOL    HW138447   3.031   1.270   6.602  0.9469 -0.7079  0.3412
 8995SOL    HW238448   2.932   1.296   6.713 -0.0437  0.9705  1.0430
 8996SOL     OW38449   3.832   1.066   7.994  0.5498  0.2233  0.6380
 8996SOL    HW138450   3.777   1.145   7.988  1.8291  0.8674 -2.5695
 8996SOL    HW238451   3.859   1.050   7.904  0.6559 -3.3380  1.2910
 8997SOL     OW38452   3.512   3.248   7.178 -0.0829  0.1393 -0.1308
 8997SOL    HW138453   3.465   3.295   7.110 -0.0371 -0.7578 -0.7889
 8997SOL    HW238454   3.569   3.191   7.125 -0.4262 -2.1695  1.9449
 8998SOL     OW38455   3.886   1.533  13.361 -0.6220  0.3600 -0.1137
 8998SOL    HW138456   3.799   1.535  13.323 -1.1131 -0.8357  0.9395
 8998SOL    HW238457   3.907   1.619  13.398  1.8417 -0.3162  0.0376
 8999SOL     OW38458   4.438   4.561   3.920 -0.1429  0.7903  0.0950
 8999SOL    HW138459   4.510   4.624   3.913  0.8398 -0.2994  0.2273
 8999SOL    HW238460   4.428   4.543   3.826 -1.0526 -1.0360  0.5431
 9000SOL     OW38461   2.822   4.320   1.898  0.0980  0.0962 -0.1277
 9000SOL    HW138462   2.783   4.394   1.944 -0.5216  0.5625 -1.3989
 9000SOL    HW238463   2.757   4.296   1.831 -0.5939 -0.7661  0.8407
 9001SOL     OW38464   0.591   4.682   4.722  0.2031  0.2389  0.0017
 9001SOL    HW138465   0.563   4.671   4.631 -1.3669  2.2255  0.2507
 9001SOL    HW238466   0.620   0.053   4.712 -1.0173  1.0309  3.6582
 9002SOL     OW38467   2.027   3.596   8.547  0.7578  0.2572  0.0565
 9002SOL    HW138468   2.041   3.689   8.558  1.6615  0.1657 -0.3396
 9002SOL    HW238469   1.993   3.603   8.458 -0.5088 -0.3900  0.4860
 9003SOL     OW38470   3.342   4.462  14.069  0.5864  0.2625  0.2043
 9003SOL    HW138471   3.284   4.534  14.041  0.7290  0.3359  0.1014
 9003SOL    HW238472   3.279   4.400  14.105  1.5972  0.9596  3.1924
 9004SOL     OW38473   4.687   2.570  13.094  0.2724 -0.1749  0.0209
 9004SOL    HW138474   0.046   2.621  13.076  0.1002  0.0173 -0.2076
 9004SOL    HW238475   4.615   2.632  13.082 -0.2860 -1.1980 -1.9176
 9005SOL     OW38476   4.398   3.666   3.332 -0.1117  0.1069  0.3070
 9005SOL    HW138477   4.387   3.622   3.248  1.8334  0.6834 -0.2412
 9005SOL    HW238478   4.352   3.749   3.322  0.3325  0.1478 -1.4083
 9006SOL     OW38479   2.884   2.141  11.507 -0.0844 -0.5492  0.5805
 9006SOL    HW138480   2.960   2.194  11.484 -0.6175  0.6511  1.5774
 9006SOL    HW238481   2.827   2.214  11.529  0.7171  0.5415 -0.9192
 9007SOL     OW38482   4.691   1.704   5.523 -0.0781  0.0553  0.3783
 9007SOL    HW138483   0.009   1.706   5.611  0.1908  2.7086  0.2223
 9007SOL    HW238484   0.001   1.621   5.488 -0.2265  1.1223 -2.2986
 9008SOL     OW38485   3.312   2.623   7.583 -0.5227 -0.4230  0.1289
 9008SOL    HW138486   3.230   2.636   7.630 -0.2984 -2.7478  1.1523
 9008SOL    HW238487   3.294   2.567   7.507  0.6472  0.5841 -0.8983
 9009SOL     OW38488   4.134   2.609   9.145 -0.2752 -0.0736 -0.4653
 9009SOL    HW138489   4.134   2.519   9.111 -2.6497 -0.1459 -0.2728
 9009SOL    HW238490   4.213   2.604   9.198 -1.2107 -1.8033  0.7644
 9010SOL     OW38491   2.021   3.583  16.121  0.1841  0.3598 -0.3447
 9010SOL    HW138492   2.077   3.573  16.199 -1.1918 -2.8680  0.2337
 9010SOL    HW238493   2.081   3.607  16.050  2.5938  1.8867  2.1943
 9011SOL     OW38494   2.296   2.521   8.902 -0.2254  0.1022  0.7563
 9011SOL    HW138495   2.378   2.516   8.950 -0.6791  1.1932  1.6475
 9011SOL    HW238496   2.293   2.435   8.860  1.9262  0.0547  0.7408
 9012SOL     OW38497   1.363   2.140   0.210  0.2107  0.5429 -0.6306
 9012SOL    HW138498   1.301   2.191   0.158  0.2218  2.4509  1.2394
 9012SOL    HW238499   1.302   2.077   0.248 -0.6470  1.1348 -1.0168
 9013SOL     OW38500   1.571   3.295   3.728 -0.3642 -0.3842 -0.2658
 9013SOL    HW138501   1.593   3.316   3.637  3.3837 -0.4342  0.6038
 9013SOL    HW238502   1.496   3.237   3.730  0.4840 -1.5035 -0.9911
 9014SOL     OW38503   0.853   0.136   6.805  0.2730 -0.2794 -0.1046
 9014SOL    HW138504   0.902   0.105   6.729 -2.3254 -1.9776 -1.0451
 9014SOL    HW238505   0.794   0.204   6.772  1.3324  1.1841  0.9585
 9015SOL     OW38506   3.670   2.492   5.559 -0.8186 -0.1875  0.0208
 9015SOL    HW138507   3.739   2.559   5.555 -1.2646  0.3648  1.6063
 9015SOL    HW238508   3.723   2.423   5.600 -1.9781 -0.7980  0.4667
 9016SOL     OW38509   2.826   2.286   3.001  0.0983  0.4541 -0.3551
 9016SOL    HW138510   2.907   2.237   2.994  0.7722  1.8516 -2.4407
 9016SOL    HW238511   2.844   2.361   2.944 -1.7886  1.5267  0.4330
 9017SOL     OW38512   2.225   1.339   2.904 -0.3076 -0.1749 -0.3359
 9017SOL    HW138513   2.152   1.305   2.853 -3.0780  1.2738  2.6790
 9017SOL    HW238514   2.296   1.314   2.844  0.7299 -0.0878  0.8554
 9018SOL     OW38515   2.245   4.625   4.812  0.5548  0.3559 -0.0531
 9018SOL    HW138516   2.168   4.593   4.765  0.6587 -1.0101  0.6768
 9018SOL    HW238517   2.295   4.544   4.829 -1.3157 -0.9608 -0.8149
 9019SOL     OW38518   4.479   4.022   0.831  0.4347  0.0271  0.8831
 9019SOL    HW138519   4.527   4.073   0.766 -0.3795 -0.8494 -0.3968
 9019SOL    HW238520   4.543   4.025   0.903  0.7668 -0.5153  0.6111
 9020SOL     OW38521   2.424   4.363   8.123 -0.3197 -0.1828  0.2590
 9020SOL    HW138522   2.371   4.299   8.171 -2.0273  0.1721 -1.1388
 9020SOL    HW238523   2.366   4.440   8.117  0.8009  0.6812  0.6460
 9021SOL     OW38524   2.849   3.814   2.785  0.3424 -0.3867 -0.0184
 9021SOL    HW138525   2.817   3.744   2.728 -1.4050 -0.3632  0.9513
 9021SOL    HW238526   2.770   3.830   2.837  1.1565 -0.6821  1.3267
 9022SOL     OW38527   1.471   3.539   5.474  0.1808  0.0765  0.0483
 9022SOL    HW138528   1.375   3.545   5.475  0.3530  2.8985 -0.7191
 9022SOL    HW238529   1.490   3.564   5.384 -0.7023  1.5090  0.2556
 9023SOL     OW38530   2.000   0.325   1.328 -0.2085 -0.5245  0.2328
 9023SOL    HW138531   2.044   0.409   1.338 -1.1513 -0.2470  2.1667
 9023SOL    HW238532   1.906   0.345   1.321 -0.6596 -2.4342  0.8191
 9024SOL     OW38533   2.009   3.884  13.472 -0.0413  0.3098  0.2735
 9024SOL    HW138534   2.055   3.963  13.444 -0.9753  0.8703  0.3268
 9024SOL    HW238535   2.080   3.820  13.476  0.3191  0.7705  1.5077
 9025SOL     OW38536   2.682   2.819   4.438  0.2089  0.0546 -0.3151
 9025SOL    HW138537   2.742   2.807   4.511  0.6147 -0.7981 -0.7894
 9025SOL    HW238538   2.646   2.906   4.450 -0.6978 -0.1297 -1.5991
 9026SOL     OW38539   4.603   1.226  14.636  0.2115 -0.0142  0.0320
 9026SOL    HW138540   4.614   1.281  14.558 -2.9042  0.6993  0.0890
 9026SOL    HW238541   4.594   1.145  14.587  0.5041 -1.8463  2.9985
 9027SOL     OW38542   3.443   4.184   8.612 -0.2713  0.2022 -0.3908
 9027SOL    HW138543   3.420   4.234   8.533  1.0167  0.6821 -0.4743
 9027SOL    HW238544   3.416   4.102   8.570 -0.0915 -0.0367 -0.0337
 9028SOL     OW38545   0.078   2.414  13.434 -0.3864  0.3045  0.7577
 9028SOL    HW138546   0.025   2.476  13.484 -1.2162  1.5419 -1.6567
 9028SOL    HW238547   0.105   2.465  13.358 -1.7916 -1.3669 -0.8676
 9029SOL     OW38548   2.490   3.593   0.965 -0.2447  0.5589 -0.0880
 9029SOL    HW138549   2.486   3.576   0.870  1.9924 -0.1008 -0.0634
 9029SOL    HW238550   2.396   3.579   0.977 -0.0036 -0.9554  0.0574
 9030SOL     OW38551   1.256   0.994   8.191 -0.6489  0.5732 -0.4965
 9030SOL    HW138552   1.294   0.906   8.189 -2.0895 -0.0559 -0.4955
 9030SOL    HW238553   1.298   1.043   8.261 -1.4145 -0.8746  0.9906
 9031SOL     OW38554   3.669   3.321   4.411 -0.2948 -0.2717 -0.1850
 9031SOL    HW138555   3.744   3.363   4.369 -1.0211  0.8030 -0.3825
 9031SOL    HW238556   3.647   3.384   4.479  1.8632 -0.3141  0.5740
 9032SOL     OW38557   1.049   4.214   3.316 -0.1067  0.0723  0.0382
 9032SOL    HW138558   0.998   4.156   3.259 -0.4763  1.6217 -1.1938
 9032SOL    HW238559   1.001   4.216   3.399  1.2684 -1.1317  0.8624
 9033SOL     OW38560   3.712   2.213   5.949 -0.5926 -0.5656  0.1004
 9033SOL    HW138561   3.672   2.299   5.962  1.1105  0.4631 -1.4617
 9033SOL    HW238562   3.793   2.230   5.996 -1.2450  0.2507  0.9167
 9034SOL     OW38563   0.524   0.042  12.184  0.3546  0.1179  0.2885
 9034SOL    HW138564   0.557   0.126  12.215  0.5949 -0.1290  0.6988
 9034SOL    HW238565   0.609   4.719  12.175 -0.6602 -1.5192 -1.5326
 9035SOL     OW38566   1.102   2.127  11.079 -0.4283 -0.1254 -0.3131
 9035SOL    HW138567   1.042   2.064  11.039 -3.1144  1.2270  1.5858
 9035SOL    HW238568   1.111   2.188  11.005  2.4612 -1.1345 -0.7983
 9036SOL     OW38569   3.186   0.273  15.807 -0.5388 -0.4263  0.0119
 9036SOL    HW138570   3.139   0.275  15.724 -1.4639  0.5799  0.5594
 9036SOL    HW238571   3.111   0.292  15.864  0.1345 -0.6475  0.9825
 9037SOL     OW38572   0.933   1.655   6.259 -0.5210  0.3664 -0.8574
 9037SOL    HW138573   0.978   1.718   6.315  0.8519 -0.4960 -0.9986
 9037SOL    HW238574   0.888   1.709   6.195 -1.0058 -0.1991 -1.0008
 9038SOL     OW38575   3.317   0.388   6.232 -0.3673  0.1687  0.3049
 9038SOL    HW138576   3.351   0.347   6.313  0.6515 -0.0509 -0.2329
 9038SOL    HW238577   3.398   0.429   6.203 -0.5474  0.8409  0.7622
 9039SOL     OW38578   3.149   0.829   3.615 -0.0932  0.3328 -0.0154
 9039SOL    HW138579   3.093   0.866   3.547  1.0675  0.4891 -0.8860
 9039SOL    HW238580   3.155   0.897   3.682 -0.1800  0.4708 -0.1472
 9040SOL     OW38581   2.309   2.571   4.543 -0.4616 -0.1936 -0.2085
 9040SOL    HW138582   2.307   2.664   4.562 -1.8386 -0.4044  0.6825
 9040SOL    HW238583   2.397   2.574   4.505  0.1302 -1.0656  1.0880
 9041SOL     OW38584   3.303   3.618   6.586 -0.9806  0.0838  0.4671
 9041SOL    HW138585   3.322   3.670   6.508 -2.8100  0.9368  0.5919
 9041SOL    HW238586   3.368   3.657   6.645 -0.6766 -0.8401  0.7346
 9042SOL     OW38587   3.718   4.171   4.268  0.1833  0.2033  0.0845
 9042SOL    HW138588   3.637   4.178   4.319  1.2064 -1.3494  1.9385
 9042SOL    HW238589   3.773   4.134   4.338  0.4482 -1.1715 -0.8426
 9043SOL     OW38590   0.763   0.315  10.361  0.3994  0.3248 -0.4281
 9043SOL    HW138591   0.788   0.223  10.352 -1.7329 -0.2739 -0.1433
 9043SOL    HW238592   0.669   0.299  10.367  0.2939  1.0871 -0.0451
 9044SOL     OW38593   3.566   2.901   1.809  0.2758 -0.2175  0.2526
 9044SOL    HW138594   3.585   2.871   1.720 -1.2467 -2.8351  0.8074
 9044SOL    HW238595   3.590   2.992   1.793  0.2853 -0.3828 -0.7209
 9045SOL     OW38596   4.298   0.377  10.903  0.0073  0.5001  0.3445
 9045SOL    HW138597   4.341   0.459  10.879  1.5897  0.2060  2.1715
 9045SOL    HW238598   4.223   0.374  10.844 -0.7516  0.3138  1.3054
 9046SOL     OW38599   0.717   3.140   9.577  0.7501 -0.4743  0.2677
 9046SOL    HW138600   0.639   3.101   9.538  1.1851  2.0840 -3.1529
 9046SOL    HW238601   0.783   3.121   9.510  0.8469 -0.2022  0.2879
 9047SOL     OW38602   1.126   3.845   3.536  0.0083  0.4197 -0.1319
 9047SOL    HW138603   1.159   3.933   3.518 -1.3827  1.2596  1.3866
 9047SOL    HW238604   1.206   3.803   3.567 -1.0433 -0.0299  2.0400
 9048SOL     OW38605   2.176   2.700  13.626 -0.0507 -0.3453 -0.2447
 9048SOL    HW138606   2.227   2.780  13.610  0.3360 -0.4442  0.4679
 9048SOL    HW238607   2.217   2.656  13.552 -0.1517 -0.1026 -0.4443
 9049SOL     OW38608   0.794   1.108  12.298  0.8563 -0.0434  0.1739
 9049SOL    HW138609   0.836   1.099  12.384 -0.8542  3.1160  1.3547
 9049SOL    HW238610   0.784   1.018  12.269 -0.9389 -0.5660  2.3352
 9050SOL     OW38611   0.663   1.477   8.155 -0.2071 -0.3634 -0.1768
 9050SOL    HW138612   0.731   1.524   8.203  1.3768 -2.6897 -0.1146
 9050SOL    HW238613   0.588   1.518   8.198  0.4707  0.1612  0.5040
 9051SOL     OW38614   0.691   2.824   4.077  0.7019  0.1756 -0.6737
 9051SOL    HW138615   0.635   2.830   4.155 -1.3468  0.9149 -2.2086
 9051SOL    HW238616   0.771   2.787   4.114  0.2037 -1.0902 -0.8852
 9052SOL     OW38617   1.721   0.588  11.337 -0.6859  0.0406 -0.1461
 9052SOL    HW138618   1.701   0.630  11.253 -1.6160 -3.5334 -1.7152
 9052SOL    HW238619   1.789   0.522  11.326  1.4991  2.1071  1.2242
 9053SOL     OW38620   1.850   3.915  17.556 -0.3299 -0.0289 -0.4392
 9053SOL    HW138621   1.892   3.892  17.473  0.7472 -0.6265  0.2767
 9053SOL    HW238622   1.847   4.010  17.547 -0.6150 -0.0503 -0.5911
 9054SOL     OW38623   1.287   1.061   4.676  0.0263  0.2467 -0.4915
 9054SOL    HW138624   1.297   0.966   4.668  0.2722 -0.0706  3.6549
 9054SOL    HW238625   1.357   1.090   4.735 -0.8330  0.7225  0.2980
 9055SOL     OW38626   0.257   2.617   5.696 -0.1015  0.1125  0.3038
 9055SOL    HW138627   0.162   2.615   5.710 -0.1053 -1.1233  0.1028
 9055SOL    HW238628   0.291   2.673   5.765 -0.7035  0.3148  0.4372
 9056SOL     OW38629   2.559   1.289   3.032  0.3737 -0.0885  0.0102
 9056SOL    HW138630   2.550   1.370   2.981 -1.1214 -0.6947 -0.6839
 9056SOL    HW238631   2.597   1.230   2.967  2.1696  3.3524 -2.0718
 9057SOL     OW38632   1.876   4.711   2.070 -0.0454 -0.4210  0.2852
 9057SOL    HW138633   1.835   0.064   2.116 -0.7440 -0.3595 -0.4309
 9057SOL    HW238634   1.829   4.701   1.987  0.0419 -0.9871  0.3031
 9058SOL     OW38635   1.304   3.956  14.076 -0.3606  0.8782  0.1973
 9058SOL    HW138636   1.373   4.003  14.029  0.8998 -0.4904  0.6763
 9058SOL    HW238637   1.271   3.896  14.010  1.1753 -0.7870  0.9390
 9059SOL     OW38638   0.236   1.417   5.831  0.0448 -0.0458  0.8668
 9059SOL    HW138639   0.199   1.373   5.907 -0.3738  0.1980  0.8046
 9059SOL    HW238640   0.286   1.481   5.881  1.1131  0.7302 -1.2000
 9060SOL     OW38641   1.456   3.781  12.752 -0.1950 -0.2895  0.5330
 9060SOL    HW138642   1.383   3.843  12.744  0.3981  0.3600  0.1024
 9060SOL    HW238643   1.505   3.821  12.823 -1.5993  0.7826  0.9116
 9061SOL     OW38644   1.032   0.240   0.660 -0.2582  0.1714 -0.2127
 9061SOL    HW138645   0.941   0.262   0.641 -0.4253 -0.9936 -0.8075
 9061SOL    HW238646   1.075   0.255   0.575 -2.3791  0.4771 -1.2251
 9062SOL     OW38647   4.577   1.062   3.871 -0.3887  0.1543 -0.1263
 9062SOL    HW138648   4.651   1.113   3.840 -0.2822  0.8250  1.2180
 9062SOL    HW238649   4.568   0.997   3.801 -0.4393 -0.7476  0.7118
 9063SOL     OW38650   1.774   1.961   0.703  0.1075 -0.2973 -0.3179
 9063SOL    HW138651   1.771   1.972   0.608  2.8564 -0.1063 -0.3828
 9063SOL    HW238652   1.715   1.885   0.711 -0.4152  0.1035 -0.3807
 9064SOL     OW38653   2.675   3.881   8.619  0.0851 -0.2259  0.3678
 9064SOL    HW138654   2.627   3.800   8.635  1.9894 -1.2885  0.7149
 9064SOL    HW238655   2.725   3.842   8.548  1.2507  1.7921  0.0962
 9065SOL     OW38656   4.370   1.865   3.248 -0.7726  0.3221 -0.2203
 9065SOL    HW138657   4.303   1.804   3.219 -0.8054  0.4342 -0.3837
 9065SOL    HW238658   4.398   1.895   3.162  0.5177 -1.2478 -0.3341
 9066SOL     OW38659   4.212   2.387   9.428  0.0932 -0.4677  0.2555
 9066SOL    HW138660   4.290   2.339   9.401  1.4292  2.6085 -1.3241
 9066SOL    HW238661   4.254   2.472   9.441 -3.7500  1.6865 -1.2443
 9067SOL     OW38662   2.692   3.867   1.444 -0.7135 -0.5230 -0.3808
 9067SOL    HW138663   2.723   3.901   1.528  2.3773 -0.1794 -1.6502
 9067SOL    HW238664   2.718   3.775   1.447  1.7201  0.1467 -0.7586
 9068SOL     OW38665   0.512   1.318   8.882 -0.4772 -0.0729  0.1434
 9068SOL    HW138666   0.484   1.402   8.847 -1.0668 -0.1175  0.5093
 9068SOL    HW238667   0.427   1.274   8.886  0.2330 -1.5678 -1.2386
 9069SOL     OW38668   3.983   2.002   9.295 -0.7603  0.0142  0.2777
 9069SOL    HW138669   3.925   1.929   9.313  1.0981 -0.8254  2.8891
 9069SOL    HW238670   4.062   1.953   9.317 -0.4279  0.1062 -0.6809
 9070SOL     OW38671   1.916   2.738   2.115  0.1349 -0.0291 -0.2776
 9070SOL    HW138672   1.876   2.768   2.197  0.5422  1.0362 -0.4688
 9070SOL    HW238673   1.871   2.791   2.049  0.9976 -1.2949 -1.8898
 9071SOL     OW38674   0.237   0.842   5.537 -0.0277  0.3697 -0.1800
 9071SOL    HW138675   0.157   0.878   5.499 -1.1031 -0.4101  1.3368
 9071SOL    HW238676   0.224   0.757   5.496  0.9124 -0.2160  0.7461
 9072SOL     OW38677   1.517   0.202   3.333 -0.1244 -0.0068 -0.0722
 9072SOL    HW138678   1.489   0.119   3.294  2.1345 -0.7953  0.0007
 9072SOL    HW238679   1.531   0.181   3.425  1.9580 -3.1134 -1.0964
 9073SOL     OW38680   0.093   4.161  17.030  0.0359 -0.1799  0.1505
 9073SOL    HW138681   0.067   4.164  16.938 -1.4135  0.2518  0.5821
 9073SOL    HW238682   0.059   4.074  17.049 -0.9222  0.2882  0.5802
 9074SOL     OW38683   4.041   1.602  13.848 -0.9277  0.4119 -0.5227
 9074SOL    HW138684   4.115   1.560  13.803 -0.5849  2.0531 -1.4631
 9074SOL    HW238685   4.038   1.551  13.929 -0.0831  1.4300  0.1471
 9075SOL     OW38686   1.131   4.646   4.004  0.6716 -0.7690  0.1919
 9075SOL    HW138687   1.220   4.629   4.036  1.2804 -0.6052 -1.4069
 9075SOL    HW238688   1.145   4.651   3.910  0.6394  0.3181  0.2390
 9076SOL     OW38689   1.185   1.023   4.998 -0.4830 -0.7541 -0.1460
 9076SOL    HW138690   1.114   1.077   5.031  1.7386  1.4385  1.0416
 9076SOL    HW238691   1.198   1.065   4.913 -2.3339  1.5269  0.7229
 9077SOL     OW38692   2.594   1.811   9.607  0.4285  0.2094 -0.0340
 9077SOL    HW138693   2.605   1.763   9.526  0.0027  1.8297 -1.0463
 9077SOL    HW238694   2.636   1.896   9.597 -0.4390  0.5056 -1.1509
 9078SOL     OW38695   4.223   2.110  13.680  0.7289 -0.1601  0.2594
 9078SOL    HW138696   4.287   2.133  13.747 -1.2163  1.7219  1.4254
 9078SOL    HW238697   4.170   2.046  13.727  0.9948 -0.9680 -0.5182
 9079SOL     OW38698   0.026   3.590   8.089 -0.0519  0.3507 -0.1406
 9079SOL    HW138699   4.686   3.590   8.014  0.7156 -3.6150 -0.7528
 9079SOL    HW238700   0.098   3.641   8.053  0.4634 -0.9367 -0.9431
 9080SOL     OW38701   3.926   0.804   8.137  0.3382 -0.3188 -0.7674
 9080SOL    HW138702   3.962   0.761   8.060 -0.4247  0.5182 -1.6040
 9080SOL    HW238703   3.876   0.875   8.096  0.6035 -1.1409 -2.5279
 9081SOL     OW38704   1.513   3.237   7.198  0.1983  0.1593  0.4583
 9081SOL    HW138705   1.584   3.234   7.135 -0.9023  1.3349 -0.8452
 9081SOL    HW238706   1.550   3.242   7.286 -0.7048  1.5490  0.7657
 9082SOL     OW38707   2.972   0.769   4.546  0.1300  0.0180 -0.2490
 9082SOL    HW138708   3.060   0.806   4.548 -0.1546  0.6791  0.1755
 9082SOL    HW238709   2.980   0.690   4.492  0.3714  0.6373 -1.1147
 9083SOL     OW38710   2.559   0.917  13.475  0.3799 -0.1248  0.0724
 9083SOL    HW138711   2.533   0.927  13.384 -1.9973  1.0063  0.8617
 9083SOL    HW238712   2.576   0.823  13.477  1.8528  0.1045 -1.1740
 9084SOL     OW38713   4.394   2.888   3.741  0.5914  0.2415 -0.1413
 9084SOL    HW138714   4.305   2.923   3.746 -0.5989 -2.4403 -2.2971
 9084SOL    HW238715   4.437   2.964   3.780  0.9133 -0.2587  0.4722
 9085SOL     OW38716   2.805   2.011   3.253 -0.5757  0.4656  0.6630
 9085SOL    HW138717   2.898   1.987   3.262 -0.4561  0.8920  0.5704
 9085SOL    HW238718   2.816   2.102   3.226  1.5044 -0.0277 -0.1432
 9086SOL     OW38719   2.622   4.282  16.342  0.4906  0.1786 -0.3204
 9086SOL    HW138720   2.541   4.313  16.383 -0.0853 -2.4922  0.5548
 9086SOL    HW238721   2.671   4.251  16.418  1.7223  1.3625 -0.6247
 9087SOL     OW38722   4.644   1.717   5.849 -0.5969  0.6894 -0.1357
 9087SOL    HW138723   4.616   1.629   5.876 -1.8518  0.9042 -0.6991
 9087SOL    HW238724   0.010   1.711   5.891 -0.4545 -0.1589 -0.5469
 9088SOL     OW38725   0.968   2.501   7.410  0.1692  0.0507  0.0262
 9088SOL    HW138726   1.043   2.551   7.378 -0.2211  0.6284  0.0162
 9088SOL    HW238727   1.000   2.412   7.427 -0.4977 -0.2255 -0.1714
 9089SOL     OW38728   2.710   1.145   3.732 -0.4980  0.0672 -0.2435
 9089SOL    HW138729   2.657   1.072   3.699 -2.7955  0.4158  2.6963
 9089SOL    HW238730   2.782   1.122   3.673  0.7291 -0.7163  1.5424
 9090SOL     OW38731   0.332   2.608   4.253  0.3969  0.1242  0.4223
 9090SOL    HW138732   0.243   2.634   4.279 -1.0786 -1.7684 -2.7437
 9090SOL    HW238733   0.355   2.529   4.302  2.5429 -0.3081 -1.2773
 9091SOL     OW38734   0.009   3.903  10.851  0.4890  0.1331 -0.1104
 9091SOL    HW138735   4.687   3.962  10.913 -1.4726  0.1359 -1.4550
 9091SOL    HW238736   0.028   3.948  10.769  2.1688 -2.1158 -0.9851
 9092SOL     OW38737   4.699   3.541   6.853 -0.2599  0.0717 -0.5227
 9092SOL    HW138738   4.627   3.504   6.904  0.7013 -0.3228  0.5378
 9092SOL    HW238739   0.059   3.515   6.900 -1.3433 -2.1354  0.0784
 9093SOL     OW38740   3.061   1.704   8.853  0.2353  0.8325 -0.1712
 9093SOL    HW138741   3.144   1.657   8.850  0.6801  1.5326  1.2669
 9093SOL    HW238742   3.006   1.641   8.899 -0.4926  1.1733 -0.5633
 9094SOL     OW38743   3.691   4.550   7.399 -0.6124  0.6213  0.2030
 9094SOL    HW138744   3.715   4.629   7.351 -1.0008  0.7047  0.1450
 9094SOL    HW238745   3.597   4.562   7.414 -0.7555  0.1483 -0.2907
 9095SOL     OW38746   2.637   2.119   1.119  0.2396  0.3387  0.3993
 9095SOL    HW138747   2.636   2.035   1.075 -1.2850  1.2096 -1.2328
 9095SOL    HW238748   2.731   2.135   1.114  0.3382 -0.2549  0.3543
 9096SOL     OW38749   3.357   2.560  15.063 -0.1100 -0.2963  0.5091
 9096SOL    HW138750   3.399   2.560  15.149 -0.1360  0.1601  0.5213
 9096SOL    HW238751   3.416   2.610  15.007 -1.0699  1.5327  1.1379
 9097SOL     OW38752   1.958   3.746  14.118  0.2396 -0.2643 -0.1416
 9097SOL    HW138753   1.886   3.752  14.055 -1.6816 -0.1790  2.0525
 9097SOL    HW238754   1.977   3.840  14.125 -1.5689  0.2131 -1.5273
 9098SOL     OW38755   0.423   1.976  14.566 -0.5722  0.1431  0.3938
 9098SOL    HW138756   0.498   2.018  14.609 -0.7911  2.3783 -1.4454
 9098SOL    HW238757   0.352   2.025  14.607  0.0942  0.1389  1.5735
 9099SOL     OW38758   0.284   3.397   6.032  0.5151  0.1327 -0.3060
 9099SOL    HW138759   0.220   3.450   5.983  2.8243  2.6443 -0.5812
 9099SOL    HW238760   0.334   3.463   6.080  0.9352  0.5801 -1.3494
 9100SOL     OW38761   0.122   3.283   4.169  0.4219  0.6477  0.2112
 9100SOL    HW138762   0.087   3.235   4.094 -1.1946  1.9810  0.1156
 9100SOL    HW238763   0.045   3.289   4.225  0.9906 -1.0648  1.1822
 9101SOL     OW38764   1.514   1.121   4.867  0.0191  0.0572 -0.4781
 9101SOL    HW138765   1.543   1.031   4.857 -0.3608 -0.0629 -0.4986
 9101SOL    HW238766   1.561   1.142   4.948 -2.0757  1.0601  0.5034
 9102SOL     OW38767   2.092   1.902   2.715  0.1099 -0.0679 -0.3105
 9102SOL    HW138768   2.164   1.916   2.653 -1.1218 -0.6136 -1.8662
 9102SOL    HW238769   2.090   1.983   2.766 -0.6150 -0.9213  1.0065
 9103SOL     OW38770   3.981   4.337   5.236  0.5499 -0.3774  0.3402
 9103SOL    HW138771   3.966   4.430   5.218 -0.4350 -0.8979 -1.5109
 9103SOL    HW238772   3.944   4.325   5.323  0.8029  0.8180  0.6115
 9104SOL     OW38773   4.007   3.208   0.595  0.0029  0.1319  0.1873
 9104SOL    HW138774   3.971   3.259   0.668 -2.3883  1.4823 -1.9083
 9104SOL    HW238775   4.055   3.142   0.644 -0.0635 -0.5204 -0.6201
 9105SOL     OW38776   2.390   3.682   2.920  0.4489  0.1792 -0.1738
 9105SOL    HW138777   2.390   3.607   2.861  0.2373 -0.1266  0.2178
 9105SOL    HW238778   2.444   3.748   2.876  0.8533  0.9553  1.5061
 9106SOL     OW38779   4.646   3.953  11.248 -0.3019 -0.0818  0.0216
 9106SOL    HW138780   4.676   4.040  11.221  0.5417 -0.9551 -1.8020
 9106SOL    HW238781   4.552   3.941  11.234 -0.1278  0.3635 -1.5116
 9107SOL     OW38782   3.716   2.806   1.303  0.3253  0.6408 -0.0664
 9107SOL    HW138783   3.694   2.721   1.264 -1.5162  1.0451  0.1024
 9107SOL    HW238784   3.789   2.832   1.247  0.7129  0.4765  0.3666
 9108SOL     OW38785   2.124   1.632   6.008  0.2299  0.3110  0.1522
 9108SOL    HW138786   2.101   1.693   6.078  2.8781  1.5107 -0.0247
 9108SOL    HW238787   2.216   1.653   5.995 -0.0201  0.7917 -0.9265
 9109SOL     OW38788   0.293   0.534   6.636  0.3742 -0.2400 -0.0680
 9109SOL    HW138789   0.334   0.585   6.566  2.0082 -1.7767 -0.2267
 9109SOL    HW238790   0.231   0.601   6.663  0.5229  0.7929 -2.3076
 9110SOL     OW38791   3.472   0.322  12.364  0.2774  0.5508  0.2046
 9110SOL    HW138792   3.429   0.402  12.336 -1.5286 -0.8007 -0.8989
 9110SOL    HW238793   3.495   0.270  12.287  0.3911  0.9196 -0.0083
 9111SOL     OW38794   0.263   2.522  17.366 -0.7138 -0.2172  0.0160
 9111SOL    HW138795   0.225   2.562  17.288 -1.0048  3.3153  1.9379
 9111SOL    HW238796   0.258   2.589  17.435  3.1095 -0.4171  0.5004
 9112SOL     OW38797   3.336   3.310   2.600 -0.0981  0.5515  0.0136
 9112SOL    HW138798   3.316   3.322   2.508 -1.7939  1.6077  0.5136
 9112SOL    HW238799   3.323   3.396   2.641  2.8852  0.6288  0.8312
 9113SOL     OW38800   0.426   1.319   6.874 -0.5011  0.1304  0.2974
 9113SOL    HW138801   0.472   1.248   6.827  0.7526  1.8402 -1.0470
 9113SOL    HW238802   0.396   1.269   6.950  1.8648 -3.8589 -1.3775
 9114SOL     OW38803   0.118   2.108   7.912 -0.2750 -0.1627  0.3659
 9114SOL    HW138804   0.087   2.020   7.890 -1.6284  0.3900  0.0564
 9114SOL    HW238805   0.168   2.095   7.993  1.2548  1.6770 -0.2742
 9115SOL     OW38806   0.627   1.044   3.767 -0.2311  0.5288  0.0903
 9115SOL    HW138807   0.656   1.093   3.845  0.1723  0.2575  0.1132
 9115SOL    HW238808   0.678   0.966   3.789  0.7022  1.1406  0.0850
 9116SOL     OW38809   3.657   1.335  16.381 -0.1538 -0.2262  0.0320
 9116SOL    HW138810   3.589   1.401  16.375  0.9993  0.7908 -1.6205
 9116SOL    HW238811   3.733   1.374  16.339  0.0942 -0.5153  0.2108
 9117SOL     OW38812   2.048   1.151   8.714 -0.2743 -0.0146  0.0972
 9117SOL    HW138813   1.986   1.219   8.741  1.0725  1.2315  0.0130
 9117SOL    HW238814   2.031   1.089   8.785 -0.7719  0.0779  0.0649
 9118SOL     OW38815   3.884   4.342   7.787 -0.6713  0.0103  0.4515
 9118SOL    HW138816   3.924   4.362   7.702 -1.1138 -2.1232 -0.2690
 9118SOL    HW238817   3.962   4.356   7.841 -0.4106  3.1563 -0.7750
 9119SOL     OW38818   3.277   2.614   6.971  0.4912  0.0522 -0.2780
 9119SOL    HW138819   3.255   2.601   6.879  0.6888 -1.9957 -0.0358
 9119SOL    HW238820   3.364   2.651   6.956  0.1073  0.8109 -0.6239
 9120SOL     OW38821   0.883   2.117   7.967 -0.1169  0.1844 -0.9719
 9120SOL    HW138822   0.911   2.125   7.876  0.0673  0.6728 -0.8714
 9120SOL    HW238823   0.933   2.039   7.991 -0.8498 -0.2294 -0.7887
 9121SOL     OW38824   1.165   4.618  10.896 -0.1898 -0.6048  0.0933
 9121SOL    HW138825   1.195   4.690  10.951 -0.5731  0.5332 -1.1917
 9121SOL    HW238826   1.247   4.568  10.890  0.0699 -0.1058 -0.5730
 9122SOL     OW38827   2.936   2.524  14.726 -0.1412  0.2456 -0.2027
 9122SOL    HW138828   2.970   2.528  14.636 -1.1958  0.2242 -0.6111
 9122SOL    HW238829   2.876   2.597  14.739  0.1556  0.0137  2.3396
 9123SOL     OW38830   3.042   0.627  11.617  0.0831  0.1378  0.1365
 9123SOL    HW138831   3.127   0.612  11.659  0.0710 -1.3752 -0.3707
 9123SOL    HW238832   3.063   0.698  11.556 -3.0244 -0.3010 -1.4369
 9124SOL     OW38833   3.960   2.778   9.259 -0.4146 -0.1761  0.0286
 9124SOL    HW138834   3.995   2.867   9.255 -0.2058 -0.3199 -1.3476
 9124SOL    HW238835   4.024   2.727   9.209  1.0566  0.4919  1.2321
 9125SOL     OW38836   1.189   4.557  12.598 -0.4839 -0.3984  0.0745
 9125SOL    HW138837   1.109   4.589  12.556 -1.1977 -0.6329  1.2767
 9125SOL    HW238838   1.205   4.633  12.653  1.1868  0.1310 -1.1255
 9126SOL     OW38839   0.155   2.597  13.618 -0.3804  0.0769  0.3167
 9126SOL    HW138840   0.210   2.578  13.542  0.9048  1.2879  0.9405
 9126SOL    HW238841   0.224   2.603  13.684  0.7203  2.1127 -1.0114
 9127SOL     OW38842   3.507   2.730   7.755  0.0137 -0.0284 -0.6426
 9127SOL    HW138843   3.426   2.693   7.719  0.6585 -0.1460 -2.0071
 9127SOL    HW238844   3.504   2.819   7.720  1.3108 -0.6039 -2.2381
 9128SOL     OW38845   2.323   4.650  13.405 -0.2494 -0.4542 -0.4987
 9128SOL    HW138846   2.332   4.555  13.403  0.7008 -0.3447 -2.3241
 9128SOL    HW238847   2.267   4.678  13.332 -2.9431  0.6665  2.0318
 9129SOL     OW38848   1.757   3.663   3.776 -0.1315 -0.1857 -0.0301
 9129SOL    HW138849   1.687   3.702   3.723 -0.2064 -0.4454 -0.1258
 9129SOL    HW238850   1.697   3.637   3.846  0.3688 -0.4816  0.2863
 9130SOL     OW38851   1.580   4.202   4.479  0.1999  0.1860  0.0933
 9130SOL    HW138852   1.579   4.297   4.490 -0.2774  0.2397 -0.3869
 9130SOL    HW238853   1.500   4.182   4.528 -0.6760  0.5040 -1.2288
 9131SOL     OW38854   1.537   4.314   0.111 -0.2511  0.2625 -0.0155
 9131SOL    HW138855   1.542   4.398   0.156 -0.4348  0.1283  0.2566
 9131SOL    HW238856   1.630   4.295   0.098  0.0193  1.1119  0.6360
 9132SOL     OW38857   3.418   1.677   7.668 -0.2951  0.0059  0.3453
 9132SOL    HW138858   3.388   1.623   7.596  2.8835 -1.0762 -0.1767
 9132SOL    HW238859   3.503   1.711   7.639 -1.1246  2.9048  1.3713
 9133SOL     OW38860   2.373   1.242   4.560  0.0810  0.0058  0.1269
 9133SOL    HW138861   2.357   1.175   4.626 -2.9048  1.0848  0.4768
 9133SOL    HW238862   2.469   1.247   4.559  0.1007 -0.3252  0.5234
 9134SOL     OW38863   1.467   1.099   1.958 -0.2041  0.3533 -1.0821
 9134SOL    HW138864   1.519   1.170   1.920 -0.0971  2.1118  2.3475
 9134SOL    HW238865   1.518   1.020   1.937 -0.1610 -0.2145  1.1464
 9135SOL     OW38866   2.804   3.306   8.301 -0.6955  0.0963  0.0167
 9135SOL    HW138867   2.818   3.367   8.373  1.4390  0.0996 -0.4133
 9135SOL    HW238868   2.814   3.218   8.337 -1.3825  0.0376  0.0712
 9136SOL     OW38869   3.365   2.685   9.937 -0.8274 -0.1627 -0.1587
 9136SOL    HW138870   3.437   2.633   9.973 -2.3599 -2.4795 -0.4633
 9136SOL    HW238871   3.316   2.622   9.885 -1.6256 -0.3647  0.8471
 9137SOL     OW38872   2.363   4.428  15.800  0.0731  0.2831 -0.7208
 9137SOL    HW138873   2.339   4.495  15.737  0.0783 -0.5575 -1.6281
 9137SOL    HW238874   2.404   4.365  15.739 -1.5778 -1.1449 -0.3697
 9138SOL     OW38875   2.427   2.750   3.521 -0.2121  0.4360 -0.1170
 9138SOL    HW138876   2.378   2.682   3.474  2.4623 -2.7136  1.6623
 9138SOL    HW238877   2.473   2.696   3.584 -0.2796  2.1143  1.3722
 9139SOL     OW38878   3.754   3.389   8.831 -0.3934  0.2667  0.0784
 9139SOL    HW138879   3.830   3.344   8.869  0.1940 -1.4508 -3.1172
 9139SOL    HW238880   3.680   3.347   8.875  0.8894 -1.3994  0.6866
 9140SOL     OW38881   2.591   4.034   6.522 -0.2050 -0.3039 -0.7923
 9140SOL    HW138882   2.615   4.124   6.503 -0.7186 -0.0794 -0.3476
 9140SOL    HW238883   2.676   4.000   6.553 -0.8917 -0.8404  0.5147
 9141SOL     OW38884   2.012   3.118   2.414  0.2076  0.0578 -0.6800
 9141SOL    HW138885   2.043   3.209   2.413 -1.9667  0.7935 -1.5618
 9141SOL    HW238886   1.918   3.135   2.415  0.4339  1.3535 -1.5356
 9142SOL     OW38887   3.280   2.736   3.640 -0.0521 -0.5104  0.1137
 9142SOL    HW138888   3.355   2.721   3.697 -1.5275 -0.0354  2.1641
 9142SOL    HW238889   3.297   2.704   3.551  0.5729 -1.1681  0.4732
 9143SOL     OW38890   1.948   4.676   4.933 -0.6164  0.4733  0.0891
 9143SOL    HW138891   1.921   0.048   4.934 -0.0750  0.6356  0.2272
 9143SOL    HW238892   1.903   4.647   5.012  0.8865 -0.0871  0.7450
 9144SOL     OW38893   0.264   3.825   7.279  0.3964  1.0055 -0.2277
 9144SOL    HW138894   0.295   3.779   7.356  0.7825  0.4983 -0.6904
 9144SOL    HW238895   0.271   3.916   7.310  0.6340  0.8295  0.2232
 9145SOL     OW38896   1.573   2.688   1.653  0.4733 -0.1558  0.8519
 9145SOL    HW138897   1.581   2.723   1.742 -2.2249 -0.2296  1.1350
 9145SOL    HW238898   1.550   2.599   1.682 -0.1001 -0.3592 -0.2488
 9146SOL     OW38899   4.318   3.145   6.715 -0.2391  0.6872  0.0590
 9146SOL    HW138900   4.369   3.123   6.792  0.6618 -0.3045 -0.8266
 9146SOL    HW238901   4.356   3.082   6.654  0.1812 -0.5113  1.5920
 9147SOL     OW38902   3.158   4.612   3.158  0.0661 -0.6335  0.0365
 9147SOL    HW138903   3.179   4.584   3.069 -0.8583  1.6616 -0.8961
 9147SOL    HW238904   3.086   4.554   3.182  1.0347 -1.9157 -0.1985
 9148SOL     OW38905   3.786   0.346   7.439  0.3924 -0.1060 -0.1870
 9148SOL    HW138906   3.777   0.432   7.397  1.0528 -1.3442 -2.8523
 9148SOL    HW238907   3.879   0.344   7.461 -0.0700  3.3963  2.1453
 9149SOL     OW38908   4.470   4.076  13.952 -0.0568  0.0264 -0.1967
 9149SOL    HW138909   4.453   4.026  14.033  4.1450 -0.8802  0.1219
 9149SOL    HW238910   4.553   4.119  13.970 -0.1651  1.0894 -2.2767
 9150SOL     OW38911   1.144   1.403  16.185  0.2425  0.4891 -0.6676
 9150SOL    HW138912   1.082   1.408  16.258  0.9255 -0.2959 -0.0392
 9150SOL    HW238913   1.081   1.402  16.113  3.0537 -1.4302 -3.0514
 9151SOL     OW38914   1.529   3.162  11.530  0.2130 -0.4988  1.0500
 9151SOL    HW138915   1.543   3.074  11.494  0.0080  0.0515 -0.3867
 9151SOL    HW238916   1.606   3.209  11.498 -0.2869 -0.0595  0.5005
 9152SOL     OW38917   2.813   1.251   9.650  0.1884  0.0192  0.1375
 9152SOL    HW138918   2.772   1.181   9.600  1.1506  0.0647 -0.7131
 9152SOL    HW238919   2.806   1.331   9.598 -1.2807 -0.8594 -0.9940
 9153SOL     OW38920   1.826   2.266   2.332 -0.3300  0.2628 -0.5805
 9153SOL    HW138921   1.809   2.273   2.238 -6.0400 -1.1689  0.3670
 9153SOL    HW238922   1.737   2.280   2.364 -0.9312 -0.7175 -1.8576
 9154SOL     OW38923   4.325   1.718   3.915  0.1748 -0.6470  0.1227
 9154SOL    HW138924   4.251   1.714   3.854 -0.4379  1.3061  0.7384
 9154SOL    HW238925   4.288   1.780   3.978  0.2784 -0.4430 -0.0151
 9155SOL     OW38926   0.872   0.006   5.694 -0.3049  0.6494 -0.0313
 9155SOL    HW138927   0.806   0.031   5.759 -0.0116  0.9455  0.1545
 9155SOL    HW238928   0.838   4.640   5.670 -0.1526  0.3443  0.8375
 9156SOL     OW38929   1.379   4.458   6.318 -0.0244 -0.0002 -0.1919
 9156SOL    HW138930   1.389   4.369   6.350 -1.8466  0.2800  1.1241
 9156SOL    HW238931   1.421   4.443   6.233 -0.7651  0.6311 -0.6825
 9157SOL     OW38932   2.195   4.148   6.338 -0.4613 -0.6274 -0.5014
 9157SOL    HW138933   2.240   4.214   6.392  0.0892 -2.3353  1.1516
 9157SOL    HW238934   2.239   4.074   6.381  0.9188 -0.1566 -1.1018
 9158SOL     OW38935   3.211   4.068  16.049 -0.6551 -0.3623  0.2477
 9158SOL    HW138936   3.140   4.115  16.094  0.1211  0.0410  1.0588
 9158SOL    HW238937   3.263   4.047  16.127 -0.1629 -5.1244 -1.3972
 9159SOL     OW38938   4.022   3.916   0.587 -0.3343 -0.3496  0.2887
 9159SOL    HW138939   4.058   4.000   0.615 -0.6914  0.0799 -0.5729
 9159SOL    HW238940   4.029   3.872   0.672  2.9379 -2.0930 -0.8588
 9160SOL     OW38941   1.283   4.164   6.762  0.5852 -0.0908 -0.2897
 9160SOL    HW138942   1.207   4.122   6.723  0.2363 -0.2217  0.5225
 9160SOL    HW238943   1.245   4.243   6.800  2.5668  0.5253  0.4271
 9161SOL     OW38944   3.548   0.577   2.200  0.2830 -0.2860  0.2287
 9161SOL    HW138945   3.568   0.573   2.107  0.1345 -2.2271  0.2924
 9161SOL    HW238946   3.547   0.486   2.230  0.2066 -0.0805  0.8617
 9162SOL     OW38947   4.024   1.081  16.438  0.5297  0.5862 -0.1345
 9162SOL    HW138948   3.985   1.053  16.521  0.0679  0.6135 -0.3437
 9162SOL    HW238949   4.031   1.174  16.460 -0.0886  0.6531 -0.2319
 9163SOL     OW38950   3.439   4.180  13.999 -0.5506  0.0468  0.1686
 9163SOL    HW138951   3.405   4.270  13.994 -1.4907 -0.3631 -1.0007
 9163SOL    HW238952   3.522   4.198  13.955 -0.3108  0.9260  0.9618
 9164SOL     OW38953   1.396   0.873  13.384 -0.4629  0.3161 -0.0790
 9164SOL    HW138954   1.390   0.939  13.453 -1.1273  0.2720 -0.1008
 9164SOL    HW238955   1.478   0.832  13.413 -1.9890 -1.7011  1.3782
 9165SOL     OW38956   0.989   4.481   7.013  0.1143  0.4118 -0.5226
 9165SOL    HW138957   0.992   4.433   7.097 -2.2129 -1.3698 -1.4459
 9165SOL    HW238958   0.933   4.558   7.020  0.0473  0.2248  1.0363
 9166SOL     OW38959   0.624   2.434   3.923 -0.2472  0.9645  0.1518
 9166SOL    HW138960   0.706   2.441   3.972  1.6962  0.2850 -3.0520
 9166SOL    HW238961   0.645   2.364   3.861 -2.0101  0.5628  0.0188
 9167SOL     OW38962   3.222   3.216   5.505  0.0792  0.0686 -0.2549
 9167SOL    HW138963   3.213   3.311   5.505 -3.2550 -0.2500 -0.5430
 9167SOL    HW238964   3.133   3.184   5.492  0.6680 -0.7293 -2.2212
 9168SOL     OW38965   2.160   0.656   0.265 -0.3163  0.3828  0.1253
 9168SOL    HW138966   2.093   0.620   0.207 -1.3459  1.7790  0.4449
 9168SOL    HW238967   2.160   0.599   0.342  0.0839 -1.3147 -1.1187
 9169SOL     OW38968   3.206   3.130   3.362 -0.3863  0.4009  0.0029
 9169SOL    HW138969   3.230   3.063   3.298  1.1585  1.5493 -0.6334
 9169SOL    HW238970   3.145   3.182   3.310 -0.3543  0.8196  0.3856
 9170SOL     OW38971   4.091   3.051  13.930 -0.1839 -0.2738 -0.0851
 9170SOL    HW138972   4.050   3.035  14.014 -0.2427  1.6299  0.2395
 9170SOL    HW238973   4.122   3.139  13.950 -1.1476 -0.0121  0.2612
 9171SOL     OW38974   3.118   3.692  14.138  0.0957  0.2169 -0.2362
 9171SOL    HW138975   3.028   3.668  14.160  0.7396 -0.9346  1.1437
 9171SOL    HW238976   3.150   3.604  14.122  2.4639  1.1116 -0.4952
 9172SOL     OW38977   1.848   3.071   7.075 -0.5595 -0.0501 -0.1806
 9172SOL    HW138978   1.788   2.999   7.055  0.4425 -1.1186  0.6525
 9172SOL    HW238979   1.802   3.148   7.042 -0.3727 -0.1391 -0.6403
 9173SOL     OW38980   0.683   0.578   9.349 -0.0711 -0.6003  0.0797
 9173SOL    HW138981   0.754   0.552   9.407  0.0501 -1.7709 -0.6008
 9173SOL    HW238982   0.629   0.499   9.343  1.4524 -2.0279  4.5546
 9174SOL     OW38983   1.430   1.767   2.997  0.3283 -0.1422 -0.4961
 9174SOL    HW138984   1.478   1.793   3.076 -1.3316 -0.1639  0.5160
 9174SOL    HW238985   1.376   1.694   3.028  0.4922 -0.7714 -1.7079
 9175SOL     OW38986   0.025   0.713  11.344 -0.2597  0.0645  0.1388
 9175SOL    HW138987   4.677   0.649  11.322 -0.2247  0.0183  0.1639
 9175SOL    HW238988   0.050   0.750  11.260 -1.9938  1.7493  0.3597
 9176SOL     OW38989   2.254   1.082  17.201  0.2639  0.4879  0.1582
 9176SOL    HW138990   2.284   1.109  17.288 -0.5985  1.7047  0.0769
 9176SOL    HW238991   2.319   1.016  17.177  0.3155  0.3973  0.5500
 9177SOL     OW38992   1.478   2.373   5.953 -1.0900  0.2356 -0.1728
 9177SOL    HW138993   1.546   2.305   5.953  0.5561  1.8757  2.8693
 9177SOL    HW238994   1.532   2.450   5.970 -0.1079  0.4579 -4.4474
 9178SOL     OW38995   0.806   3.604   8.688  0.0449 -0.3415  0.1542
 9178SOL    HW138996   0.861   3.529   8.710 -0.3407 -0.1200  1.9089
 9178SOL    HW238997   0.736   3.551   8.651  1.1883  0.4861 -3.2509
 9179SOL     OW38998   0.472   2.042   4.016 -0.4049 -0.5183 -0.3355
 9179SOL    HW138999   0.457   2.081   3.930 -1.7594 -1.0914 -0.3626
 9179SOL    HW239000   0.382   2.050   4.049 -0.9712  0.6455 -2.1649
 9180SOL     OW39001   4.297   0.829   2.769 -0.3589 -0.1621 -0.2314
 9180SOL    HW139002   4.243   0.882   2.710  0.0015 -0.1944 -0.5904
 9180SOL    HW239003   4.296   0.891   2.842 -0.6913 -1.1609  0.6002
 9181SOL     OW39004   3.753   1.260   2.440  0.3687 -0.2326 -0.5633
 9181SOL    HW139005   3.770   1.258   2.346  1.4351 -0.0361 -0.3694
 9181SOL    HW239006   3.825   1.319   2.462  0.9967 -0.7068 -1.3229
 9182SOL     OW39007   3.946   3.965   0.341  0.5463 -0.3455 -0.0300
 9182SOL    HW139008   3.978   3.929   0.424 -0.4575  0.9918  0.9453
 9182SOL    HW239009   4.026   4.009   0.310  1.0103 -1.5910 -0.6049
 9183SOL     OW39010   0.555   1.689   3.367 -0.2628 -0.4643 -0.1065
 9183SOL    HW139011   0.480   1.738   3.334  0.0266  1.1676  1.6779
 9183SOL    HW239012   0.515   1.623   3.425 -1.4419  1.1511  0.9423
 9184SOL     OW39013   3.753   2.217  12.737 -0.4461 -0.1679 -0.1895
 9184SOL    HW139014   3.801   2.257  12.665  0.1978 -0.8901 -0.1668
 9184SOL    HW239015   3.660   2.214  12.716 -0.1494  0.8730 -1.6397
 9185SOL     OW39016   1.345   1.536   6.304  0.2091 -0.2342  0.2260
 9185SOL    HW139017   1.376   1.465   6.247  0.1432  0.7619 -1.0474
 9185SOL    HW239018   1.261   1.554   6.262 -0.7759 -1.1435  1.8114
 9186SOL     OW39019   2.037   4.343   5.069  0.0306 -0.6931  0.0308
 9186SOL    HW139020   2.011   4.254   5.094  0.9065 -0.6266  1.1693
 9186SOL    HW239021   1.992   4.343   4.984 -2.8675 -0.9152  1.5513
 9187SOL     OW39022   4.069   1.951   3.214  0.0964 -0.3151  0.2242
 9187SOL    HW139023   4.036   2.020   3.156  0.0237  0.3879  1.0944
 9187SOL    HW239024   4.135   1.910   3.159 -0.4348  0.8573 -1.2965
 9188SOL     OW39025   3.323   1.254   6.328 -0.3350  0.4332 -0.5898
 9188SOL    HW139026   3.390   1.318   6.348 -0.8559 -0.1561  3.0910
 9188SOL    HW239027   3.345   1.247   6.235  2.4473 -0.8933  0.1821
 9189SOL     OW39028   3.848   4.101   1.048 -0.5761  0.1930  0.0218
 9189SOL    HW139029   3.871   4.159   1.120 -0.0473  2.3894 -1.9303
 9189SOL    HW239030   3.926   4.124   0.997  0.3116  3.1526  2.7468
 9190SOL     OW39031   1.023   0.337  13.203 -0.5263 -0.9152  0.6135
 9190SOL    HW139032   0.987   0.282  13.272 -1.8844  2.9936  3.0171
 9190SOL    HW239033   1.009   0.423  13.242 -0.8613 -1.1100  0.9128
 9191SOL     OW39034   2.010   0.016   8.269 -0.3345 -0.2455  0.2660
 9191SOL    HW139035   1.969   4.659   8.310 -1.5650 -1.0899 -2.5322
 9191SOL    HW239036   1.980   0.002   8.179 -1.3608  0.3861  0.5209
 9192SOL     OW39037   4.214   2.695   7.421 -0.2797  0.3642  0.4501
 9192SOL    HW139038   4.272   2.621   7.401 -1.2277  0.2352 -1.8395
 9192SOL    HW239039   4.272   2.771   7.427  1.1948 -0.8409  1.3145
 9193SOL     OW39040   1.998   1.120   2.432 -0.0180  0.1400 -0.5813
 9193SOL    HW139041   1.911   1.125   2.471  1.1171 -0.6928  2.0405
 9193SOL    HW239042   2.011   1.207   2.393 -2.1251  1.7352  2.2633
 9194SOL     OW39043   0.113   1.834   8.980 -0.5153 -0.1725 -0.4393
 9194SOL    HW139044   0.038   1.876   9.023 -0.6820  0.6595 -1.5446
 9194SOL    HW239045   0.164   1.797   9.052  1.0642  3.1436  0.1293
 9195SOL     OW39046   2.462   2.233  16.597  0.8879 -0.2218 -0.2485
 9195SOL    HW139047   2.512   2.206  16.674 -1.6040 -0.0485  1.4076
 9195SOL    HW239048   2.484   2.325  16.608  1.0129 -0.3774  0.8424
 9196SOL     OW39049   3.483   0.682   6.502  0.9141  0.5154  0.1667
 9196SOL    HW139050   3.571   0.644   6.503  0.2802 -0.9538  0.1898
 9196SOL    HW239051   3.432   0.619   6.553  0.4171  2.2558  1.7905
 9197SOL     OW39052   4.337   0.672   8.077 -0.3884  0.0305 -0.1351
 9197SOL    HW139053   4.266   0.654   8.139  1.3804 -0.6865  1.7108
 9197SOL    HW239054   4.300   0.754   8.046 -1.3118 -1.4103 -2.8464
 9198SOL     OW39055   0.262   3.294  14.829 -0.0495 -0.2770 -0.3453
 9198SOL    HW139056   0.289   3.217  14.880  2.3846  0.3719 -0.6416
 9198SOL    HW239057   0.340   3.347  14.844 -0.3031  0.1056 -0.3739
 9199SOL     OW39058   2.330   4.533  10.907 -0.1627  0.4815  0.3303
 9199SOL    HW139059   2.374   4.473  10.967  2.9757  2.6729  0.2922
 9199SOL    HW239060   2.356   4.502  10.820 -2.5806  0.5708 -0.4220
 9200SOL     OW39061   2.290   2.063   4.944  0.4734  0.0962  0.4871
 9200SOL    HW139062   2.316   2.078   4.853  1.3415  2.3183  1.0935
 9200SOL    HW239063   2.221   1.997   4.933  0.4655  0.3169 -0.8129
 9201SOL     OW39064   1.012   0.755   3.420  0.1340 -0.2852  0.4340
 9201SOL    HW139065   0.922   0.773   3.393 -0.0389 -2.2880 -0.3369
 9201SOL    HW239066   1.025   0.667   3.384 -1.3479 -1.2709  2.3705
 9202SOL     OW39067   0.981   1.502   3.792 -0.0513  0.2756  0.5689
 9202SOL    HW139068   1.061   1.491   3.742 -0.5360  1.8535 -0.5501
 9202SOL    HW239069   0.938   1.418   3.776  0.4340  0.4619 -1.8022
 9203SOL     OW39070   1.066   1.720  15.485 -0.0740 -0.1800 -0.3348
 9203SOL    HW139071   1.047   1.627  15.492  0.7728 -0.2488  1.1645
 9203SOL    HW239072   1.109   1.736  15.569  0.9254  2.2591 -1.2981
 9204SOL     OW39073   3.368   3.913   2.978 -0.6043  0.2224  0.1031
 9204SOL    HW139074   3.426   3.840   2.998 -0.0293  0.9783  1.1578
 9204SOL    HW239075   3.365   3.893   2.884  0.0331  0.2637  0.0773
 9205SOL     OW39076   4.352   4.491   1.621 -0.3007  0.6903  0.0503
 9205SOL    HW139077   4.431   4.487   1.675  0.6849 -0.8370 -1.4948
 9205SOL    HW239078   4.344   4.580   1.588 -4.5990  0.3613  0.1256
 9206SOL     OW39079   0.368   2.363  10.739  0.1454 -0.4859  0.0026
 9206SOL    HW139080   0.436   2.404  10.794  0.2235 -2.3850  1.3459
 9206SOL    HW239081   0.428   2.374  10.665 -0.2197 -0.2750 -0.2643
 9207SOL     OW39082   1.573   1.572   2.627  0.2411 -0.1132 -0.2671
 9207SOL    HW139083   1.649   1.543   2.577  0.3411  0.6138 -0.5345
 9207SOL    HW239084   1.628   1.613   2.694  0.4565 -0.8869  0.0266
 9208SOL     OW39085   3.969   3.960  12.250 -0.4371 -0.2571 -0.1867
 9208SOL    HW139086   3.931   4.037  12.207  0.1122 -0.0948 -0.3719
 9208SOL    HW239087   3.958   3.983  12.343  0.3599 -1.5263  0.2124
 9209SOL     OW39088   2.852   2.529   6.677 -0.0695  0.1801 -0.2116
 9209SOL    HW139089   2.782   2.465   6.689  0.7264 -0.5861  0.3704
 9209SOL    HW239090   2.886   2.531   6.766 -0.7430 -1.0147  0.0742
 9210SOL     OW39091   2.378   3.209   1.817 -0.2047 -0.6180  0.1168
 9210SOL    HW139092   2.293   3.218   1.774 -0.2858 -1.1626  0.1528
 9210SOL    HW239093   2.400   3.301   1.803  1.7541 -1.3353 -1.4970
 9211SOL     OW39094   0.366   1.461   1.996  0.6575  0.6054  0.1275
 9211SOL    HW139095   0.292   1.400   1.992  1.9864 -1.0671  0.8753
 9211SOL    HW239096   0.398   1.454   1.906  0.1570  2.1286 -0.1615
 9212SOL     OW39097   3.186   3.398   1.328 -0.1155 -0.4184 -1.0375
 9212SOL    HW139098   3.122   3.388   1.258 -1.0747  0.2526 -0.2389
 9212SOL    HW239099   3.196   3.493   1.322  0.3232 -0.4751 -1.2192
 9213SOL     OW39100   1.810   0.189  14.878 -0.4824 -0.0743  0.6450
 9213SOL    HW139101   1.771   0.184  14.965  0.1783 -0.2966  0.9250
 9213SOL    HW239102   1.798   0.102  14.841  0.5388  0.0092  0.1177
 9214SOL     OW39103   4.573   2.707  14.485  0.4451 -0.8758  0.4410
 9214SOL    HW139104   4.511   2.635  14.476 -1.3400  0.6926 -0.0516
 9214SOL    HW239105   4.653   2.663  14.457  0.4902 -0.4820 -0.0711
 9215SOL     OW39106   2.298   0.741   8.795  0.1395 -0.0203 -0.2150
 9215SOL    HW139107   2.206   0.722   8.814  0.9005 -1.7026  1.6972
 9215SOL    HW239108   2.346   0.676   8.846 -2.1624 -1.3496  0.2350
 9216SOL     OW39109   0.025   3.399   1.379  0.2656 -0.7832  0.2130
 9216SOL    HW139110   0.119   3.409   1.393  0.4464 -1.4275 -0.5465
 9216SOL    HW239111   0.018   3.435   1.291  1.8077 -1.5532 -0.2156
 9217SOL     OW39112   2.229   2.063  17.476  0.5805  0.0684 -0.2887
 9217SOL    HW139113   2.162   2.107  17.528  0.4714  0.0157 -0.3843
 9217SOL    HW239114   2.224   1.972  17.507  0.0082 -0.2877 -1.4062
 9218SOL     OW39115   2.026   2.550  11.679  0.9840 -0.6741 -0.9571
 9218SOL    HW139116   2.049   2.484  11.614  0.7214  0.2927 -2.0451
 9218SOL    HW239117   2.086   2.541  11.753 -0.2466 -1.9379 -0.1169
 9219SOL     OW39118   3.130   3.625  11.723 -0.0380 -0.0372 -0.2676
 9219SOL    HW139119   3.141   3.719  11.714  0.6357  0.0870  2.0111
 9219SOL    HW239120   3.191   3.597  11.654  0.6143  1.3043 -0.2415
 9220SOL     OW39121   2.062   3.918   2.669  0.1535  0.1176  0.4319
 9220SOL    HW139122   2.098   3.983   2.609 -2.0390  2.1957  1.3771
 9220SOL    HW239123   2.054   3.837   2.618  1.7116 -0.1642  0.6191
 9221SOL     OW39124   0.345   3.844   5.155  0.2831 -0.1219  0.5769
 9221SOL    HW139125   0.361   3.849   5.249  0.7553 -1.4101  0.5663
 9221SOL    HW239126   0.250   3.843   5.144  0.2471  1.5242  0.7774
 9222SOL     OW39127   1.225   4.198   2.762  0.4099  0.2644  0.6468
 9222SOL    HW139128   1.170   4.225   2.689  1.8635  1.8602  0.1266
 9222SOL    HW239129   1.206   4.265   2.828  3.5025  0.8346  0.9677
 9223SOL     OW39130   0.581   1.112   6.770  0.0559 -0.3022  0.4226
 9223SOL    HW139131   0.658   1.107   6.825  0.6370 -0.0845 -0.3758
 9223SOL    HW239132   0.630   1.129   6.690  1.2693 -2.0928  0.7959
 9224SOL     OW39133   4.128   3.134   7.624  0.1396  0.0538  0.1114
 9224SOL    HW139134   4.215   3.115   7.589 -0.6873 -3.3817 -0.0333
 9224SOL    HW239135   4.071   3.070   7.582  2.4611 -3.2337  1.9443
 9225SOL     OW39136   2.990   1.956   4.776  0.2543 -1.0952 -0.2762
 9225SOL    HW139137   2.898   1.941   4.753  0.1952  0.1556 -0.9110
 9225SOL    HW239138   2.981   2.037   4.826  0.4992 -0.7558 -0.7749
 9226SOL     OW39139   2.042   3.202   8.739  0.3591  0.6011 -0.2664
 9226SOL    HW139140   1.996   3.135   8.789  0.6181  0.4540 -0.2246
 9226SOL    HW239141   2.122   3.220   8.788 -0.5439 -0.5655  1.6297
 9227SOL     OW39142   0.554   2.248   6.041  0.0801  0.3946 -0.3621
 9227SOL    HW139143   0.567   2.232   6.134 -2.8673  2.1002  0.3440
 9227SOL    HW239144   0.571   2.162   6.003  0.6030  0.2565  0.1986
 9228SOL     OW39145   4.596   2.571  12.746 -0.3972  0.3673  0.4960
 9228SOL    HW139146   4.601   2.523  12.663  0.8593  0.2050  0.6702
 9228SOL    HW239147   4.669   2.632  12.747  0.8141 -1.0346 -0.8125
 9229SOL     OW39148   0.343   0.471  13.407 -0.7160  0.1466  0.9322
 9229SOL    HW139149   0.275   0.407  13.430 -0.7042 -0.5527 -0.9741
 9229SOL    HW239150   0.298   0.550  13.378  0.0845  0.5606  0.8385
 9230SOL     OW39151   1.838   3.035   7.621  0.0187  0.2995  0.3239
 9230SOL    HW139152   1.828   3.049   7.715 -1.0886 -1.7795  0.5262
 9230SOL    HW239153   1.837   3.127   7.595 -2.1065  0.4764  1.0140
 9231SOL     OW39154   2.474   4.223   3.961 -0.2052  0.1486 -0.5072
 9231SOL    HW139155   2.489   4.139   3.918 -0.7915 -0.3510  0.2790
 9231SOL    HW239156   2.430   4.261   3.884  0.7926  0.4581 -0.9226
 9232SOL     OW39157   3.312   3.924   6.290 -0.0601 -0.4900  0.3930
 9232SOL    HW139158   3.331   4.008   6.332 -0.1960 -0.4158  0.3057
 9232SOL    HW239159   3.381   3.924   6.224  1.2126  2.1492  1.7424
 9233SOL     OW39160   1.905   3.443  13.489 -0.3382 -0.0520 -0.6349
 9233SOL    HW139161   1.954   3.516  13.529 -0.2341  0.5483 -1.8718
 9233SOL    HW239162   1.973   3.376  13.492 -1.1943 -0.9457 -1.1725
 9234SOL     OW39163   0.429   3.570  12.621  0.4454  0.1366  0.3188
 9234SOL    HW139164   0.496   3.550  12.556  0.5383 -1.6749  0.9745
 9234SOL    HW239165   0.359   3.508  12.605 -0.7821  2.2207 -2.4272
 9235SOL     OW39166   2.456   1.268   2.734 -0.3030 -0.3635  0.4930
 9235SOL    HW139167   2.545   1.258   2.767 -0.1473 -1.7940 -0.3655
 9235SOL    HW239168   2.457   1.273   2.638 -1.8112  2.4765  0.6313
 9236SOL     OW39169   3.808   0.895   6.738  0.3442 -0.1655 -0.0376
 9236SOL    HW139170   3.792   0.833   6.809  1.8930  0.5704  0.9774
 9236SOL    HW239171   3.724   0.901   6.693 -0.5975 -4.1965  1.2093
 9237SOL     OW39172   0.336   4.703   7.987  0.0493  0.1637 -0.9262
 9237SOL    HW139173   0.341   4.618   7.944 -0.7344  0.3245 -1.3286
 9237SOL    HW239174   0.295   0.037   7.919  1.1858 -0.3248 -2.0020
 9238SOL     OW39175   1.950   4.438   6.272  0.7218 -0.2705 -0.1046
 9238SOL    HW139176   1.889   4.471   6.206  0.0127  2.7125  2.0585
 9238SOL    HW239177   2.004   4.516   6.276 -1.5408  1.2770  0.6503
 9239SOL     OW39178   4.118   2.588  10.111  0.0412  0.1044  0.0253
 9239SOL    HW139179   4.149   2.517  10.056  0.2848  1.1565 -1.1779
 9239SOL    HW239180   4.187   2.590  10.177  0.4934  0.1350 -0.4536
 9240SOL     OW39181   2.557   0.567   7.609  0.3086  0.0685  0.1752
 9240SOL    HW139182   2.551   0.516   7.690 -1.6817  0.2153  0.1209
 9240SOL    HW239183   2.506   0.646   7.623  0.6082  0.2745  0.1176
 9241SOL     OW39184   1.982   1.123  10.671  0.3054  0.2573  0.3673
 9241SOL    HW139185   1.965   1.213  10.644  0.6664  0.4000  0.6278
 9241SOL    HW239186   2.076   1.117  10.655 -0.2162 -1.8260 -2.0029
 9242SOL     OW39187   3.836   3.682   6.274 -0.3151 -0.1924 -0.1919
 9242SOL    HW139188   3.861   3.624   6.346  0.3059  1.6424  1.0594
 9242SOL    HW239189   3.769   3.734   6.319 -1.1929 -2.8921  1.6342
 9243SOL     OW39190   2.984   4.483  12.186  0.4537  0.0345  0.0859
 9243SOL    HW139191   3.033   4.513  12.263  0.1502 -0.3066  0.4111
 9243SOL    HW239192   2.905   4.538  12.190 -0.0010 -0.7939  2.6944
 9244SOL     OW39193   2.942   2.801   2.469  0.3255  0.5882  0.2658
 9244SOL    HW139194   2.919   2.847   2.549  0.3668 -1.0728  1.2171
 9244SOL    HW239195   2.856   2.774   2.437  1.5207 -0.1398 -2.3695
 9245SOL     OW39196   2.510   4.551   1.406 -0.3285 -0.2927  0.0089
 9245SOL    HW139197   2.524   4.493   1.331  0.1284 -0.6709  0.3875
 9245SOL    HW239198   2.497   4.632   1.356  1.9032  0.7862  1.1447
 9246SOL     OW39199   3.284   1.102   7.072  0.7337 -0.6089 -0.0841
 9246SOL    HW139200   3.221   1.091   7.001 -0.5971  1.6079  0.7738
 9246SOL    HW239201   3.228   1.095   7.149  1.6575 -2.0069  0.4718
 9247SOL     OW39202   3.131   2.070   4.421  0.5389 -0.4761 -0.0316
 9247SOL    HW139203   3.204   2.121   4.384  0.2346  0.1187  0.1931
 9247SOL    HW239204   3.084   2.134   4.475  0.2071  0.4705 -1.4432
 9248SOL     OW39205   1.650   2.389  13.895 -0.4365 -0.6527  0.0463
 9248SOL    HW139206   1.630   2.347  13.979 -1.0021  1.3479  0.8987
 9248SOL    HW239207   1.727   2.443  13.914  0.1361 -1.1307 -0.9449
 9249SOL     OW39208   0.891   1.352  13.608 -0.1486  0.3253  0.2346
 9249SOL    HW139209   0.830   1.400  13.663  0.6572 -2.0358  3.2079
 9249SOL    HW239210   0.954   1.321  13.673 -0.9105 -1.6915 -0.0054
 9250SOL     OW39211   3.474   3.754   6.408  0.4964 -0.0206 -0.2819
 9250SOL    HW139212   3.405   3.804   6.365  0.2974 -1.4106 -1.5793
 9250SOL    HW239213   3.514   3.808   6.476  0.3524  1.4191 -1.3558
 9251SOL     OW39214   3.388   1.552  11.464  0.1403  0.7273  0.1748
 9251SOL    HW139215   3.434   1.476  11.428 -2.8746  0.1168 -2.5021
 9251SOL    HW239216   3.412   1.547  11.556 -0.1195 -2.0707  0.0873
 9252SOL     OW39217   0.496   3.514  10.527 -0.0761 -0.1117 -0.1215
 9252SOL    HW139218   0.451   3.511  10.443 -0.5177 -3.4126  0.2065
 9252SOL    HW239219   0.487   3.422  10.553 -1.3940  0.7218  2.3274
 9253SOL     OW39220   1.986   1.740   0.610  0.1389 -0.5039 -0.2814
 9253SOL    HW139221   1.969   1.821   0.657  0.9467 -0.3286 -0.2942
 9253SOL    HW239222   1.946   1.676   0.670  0.5835 -0.1028  0.4325
 9254SOL     OW39223   3.130   4.077   2.940  0.1906 -0.4991  0.2860
 9254SOL    HW139224   3.101   4.014   3.006 -2.5829  1.0406  0.5298
 9254SOL    HW239225   3.219   4.045   2.948  0.2525 -0.5009 -0.3931
 9255SOL     OW39226   0.139   3.354   7.200  0.6195  0.1969  0.2609
 9255SOL    HW139227   0.047   3.383   7.204  0.5246  0.2111 -1.8745
 9255SOL    HW239228   0.184   3.434   7.172 -0.5085  0.9910  0.6869
 9256SOL     OW39229   2.767   1.399   3.794 -0.3410  0.5284  0.1215
 9256SOL    HW139230   2.763   1.307   3.766  0.4133 -0.0788  2.0208
 9256SOL    HW239231   2.679   1.400   3.833  0.0981 -0.6407  1.1357
 9257SOL     OW39232   4.165   3.745  12.764  0.4646  0.1458  0.1772
 9257SOL    HW139233   4.253   3.771  12.736  1.1154  0.5121  2.5575
 9257SOL    HW239234   4.175   3.698  12.847  0.2775 -1.9563 -0.9864
 9258SOL     OW39235   1.284   2.925   0.507 -0.1182  0.7672 -0.4058
 9258SOL    HW139236   1.234   2.966   0.436 -0.5694  1.1586  0.1353
 9258SOL    HW239237   1.212   2.901   0.566  0.1759  0.5942 -0.1216
 9259SOL     OW39238   3.654   3.983   7.585 -0.4085 -0.1582 -0.5637
 9259SOL    HW139239   3.656   4.068   7.540  1.2898  0.4571  0.6605
 9259SOL    HW239240   3.736   3.944   7.555  1.0088 -0.9127  4.2372
 9260SOL     OW39241   1.389   1.152   2.221  0.1099 -0.3827  0.2389
 9260SOL    HW139242   1.429   1.086   2.277 -0.9209  0.0480  1.4985
 9260SOL    HW239243   1.403   1.123   2.131  3.3253  1.2326  0.2373
 9261SOL     OW39244   3.630   3.525   3.237  0.0605 -0.1582  0.9544
 9261SOL    HW139245   3.703   3.582   3.212  0.1833 -0.3860  0.7873
 9261SOL    HW239246   3.614   3.550   3.328 -1.6117 -0.7863  0.8269
 9262SOL     OW39247   2.423   0.636   0.261 -0.2455  0.1344 -0.1113
 9262SOL    HW139248   2.422   0.540   0.261 -2.2137  0.1608  0.0063
 9262SOL    HW239249   2.338   0.657   0.224 -0.3048  2.1730  1.2008
 9263SOL     OW39250   0.515   4.668   4.450  0.3524 -0.1832  0.7014
 9263SOL    HW139251   0.582   4.651   4.383  0.6494  1.1038  0.6822
 9263SOL    HW239252   0.456   0.013   4.414 -2.1370 -2.7936  0.0580
 9264SOL     OW39253   0.480   0.418   4.779  0.7464 -0.2013 -0.2783
 9264SOL    HW139254   0.464   0.328   4.808 -0.5135 -0.1605 -0.8361
 9264SOL    HW239255   0.392   0.433   4.745  0.0416 -1.0817  1.1515
 9265SOL     OW39256   1.817   1.336   8.175 -0.5008 -0.2012  0.2723
 9265SOL    HW139257   1.860   1.358   8.258 -1.6057  0.5463  0.6463
 9265SOL    HW239258   1.738   1.291   8.206 -1.3925  2.1099  1.3439
 9266SOL     OW39259   2.712   0.626   4.446 -0.1103 -0.3319 -0.0979
 9266SOL    HW139260   2.786   0.685   4.433  1.4083 -1.9261  1.5247
 9266SOL    HW239261   2.746   0.564   4.510  1.6124 -0.3759 -1.0511
 9267SOL     OW39262   0.585   4.268  10.004  0.4789  0.5061  0.3497
 9267SOL    HW139263   0.606   4.252   9.912 -0.5992 -2.8428  0.6784
 9267SOL    HW239264   0.507   4.322   9.994  1.6470  1.9986 -0.6646
 9268SOL     OW39265   4.031   2.204   3.496  0.0120  0.4616 -0.5621
 9268SOL    HW139266   3.982   2.253   3.429 -0.3729  0.2919 -0.4067
 9268SOL    HW239267   3.965   2.197   3.565  1.0396  1.8232  0.5530
 9269SOL     OW39268   0.599   4.642  11.912 -0.0882 -0.2190 -0.5112
 9269SOL    HW139269   0.523   4.692  11.881 -1.2181 -0.4776  1.8505
 9269SOL    HW239270   0.665   4.656  11.844  0.9367 -1.1398  0.2998
 9270SOL     OW39271   2.967   2.713   4.981 -0.3734 -0.1293 -0.6263
 9270SOL    HW139272   2.936   2.767   4.908 -2.2105  0.3311  0.5036
 9270SOL    HW239273   3.041   2.661   4.950  1.2099  1.3451  0.7128
 9271SOL     OW39274   0.442   3.825  10.341 -0.5214 -0.2831 -0.0934
 9271SOL    HW139275   0.425   3.891  10.274 -0.8524 -1.8913 -1.5803
 9271SOL    HW239276   0.436   3.878  10.420 -0.6521  0.0707 -0.3385
 9272SOL     OW39277   3.231   4.251   3.137  0.2517  0.0136  0.5752
 9272SOL    HW139278   3.257   4.337   3.102 -2.0434  0.2858 -0.4602
 9272SOL    HW239279   3.167   4.223   3.072  1.2960 -1.8483  0.3487
 9273SOL     OW39280   1.469   3.675   3.373  0.0689  0.3767  0.6292
 9273SOL    HW139281   1.519   3.657   3.293  0.3596  0.8589  0.7036
 9273SOL    HW239282   1.535   3.703   3.437 -0.9213  0.1454  1.7554
 9274SOL     OW39283   1.824   0.879  13.486  0.0894 -0.4614 -0.0118
 9274SOL    HW139284   1.897   0.857  13.428  1.2613  2.1698  0.4849
 9274SOL    HW239285   1.753   0.818  13.467 -0.9994 -0.7415  4.9237
 9275SOL     OW39286   4.508   0.658   2.113 -0.2509  0.1066  1.0358
 9275SOL    HW139287   4.564   0.731   2.089  0.6966 -1.0208 -0.1764
 9275SOL    HW239288   4.570   0.600   2.158 -1.0968 -0.8160  1.0207
 9276SOL     OW39289   4.124   0.524  16.227 -0.0486 -0.0512 -0.0851
 9276SOL    HW139290   4.152   0.609  16.193  1.5204  0.5496  2.7063
 9276SOL    HW239291   4.075   0.548  16.305  0.0623 -0.9275  0.2493
 9277SOL     OW39292   0.326   0.866   6.348  0.2442 -0.0009 -0.2464
 9277SOL    HW139293   0.384   0.813   6.403  0.4385  0.1436 -0.3113
 9277SOL    HW239294   0.293   0.801   6.286  0.6409 -0.7367  0.3060
 9278SOL     OW39295   2.794   3.603   2.623 -0.1153  0.1215  0.4456
 9278SOL    HW139296   2.708   3.603   2.581 -0.4109  0.4311  1.0432
 9278SOL    HW239297   2.853   3.634   2.555  2.1557  0.2406  2.4670
 9279SOL     OW39298   3.165   2.064   5.872 -0.2636 -0.0282  0.1079
 9279SOL    HW139299   3.234   2.071   5.938 -0.2019  0.1061  0.0286
 9279SOL    HW239300   3.099   2.073   5.941  2.5157  1.5041  2.5595
 9280SOL     OW39301   1.445   3.349   4.553  0.2128 -0.1813 -0.3096
 9280SOL    HW139302   1.479   3.411   4.617  1.5144 -0.1775 -1.0000
 9280SOL    HW239303   1.453   3.408   4.478 -0.5521  0.6867  0.3008
 9281SOL     OW39304   2.280   0.485   4.820  0.1670  1.0388 -0.3041
 9281SOL    HW139305   2.273   0.501   4.914  2.0094 -2.4781  0.4657
 9281SOL    HW239306   2.285   0.389   4.823  1.0196  1.0713 -0.5565
 9282SOL     OW39307   2.957   0.387   9.097  0.2092  0.2795  0.5560
 9282SOL    HW139308   3.033   0.426   9.054 -0.5832  0.3455 -0.7788
 9282SOL    HW239309   2.976   0.297   9.072  1.7666  1.1769 -1.4959
 9283SOL     OW39310   2.282   2.315   1.634  0.6450  1.0049 -0.3349
 9283SOL    HW139311   2.331   2.395   1.656  0.3897  1.0029  0.2540
 9283SOL    HW239312   2.314   2.250   1.697  3.4228  2.2366 -0.4523
 9284SOL     OW39313   4.045   2.202  11.199  0.0041 -0.2849 -0.1027
 9284SOL    HW139314   4.061   2.284  11.151  2.2284  0.4462  1.9109
 9284SOL    HW239315   4.010   2.238  11.280  1.8208  0.2647  0.4269
 9285SOL     OW39316   0.435   1.239  14.712  0.0622 -0.7285  0.6829
 9285SOL    HW139317   0.504   1.189  14.669  0.0589 -0.6268  0.5596
 9285SOL    HW239318   0.466   1.254  14.802 -0.2328 -1.4202  0.9070
 9286SOL     OW39319   2.520   1.464   9.203 -0.3492  0.3478 -0.7848
 9286SOL    HW139320   2.484   1.431   9.121  1.3731 -0.9773 -0.9856
 9286SOL    HW239321   2.501   1.393   9.264 -0.0306  0.3983 -0.6271
 9287SOL     OW39322   1.675   0.253   0.752  1.0556  0.0875 -0.1362
 9287SOL    HW139323   1.651   0.255   0.659 -0.1688 -0.0303  0.1823
 9287SOL    HW239324   1.621   0.182   0.785  0.5743  0.4870 -0.0654
 9288SOL     OW39325   4.211   1.072   5.231  0.3173 -0.1792 -0.2008
 9288SOL    HW139326   4.173   1.112   5.153  0.0835  2.0149  1.0115
 9288SOL    HW239327   4.280   1.023   5.187 -0.4961 -1.3989 -0.1119
 9289SOL     OW39328   2.567   3.623   2.478 -0.2405 -0.5032  0.5196
 9289SOL    HW139329   2.501   3.565   2.441  1.0581  0.0325 -2.5852
 9289SOL    HW239330   2.507   3.684   2.522 -0.5442 -0.4237 -0.0018
 9290SOL     OW39331   0.504   4.576   8.175  0.4824 -0.1921 -0.2660
 9290SOL    HW139332   0.447   4.622   8.113  1.2862  1.2431  0.0475
 9290SOL    HW239333   0.581   4.633   8.183 -2.2119  3.2580  1.0704
 9291SOL     OW39334   0.135   2.937  11.052  0.3783  0.2801 -0.1144
 9291SOL    HW139335   0.074   2.995  11.097  1.1755  1.1039 -0.0822
 9291SOL    HW239336   0.199   2.925  11.122 -0.5031 -0.4119  0.5828
 9292SOL     OW39337   2.147   3.778   1.008 -0.0202  0.6367 -0.3521
 9292SOL    HW139338   2.208   3.836   1.053 -1.7378  1.3850  1.0119
 9292SOL    HW239339   2.190   3.692   1.005 -0.0989  0.6384 -1.4831
 9293SOL     OW39340   2.827   2.259   9.043  0.2767  0.1269  0.1955
 9293SOL    HW139341   2.776   2.310   9.106  1.5659 -1.8010  2.8222
 9293SOL    HW239342   2.836   2.329   8.978 -2.3302 -0.4331 -0.7572
 9294SOL     OW39343   3.145   3.054  13.790 -0.7896  0.4039 -0.3836
 9294SOL    HW139344   3.097   3.105  13.724 -2.8828 -0.9126  0.1232
 9294SOL    HW239345   3.091   2.976  13.781 -1.6176  1.2079 -2.6083
 9295SOL     OW39346   0.993   0.264  11.903 -0.6411 -0.1395  0.4048
 9295SOL    HW139347   0.932   0.281  11.831 -1.4365  0.2960  1.1842
 9295SOL    HW239348   1.009   0.171  11.887  1.6633  0.4228 -0.5867
 9296SOL     OW39349   0.100   1.717   1.706 -0.0432  0.3264  0.5918
 9296SOL    HW139350   0.039   1.790   1.717  0.5144  0.8441  0.2794
 9296SOL    HW239351   0.186   1.750   1.734 -0.1781 -0.0480  1.4473
 9297SOL     OW39352   0.219   2.012   4.103  0.0101 -0.1096 -0.5107
 9297SOL    HW139353   0.124   2.002   4.097 -0.0045  0.9999 -2.0196
 9297SOL    HW239354   0.227   2.100   4.140 -0.6386  0.2907 -1.3186
 9298SOL     OW39355   2.698   2.020  12.103  0.3887 -0.0284  0.0402
 9298SOL    HW139356   2.683   1.938  12.151 -2.5253  0.6155  0.2238
 9298SOL    HW239357   2.790   2.006  12.083  0.2631 -1.2527  0.2886
 9299SOL     OW39358   0.016   3.340   8.497 -0.2033  0.3508 -0.4480
 9299SOL    HW139359   0.059   3.392   8.429 -1.7488  1.0359 -0.8926
 9299SOL    HW239360   0.068   3.260   8.500  0.9936  1.1096 -0.9179
 9300SOL     OW39361   4.652   2.041   9.878 -0.7899  0.0878 -0.0622
 9300SOL    HW139362   4.711   2.055   9.952 -0.4140  0.8429 -0.5020
 9300SOL    HW239363   4.621   2.132   9.879 -1.9728 -0.3334  1.8865
 9301SOL     OW39364   3.167   1.046   8.771  0.1441  0.1496 -0.1849
 9301SOL    HW139365   3.225   1.016   8.840 -0.9467  1.7441  1.4155
 9301SOL    HW239366   3.181   0.988   8.696  3.7225  0.9229 -0.0847
 9302SOL     OW39367   3.668   0.481   1.696  0.1728  0.3794  0.1504
 9302SOL    HW139368   3.721   0.558   1.673  0.9677  0.6086  2.7518
 9302SOL    HW239369   3.646   0.503   1.787 -0.4844 -1.0046  0.3210
 9303SOL     OW39370   0.207   1.449   3.089  0.4308 -0.2705  0.1798
 9303SOL    HW139371   0.199   1.431   3.183  0.7183  1.2165  0.4741
 9303SOL    HW239372   0.165   1.534   3.083 -0.1298 -0.5292  0.4342
 9304SOL     OW39373   1.863   2.992  14.591  0.1254  0.2476 -0.3600
 9304SOL    HW139374   1.854   2.951  14.505 -0.9724  1.5191 -0.8637
 9304SOL    HW239375   1.792   3.056  14.605  0.2146  0.4403 -0.7798
 9305SOL     OW39376   3.328   0.844   7.199  0.3190  0.0491 -0.2472
 9305SOL    HW139377   3.331   0.925   7.150  1.2394  0.6115  0.7373
 9305SOL    HW239378   3.308   0.881   7.285  1.4233  0.9174 -0.3710
 9306SOL     OW39379   4.594   3.027   9.187 -0.3851 -0.0753 -0.5985
 9306SOL    HW139380   4.581   2.947   9.238  0.7156  0.8808  1.1530
 9306SOL    HW239381   4.679   2.998   9.154  0.2441  1.8215 -0.6743
 9307SOL     OW39382   2.600   1.801   6.232  0.0032  0.4974  0.1442
 9307SOL    HW139383   2.648   1.718   6.233 -1.2291 -0.2524 -1.4870
 9307SOL    HW239384   2.661   1.874   6.233 -0.8714  1.2080  1.3422
 9308SOL     OW39385   0.094   0.339  13.513  0.5770  0.4390  0.4511
 9308SOL    HW139386   0.018   0.282  13.525 -1.5075  2.8420 -1.3996
 9308SOL    HW239387   0.078   0.404  13.581 -0.9337 -0.9962  1.4578
 9309SOL     OW39388   0.477   0.458   3.490 -0.1631 -0.3632  0.1749
 9309SOL    HW139389   0.474   0.377   3.541  0.7894 -1.2556 -1.1953
 9309SOL    HW239390   0.386   0.484   3.503 -0.9512 -2.3498 -1.4082
 9310SOL     OW39391   0.341   2.980   6.495  0.6839 -0.5304 -0.0406
 9310SOL    HW139392   0.339   3.025   6.580 -1.0409  0.3730 -0.5421
 9310SOL    HW239393   0.412   3.027   6.451 -0.6201  1.1390 -0.4049
 9311SOL     OW39394   2.050   1.535   4.667 -0.0753 -0.3366  0.1675
 9311SOL    HW139395   2.019   1.596   4.734 -0.9800 -1.0875  0.4307
 9311SOL    HW239396   2.142   1.529   4.692 -0.5126  1.5286  2.2887
 9312SOL     OW39397   4.339   2.488   1.337  0.2434 -0.4369  0.2492
 9312SOL    HW139398   4.327   2.426   1.410  0.0940  0.7037  1.2001
 9312SOL    HW239399   4.373   2.566   1.381 -2.3174  1.2618 -0.7545
 9313SOL     OW39400   1.478   0.567  13.949 -0.1514  0.3536  0.1896
 9313SOL    HW139401   1.445   0.655  13.968 -0.8865  0.1622 -0.2168
 9313SOL    HW239402   1.551   0.598  13.896  0.0837  1.6043  1.2391
 9314SOL     OW39403   0.875   3.504   5.345 -0.3078  0.1537 -0.4785
 9314SOL    HW139404   0.947   3.456   5.304 -1.7889 -1.1085 -1.6068
 9314SOL    HW239405   0.832   3.547   5.271 -1.7610 -0.8294 -0.2109
 9315SOL     OW39406   1.422   4.029   4.806  0.1638 -0.4036 -0.3484
 9315SOL    HW139407   1.364   3.962   4.843 -0.8356 -0.0706 -1.3217
 9315SOL    HW239408   1.392   4.031   4.715 -1.9301 -1.9081  0.3156
 9316SOL     OW39409   1.548   1.139  15.334 -1.1071 -0.3957  0.6063
 9316SOL    HW139410   1.461   1.168  15.305  1.1673  3.4296 -2.3067
 9316SOL    HW239411   1.556   1.179  15.421 -0.1572  1.4508 -0.3536
 9317SOL     OW39412   4.641   4.528  11.173 -0.2308  0.1585  0.2058
 9317SOL    HW139413   4.696   4.527  11.252  0.7080  0.3167 -0.4563
 9317SOL    HW239414   4.574   4.459  11.178 -0.4591  0.3991  0.5229
 9318SOL     OW39415   3.378   0.021  13.496  0.0162  0.6524 -0.1260
 9318SOL    HW139416   3.469   0.017  13.467  0.7507  0.4655  2.2248
 9318SOL    HW239417   3.372   0.070  13.578 -1.1851  0.6598 -0.2139
 9319SOL     OW39418   2.408   0.395  11.510  1.1346 -0.6155 -0.1490
 9319SOL    HW139419   2.471   0.465  11.495 -0.6881  1.2185  0.6756
 9319SOL    HW239420   2.405   0.332  11.438  0.4576  1.5637 -2.0448
 9320SOL     OW39421   0.709   1.469   4.458  0.2580  0.1094  0.3774
 9320SOL    HW139422   0.682   1.524   4.384 -1.6673  0.3880  1.2947
 9320SOL    HW239423   0.625   1.430   4.481 -0.7962  1.9888 -0.2385
 9321SOL     OW39424   2.947   0.048   7.339 -0.0054 -0.4666 -0.0257
 9321SOL    HW139425   3.036   0.014   7.338  0.2940  0.3249 -0.6855
 9321SOL    HW239426   2.896   4.689   7.359  1.6567 -1.0704  1.8473
 9322SOL     OW39427   3.427   4.098   6.519 -0.1603 -0.1566 -0.1998
 9322SOL    HW139428   3.482   4.159   6.568  0.9976 -0.1045 -1.5776
 9322SOL    HW239429   3.342   4.129   6.550  0.4516 -0.1062  1.4536
 9323SOL     OW39430   0.767   3.331   9.236  0.4259  0.1048  0.4431
 9323SOL    HW139431   0.772   3.423   9.211  0.4443  0.2500  0.9898
 9323SOL    HW239432   0.815   3.332   9.319 -0.8445  2.4768  1.1336
 9324SOL     OW39433   1.026   3.439   8.732  0.4520 -0.3869  0.4265
 9324SOL    HW139434   1.108   3.402   8.699 -0.5876 -0.1435 -2.4407
 9324SOL    HW239435   1.054   3.471   8.817 -1.1525 -2.1370  1.5954
 9325SOL     OW39436   0.612   3.052   0.937 -0.1090  0.7529  0.3179
 9325SOL    HW139437   0.603   3.147   0.938 -1.0078  0.6349  1.8598
 9325SOL    HW239438   0.543   3.039   0.872  0.2835 -0.4082  0.1230
 9326SOL     OW39439   3.844   0.255  12.819 -0.0322 -0.0150  0.0121
 9326SOL    HW139440   3.859   0.349  12.812  2.8035 -0.6845 -2.9748
 9326SOL    HW239441   3.764   0.235  12.770  1.0607  0.0161 -1.7890
 9327SOL     OW39442   3.503   2.330  16.656  0.3630 -0.5896 -0.3466
 9327SOL    HW139443   3.419   2.362  16.689  0.8367 -0.2238  0.5184
 9327SOL    HW239444   3.479   2.245  16.619 -1.3811 -1.3549  2.4957
 9328SOL     OW39445   0.577   2.821  14.825  0.1796 -0.4080  0.0199
 9328SOL    HW139446   0.529   2.874  14.889  0.2818 -0.2919  0.0015
 9328SOL    HW239447   0.569   2.873  14.745 -1.6306  0.1856  0.5812
 9329SOL     OW39448   0.322   1.614   9.609  0.5783 -0.6514  0.4028
 9329SOL    HW139449   0.312   1.521   9.629  4.7883 -1.0599  0.7138
 9329SOL    HW239450   0.277   1.610   9.525 -1.8125 -1.1096  1.7207
 9330SOL     OW39451   2.024   1.806   6.330  0.4913 -0.9854 -0.6945
 9330SOL    HW139452   2.071   1.741   6.382 -2.1588 -0.8951  1.8469
 9330SOL    HW239453   1.954   1.757   6.288 -0.9802 -0.3344  0.9899
 9331SOL     OW39454   2.282   1.660   3.677 -0.3583  0.5600 -0.7501
 9331SOL    HW139455   2.323   1.677   3.761  0.8205  0.6119 -1.3291
 9331SOL    HW239456   2.336   1.591   3.637 -1.9463  0.4779 -2.7948
 9332SOL     OW39457   2.960   1.297   2.426 -0.4430 -0.3302 -0.4577
 9332SOL    HW139458   3.014   1.219   2.420  0.7744  0.3920  0.9186
 9332SOL    HW239459   2.957   1.305   2.522 -0.3874 -0.9452 -0.4099
 9333SOL     OW39460   3.613   1.237  15.193 -0.4709 -0.5447 -0.4271
 9333SOL    HW139461   3.624   1.292  15.116 -0.6422 -1.0580 -0.8221
 9333SOL    HW239462   3.682   1.172  15.182  0.0746  0.3551 -2.1769
 9334SOL     OW39463   4.509   4.236  14.543  0.2066  0.2343 -0.6447
 9334SOL    HW139464   4.525   4.155  14.591 -0.7852 -0.2776 -1.1978
 9334SOL    HW239465   4.417   4.223  14.523  0.4589 -3.3737  0.6404
 9335SOL     OW39466   0.359   3.710  10.678  0.3072 -0.6452 -0.1019
 9335SOL    HW139467   0.385   3.647  10.610 -2.9599 -0.3756 -1.6026
 9335SOL    HW239468   0.309   3.663  10.745 -0.7297  0.1746 -0.2904
 9336SOL     OW39469   1.478   4.054  13.904  0.2570 -0.2121  0.3824
 9336SOL    HW139470   1.511   4.143  13.905 -1.1893  0.3262  0.2312
 9336SOL    HW239471   1.439   4.047  13.817 -1.8183 -0.6528  1.3400
 9337SOL     OW39472   3.947   1.679   8.915 -0.3584 -0.0412 -0.3024
 9337SOL    HW139473   3.995   1.751   8.873  0.0716 -0.4757 -0.5515
 9337SOL    HW239474   3.982   1.679   9.004 -3.6832 -2.3168  0.9858
 9338SOL     OW39475   3.831   3.976   7.821  0.1069  0.2289 -0.2427
 9338SOL    HW139476   3.844   3.881   7.821  0.2241  0.2415 -0.8334
 9338SOL    HW239477   3.744   3.981   7.782  0.0998  0.0496 -0.2487
 9339SOL     OW39478   0.867   0.433   2.705  0.0151  0.0015 -0.4440
 9339SOL    HW139479   0.890   0.524   2.688  3.0124 -0.6326  0.0999
 9339SOL    HW239480   0.933   0.397   2.765  1.4922 -0.3700 -2.3264
 9340SOL     OW39481   4.328   0.411   6.857  0.1114 -0.1704  0.1006
 9340SOL    HW139482   4.322   0.321   6.825 -0.4788  0.4061 -1.3907
 9340SOL    HW239483   4.358   0.390   6.945  0.4949 -0.3546 -0.0750
 9341SOL     OW39484   2.987   3.698   4.033 -0.1106 -0.7344 -0.0108
 9341SOL    HW139485   2.964   3.630   4.096 -0.4007 -2.4109 -1.9265
 9341SOL    HW239486   3.054   3.645   3.988 -0.5258 -1.0141 -0.3016
 9342SOL     OW39487   4.126   2.276   2.010  0.6585 -0.1918 -0.4374
 9342SOL    HW139488   4.050   2.263   1.952  0.3863  0.8359 -0.3242
 9342SOL    HW239489   4.104   2.217   2.082 -0.4587  1.6563  0.7636
 9343SOL     OW39490   2.656   2.797  13.786  0.0017 -0.3816 -0.4894
 9343SOL    HW139491   2.704   2.870  13.823  0.5475 -1.5831  1.1589
 9343SOL    HW239492   2.565   2.825  13.775 -0.4600 -0.7950  2.4103
 9344SOL     OW39493   3.117   3.361   9.129  0.3654 -0.7789 -0.1358
 9344SOL    HW139494   3.103   3.363   9.035  2.7882  0.1363 -0.4772
 9344SOL    HW239495   3.071   3.279   9.148 -0.4786 -0.1023  0.7471
 9345SOL     OW39496   1.065   0.534   8.850 -0.1162 -0.4241 -0.6479
 9345SOL    HW139497   1.067   0.497   8.938  1.0203  0.3987 -0.3255
 9345SOL    HW239498   0.972   0.553   8.835  0.3715  1.4986 -1.2716
 9346SOL     OW39499   0.135   4.035   8.377 -0.2515  0.2156 -0.2764
 9346SOL    HW139500   0.121   3.964   8.440 -1.0562 -0.0606 -0.7760
 9346SOL    HW239501   0.113   4.119   8.417 -0.1164  1.0413 -1.9588
 9347SOL     OW39502   4.657   0.447   1.735  0.6111 -0.3361 -0.5670
 9347SOL    HW139503   0.000   0.485   1.674 -1.9277  1.9023 -1.8199
 9347SOL    HW239504   4.625   0.529   1.773  0.7273  0.1217 -1.4595
 9348SOL     OW39505   1.889   3.010   8.897  0.0242  0.3485 -0.2674
 9348SOL    HW139506   1.889   3.089   8.949 -0.0669 -0.0242  0.2975
 9348SOL    HW239507   1.838   2.955   8.956  0.4240  1.3089  0.9760
 9349SOL     OW39508   0.447   3.195   1.830 -0.2623 -0.3690  0.3166
 9349SOL    HW139509   0.428   3.266   1.769  0.8234  0.0864  0.5172
 9349SOL    HW239510   0.541   3.208   1.826 -0.4297  0.4995 -0.8690
 9350SOL     OW39511   3.231   1.015   4.569 -0.1713 -0.2204 -0.0319
 9350SOL    HW139512   3.244   1.077   4.641  1.1015 -3.7971  2.8032
 9350SOL    HW239513   3.323   0.999   4.549 -0.0896 -0.6202  0.6775
 9351SOL     OW39514   1.143   0.860  17.664  0.2621  0.0941  0.0799
 9351SOL    HW139515   1.225   0.811  17.659  0.2875  0.2554 -1.0190
 9351SOL    HW239516   1.094   0.818   0.054 -0.6331  0.3192 -0.4032
 9352SOL     OW39517   3.093   1.501   1.061  0.4317 -0.0594  0.9250
 9352SOL    HW139518   3.009   1.543   1.079  1.2070  1.3007  1.4023
 9352SOL    HW239519   3.131   1.508   1.148  2.6917 -1.1857  0.0315
 9353SOL     OW39520   1.763   2.952   6.699 -0.3553 -0.3983 -0.6245
 9353SOL    HW139521   1.780   2.940   6.605  1.0833 -3.3598  0.0185
 9353SOL    HW239522   1.814   2.895   6.757 -0.4089  2.1898  1.9712
 9354SOL     OW39523   4.127   1.404  13.405  1.0774 -0.0246 -0.0156
 9354SOL    HW139524   4.044   1.382  13.363  0.5317 -2.5218  2.3891
 9354SOL    HW239525   4.099   1.487  13.443  0.1087 -0.9175  1.1904
 9355SOL     OW39526   2.027   0.938   6.415 -0.1483  0.5502  0.1649
 9355SOL    HW139527   2.015   0.997   6.341  0.9689 -0.2549 -0.6374
 9355SOL    HW239528   2.046   1.001   6.484 -0.2907  1.5446 -0.7029
 9356SOL     OW39529   0.292   3.495   2.544  0.0653  0.6542  0.7096
 9356SOL    HW139530   0.280   3.402   2.522  3.9294  0.0819  0.9716
 9356SOL    HW239531   0.381   3.515   2.517 -1.3626  1.2833 -3.4036
 9357SOL     OW39532   4.261   4.583   6.122 -0.4304  0.2471 -0.2116
 9357SOL    HW139533   4.273   4.666   6.075 -0.6090  1.1640  1.3476
 9357SOL    HW239534   4.204   4.604   6.195 -0.9727 -0.8629 -0.3223
 9358SOL     OW39535   2.601   1.418   6.009  0.1965  0.3043  0.0862
 9358SOL    HW139536   2.651   1.369   5.944  1.7634 -0.4960  1.8959
 9358SOL    HW239537   2.518   1.372   6.015 -0.1807  0.7508 -1.6484
 9359SOL     OW39538   2.184   2.506   2.049 -0.5043  0.2521 -0.2572
 9359SOL    HW139539   2.162   2.583   2.101 -1.6991 -0.3305  0.1278
 9359SOL    HW239540   2.275   2.528   2.030  0.5030 -1.9090  2.0025
 9360SOL     OW39541   3.980   0.427   1.684  0.1436  0.4139  0.3052
 9360SOL    HW139542   3.914   0.406   1.619 -0.0269  1.5655  0.1195
 9360SOL    HW239543   4.047   0.361   1.666 -0.2487  0.5406 -1.6098
 9361SOL     OW39544   2.377   4.000   3.072  0.3005 -0.0056 -0.1490
 9361SOL    HW139545   2.310   4.048   3.121 -0.1362 -3.1579  2.3436
 9361SOL    HW239546   2.395   4.056   2.996  0.2639  1.3023  0.8098
 9362SOL     OW39547   0.512   0.278   8.566  0.1330 -0.2459  0.0130
 9362SOL    HW139548   0.506   0.241   8.478  0.3408  0.6960 -0.4000
 9362SOL    HW239549   0.420   0.279   8.594  0.1323  3.1983 -0.0608
 9363SOL     OW39550   3.166   3.486   3.076 -0.1544  0.2880  0.2261
 9363SOL    HW139551   3.117   3.536   3.010 -2.6725 -2.7029 -0.1729
 9363SOL    HW239552   3.168   3.538   3.156  2.6857  0.0687  0.2786
 9364SOL     OW39553   4.148   1.675  12.610 -0.5212 -0.5379 -0.3194
 9364SOL    HW139554   4.173   1.681  12.518 -0.8016  0.2929 -0.3423
 9364SOL    HW239555   4.238   1.663  12.643 -0.8554  0.4712  0.9643
 9365SOL     OW39556   0.135   0.317  12.065 -0.4901 -0.4017  0.1293
 9365SOL    HW139557   0.123   0.385  12.132  4.6401  0.4443  0.1824
 9365SOL    HW239558   0.182   0.258  12.123  0.1398 -0.7084 -0.6883
 9366SOL     OW39559   3.908   1.314  15.965 -0.1227 -0.1646  0.1481
 9366SOL    HW139560   3.850   1.367  15.911 -0.2159 -0.0487  0.3667
 9366SOL    HW239561   3.978   1.378  15.977  1.4576 -1.4305 -2.0183
 9367SOL     OW39562   0.283   4.707   7.279  0.4275  0.5325 -0.1568
 9367SOL    HW139563   0.362   4.719   7.226  1.8166  2.2348  2.3299
 9367SOL    HW239564   0.262   0.075   7.311  1.0523  1.2537 -1.7065
 9368SOL     OW39565   3.583   2.671   2.557 -0.4247 -0.1280 -0.3949
 9368SOL    HW139566   3.626   2.585   2.563 -1.0825 -0.3407  1.2499
 9368SOL    HW239567   3.497   2.629   2.548 -0.7953  0.6062 -0.2384
 9369SOL     OW39568   4.719   1.490   6.519 -0.4591  0.6008  0.9757
 9369SOL    HW139569   4.637   1.527   6.554 -0.4651 -0.1743  1.7773
 9369SOL    HW239570   0.050   1.564   6.486 -1.8800  1.1482 -0.0177
 9370SOL     OW39571   1.513   1.594   7.793 -0.0821  0.1620  0.6313
 9370SOL    HW139572   1.532   1.502   7.775  1.3556  0.3363  1.2024
 9370SOL    HW239573   1.473   1.622   7.711  0.3967  0.6385  0.5599
 9371SOL     OW39574   0.455   2.710  14.488 -0.2123 -0.0180  0.0067
 9371SOL    HW139575   0.372   2.721  14.441  0.3691 -0.6915 -1.1624
 9371SOL    HW239576   0.451   2.784  14.549 -3.2218 -1.3094  1.3969
 9372SOL     OW39577   4.026   4.703   3.113  0.3110  0.1842  0.3684
 9372SOL    HW139578   4.037   0.045   3.184  1.9191 -0.2468  0.4970
 9372SOL    HW239579   4.110   4.658   3.113 -1.1795 -2.6158  0.7086
 9373SOL     OW39580   0.654   3.195   0.085 -0.3938 -0.5193 -0.6295
 9373SOL    HW139581   0.724   3.259   0.096 -0.4433 -0.3010 -1.5680
 9373SOL    HW239582   0.677   3.130   0.151  2.6457  0.0005 -1.1996
 9374SOL     OW39583   3.014   2.048  17.026  0.2221  0.4157 -0.0423
 9374SOL    HW139584   3.061   2.089  17.099  1.1547 -4.2121  1.9132
 9374SOL    HW239585   2.950   1.999  17.078 -0.6443 -0.3070 -1.8193
 9375SOL     OW39586   4.294   3.233  15.958 -0.3697 -0.2651 -0.3749
 9375SOL    HW139587   4.366   3.268  15.906  0.0090  0.6095  0.7459
 9375SOL    HW239588   4.331   3.146  15.970  0.2858 -0.2626 -2.2714
 9376SOL     OW39589   4.617   1.356   2.361  0.4109  0.2380  0.0331
 9376SOL    HW139590   4.636   1.402   2.280 -1.4874  3.2526  1.3224
 9376SOL    HW239591   4.524   1.366   2.378  0.4171  1.4126 -0.6819
 9377SOL     OW39592   1.651   0.131   8.590 -0.7745  0.5386  0.1745
 9377SOL    HW139593   1.583   0.131   8.522  0.5722  1.2669 -1.1907
 9377SOL    HW239594   1.630   0.045   8.625  1.7362 -0.6971 -1.3911
 9378SOL     OW39595   2.298   2.946  13.516 -0.4980  0.0896  0.5858
 9378SOL    HW139596   2.318   3.037  13.492 -1.7017  0.2329  0.1117
 9378SOL    HW239597   2.337   2.899  13.442  0.6921  2.4866 -0.3149
 9379SOL     OW39598   1.242   0.138   3.253  0.0017  0.0958  0.0454
 9379SOL    HW139599   1.325   0.175   3.223  1.3504 -1.8270  1.3595
 9379SOL    HW239600   1.181   0.194   3.206 -0.3632  0.2534  0.7058
 9380SOL     OW39601   1.376   4.113  12.436  0.1005  0.2558  0.2844
 9380SOL    HW139602   1.295   4.119  12.387  0.4042  1.1739 -0.0916
 9380SOL    HW239603   1.411   4.197  12.407  1.3109 -0.4691 -0.3522
 9381SOL     OW39604   2.968   2.930   7.317 -0.1085  0.2379 -0.6595
 9381SOL    HW139605   2.872   2.933   7.317 -0.0838  1.1603 -0.9205
 9381SOL    HW239606   2.977   3.017   7.278 -0.0310  0.3609 -0.3598
 9382SOL     OW39607   4.133   0.304   3.812 -0.5238 -0.0976 -0.1004
 9382SOL    HW139608   4.043   0.328   3.790 -0.2644  0.0009 -1.0584
 9382SOL    HW239609   4.141   0.216   3.775  0.1295 -0.3630  0.6696
 9383SOL     OW39610   4.150   3.219   6.960 -0.2218  0.2340  0.4236
 9383SOL    HW139611   4.120   3.309   6.956 -2.4564 -0.3657  3.3628
 9383SOL    HW239612   4.198   3.199   6.879  1.7546 -2.5533  2.2805
 9384SOL     OW39613   0.897   0.224   3.466 -0.4628  0.5781  0.5188
 9384SOL    HW139614   0.846   0.201   3.388  0.4079  0.0402  0.1091
 9384SOL    HW239615   0.926   0.139   3.498 -0.7311 -1.1863 -3.9747
 9385SOL     OW39616   4.380   2.164   2.193 -0.3811 -0.4033  0.3551
 9385SOL    HW139617   4.285   2.159   2.192 -0.4587  0.7941  1.4280
 9385SOL    HW239618   4.404   2.154   2.285 -1.0855  3.8611  1.0103
 9386SOL     OW39619   4.106   1.106   8.016  0.2079  0.0714 -0.4957
 9386SOL    HW139620   4.019   1.066   8.025 -0.2118  1.1733  0.4037
 9386SOL    HW239621   4.093   1.155   7.935  0.0805 -0.2263 -0.6564
 9387SOL     OW39622   0.064   1.158   7.587  0.0122  0.1790  0.3011
 9387SOL    HW139623   4.700   1.154   7.633  0.1952 -0.8817  0.5466
 9387SOL    HW239624   0.102   1.237   7.624  1.5152 -0.4745  0.1630
 9388SOL     OW39625   0.508   4.537   5.756 -0.0909 -0.0878 -0.5042
 9388SOL    HW139626   0.451   4.467   5.787  0.5202  0.3464  1.5787
 9388SOL    HW239627   0.495   4.512   5.665 -0.4521 -1.4735 -0.0721
 9389SOL     OW39628   4.409   0.301   9.639  0.4117  0.5226 -0.2963
 9389SOL    HW139629   4.503   0.313   9.652  0.6976 -1.2440 -0.7968
 9389SOL    HW239630   4.391   0.392   9.617 -0.1616 -0.1554 -2.6510
 9390SOL     OW39631   2.589   3.714  16.596  0.2282  0.1850  0.4475
 9390SOL    HW139632   2.682   3.735  16.595  0.8118 -2.3824  0.7592
 9390SOL    HW239633   2.571   3.713  16.690 -0.3094  0.7106  0.3523
 9391SOL     OW39634   0.768   1.869  11.683 -0.2061 -0.1857 -0.2851
 9391SOL    HW139635   0.680   1.852  11.648 -0.7992  0.8121  0.7313
 9391SOL    HW239636   0.754   1.879  11.777 -0.2391  0.8599 -0.4054
 9392SOL     OW39637   4.598   3.326  17.559 -0.7395 -0.4375  0.2722
 9392SOL    HW139638   4.611   3.403  17.504 -0.0841 -0.3429  0.5584
 9392SOL    HW239639   4.573   3.356  17.646  0.8931  2.4516 -0.2726
 9393SOL     OW39640   3.300   2.163   4.646  0.2046 -0.1711 -0.3185
 9393SOL    HW139641   3.292   2.068   4.656  0.0195  0.0457  1.6076
 9393SOL    HW239642   3.352   2.175   4.725 -0.9761  1.4660  0.2064
 9394SOL     OW39643   1.374   0.345   6.214  0.1253  0.6361 -0.3388
 9394SOL    HW139644   1.386   0.251   6.201  0.8087  1.1612 -3.5036
 9394SOL    HW239645   1.375   0.352   6.310 -0.1869 -2.2840 -0.1238
 9395SOL     OW39646   1.410   0.198  16.702  0.0681 -0.3718 -0.6085
 9395SOL    HW139647   1.472   0.254  16.655  0.2087  1.9094  2.3069
 9395SOL    HW239648   1.383   0.133  16.637  0.2019 -0.4700 -0.5662
 9396SOL     OW39649   3.128   2.530   9.882 -0.4255  0.1370 -0.0462
 9396SOL    HW139650   3.093   2.528   9.793  0.4505 -0.2491 -0.3750
 9396SOL    HW239651   3.089   2.454   9.924  0.9060  0.2327  1.3709
 9397SOL     OW39652   0.151   0.077   7.535  0.3705  0.6087  0.6488
 9397SOL    HW139653   0.225   0.028   7.572 -0.5234  0.2787  2.0356
 9397SOL    HW239654   0.175   0.169   7.533  1.3581  0.3661  1.5497
 9398SOL     OW39655   2.190   3.553   9.693 -0.3142 -0.6757  0.5503
 9398SOL    HW139656   2.222   3.497   9.765  1.3442 -0.9102 -0.3596
 9398SOL    HW239657   2.211   3.502   9.614 -2.1388  0.1315 -0.4314
 9399SOL     OW39658   0.673   1.086   1.594  0.3359  0.0758 -0.3486
 9399SOL    HW139659   0.601   1.083   1.530 -0.6109  0.3589  0.7131
 9399SOL    HW239660   0.643   1.146   1.662  1.1068  1.5690 -1.3374
 9400SOL     OW39661   4.626   2.742  10.478 -0.2776  0.8184  0.1442
 9400SOL    HW139662   4.716   2.719  10.502 -0.5019  1.5675  1.7432
 9400SOL    HW239663   4.633   2.764  10.386  1.3738  1.0422  0.3224
 9401SOL     OW39664   4.210   0.685   8.364  0.1128  0.5356 -0.4025
 9401SOL    HW139665   4.279   0.723   8.419  0.4139  0.0376 -0.4432
 9401SOL    HW239666   4.138   0.674   8.426 -1.6482 -3.1330 -3.1393
 9402SOL     OW39667   2.087   4.207  14.503 -0.2261 -0.9245 -0.3576
 9402SOL    HW139668   2.151   4.251  14.447  0.6786 -0.5909  0.9158
 9402SOL    HW239669   2.004   4.249  14.484 -1.1038 -1.6262  1.8517
 9403SOL     OW39670   2.365   3.795   9.247  0.3361  0.6646  0.0753
 9403SOL    HW139671   2.431   3.864   9.244 -0.4402  1.4274  0.4014
 9403SOL    HW239672   2.396   3.752   9.327  2.7776  0.0477 -1.2055
 9404SOL     OW39673   2.889   3.532   3.647 -0.1466 -0.2484 -0.0452
 9404SOL    HW139674   2.794   3.530   3.638  0.0530 -1.2153 -1.9790
 9404SOL    HW239675   2.908   3.589   3.572  0.5947  1.7537  1.6728
 9405SOL     OW39676   4.337   4.654   6.654 -0.2885 -0.2593 -0.0121
 9405SOL    HW139677   4.392   4.593   6.702 -0.1051  0.0846  0.2138
 9405SOL    HW239678   4.401   0.005   6.642  0.4454 -1.0012 -0.4369
 9406SOL     OW39679   1.843   2.103   4.313 -0.5961  0.1308  0.1643
 9406SOL    HW139680   1.764   2.076   4.359 -1.1312  0.4887 -0.5573
 9406SOL    HW239681   1.822   2.196   4.302 -1.1709 -0.1245 -0.9156
 9407SOL     OW39682   1.396   2.121  11.828  0.6672  0.1377  0.7995
 9407SOL    HW139683   1.462   2.170  11.877  0.4610 -2.0964  3.2709
 9407SOL    HW239684   1.448   2.061  11.774 -0.1794  0.1496 -0.0345
 9408SOL     OW39685   1.175   1.301  14.125 -0.6315  0.4904  0.0293
 9408SOL    HW139686   1.202   1.338  14.208 -1.6014  2.9127 -0.7458
 9408SOL    HW239687   1.135   1.218  14.154  2.9317 -0.3833  2.3717
 9409SOL     OW39688   1.786   0.254   2.192 -0.2275  0.3367 -0.2367
 9409SOL    HW139689   1.718   0.208   2.143  1.8161 -1.2739 -1.5646
 9409SOL    HW239690   1.729   0.311   2.242 -2.6321 -1.5150 -0.8688
 9410SOL     OW39691   3.669   1.965   4.974  0.1851 -0.1141  0.3787
 9410SOL    HW139692   3.752   2.008   4.952 -0.3332 -1.0910 -3.5255
 9410SOL    HW239693   3.685   1.874   4.945 -0.2018 -0.1034  0.1275
 9411SOL     OW39694   2.343   4.191  17.358  0.0128  0.5239 -0.6050
 9411SOL    HW139695   2.374   4.270  17.313 -0.0157  0.6559 -0.3917
 9411SOL    HW239696   2.389   4.125  17.305 -0.0877 -1.5182  1.8561
 9412SOL     OW39697   4.621   2.421   1.548 -0.5609 -0.9954 -0.2347
 9412SOL    HW139698   4.528   2.443   1.554 -0.0472  0.8763  0.5299
 9412SOL    HW239699   4.599   2.347   1.491  2.0438  0.1284 -2.6953
 9413SOL     OW39700   4.314   1.129   3.667 -0.0227 -0.0633  0.2509
 9413SOL    HW139701   4.389   1.184   3.688  1.1834 -0.7992 -2.0602
 9413SOL    HW239702   4.295   1.157   3.577  1.2611  0.1741  0.0515
 9414SOL     OW39703   0.521   2.178   0.211  0.1760 -0.1189  0.5717
 9414SOL    HW139704   0.491   2.200   0.123  0.1455 -1.5062  0.2382
 9414SOL    HW239705   0.470   2.098   0.224  0.0556  0.0618  1.1980
 9415SOL     OW39706   0.386   2.130   3.753 -0.1534  0.1939 -0.5159
 9415SOL    HW139707   0.354   2.052   3.706  1.3666 -1.0658  0.5578
 9415SOL    HW239708   0.319   2.193   3.727  2.3292  2.0287 -2.4155
 9416SOL     OW39709   3.931   3.450   3.604 -0.0169 -0.9258 -0.2851
 9416SOL    HW139710   3.954   3.432   3.513 -2.1264 -1.5333 -0.6969
 9416SOL    HW239711   3.907   3.541   3.585  2.5912 -0.3741 -0.8745
 9417SOL     OW39712   2.331   0.478   6.644 -0.1306 -0.3156 -0.5677
 9417SOL    HW139713   2.307   0.430   6.565 -0.2632 -0.9022 -0.1744
 9417SOL    HW239714   2.417   0.437   6.655 -0.7849 -1.7910 -0.8544
 9418SOL     OW39715   3.061   3.051   8.299  0.1776  0.2188  0.3020
 9418SOL    HW139716   3.061   3.035   8.393  0.9849 -0.7815  0.1265
 9418SOL    HW239717   3.131   2.992   8.270 -0.5337 -0.8192  0.7209
 9419SOL     OW39718   4.380   4.719   2.337 -0.7564  0.0389 -0.4317
 9419SOL    HW139719   4.320   0.059   2.382 -1.1816 -1.0423  0.4340
 9419SOL    HW239720   4.455   0.038   2.382 -0.2578  2.1779 -3.1257
 9420SOL     OW39721   0.782   1.775   6.038  0.0168  0.2119  0.2288
 9420SOL    HW139722   0.785   1.862   5.999  1.9308 -0.5056 -1.1826
 9420SOL    HW239723   0.730   1.727   5.973 -0.2068 -0.8706  1.1995
 9421SOL     OW39724   1.360   1.349   0.052 -0.4937 -0.2706 -0.4505
 9421SOL    HW139725   1.294   1.287   0.019 -0.7284 -0.8266  1.0786
 9421SOL    HW239726   1.371   1.406  17.657  0.4950 -2.7205 -2.1150
 9422SOL     OW39727   2.429   0.537   3.424  0.9929  0.8105 -0.1490
 9422SOL    HW139728   2.508   0.484   3.415  1.2136  1.0903  0.1599
 9422SOL    HW239729   2.387   0.503   3.345  0.8300 -0.8053  0.6150
 9423SOL     OW39730   0.028   0.178  10.539 -0.4536  0.6042  0.0747
 9423SOL    HW139731   4.676   0.227  10.578  0.4828  1.7068  0.4059
 9423SOL    HW239732   0.045   0.124  10.617  2.5792  0.1612 -0.8782
 9424SOL     OW39733   0.924   0.497  10.242 -0.0726  0.5590 -0.1801
 9424SOL    HW139734   0.882   0.578  10.270  2.7609  2.1267 -0.4988
 9424SOL    HW239735   0.874   0.432  10.292 -1.1880  1.2335 -0.3979
 9425SOL     OW39736   3.467   4.689  17.509  0.3903  0.5249  0.0275
 9425SOL    HW139737   3.550   4.664  17.549 -1.0056  0.3892  2.8217
 9425SOL    HW239738   3.457   4.611  17.454 -0.9516  0.9098 -0.2665
 9426SOL     OW39739   2.094   1.006   5.965  0.3712  0.0765  0.5331
 9426SOL    HW139740   2.169   0.971   5.917 -0.4340 -0.7173 -0.1449
 9426SOL    HW239741   2.050   1.071   5.911  0.6891 -1.3487 -1.4236
 9427SOL     OW39742   4.544   1.222   8.594  0.5094  0.0817  0.2348
 9427SOL    HW139743   4.593   1.280   8.536  1.4535  1.1367  2.0806
 9427SOL    HW239744   4.500   1.290   8.646 -0.3953 -0.8572  0.6972
 9428SOL     OW39745   1.813   2.247   8.978  0.9299 -0.1786 -0.6564
 9428SOL    HW139746   1.733   2.220   8.933  0.7074  0.2630 -0.5253
 9428SOL    HW239747   1.800   2.235   9.072  0.0697 -1.5506 -0.9472
 9429SOL     OW39748   1.104   0.279   0.393  0.0501  0.0986 -0.7328
 9429SOL    HW139749   1.175   0.262   0.331  1.0690 -1.3611  0.8225
 9429SOL    HW239750   1.132   0.367   0.417  2.2212 -0.9240  0.4656
 9430SOL     OW39751   3.299   3.607  15.335 -0.5036  0.3633  0.3817
 9430SOL    HW139752   3.272   3.576  15.422  0.9867 -0.6429  0.4832
 9430SOL    HW239753   3.346   3.686  15.361 -0.5676  0.5427 -0.0537
 9431SOL     OW39754   2.134   3.001   1.890  0.0881 -0.3660 -0.5552
 9431SOL    HW139755   2.106   3.054   1.965  2.0949  1.0956 -0.8545
 9431SOL    HW239756   2.051   2.955   1.879 -0.7735  1.4023 -1.3819
 9432SOL     OW39757   0.563   3.006   8.384 -0.3259 -0.2937 -0.3727
 9432SOL    HW139758   0.581   3.002   8.478  1.2968 -3.2071 -0.8100
 9432SOL    HW239759   0.648   2.978   8.351 -1.0128 -1.6653 -0.9880
 9433SOL     OW39760   0.252   0.673   4.322  0.6479 -0.5131 -0.0898
 9433SOL    HW139761   0.303   0.613   4.268 -1.2860 -1.1655 -1.2287
 9433SOL    HW239762   0.306   0.751   4.308 -2.2188  1.3014 -1.0649
 9434SOL     OW39763   1.131   3.593   3.435 -0.6633 -0.1290  0.4499
 9434SOL    HW139764   1.184   3.634   3.367  1.0076 -3.1182 -0.0337
 9434SOL    HW239765   1.100   3.673   3.478 -0.8410 -0.7324  1.4522
 9435SOL     OW39766   3.036   1.562   5.313  0.6955  0.2066 -0.5389
 9435SOL    HW139767   3.128   1.572   5.290  1.7597 -2.7129  2.3774
 9435SOL    HW239768   3.041   1.497   5.384  0.0345 -1.4963 -2.0563
 9436SOL     OW39769   3.662   3.974  15.697 -0.4097 -0.6945 -0.0225
 9436SOL    HW139770   3.690   4.058  15.734 -4.1902  0.3893  0.3322
 9436SOL    HW239771   3.607   3.929  15.761  0.1011 -0.6010  0.4875
 9437SOL     OW39772   3.208   3.274  10.620 -0.4499  0.4506  0.6549
 9437SOL    HW139773   3.200   3.255  10.527  0.9081  1.0108  0.4333
 9437SOL    HW239774   3.296   3.247  10.642  0.1235  0.7477 -1.2720
 9438SOL     OW39775   0.779   4.650  12.161  0.1026  0.1686 -0.6534
 9438SOL    HW139776   0.773   4.656  12.066  0.2772 -0.4343 -0.7018
 9438SOL    HW239777   0.846   4.717  12.176  1.9328 -2.0643  1.1481
 9439SOL     OW39778   3.970   4.714   0.698  0.2442  0.5983 -0.0865
 9439SOL    HW139779   4.005   4.706   0.609  0.6915 -3.3238  0.4207
 9439SOL    HW239780   3.995   4.632   0.741  1.1059  1.3521  0.8448
 9440SOL     OW39781   3.940   1.889   7.576 -0.0047 -0.7374 -0.2088
 9440SOL    HW139782   3.936   1.824   7.505  0.8785 -1.1964  0.1644
 9440SOL    HW239783   3.873   1.950   7.544 -3.5502 -4.1355  0.6059
 9441SOL     OW39784   3.477   1.245   9.187  0.2156  0.5263  0.5832
 9441SOL    HW139785   3.443   1.192   9.115  1.0881  0.8731 -0.0875
 9441SOL    HW239786   3.399   1.275   9.234 -0.2068  0.4551 -0.0797
 9442SOL     OW39787   2.518   0.506   8.045 -0.3739 -0.0356  0.5014
 9442SOL    HW139788   2.436   0.491   7.998 -1.2451  0.1420  1.9389
 9442SOL    HW239789   2.527   0.419   8.084 -1.0442  0.4544  1.7574
 9443SOL     OW39790   3.725   0.035   5.738 -0.2249  0.1237  0.1084
 9443SOL    HW139791   3.710   0.093   5.664 -1.4343  1.3447  1.3192
 9443SOL    HW239792   3.794   0.086   5.780 -1.5638  1.6138  0.4732
 9444SOL     OW39793   2.958   3.742   2.450  0.5762 -0.1924 -0.0441
 9444SOL    HW139794   2.960   3.760   2.356 -0.8018 -3.3057 -0.6718
 9444SOL    HW239795   2.923   3.827   2.477 -0.2736 -0.2555 -0.9584
 9445SOL     OW39796   2.554   2.730   9.152 -0.0585  0.6256  0.0283
 9445SOL    HW139797   2.566   2.705   9.243 -0.7088  0.3475  0.0353
 9445SOL    HW239798   2.529   2.645   9.116  1.1042  0.1748  0.3032
 9446SOL     OW39799   1.545   2.086   4.670 -0.4061  0.1415  0.9771
 9446SOL    HW139800   1.460   2.112   4.706 -0.4156 -0.7346  1.5673
 9446SOL    HW239801   1.603   2.075   4.745 -0.8079  0.8944  1.4046
 9447SOL     OW39802   2.396   3.154  15.503  0.2591  0.2195  0.1984
 9447SOL    HW139803   2.376   3.065  15.474  1.6802  0.4602 -1.5096
 9447SOL    HW239804   2.436   3.182  15.421 -0.5726 -0.1915 -0.3483
 9448SOL     OW39805   1.675   2.680   8.045  0.0329 -0.3825  0.3099
 9448SOL    HW139806   1.628   2.752   8.087 -1.1960 -1.0202  0.0180
 9448SOL    HW239807   1.612   2.608   8.044  0.0058 -0.2823 -5.3382
 9449SOL     OW39808   3.547   3.737   8.216 -0.1110  0.5069  0.2829
 9449SOL    HW139809   3.581   3.654   8.183 -1.4935 -0.2774  0.8340
 9449SOL    HW239810   3.483   3.761   8.149  1.0133 -0.9256 -1.2760
 9450SOL     OW39811   3.968   1.843  16.361 -0.1397 -0.5190  0.1090
 9450SOL    HW139812   3.897   1.825  16.422 -1.4959 -2.1987 -1.9357
 9450SOL    HW239813   3.927   1.871  16.279  1.0948  1.7980  0.2987
 9451SOL     OW39814   1.810   0.184  12.464 -0.3515  0.3328 -0.6943
 9451SOL    HW139815   1.866   0.257  12.440  1.3831 -0.9295 -0.4707
 9451SOL    HW239816   1.845   0.158  12.549 -0.5314  1.2878 -0.3343
 9452SOL     OW39817   4.407   3.230   8.040  0.1512 -0.4568  0.0396
 9452SOL    HW139818   4.353   3.162   8.001  2.3652 -2.0685 -0.2514
 9452SOL    HW239819   4.442   3.181   8.115  2.7083  1.5214  0.1542
 9453SOL     OW39820   4.001   4.453   0.818 -0.2550  0.4062  0.0518
 9453SOL    HW139821   4.041   4.370   0.844 -0.6373 -0.2209 -1.3910
 9453SOL    HW239822   3.968   4.487   0.901 -0.4115  2.3259 -0.8009
 9454SOL     OW39823   1.887   1.972   9.125 -0.3863  0.4025 -0.0464
 9454SOL    HW139824   1.866   1.948   9.215  1.9025  1.6347  0.8102
 9454SOL    HW239825   1.800   2.006   9.101 -1.1982 -2.3154 -0.9310
 9455SOL     OW39826   4.060   1.254  17.097 -0.1318 -0.3185  0.0985
 9455SOL    HW139827   4.008   1.173  17.096  4.3089 -3.1986  1.5441
 9455SOL    HW239828   4.047   1.291  17.010  0.8632  1.0662  0.5375
 9456SOL     OW39829   1.301   2.698   2.934 -0.3604 -0.1884  0.0200
 9456SOL    HW139830   1.206   2.702   2.945 -0.5708  1.3912 -2.2880
 9456SOL    HW239831   1.323   2.605   2.927  0.8528  0.0212  0.9356
 9457SOL     OW39832   3.977   1.007  10.859  0.0169 -0.4746 -0.1302
 9457SOL    HW139833   3.934   0.978  10.778 -1.8319 -1.1085  1.0770
 9457SOL    HW239834   4.069   0.990  10.841 -0.0333 -1.6959  0.8180
 9458SOL     OW39835   2.866   4.330  13.796  0.1208 -0.0221  0.2362
 9458SOL    HW139836   2.838   4.370  13.714  1.3717 -1.4414 -0.8887
 9458SOL    HW239837   2.899   4.250  13.755 -2.3553 -0.6943 -0.4088
 9459SOL     OW39838   3.532   0.217  10.470  0.4506  0.2282  0.3243
 9459SOL    HW139839   3.587   0.240  10.544 -0.2401 -1.5045  1.3823
 9459SOL    HW239840   3.445   0.216  10.510  0.1843 -0.3293 -0.2721
 9460SOL     OW39841   0.722   2.820   6.304 -0.7104  0.8912 -0.2308
 9460SOL    HW139842   0.660   2.793   6.237 -1.5288 -0.1880  0.9643
 9460SOL    HW239843   0.780   2.881   6.259  1.1051 -1.5057 -1.1228
 9461SOL     OW39844   3.211   3.628   0.924 -0.0460 -0.0305 -0.1767
 9461SOL    HW139845   3.286   3.587   0.881  0.5664  0.4968  0.3930
 9461SOL    HW239846   3.167   3.659   0.845 -1.8623  1.6279  1.4881
 9462SOL     OW39847   4.299   2.566  13.290 -0.5225  0.3322 -0.0543
 9462SOL    HW139848   4.231   2.611  13.240 -0.8094  0.3151  0.3175
 9462SOL    HW239849   4.371   2.626  13.303  0.4639 -0.0897 -3.5756
 9463SOL     OW39850   1.285   0.926   3.356 -0.0452 -0.4030 -0.0418
 9463SOL    HW139851   1.308   0.850   3.410  0.5702 -0.1772  0.0204
 9463SOL    HW239852   1.203   0.891   3.322 -1.3183 -0.2577  2.8057
 9464SOL     OW39853   0.236   0.152  10.927  0.3382 -0.1478 -0.1734
 9464SOL    HW139854   0.284   0.233  10.943  1.2966 -0.3991 -1.7046
 9464SOL    HW239855   0.169   0.159  10.995  0.9136 -0.2438  0.4044
 9465SOL     OW39856   3.190   4.057  13.111  0.2382 -0.4048  0.1024
 9465SOL    HW139857   3.186   3.962  13.118  1.0337 -0.6042 -2.2555
 9465SOL    HW239858   3.116   4.080  13.168  0.5095 -2.5017  1.2913
 9466SOL     OW39859   1.973   3.886  10.854  0.5915  0.2755  0.3329
 9466SOL    HW139860   1.940   3.874  10.943  0.0539  0.5702  0.1711
 9466SOL    HW239861   2.065   3.899  10.876  0.7029 -0.3367  0.2298
 9467SOL     OW39862   3.402   4.065   3.229 -0.2928  0.1919 -0.0004
 9467SOL    HW139863   3.395   4.004   3.156 -1.9638  0.9233 -0.4559
 9467SOL    HW239864   3.343   4.138   3.209 -0.4676  0.0657  0.0578
 9468SOL     OW39865   2.063   4.504   3.262  0.5786 -0.0832  0.4299
 9468SOL    HW139866   1.977   4.540   3.239  0.9021 -0.4631 -1.3170
 9468SOL    HW239867   2.043   4.411   3.273  1.3969 -0.5271 -1.8547
 9469SOL     OW39868   1.398   1.040   6.416  0.4236 -0.0088  0.2582
 9469SOL    HW139869   1.342   1.078   6.484 -0.0542 -0.8320  0.3263
 9469SOL    HW239870   1.459   1.113   6.408 -0.5014  0.9134  1.4831
 9470SOL     OW39871   1.510   2.811   8.937  0.3274  0.5410 -0.6317
 9470SOL    HW139872   1.417   2.833   8.934 -0.0271 -1.0630 -1.5099
 9470SOL    HW239873   1.514   2.742   8.871 -0.2530 -1.6424  1.6064
 9471SOL     OW39874   1.578   1.275   6.409 -0.2368  0.4956 -0.0106
 9471SOL    HW139875   1.653   1.308   6.359 -0.2632  1.1856  0.4157
 9471SOL    HW239876   1.531   1.357   6.422  2.5058  2.1264 -0.2688
 9472SOL     OW39877   3.906   0.702  17.059  0.0716  0.4463  0.3825
 9472SOL    HW139878   3.893   0.614  17.024 -0.5816  1.3904 -1.7041
 9472SOL    HW239879   3.856   0.694  17.140 -0.3655  2.5362  0.3358
 9473SOL     OW39880   1.974   3.474   0.451 -0.2098 -0.7045  0.0354
 9473SOL    HW139881   1.970   3.562   0.488 -0.4686  0.0510 -1.7762
 9473SOL    HW239882   1.882   3.451   0.438 -0.2748 -0.2958 -0.2219
 9474SOL     OW39883   0.809   0.929   5.150 -0.4699 -0.6266  0.3464
 9474SOL    HW139884   0.870   0.936   5.224  0.3176  2.2152 -0.5375
 9474SOL    HW239885   0.835   1.004   5.097 -2.8669 -0.4513 -0.5651
 9475SOL     OW39886   0.128   3.760   6.379  0.1151 -0.3762 -0.1574
 9475SOL    HW139887   0.085   3.695   6.434 -0.0590  0.0391  0.1959
 9475SOL    HW239888   0.222   3.756   6.396  0.6591  0.0513 -3.0442
 9476SOL     OW39889   0.013   4.385  14.468  0.1249 -0.3150  0.1586
 9476SOL    HW139890   4.663   4.338  14.513 -1.5722  3.1541  1.1839
 9476SOL    HW239891   4.692   4.471  14.479  0.4367  0.0865 -1.8943
 9477SOL     OW39892   1.499   1.800   3.260  0.1018  0.4722  0.7743
 9477SOL    HW139893   1.441   1.833   3.328 -1.1047 -0.3447  0.1434
 9477SOL    HW239894   1.566   1.756   3.311  3.2640  0.2406 -3.5892
 9478SOL     OW39895   2.035   3.762   5.142 -0.1298 -0.7705 -0.5321
 9478SOL    HW139896   2.052   3.687   5.086 -0.2711 -0.1957 -1.3522
 9478SOL    HW239897   1.946   3.780   5.110 -0.3017 -2.0087 -0.7609
 9479SOL     OW39898   1.538   3.065   3.968  0.1804 -0.6716  0.2049
 9479SOL    HW139899   1.629   3.045   3.947 -0.1909  0.5863 -2.6499
 9479SOL    HW239900   1.535   3.155   3.935  0.8802 -1.5233 -2.2201
 9480SOL     OW39901   2.732   1.824   4.444 -0.4216  0.5967  0.1523
 9480SOL    HW139902   2.803   1.796   4.386 -1.7993 -2.1134 -0.2227
 9480SOL    HW239903   2.671   1.752   4.434  1.5111 -1.2747  1.8325
 9481SOL     OW39904   1.116   2.327   3.798 -0.2152 -0.1774 -0.1220
 9481SOL    HW139905   1.099   2.369   3.714  2.3829  3.2520  1.0841
 9481SOL    HW239906   1.212   2.320   3.801 -0.3210 -2.1160 -1.1013
 9482SOL     OW39907   4.502   3.756   7.646 -0.0679 -0.3280 -0.0223
 9482SOL    HW139908   4.415   3.751   7.607 -1.2241 -4.2150  3.0642
 9482SOL    HW239909   4.550   3.800   7.577 -0.4302  1.9590  1.1548
 9483SOL     OW39910   4.152   1.971   0.539 -0.2982  0.1937 -0.3138
 9483SOL    HW139911   4.083   1.935   0.483 -2.2677  1.1393  1.4829
 9483SOL    HW239912   4.140   2.063   0.513  1.3357  0.7153  0.7616
 9484SOL     OW39913   2.843   0.379   3.815  0.3382 -0.1981 -0.4412
 9484SOL    HW139914   2.845   0.473   3.835 -0.5002 -0.2284 -0.2273
 9484SOL    HW239915   2.752   0.350   3.822 -0.1206  0.3934 -4.0340
 9485SOL     OW39916   3.119   3.702  15.086  0.1274  0.2035  0.1975
 9485SOL    HW139917   3.169   3.746  15.017 -0.3424 -0.7010 -0.7236
 9485SOL    HW239918   3.032   3.722  15.052  0.8037  0.9857 -1.0675
 9486SOL     OW39919   4.219   1.079  16.848 -0.4298  0.1460 -0.0841
 9486SOL    HW139920   4.168   1.047  16.923  0.8818 -0.6127  0.4946
 9486SOL    HW239921   4.295   1.121  16.888  1.3993 -3.1873 -0.0715
 9487SOL     OW39922   0.325   0.141   3.742 -0.3951  0.6067  0.1458
 9487SOL    HW139923   0.321   0.164   3.649 -0.0092 -0.5001 -0.1395
 9487SOL    HW239924   0.324   0.046   3.732 -0.5902  0.6855 -0.5837
 9488SOL     OW39925   1.521   1.963  17.188 -0.7925  0.3049 -0.0421
 9488SOL    HW139926   1.499   1.879  17.227  1.0607 -0.5457 -0.8432
 9488SOL    HW239927   1.435   1.986  17.152 -0.9906  1.5654  1.2770
 9489SOL     OW39928   4.379   2.080  15.556 -0.5157  0.3540  0.0894
 9489SOL    HW139929   4.415   1.994  15.533  1.0978  0.8526  0.7053
 9489SOL    HW239930   4.449   2.114  15.613  0.2661 -1.3372  0.1484
 9490SOL     OW39931   3.092   1.118  13.555 -0.6902 -0.2441 -0.0643
 9490SOL    HW139932   3.167   1.115  13.615 -1.7208  1.0091  1.2838
 9490SOL    HW239933   3.104   1.190  13.494 -0.0561 -1.6566 -1.6031
 9491SOL     OW39934   4.304   4.468   9.242 -0.3549 -0.1539 -0.2757
 9491SOL    HW139935   4.310   4.433   9.153 -0.6717  0.9944 -0.7500
 9491SOL    HW239936   4.379   4.423   9.280 -1.4766 -0.3460  1.7194
 9492SOL     OW39937   1.808   0.918  10.732  0.1255  0.2231  0.3912
 9492SOL    HW139938   1.875   0.850  10.732 -0.5215 -0.4084  0.2405
 9492SOL    HW239939   1.867   0.990  10.711  0.8290 -0.6918 -0.8007
 9493SOL     OW39940   1.808   3.668   1.224 -0.3148 -0.3224  0.4458
 9493SOL    HW139941   1.899   3.688   1.248  0.1106 -2.1295  0.3055
 9493SOL    HW239942   1.784   3.759   1.240  1.1883 -0.2236  2.2133
 9494SOL     OW39943   3.811   2.547   4.928  0.5917 -0.5013 -0.3270
 9494SOL    HW139944   3.754   2.470   4.929  1.3580 -1.0772 -0.4275
 9494SOL    HW239945   3.823   2.563   5.021 -1.6745 -0.9183  0.0409
 9495SOL     OW39946   1.854   1.331  15.688  0.4627 -0.3295  0.6450
 9495SOL    HW139947   1.853   1.336  15.784  1.0931 -0.9811  0.6834
 9495SOL    HW239948   1.926   1.389  15.667 -0.2443  0.2808 -0.1304
 9496SOL     OW39949   4.468   3.145   3.850 -0.3461  0.1798  0.0022
 9496SOL    HW139950   4.431   3.177   3.932  0.0675 -1.7497  0.9545
 9496SOL    HW239951   4.464   3.225   3.798  0.2305  1.2526  1.6278
 9497SOL     OW39952   1.725   3.911  15.464 -0.1906 -0.0174  0.0281
 9497SOL    HW139953   1.748   3.819  15.452 -1.7324 -0.5059  0.7176
 9497SOL    HW239954   1.806   3.950  15.432  0.1286  1.8895  3.2236
 9498SOL     OW39955   3.765   3.218   8.238  0.0937 -0.0905 -0.1044
 9498SOL    HW139956   3.783   3.262   8.322  3.5292 -0.5501 -0.6046
 9498SOL    HW239957   3.847   3.181   8.205  0.7701  0.5058  0.8969
 9499SOL     OW39958   2.945   4.338   2.683  0.0402 -0.2769 -0.1529
 9499SOL    HW139959   2.885   4.363   2.753  0.7767 -1.9533  1.0801
 9499SOL    HW239960   2.930   4.248   2.711 -0.8628  0.2094  0.8960
 9500SOL     OW39961   4.610   2.251   6.123 -0.2971 -0.4030 -0.3459
 9500SOL    HW139962   4.583   2.159   6.120  0.5855 -0.6687 -0.0602
 9500SOL    HW239963   4.644   2.260   6.034  0.7744  0.6106  0.1649
 9501SOL     OW39964   3.853   3.499   0.387 -0.1341 -0.2187 -0.0999
 9501SOL    HW139965   3.935   3.516   0.341 -0.2072  0.5226  0.0439
 9501SOL    HW239966   3.867   3.404   0.388 -0.0701 -0.2180 -1.0441
 9502SOL     OW39967   3.174   2.001  14.257  0.3964 -0.3556 -0.0060
 9502SOL    HW139968   3.163   2.074  14.195  2.6186  2.3168  2.7627
 9502SOL    HW239969   3.140   1.928  14.205  0.1429 -1.1481  1.2831
 9503SOL     OW39970   0.440   0.189   4.920 -0.1960 -0.2727 -0.4957
 9503SOL    HW139971   0.525   0.148   4.904  0.7829  0.9347  1.6681
 9503SOL    HW239972   0.391   0.129   4.977 -0.0338  1.0411  1.0370
 9504SOL     OW39973   4.162   3.845  13.822 -0.0962  0.0836 -0.0783
 9504SOL    HW139974   4.220   3.783  13.777 -0.7385  0.5200 -1.5022
 9504SOL    HW239975   4.075   3.809  13.805 -0.0714  0.4853 -1.0383
 9505SOL     OW39976   4.322   0.477   1.746 -0.1671  0.6840 -1.0333
 9505SOL    HW139977   4.298   0.436   1.829  0.7670 -0.6062 -1.4021
 9505SOL    HW239978   4.256   0.547   1.742  1.2768  2.0087 -1.4404
 9506SOL     OW39979   1.345   4.424  10.625  0.5339  0.2974 -0.0349
 9506SOL    HW139980   1.359   4.482  10.699 -1.3350  0.4593  0.1810
 9506SOL    HW239981   1.433   4.413  10.588  0.3585 -0.9599 -0.1063
 9507SOL     OW39982   4.053   0.706   7.878 -0.0012  0.2612 -0.1531
 9507SOL    HW139983   4.037   0.614   7.900  0.6875  0.2456  0.3028
 9507SOL    HW239984   4.070   0.705   7.784  0.8857  0.1642  0.0065
 9508SOL     OW39985   1.274   3.453   0.868 -0.4932  0.0953 -0.0039
 9508SOL    HW139986   1.193   3.444   0.818 -1.0161  0.9941  0.6924
 9508SOL    HW239987   1.325   3.381   0.830 -1.6455 -1.4879  1.4611
 9509SOL     OW39988   3.335   0.068   5.292 -0.4271 -0.1591  0.4244
 9509SOL    HW139989   3.354   0.079   5.198  0.9032 -0.8585  0.6034
 9509SOL    HW239990   3.287   0.149   5.309  2.1854  1.9017 -1.9179
 9510SOL     OW39991   2.492   0.246   0.159  0.2458 -0.9622  0.3477
 9510SOL    HW139992   2.449   0.188   0.222 -0.1969 -1.6208 -0.5678
 9510SOL    HW239993   2.417   0.295   0.124  1.6322  1.2150  0.4155
 9511SOL     OW39994   0.867   4.436   4.959  0.4972 -0.5688  0.0016
 9511SOL    HW139995   0.787   4.429   5.011  1.4636  0.7639  1.6531
 9511SOL    HW239996   0.920   4.488   5.020 -0.5132  0.7990 -0.3064
 9512SOL     OW39997   1.008   2.640  17.623 -0.1171  0.1848  0.1400
 9512SOL    HW139998   0.916   2.630  17.647  0.7849 -1.8672  2.7249
 9512SOL    HW239999   1.050   2.599   0.016 -0.8607 -0.5305  0.1628
 9513SOL     OW40000   3.787   2.798   6.890  0.6707  0.0344 -0.4924
 9513SOL    HW140001   3.855   2.861   6.911  0.4357  0.5052 -1.1743
 9513SOL    HW240002   3.820   2.774   6.804 -2.4868 -0.3473 -1.6091
 9514SOL     OW40003   4.610   3.157   5.816 -0.2725  0.0199  0.2070
 9514SOL    HW140004   4.587   3.245   5.786  1.0192  0.1056 -0.5117
 9514SOL    HW240005   4.538   3.112   5.771 -0.6078  0.7824 -0.0274
 9515SOL     OW40006   2.964   4.097   9.895 -0.2690 -0.1057 -0.5335
 9515SOL    HW140007   2.936   4.170   9.840  0.1658 -0.2449 -0.9493
 9515SOL    HW240008   2.886   4.042   9.887 -1.7739  1.4177  3.5832
 9516SOL     OW40009   3.512   2.593  15.270  0.0930 -0.1263  0.2952
 9516SOL    HW140010   3.462   2.619  15.348 -0.7295  2.0356 -0.9733
 9516SOL    HW240011   3.599   2.620  15.299 -0.5474 -0.2626  2.3733
 9517SOL     OW40012   1.648   2.402   5.673  0.1845 -0.0698  0.6471
 9517SOL    HW140013   1.615   2.483   5.712  3.3556  0.5754  1.9701
 9517SOL    HW240014   1.722   2.437   5.624 -0.1759 -0.5729 -0.2549
 9518SOL     OW40015   0.432   0.085   6.141  0.2889  0.1527 -0.3989
 9518SOL    HW140016   0.398   4.718   6.163  1.1046  0.4473  2.1022
 9518SOL    HW240017   0.351   0.132   6.121 -0.9189 -1.8583 -0.1849
 9519SOL     OW40018   2.787   1.689   4.727  0.3692 -0.1631  0.0834
 9519SOL    HW140019   2.794   1.781   4.704  0.7537 -0.2349 -0.0790
 9519SOL    HW240020   2.861   1.682   4.789 -0.2625  0.9369  0.9611
 9520SOL     OW40021   1.388   4.278   7.690  0.6892 -0.0571 -0.5472
 9520SOL    HW140022   1.308   4.284   7.742  1.2948  3.3154 -0.0324
 9520SOL    HW240023   1.435   4.239   7.763  1.9266  0.0502 -1.2855
 9521SOL     OW40024   1.870   4.435   2.654  0.2574 -0.1437  0.0605
 9521SOL    HW140025   1.837   4.494   2.722  0.8439  1.5684 -1.1631
 9521SOL    HW240026   1.957   4.468   2.634  0.9586 -1.8478  0.2760
 9522SOL     OW40027   0.467   0.515   6.234  0.0892 -0.0758 -0.5800
 9522SOL    HW140028   0.485   0.602   6.198 -1.0540  0.8261  1.0170
 9522SOL    HW240029   0.373   0.517   6.252  0.4232  3.0142  0.6767
 9523SOL     OW40030   2.420   2.856   6.095  0.5395 -0.0197 -0.7097
 9523SOL    HW140031   2.432   2.780   6.039 -0.4544  1.0182 -2.3138
 9523SOL    HW240032   2.417   2.925   6.028 -1.4515 -1.2306 -1.8726
 9524SOL     OW40033   0.501   0.753   2.332  0.0024 -0.3716  0.4254
 9524SOL    HW140034   0.563   0.728   2.401 -2.0990  0.5993  2.6586
 9524SOL    HW240035   0.561   0.759   2.258  1.8849 -1.6773  1.8271
 9525SOL     OW40036   4.431   3.313   5.961 -0.0762 -0.0826 -0.1731
 9525SOL    HW140037   4.433   3.369   5.883  1.4750 -0.3426 -0.3136
 9525SOL    HW240038   4.338   3.324   5.982 -0.1191  1.6208 -1.2390
 9526SOL     OW40039   0.312   1.901   4.392  0.4619 -0.2335  0.3770
 9526SOL    HW140040   0.365   1.971   4.430 -0.9587  1.4111 -0.6614
 9526SOL    HW240041   0.295   1.938   4.305  1.5522  1.2644  0.7993
 9527SOL     OW40042   2.411   2.750  17.149  0.3356  0.0588  0.1168
 9527SOL    HW140043   2.502   2.739  17.177  0.5792  1.5637 -0.0511
 9527SOL    HW240044   2.403   2.845  17.142  0.8771  0.0330 -0.9311
 9528SOL     OW40045   0.010   2.298  14.190 -0.4920 -0.1305 -0.2532
 9528SOL    HW140046   4.712   2.333  14.103 -3.2129 -1.6002 -0.3171
 9528SOL    HW240047   4.660   2.232  14.199 -0.7105  0.1764  0.3060
 9529SOL     OW40048   3.043   2.232  15.576 -0.6738  0.7487  0.0454
 9529SOL    HW140049   2.978   2.293  15.540  0.0196  0.7244 -1.2320
 9529SOL    HW240050   3.126   2.242  15.531 -0.4546 -2.1103 -0.1921
 9530SOL     OW40051   2.882   1.004   6.224  0.6484  0.2905  0.3044
 9530SOL    HW140052   2.836   0.922   6.239 -2.2668  1.9317  0.3173
 9530SOL    HW240053   2.812   1.069   6.225  2.8379  2.6449 -0.2414
 9531SOL     OW40054   2.381   0.708   2.497  0.5733  0.3252  0.3766
 9531SOL    HW140055   2.376   0.746   2.584  2.0195 -0.5475  0.8437
 9531SOL    HW240056   2.316   0.762   2.453 -0.1658 -0.2652  0.7554
 9532SOL     OW40057   1.963   3.985   8.329  0.2978 -0.4716  0.0085
 9532SOL    HW140058   2.004   4.069   8.309 -0.0410  0.1965  2.0467
 9532SOL    HW240059   1.968   3.973   8.424  1.6436 -1.6003 -0.2051
 9533SOL     OW40060   3.352   0.965   6.131  0.4847  0.4206 -0.1769
 9533SOL    HW140061   3.336   0.894   6.193  0.4689  0.9015  0.3777
 9533SOL    HW240062   3.258   0.985   6.133  0.2027 -0.9069 -0.5110
 9534SOL     OW40063   1.600   0.752  13.526  0.0507 -0.5880 -0.3276
 9534SOL    HW140064   1.566   0.664  13.507 -0.2183 -0.5417 -0.0444
 9534SOL    HW240065   1.572   0.770  13.615  0.7345  0.2145 -0.2771
 9535SOL     OW40066   1.937   0.890   1.476  0.5958  0.4734  0.0415
 9535SOL    HW140067   1.901   0.802   1.466 -0.0038  0.7446 -0.1577
 9535SOL    HW240068   2.007   0.878   1.540  1.0951  0.7210 -0.4596
 9536SOL     OW40069   1.858   3.605   6.339  0.1522  0.4396  0.1423
 9536SOL    HW140070   1.915   3.610   6.262  0.2722 -2.5002  0.0625
 9536SOL    HW240071   1.905   3.663   6.400 -0.7014 -0.1478  1.3576
 9537SOL     OW40072   2.774   3.632  13.032 -0.4444  0.4876 -0.5087
 9537SOL    HW140073   2.863   3.652  13.003 -0.8488  1.4974 -1.0585
 9537SOL    HW240074   2.745   3.718  13.063  1.7897  0.1930  2.3995
 9538SOL     OW40075   2.232   0.892   8.361  0.4914 -0.1618  0.4126
 9538SOL    HW140076   2.161   0.903   8.424  2.6286  0.0342  2.7705
 9538SOL    HW240077   2.229   0.976   8.316  3.1361 -1.1515 -1.5923
 9539SOL     OW40078   3.520   3.534   5.006  0.1068  0.3961 -0.0927
 9539SOL    HW140079   3.460   3.604   4.977 -2.1199 -0.4253  2.5561
 9539SOL    HW240080   3.456   3.463   5.015  0.1827  0.4448  0.8053
 9540SOL     OW40081   2.228   3.864   6.126 -0.3603 -0.2703  0.5372
 9540SOL    HW140082   2.265   3.944   6.162 -3.1338  0.1095  2.5207
 9540SOL    HW240083   2.276   3.862   6.043  1.0311  0.2307  1.3391
 9541SOL     OW40084   3.055   0.721   3.083  0.0165 -0.2839 -0.2006
 9541SOL    HW140085   3.132   0.696   3.033 -0.4021 -3.7443  0.8625
 9541SOL    HW240086   3.009   0.784   3.028  0.5777  0.7498  0.5310
 9542SOL     OW40087   4.454   1.704   1.863 -0.1298 -0.5265 -0.0601
 9542SOL    HW140088   4.523   1.767   1.843 -0.6224  0.1825  0.4805
 9542SOL    HW240089   4.495   1.621   1.886  1.5312  0.4290  0.3797
 9543SOL     OW40090   4.419   3.245   8.590 -0.1445  0.4629  0.0612
 9543SOL    HW140091   4.465   3.188   8.528 -1.3281  0.8613 -1.1796
 9543SOL    HW240092   4.410   3.177   8.656  2.5074 -0.4242 -0.4990
 9544SOL     OW40093   1.874   4.165   3.954  0.5333  0.0880  0.3927
 9544SOL    HW140094   1.844   4.118   3.876 -0.8222 -1.1377  1.6359
 9544SOL    HW240095   1.821   4.128   4.026 -1.6197  1.8354 -0.2687
 9545SOL     OW40096   1.272   4.128   3.165  0.8547  0.6592 -0.3216
 9545SOL    HW140097   1.343   4.172   3.212  0.1435  0.1729  1.2136
 9545SOL    HW240098   1.198   4.167   3.212  0.4605 -1.2056  0.5742
 9546SOL     OW40099   0.499   1.423  15.252 -0.4498 -0.0910  0.0016
 9546SOL    HW140100   0.502   1.397  15.159 -1.4140 -0.3357  0.0372
 9546SOL    HW240101   0.475   1.515  15.245 -0.6776 -0.1239  0.3450
 9547SOL     OW40102   2.736   1.092  12.477  0.3226  0.1286  0.3252
 9547SOL    HW140103   2.785   1.011  12.462 -1.3160 -1.1400  1.9380
 9547SOL    HW240104   2.744   1.097  12.572 -2.5432 -2.2508  0.6682
 9548SOL     OW40105   4.251   2.687  17.506  0.6448 -0.0398  0.0814
 9548SOL    HW140106   4.280   2.661  17.593  0.8336 -1.1964 -0.3346
 9548SOL    HW240107   4.259   2.601  17.465  1.4429  0.9533 -1.8756
 9549SOL     OW40108   2.612   3.881   2.927 -0.6634 -0.1813 -0.2265
 9549SOL    HW140109   2.550   3.954   2.928 -0.8323 -0.3148 -0.8821
 9549SOL    HW240110   2.656   3.904   3.009 -1.9110 -2.0078  0.9682
 9550SOL     OW40111   1.256   0.027   8.203 -0.0798 -0.2124 -0.7630
 9550SOL    HW140112   1.262   0.055   8.112  0.8086 -0.5474 -0.8144
 9550SOL    HW240113   1.189   0.083   8.241  0.2871 -1.6331  1.9671
 9551SOL     OW40114   0.107   4.063  13.382  0.7511 -0.4670  0.5144
 9551SOL    HW140115   0.104   4.016  13.299 -1.8004  0.6372 -0.0450
 9551SOL    HW240116   0.016   4.045  13.407  0.1325 -1.4547 -2.5489
 9552SOL     OW40117   3.618   3.224   5.791 -0.4341  0.0349 -0.4101
 9552SOL    HW140118   3.632   3.175   5.872 -1.4848  1.6190  0.7430
 9552SOL    HW240119   3.674   3.175   5.731  0.6828 -0.4699  1.0576
 9553SOL     OW40120   3.805   2.064  11.650 -0.5774  0.2077  0.1487
 9553SOL    HW140121   3.829   2.005  11.721  0.2890  0.1424 -0.2009
 9553SOL    HW240122   3.791   2.003  11.578 -0.8829 -1.5503  1.7120
 9554SOL     OW40123   3.677   1.805  11.799 -0.0513  0.0121  0.3613
 9554SOL    HW140124   3.712   1.784  11.712  0.0502  0.8487  0.1999
 9554SOL    HW240125   3.757   1.820  11.850  0.8301  0.7722 -1.2250
 9555SOL     OW40126   0.331   4.128  11.357  0.0486  0.1872  0.3861
 9555SOL    HW140127   0.315   4.044  11.315 -1.5218 -0.9575  3.2418
 9555SOL    HW240128   0.301   4.176  11.280  0.6555 -3.1211 -1.9103
 9556SOL     OW40129   1.825   4.024   4.663 -0.0015  0.1286 -0.3004
 9556SOL    HW140130   1.777   4.013   4.746  0.9976 -3.6682 -0.2193
 9556SOL    HW240131   1.849   3.934   4.642 -0.6425 -0.0685 -0.1941
 9557SOL     OW40132   2.140   2.509   3.658 -0.5195  0.4134  0.2866
 9557SOL    HW140133   2.170   2.598   3.675 -1.1777  0.0616  3.2949
 9557SOL    HW240134   2.114   2.508   3.566 -2.3315 -0.9692  0.7969
 9558SOL     OW40135   1.836   2.365   0.227  0.0267 -0.4335  0.4391
 9558SOL    HW140136   1.874   2.326   0.306 -0.2710  2.8873  2.2701
 9558SOL    HW240137   1.749   2.327   0.215  0.4121 -0.9008 -0.8018
 9559SOL     OW40138   3.759   4.388  13.003 -1.0108 -0.2321  0.7344
 9559SOL    HW140139   3.821   4.340  12.949 -2.4767  0.6007 -1.7131
 9559SOL    HW240140   3.810   4.459  13.042 -0.2892 -0.7150  0.6597
 9560SOL     OW40141   1.092   3.377   5.540  0.4684  0.3711 -0.1205
 9560SOL    HW140142   1.013   3.414   5.579  0.6482 -0.2391  0.8345
 9560SOL    HW240143   1.059   3.306   5.484  0.2353  0.4624 -0.0969
 9561SOL     OW40144   3.376   4.094  12.387 -0.4473  0.4267  0.0292
 9561SOL    HW140145   3.416   4.083  12.473  1.1414 -0.0704 -0.7807
 9561SOL    HW240146   3.323   4.014  12.383 -0.6896  0.4453  2.9068
 9562SOL     OW40147   3.021   3.909   3.153 -0.9834  0.2253 -0.6021
 9562SOL    HW140148   3.050   3.936   3.240 -1.6071  1.5901 -0.8020
 9562SOL    HW240149   3.014   3.814   3.159  0.2656  0.1230 -0.7960
 9563SOL     OW40150   1.788   2.800   0.253  0.1057 -0.1645  0.1387
 9563SOL    HW140151   1.876   2.828   0.276  0.8835 -1.2475 -1.5363
 9563SOL    HW240152   1.732   2.853   0.310 -0.8069  1.1964 -2.0069
 9564SOL     OW40153   1.667   1.862   6.285  0.0947 -0.7259  0.0734
 9564SOL    HW140154   1.709   1.945   6.263  2.1908 -1.6228  0.6518
 9564SOL    HW240155   1.592   1.858   6.226  0.3225  0.1495 -0.2762
 9565SOL     OW40156   0.536   0.779   7.594  0.0535  0.0724  0.2986
 9565SOL    HW140157   0.478   0.841   7.550  1.4267  1.0291 -0.1705
 9565SOL    HW240158   0.590   0.754   7.519 -0.1569  1.4256 -0.3029
 9566SOL     OW40159   1.507   1.693  11.252  0.5392 -0.3223 -0.1245
 9566SOL    HW140160   1.439   1.698  11.319  0.9451 -0.7476  0.3148
 9566SOL    HW240161   1.584   1.732  11.293  0.4505 -2.3354  1.9520
 9567SOL     OW40162   2.912   1.517   9.822  0.4986 -0.4402  0.4832
 9567SOL    HW140163   2.983   1.453   9.817  0.2903 -0.5260 -1.5336
 9567SOL    HW240164   2.910   1.546   9.913  0.3755  1.4320 -0.1322
 9568SOL     OW40165   0.823   0.284   7.985  0.1534  0.2680  0.5153
 9568SOL    HW140166   0.851   0.313   7.899 -2.3102  0.5627 -0.1742
 9568SOL    HW240167   0.765   0.354   8.015 -0.5872  0.7419 -2.0727
   4.71972   4.71972  17.68161
